                         Program Version 6.0.0  -   RELEASE  -
|  1> ! pbe def2-sv(p) def2/J RI DEFGRID1 loosescf d4 GCP(DFT/SV(P)) printgap
|  2> %output
|  3>     printlevel normal
|  4> end
|  5> * xyz 0 1
|  6> C 2.3901628754 -0.8096564551 3.426274013
|  7> C 1.2061386181 -0.8968273512 2.4861417565
|  8> O 1.3130741457 0.0920474243 1.4479059442
|  9> P 2.1612679527 -0.1127546971 0.1261937264
| 10> S 2.8035468788 -1.944191338 -0.1710076704
| 11> O 3.2382343596 1.0297519782 0.348437616
| 12> C 4.0148457509 1.6666321118 -0.6829895061
| 13> C 4.7451209476 0.6773342713 -1.5675960232
| 14> S 0.9112199292 0.7030860867 -1.3842105736
| 15> C 0.0455196276 -0.8348245769 -1.7934921233
| 16> S -0.8689208445 -1.5333776535 -0.394554309
| 17> P -2.17017616 0.1206864873 -0.099470679
| 18> S -2.7542051878 1.0638844685 -1.7193228099
| 19> O -1.4013540238 1.016578719 0.9556886436
| 20> C -1.270081991 2.4442125588 0.8484852432
| 21> C -2.4718636097 3.1332209468 1.4606152209
| 22> O -3.2813768274 -0.4744361856 0.8618128584
| 23> C -4.0164898917 -1.6928421869 0.6438799506
| 24> C -4.6867837501 -1.7420320132 -0.7137053325
| 25> H 3.3051046117 -1.0368451989 2.8804777898
| 26> H 2.4685820758 0.191807133 3.8401587335
| 27> H 2.2676909506 -1.5279535135 4.2305546833
| 28> H 0.2641992168 -0.6641354808 2.9860514517
| 29> H 1.1440662527 -1.8905757746 2.0290945827
| 30> H 3.3439069429 2.2947536367 -1.2760595694
| 31> H 4.7126779813 2.2944674685 -0.1259097802
| 32> H 5.3837159162 1.2165722178 -2.2598693353
| 33> H 5.3527259554 0.0059696687 -0.965318325
| 34> H 4.0314983463 0.0812606673 -2.1349141677
| 35> H 0.7663191138 -1.5935728602 -2.0966474007
| 36> H -0.6453751855 -0.5905120553 -2.5998265035
| 37> H -0.3465225028 2.6741352156 1.3829854821
| 38> H -1.1611347293 2.7170727079 -0.2069706541
| 39> H -2.5989664979 2.8200922209 2.4931339417
| 40> H -2.331384218 4.2086102099 1.4205754645
| 41> H -3.3675518981 2.8687556717 0.9001975793
| 42> H -3.327851536 -2.5337814598 0.7666381861
| 43> H -4.7506983248 -1.6956481812 1.4516026841
| 44> H -5.3114311899 -0.8640008945 -0.8604464647
| 45> H -3.9368807258 -1.7677003286 -1.5032454772
| 46> H -5.3001437648 -2.6348740271 -0.7802922119
| 47> *
| 48>
| 49>                          ****END OF INPUT****

CARTESIAN COORDINATES (ANGSTROEM)
---------------------------------
  C      2.390163   -0.809656    3.426274
  C      1.206139   -0.896827    2.486142
  O      1.313074    0.092047    1.447906
  P      2.161268   -0.112755    0.126194
  S      2.803547   -1.944191   -0.171008
  O      3.238234    1.029752    0.348438
  C      4.014846    1.666632   -0.682990
  C      4.745121    0.677334   -1.567596
  S      0.911220    0.703086   -1.384211
  C      0.045520   -0.834825   -1.793492
  S     -0.868921   -1.533378   -0.394554
  P     -2.170176    0.120686   -0.099471
  S     -2.754205    1.063884   -1.719323
  O     -1.401354    1.016579    0.955689
  C     -1.270082    2.444213    0.848485
  C     -2.471864    3.133221    1.460615
  O     -3.281377   -0.474436    0.861813
  C     -4.016490   -1.692842    0.643880
  C     -4.686784   -1.742032   -0.713705
  H      3.305105   -1.036845    2.880478
  H      2.468582    0.191807    3.840159
  H      2.267691   -1.527954    4.230555
  H      0.264199   -0.664135    2.986051
  H      1.144066   -1.890576    2.029095
  H      3.343907    2.294754   -1.276060
  H      4.712678    2.294467   -0.125910
  H      5.383716    1.216572   -2.259869
  H      5.352726    0.005970   -0.965318
  H      4.031498    0.081261   -2.134914
  H      0.766319   -1.593573   -2.096647
  H     -0.645375   -0.590512   -2.599827
  H     -0.346523    2.674135    1.382985
  H     -1.161135    2.717073   -0.206971
  H     -2.598966    2.820092    2.493134
  H     -2.331384    4.208610    1.420575
  H     -3.367552    2.868756    0.900198
  H     -3.327852   -2.533781    0.766638
  H     -4.750698   -1.695648    1.451603
  H     -5.311431   -0.864001   -0.860446
  H     -3.936881   -1.767700   -1.503245
  H     -5.300144   -2.634874   -0.780292

 Total Charge           Charge          ....    0
 Multiplicity           Mult            ....    1
 Number of Electrons    NEL             ....  202
 Basis Dimension        Dim             ....  334

ORBITAL ENERGIES
----------------

  NO   OCC          E(Eh)            E(eV)
   0   2.0000     -88.045201     -2395.8317
   1   2.0000     -88.044780     -2395.8203
   2   2.0000     -87.988104     -2394.2780
   3   2.0000     -87.988010     -2394.2755
   4   2.0000     -76.427403     -2079.6954
   5   2.0000     -76.427236     -2079.6908
   6   2.0000     -18.794440      -511.4227
   7   2.0000     -18.794132      -511.4143
   8   2.0000     -18.784920      -511.1637
   9   2.0000     -18.784676      -511.1570
  10   2.0000      -9.959352      -271.0077
  11   2.0000      -9.959054      -270.9996
  12   2.0000      -9.957120      -270.9470
  13   2.0000      -9.943986      -270.5896
  14   2.0000      -9.943558      -270.5780
  15   2.0000      -9.884487      -268.9706
  16   2.0000      -9.884208      -268.9630
  17   2.0000      -9.878781      -268.8153
  18   2.0000      -9.878413      -268.8053
  19   2.0000      -7.689814      -209.2505
  20   2.0000      -7.689397      -209.2391
  21   2.0000      -7.633037      -207.7055
  22   2.0000      -7.632938      -207.7028
  23   2.0000      -6.424474      -174.8188
  24   2.0000      -6.424287      -174.8137
  25   2.0000      -5.717573      -155.5831
  26   2.0000      -5.717178      -155.5723
  27   2.0000      -5.714365      -155.4958
  28   2.0000      -5.713932      -155.4840
  29   2.0000      -5.706913      -155.2930
  30   2.0000      -5.706493      -155.2816
  31   2.0000      -5.661870      -154.0673
  32   2.0000      -5.661765      -154.0645
  33   2.0000      -5.653704      -153.8451
  34   2.0000      -5.653584      -153.8418
  35   2.0000      -5.653261      -153.8330
  36   2.0000      -5.653190      -153.8311
  37   2.0000      -4.646838      -126.4469
  38   2.0000      -4.646652      -126.4418
  39   2.0000      -4.646438      -126.4360
  40   2.0000      -4.646255      -126.4310
  41   2.0000      -4.645005      -126.3970
  42   2.0000      -4.644813      -126.3918
  43   2.0000      -0.986841       -26.8533
  44   2.0000      -0.985574       -26.8188
  45   2.0000      -0.944126       -25.6910
  46   2.0000      -0.942370       -25.6432
  47   2.0000      -0.766931       -20.8692
  48   2.0000      -0.720541       -19.6069
  49   2.0000      -0.709525       -19.3072
  50   2.0000      -0.686378       -18.6773
  51   2.0000      -0.683278       -18.5929
  52   2.0000      -0.673277       -18.3208
  53   2.0000      -0.653096       -17.7716
  54   2.0000      -0.641637       -17.4598
  55   2.0000      -0.598728       -16.2922
  56   2.0000      -0.595505       -16.2045
  57   2.0000      -0.574506       -15.6331
  58   2.0000      -0.569086       -15.4856
  59   2.0000      -0.563288       -15.3278
  60   2.0000      -0.500210       -13.6114
  61   2.0000      -0.490246       -13.3403
  62   2.0000      -0.470318       -12.7980
  63   2.0000      -0.468092       -12.7374
  64   2.0000      -0.460288       -12.5251
  65   2.0000      -0.444484       -12.0950
  66   2.0000      -0.436264       -11.8714
  67   2.0000      -0.434417       -11.8211
  68   2.0000      -0.426970       -11.6184
  69   2.0000      -0.419119       -11.4048
  70   2.0000      -0.414645       -11.2831
  71   2.0000      -0.390455       -10.6248
  72   2.0000      -0.388165       -10.5625
  73   2.0000      -0.386214       -10.5094
  74   2.0000      -0.383125       -10.4254
  75   2.0000      -0.381439       -10.3795
  76   2.0000      -0.372374       -10.1328
  77   2.0000      -0.355282        -9.6677
  78   2.0000      -0.348024        -9.4702
  79   2.0000      -0.347386        -9.4529
  80   2.0000      -0.346596        -9.4314
  81   2.0000      -0.344279        -9.3683
  82   2.0000      -0.341465        -9.2917
  83   2.0000      -0.339704        -9.2438
  84   2.0000      -0.330722        -8.9994
  85   2.0000      -0.320056        -8.7092
  86   2.0000      -0.311281        -8.4704
  87   2.0000      -0.297420        -8.0932
  88   2.0000      -0.296868        -8.0782
  89   2.0000      -0.283955        -7.7268
  90   2.0000      -0.281845        -7.6694
  91   2.0000      -0.277830        -7.5601
  92   2.0000      -0.271486        -7.3875
  93   2.0000      -0.265925        -7.2362
  94   2.0000      -0.251794        -6.8517
  95   2.0000      -0.233486        -6.3535
  96   2.0000      -0.221119        -6.0170
  97   2.0000      -0.213534        -5.8106
  98   2.0000      -0.207366        -5.6427
  99   2.0000      -0.199357        -5.4248
 100   2.0000      -0.198396        -5.3986
 101   0.0000      -0.048345        -1.3155
 102   0.0000      -0.025845        -0.7033
 103   0.0000      -0.005417        -0.1474
 104   0.0000      -0.000658        -0.0179
 105   0.0000       0.007686         0.2092

MULLIKEN ATOMIC CHARGES
-----------------------
   0 C :   -0.291753
   1 C :   -0.009272
   2 O :   -0.351958
   3 P :    0.615641
   4 S :   -0.334021
   5 O :   -0.368251
   6 C :   -0.011337
   7 C :   -0.310803
   8 S :   -0.100188
   9 C :   -0.342797
  10 S :   -0.100523
  11 P :    0.614501
  12 S :   -0.334236
  13 O :   -0.351420
  14 C :   -0.010349
  15 C :   -0.289509
  16 O :   -0.367064
  17 C :   -0.012366
  18 C :   -0.309243
  19 H :    0.118493
  20 H :    0.111718
  21 H :    0.108189
  22 H :    0.102808
  23 H :    0.113114
  24 H :    0.114507
  25 H :    0.110103
  26 H :    0.112011
  27 H :    0.126671
  28 H :    0.125223
  29 H :    0.190660
  30 H :    0.190970
  31 H :    0.102273
  32 H :    0.113347
  33 H :    0.111601
  34 H :    0.107710
  35 H :    0.117830
  36 H :    0.114914
  37 H :    0.110049
  38 H :    0.126369
  39 H :    0.124631
  40 H :    0.111756
Sum of atomic charges:   -0.0000000

LOEWDIN ATOMIC CHARGES
----------------------
   0 C :   -0.361007
   1 C :   -0.123031
   2 O :   -0.229226
   3 P :    0.571686
   4 S :   -0.318317
   5 O :   -0.242276
   6 C :   -0.114161
   7 C :   -0.369493
   8 S :    0.085847
   9 C :   -0.477676
  10 S :    0.084303
  11 P :    0.571492
  12 S :   -0.318345
  13 O :   -0.228815
  14 C :   -0.123685
  15 C :   -0.360429
  16 O :   -0.241554
  17 C :   -0.114433
  18 C :   -0.369163
  19 H :    0.122918
  20 H :    0.124025
  21 H :    0.128575
  22 H :    0.116294
  23 H :    0.104945
  24 H :    0.109413
  25 H :    0.121898
  26 H :    0.130245
  27 H :    0.129891
  28 H :    0.120952
  29 H :    0.130884
  30 H :    0.130870
  31 H :    0.115642
  32 H :    0.104234
  33 H :    0.123964
  34 H :    0.128390
  35 H :    0.123133
  36 H :    0.109296
  37 H :    0.121883
  38 H :    0.129856
  39 H :    0.120845
  40 H :    0.130132

  Mayer bond orders larger than 0.100000
B(  0-C ,  1-C ) :   1.1627 B(  0-C , 19-H ) :   0.9400 B(  0-C , 20-H ) :   0.9478
B(  0-C , 21-H ) :   0.9415 B(  1-C ,  2-O ) :   0.8996 B(  1-C , 22-H ) :   0.9312
B(  1-C , 23-H ) :   0.9073 B(  2-O ,  3-P ) :   1.1317 B(  3-P ,  4-S ) :   1.5895
B(  3-P ,  5-O ) :   1.1255 B(  3-P ,  8-S ) :   0.9342 B(  4-S ,  8-S ) :   0.1077
B(  5-O ,  6-C ) :   0.9146 B(  6-C ,  7-C ) :   1.1636 B(  6-C , 24-H ) :   0.9272
B(  6-C , 25-H ) :   0.9341 B(  7-C , 26-H ) :   0.9351 B(  7-C , 27-H ) :   0.9428
B(  7-C , 28-H ) :   0.9338 B(  8-S ,  9-C ) :   1.0065 B(  9-C , 10-S ) :   1.0081
B(  9-C , 29-H ) :   0.8845 B(  9-C , 30-H ) :   0.8843 B( 10-S , 11-P ) :   0.9327
B( 10-S , 12-S ) :   0.1080 B( 11-P , 12-S ) :   1.5892 B( 11-P , 13-O ) :   1.1334
B( 11-P , 16-O ) :   1.1275 B( 13-O , 14-C ) :   0.8996 B( 14-C , 15-C ) :   1.1622
B( 14-C , 31-H ) :   0.9310 B( 14-C , 32-H ) :   0.9063 B( 15-C , 33-H ) :   0.9480
B( 15-C , 34-H ) :   0.9416 B( 15-C , 35-H ) :   0.9409 B( 16-O , 17-C ) :   0.9149
B( 17-C , 18-C ) :   1.1637 B( 17-C , 36-H ) :   0.9268 B( 17-C , 37-H ) :   0.9341
B( 18-C , 38-H ) :   0.9430 B( 18-C , 39-H ) :   0.9338 B( 18-C , 40-H ) :   0.9352

Dispersion correction           -0.067710293
FINAL SINGLE POINT ENERGY     -2929.523078914875

DIPOLE MOMENT
-------------

Method             : SCF
Type of density    : Electron Density
Multiplicity       :   1
Irrep              :   0
Energy             : -2929.6400726255305926 Eh
Relativity type    :
Basis              : AO
                                X                 Y                 Z
Electronic contribution:      0.040299996      -4.089055631      -8.538225751
Nuclear contribution   :     -0.031777149       4.358174515       9.116007682
                        -----------------------------------------
Total Dipole Moment    :      0.008522846       0.269118884       0.577781931
                        -----------------------------------------
Magnitude (a.u.)       :      0.637439858
Magnitude (Debye)      :      1.620243356

Rotational constants in cm-1:             0.012427             0.005197             0.005082
Rotational constants in MHz :           372.559093           155.788305           152.345347

                             ****ORCA TERMINATED NORMALLY****
TOTAL RUN TIME: 0 days 0 hours 0 minutes 22 seconds 10 msec
