                         Program Version 6.0.0  -   RELEASE  -
|  1> ! pbe def2-sv(p) def2/J RI DEFGRID1 loosescf d4 GCP(DFT/SV(P)) printgap
|  2> %output
|  3>     printlevel normal
|  4> end
|  5> * xyz 0 1
|  6> C 1.2437153817 -0.3810472781 -3.4492201132
|  7> C 1.8421102308 -0.963768195 -2.1867973454
|  8> O 1.9543776447 0.1062827622 -1.2147367803
|  9> P 2.1962452276 -0.1572510147 0.3189257774
| 10> S 2.4642989893 1.513332044 1.2985431597
| 11> O 3.4223918723 -1.1711876183 0.2347713195
| 12> C 3.8984399957 -2.0158792215 1.2995406103
| 13> C 4.2844838753 -1.2409990383 2.54184721
| 14> S 0.6440146076 -1.4249809065 1.0409101841
| 15> C -0.3245768 -0.2351039042 2.0208393695
| 16> S -2.0694777555 -0.220580969 1.571596719
| 17> P -1.8443859679 0.5790666703 -0.3911892669
| 18> S -0.5934499418 2.0753189102 -0.5793686724
| 19> O -3.3489558623 0.7891359291 -0.8522422918
| 20> C -4.3631742256 1.466931704 -0.0873726544
| 21> C -3.9524987209 2.8653186329 0.3222370663
| 22> O -1.3841517506 -0.6140517488 -1.3139815688
| 23> C -2.1284197031 -1.8533298387 -1.4427513644
| 24> C -2.8994405747 -1.8691372338 -2.7460648995
| 25> H 0.262436117 0.0351998522 -3.2344497548
| 26> H 1.879027347 0.4141558143 -3.8288829959
| 27> H 1.1531035128 -1.1628626881 -4.196362277
| 28> H 2.843241311 -1.363373992 -2.3598751254
| 29> H 1.2047792615 -1.747256306 -1.7656847824
| 30> H 3.1205171841 -2.7502741474 1.5261084082
| 31> H 4.7627031975 -2.5153598455 0.8579939586
| 32> H 4.7150568361 -1.9210669769 3.269671566
| 33> H 5.008694228 -0.4678398072 2.2967631207
| 34> H 3.4093410775 -0.7601976172 2.9757063031
| 35> H 0.1110075744 0.7592809216 1.8816655635
| 36> H -0.2842348577 -0.5390943282 3.0638341367
| 37> H -5.2226093753 1.4856491556 -0.7598353957
| 38> H -4.5904643375 0.8577944079 0.791834847
| 39> H -3.6678587224 3.4488969258 -0.5502489326
| 40> H -4.7801195184 3.3524661877 0.8275826425
| 41> H -3.0986259031 2.8244843564 0.9975043983
| 42> H -1.371779638 -2.6400173774 -1.4131059983
| 43> H -2.7964735483 -1.9589494989 -0.5837439734
| 44> H -3.6238898848 -1.0591182917 -2.7620620249
| 45> H -2.2203267405 -1.7468821873 -3.5852063382
| 46> H -3.4183083557 -2.8178700939 -2.839406133
| 47> *
| 48>
| 49>                          ****END OF INPUT****

CARTESIAN COORDINATES (ANGSTROEM)
---------------------------------
  C      1.243715   -0.381047   -3.449220
  C      1.842110   -0.963768   -2.186797
  O      1.954378    0.106283   -1.214737
  P      2.196245   -0.157251    0.318926
  S      2.464299    1.513332    1.298543
  O      3.422392   -1.171188    0.234771
  C      3.898440   -2.015879    1.299541
  C      4.284484   -1.240999    2.541847
  S      0.644015   -1.424981    1.040910
  C     -0.324577   -0.235104    2.020839
  S     -2.069478   -0.220581    1.571597
  P     -1.844386    0.579067   -0.391189
  S     -0.593450    2.075319   -0.579369
  O     -3.348956    0.789136   -0.852242
  C     -4.363174    1.466932   -0.087373
  C     -3.952499    2.865319    0.322237
  O     -1.384152   -0.614052   -1.313982
  C     -2.128420   -1.853330   -1.442751
  C     -2.899441   -1.869137   -2.746065
  H      0.262436    0.035200   -3.234450
  H      1.879027    0.414156   -3.828883
  H      1.153104   -1.162863   -4.196362
  H      2.843241   -1.363374   -2.359875
  H      1.204779   -1.747256   -1.765685
  H      3.120517   -2.750274    1.526108
  H      4.762703   -2.515360    0.857994
  H      4.715057   -1.921067    3.269672
  H      5.008694   -0.467840    2.296763
  H      3.409341   -0.760198    2.975706
  H      0.111008    0.759281    1.881666
  H     -0.284235   -0.539094    3.063834
  H     -5.222609    1.485649   -0.759835
  H     -4.590464    0.857794    0.791835
  H     -3.667859    3.448897   -0.550249
  H     -4.780120    3.352466    0.827583
  H     -3.098626    2.824484    0.997504
  H     -1.371780   -2.640017   -1.413106
  H     -2.796474   -1.958949   -0.583744
  H     -3.623890   -1.059118   -2.762062
  H     -2.220327   -1.746882   -3.585206
  H     -3.418308   -2.817870   -2.839406

 Total Charge           Charge          ....    0
 Multiplicity           Mult            ....    1
 Number of Electrons    NEL             ....  202
 Basis Dimension        Dim             ....  334

ORBITAL ENERGIES
----------------

  NO   OCC          E(Eh)            E(eV)
   0   2.0000     -88.046386     -2395.8640
   1   2.0000     -88.041609     -2395.7340
   2   2.0000     -87.977437     -2393.9878
   3   2.0000     -87.975735     -2393.9415
   4   2.0000     -76.424421     -2079.6142
   5   2.0000     -76.419318     -2079.4754
   6   2.0000     -18.796383      -511.4756
   7   2.0000     -18.791597      -511.3454
   8   2.0000     -18.787886      -511.2444
   9   2.0000     -18.779715      -511.0220
  10   2.0000      -9.961570      -271.0681
  11   2.0000      -9.956881      -270.9405
  12   2.0000      -9.954612      -270.8788
  13   2.0000      -9.953233      -270.8412
  14   2.0000      -9.946168      -270.6490
  15   2.0000      -9.889599      -269.1097
  16   2.0000      -9.883490      -268.9434
  17   2.0000      -9.879258      -268.8283
  18   2.0000      -9.875369      -268.7225
  19   2.0000      -7.691401      -209.2937
  20   2.0000      -7.686219      -209.1527
  21   2.0000      -7.622337      -207.4143
  22   2.0000      -7.621005      -207.3781
  23   2.0000      -6.421612      -174.7410
  24   2.0000      -6.416430      -174.5999
  25   2.0000      -5.719139      -155.6257
  26   2.0000      -5.715702      -155.5322
  27   2.0000      -5.713992      -155.4856
  28   2.0000      -5.710594      -155.3932
  29   2.0000      -5.708761      -155.3433
  30   2.0000      -5.703489      -155.1998
  31   2.0000      -5.651531      -153.7860
  32   2.0000      -5.650204      -153.7499
  33   2.0000      -5.642820      -153.5489
  34   2.0000      -5.642398      -153.5375
  35   2.0000      -5.641536      -153.5140
  36   2.0000      -5.640916      -153.4971
  37   2.0000      -4.644508      -126.3835
  38   2.0000      -4.643720      -126.3620
  39   2.0000      -4.641444      -126.3001
  40   2.0000      -4.639115      -126.2367
  41   2.0000      -4.638447      -126.2186
  42   2.0000      -4.636630      -126.1691
  43   2.0000      -0.990608       -26.9558
  44   2.0000      -0.980744       -26.6874
  45   2.0000      -0.946982       -25.7687
  46   2.0000      -0.934801       -25.4372
  47   2.0000      -0.762630       -20.7522
  48   2.0000      -0.719344       -19.5743
  49   2.0000      -0.709826       -19.3153
  50   2.0000      -0.693242       -18.8641
  51   2.0000      -0.683830       -18.6080
  52   2.0000      -0.676151       -18.3990
  53   2.0000      -0.647669       -17.6240
  54   2.0000      -0.631868       -17.1940
  55   2.0000      -0.589480       -16.0406
  56   2.0000      -0.583706       -15.8835
  57   2.0000      -0.576622       -15.6907
  58   2.0000      -0.569741       -15.5034
  59   2.0000      -0.561391       -15.2762
  60   2.0000      -0.507934       -13.8216
  61   2.0000      -0.498125       -13.5547
  62   2.0000      -0.476863       -12.9761
  63   2.0000      -0.468853       -12.7581
  64   2.0000      -0.454336       -12.3631
  65   2.0000      -0.450182       -12.2501
  66   2.0000      -0.441382       -12.0106
  67   2.0000      -0.433759       -11.8032
  68   2.0000      -0.425584       -11.5807
  69   2.0000      -0.412767       -11.2320
  70   2.0000      -0.411364       -11.1938
  71   2.0000      -0.408860       -11.1256
  72   2.0000      -0.397071       -10.8049
  73   2.0000      -0.388018       -10.5585
  74   2.0000      -0.378596       -10.3021
  75   2.0000      -0.362307        -9.8589
  76   2.0000      -0.357775        -9.7356
  77   2.0000      -0.351237        -9.5576
  78   2.0000      -0.348982        -9.4963
  79   2.0000      -0.347502        -9.4560
  80   2.0000      -0.344534        -9.3752
  81   2.0000      -0.343473        -9.3464
  82   2.0000      -0.340172        -9.2565
  83   2.0000      -0.334678        -9.1071
  84   2.0000      -0.329571        -8.9681
  85   2.0000      -0.320695        -8.7265
  86   2.0000      -0.312049        -8.4913
  87   2.0000      -0.298502        -8.1226
  88   2.0000      -0.292740        -7.9658
  89   2.0000      -0.291772        -7.9395
  90   2.0000      -0.286509        -7.7963
  91   2.0000      -0.280053        -7.6206
  92   2.0000      -0.266377        -7.2485
  93   2.0000      -0.262458        -7.1418
  94   2.0000      -0.255208        -6.9445
  95   2.0000      -0.237044        -6.4503
  96   2.0000      -0.222017        -6.0414
  97   2.0000      -0.207560        -5.6480
  98   2.0000      -0.195916        -5.3311
  99   2.0000      -0.187827        -5.1110
 100   2.0000      -0.178829        -4.8662
 101   0.0000      -0.040135        -1.0921
 102   0.0000      -0.029891        -0.8134
 103   0.0000      -0.012323        -0.3353
 104   0.0000       0.010685         0.2908
 105   0.0000       0.019815         0.5392

MULLIKEN ATOMIC CHARGES
-----------------------
   0 C :   -0.290148
   1 C :   -0.011935
   2 O :   -0.344537
   3 P :    0.610755
   4 S :   -0.286659
   5 O :   -0.387612
   6 C :   -0.005473
   7 C :   -0.304682
   8 S :   -0.137574
   9 C :   -0.339731
  10 S :   -0.120789
  11 P :    0.576210
  12 S :   -0.265631
  13 O :   -0.379643
  14 C :   -0.014635
  15 C :   -0.308966
  16 O :   -0.348501
  17 C :   -0.012486
  18 C :   -0.286526
  19 H :    0.138741
  20 H :    0.118297
  21 H :    0.098340
  22 H :    0.103119
  23 H :    0.096750
  24 H :    0.106286
  25 H :    0.104657
  26 H :    0.107180
  27 H :    0.125514
  28 H :    0.119888
  29 H :    0.210059
  30 H :    0.180223
  31 H :    0.109274
  32 H :    0.114007
  33 H :    0.128214
  34 H :    0.111351
  35 H :    0.129919
  36 H :    0.109451
  37 H :    0.097963
  38 H :    0.120789
  39 H :    0.119430
  40 H :    0.109113
Sum of atomic charges:    0.0000000

LOEWDIN ATOMIC CHARGES
----------------------
   0 C :   -0.355449
   1 C :   -0.113377
   2 O :   -0.225875
   3 P :    0.568925
   4 S :   -0.289508
   5 O :   -0.249309
   6 C :   -0.116997
   7 C :   -0.368533
   8 S :    0.054901
   9 C :   -0.479151
  10 S :    0.060515
  11 P :    0.555762
  12 S :   -0.276986
  13 O :   -0.246679
  14 C :   -0.115312
  15 C :   -0.369249
  16 O :   -0.230159
  17 C :   -0.118440
  18 C :   -0.357400
  19 H :    0.129361
  20 H :    0.129389
  21 H :    0.123929
  22 H :    0.111194
  23 H :    0.100664
  24 H :    0.104242
  25 H :    0.118856
  26 H :    0.127871
  27 H :    0.130252
  28 H :    0.119525
  29 H :    0.126249
  30 H :    0.135747
  31 H :    0.121056
  32 H :    0.107699
  33 H :    0.131528
  34 H :    0.130161
  35 H :    0.123167
  36 H :    0.114628
  37 H :    0.102988
  38 H :    0.127307
  39 H :    0.127427
  40 H :    0.129083

  Mayer bond orders larger than 0.100000
B(  0-C ,  1-C ) :   1.1669 B(  0-C , 19-H ) :   0.9348 B(  0-C , 20-H ) :   0.9476
B(  0-C , 21-H ) :   0.9402 B(  1-C ,  2-O ) :   0.8942 B(  1-C , 22-H ) :   0.9296
B(  1-C , 23-H ) :   0.9131 B(  2-O ,  3-P ) :   1.1429 B(  3-P ,  4-S ) :   1.6483
B(  3-P ,  5-O ) :   1.0708 B(  3-P ,  8-S ) :   0.9349 B(  4-S ,  8-S ) :   0.1159
B(  5-O ,  6-C ) :   0.9192 B(  6-C ,  7-C ) :   1.1658 B(  6-C , 24-H ) :   0.9233
B(  6-C , 25-H ) :   0.9337 B(  7-C , 26-H ) :   0.9354 B(  7-C , 27-H ) :   0.9444
B(  7-C , 28-H ) :   0.9335 B(  8-S ,  9-C ) :   0.9947 B(  9-C , 10-S ) :   1.0039
B(  9-C , 29-H ) :   0.8402 B(  9-C , 30-H ) :   0.9113 B( 10-S , 11-P ) :   0.9297
B( 10-S , 12-S ) :   0.1085 B( 11-P , 12-S ) :   1.6908 B( 11-P , 13-O ) :   1.0736
B( 11-P , 16-O ) :   1.1131 B( 13-O , 14-C ) :   0.9132 B( 14-C , 15-C ) :   1.1668
B( 14-C , 31-H ) :   0.9332 B( 14-C , 32-H ) :   0.9262 B( 15-C , 33-H ) :   0.9429
B( 15-C , 34-H ) :   0.9345 B( 15-C , 35-H ) :   0.9312 B( 16-O , 17-C ) :   0.8883
B( 17-C , 18-C ) :   1.1647 B( 17-C , 36-H ) :   0.9278 B( 17-C , 37-H ) :   0.9123
B( 18-C , 38-H ) :   0.9432 B( 18-C , 39-H ) :   0.9475 B( 18-C , 40-H ) :   0.9406

Dispersion correction           -0.067789570
FINAL SINGLE POINT ENERGY     -2929.513931116112

DIPOLE MOMENT
-------------

Method             : SCF
Type of density    : Electron Density
Multiplicity       :   1
Irrep              :   0
Energy             : -2929.6325460075045157 Eh
Relativity type    :
Basis              : AO
                                X                 Y                 Z
Electronic contribution:      5.349091214       8.135568769       8.773345805
Nuclear contribution   :     -6.514169489     -10.083441771      -8.888090488
                        -----------------------------------------
Total Dipole Moment    :     -1.165078275      -1.947873002      -0.114744682
                        -----------------------------------------
Magnitude (a.u.)       :      2.272615885
Magnitude (Debye)      :      5.776530511

Rotational constants in cm-1:             0.012359             0.005516             0.005023
Rotational constants in MHz :           370.523049           165.377580           150.587657

                             ****ORCA TERMINATED NORMALLY****
TOTAL RUN TIME: 0 days 0 hours 0 minutes 22 seconds 176 msec
