                         Program Version 6.0.0  -   RELEASE  -
|  1> ! pbe def2-sv(p) def2/J RI DEFGRID1 loosescf d4 GCP(DFT/SV(P)) printgap
|  2> %output
|  3>     printlevel normal
|  4> end
|  5> * xyz 0 1
|  6> C 3.6632880322 -2.2712964584 1.5011256658
|  7> C 2.3149928521 -2.2088351044 0.8133460988
|  8> O 1.8424466608 -0.848904741 0.7237882045
|  9> P 2.4577430105 0.1814476258 -0.3346988357
| 10> S 3.2189369177 -0.6238275437 -1.9416178911
| 11> O 3.5108419374 1.0716058053 0.4425023775
| 12> C 3.1947904007 1.7280908373 1.6969217443
| 13> C 4.5030754356 2.0805673105 2.3736065432
| 14> S 0.7996692089 1.4732987016 -0.5985097068
| 15> C -0.0654255704 0.4125238783 -1.7866923449
| 16> S -0.9579435989 -0.9393180536 -0.9960308869
| 17> P -2.501657731 0.2761272845 -0.1459808571
| 18> S -3.0687740291 1.735233917 -1.3239001985
| 19> O -2.0231086572 0.8120807617 1.2528239623
| 20> C -2.0249869744 0.0743412037 2.5015714001
| 21> C -1.1243244778 -1.1412018305 2.4586067733
| 22> O -3.6215359465 -0.7771321478 0.2432577249
| 23> C -4.4257939394 -1.4158146051 -0.7711882703
| 24> C -5.6500728486 -1.9978322668 -0.0943886013
| 25> H 3.980180163 -3.3063189082 1.5796886655
| 26> H 4.3984250803 -1.7203042036 0.914352944
| 27> H 3.6048144139 -1.8367139305 2.4956870545
| 28> H 1.5397691648 -2.727283544 1.3787081431
| 29> H 2.3756939142 -2.6231648134 -0.1974184624
| 30> H 2.6058424997 2.6198069701 1.4677489105
| 31> H 2.5956370438 1.0484157871 2.3077888134
| 32> H 5.092580508 2.7237398717 1.7267226304
| 33> H 4.2945340482 2.5997722203 3.3034628179
| 34> H 5.0736087697 1.1800590238 2.5828946887
| 35> H 0.6602565754 -0.0290256421 -2.4709512516
| 36> H -0.7774254063 1.0484060859 -2.3148000314
| 37> H -1.6718465042 0.8135304121 3.2223583244
| 38> H -3.0546384562 -0.2072363158 2.7282535496
| 39> H -1.0835277123 -1.5870481818 3.4476111365
| 40> H -1.5110929186 -1.873507314 1.7523565568
| 41> H -0.1218210602 -0.8545536157 2.1509885651
| 42> H -4.6987563377 -0.66711838 -1.5219869269
| 43> H -3.8204211023 -2.1931275142 -1.2444965423
| 44> H -5.3516224173 -2.7170971641 0.6625506262
| 45> H -6.2276831075 -1.2072181729 0.3763509005
| 46> H -6.2644238871 -2.4938798837 -0.8385449531
| 47> *
| 48>
| 49>                          ****END OF INPUT****

CARTESIAN COORDINATES (ANGSTROEM)
---------------------------------
  C      3.663288   -2.271296    1.501126
  C      2.314993   -2.208835    0.813346
  O      1.842447   -0.848905    0.723788
  P      2.457743    0.181448   -0.334699
  S      3.218937   -0.623828   -1.941618
  O      3.510842    1.071606    0.442502
  C      3.194790    1.728091    1.696922
  C      4.503075    2.080567    2.373607
  S      0.799669    1.473299   -0.598510
  C     -0.065426    0.412524   -1.786692
  S     -0.957944   -0.939318   -0.996031
  P     -2.501658    0.276127   -0.145981
  S     -3.068774    1.735234   -1.323900
  O     -2.023109    0.812081    1.252824
  C     -2.024987    0.074341    2.501571
  C     -1.124324   -1.141202    2.458607
  O     -3.621536   -0.777132    0.243258
  C     -4.425794   -1.415815   -0.771188
  C     -5.650073   -1.997832   -0.094389
  H      3.980180   -3.306319    1.579689
  H      4.398425   -1.720304    0.914353
  H      3.604814   -1.836714    2.495687
  H      1.539769   -2.727284    1.378708
  H      2.375694   -2.623165   -0.197418
  H      2.605842    2.619807    1.467749
  H      2.595637    1.048416    2.307789
  H      5.092581    2.723740    1.726723
  H      4.294534    2.599772    3.303463
  H      5.073609    1.180059    2.582895
  H      0.660257   -0.029026   -2.470951
  H     -0.777425    1.048406   -2.314800
  H     -1.671847    0.813530    3.222358
  H     -3.054638   -0.207236    2.728254
  H     -1.083528   -1.587048    3.447611
  H     -1.511093   -1.873507    1.752357
  H     -0.121821   -0.854554    2.150989
  H     -4.698756   -0.667118   -1.521987
  H     -3.820421   -2.193128   -1.244497
  H     -5.351622   -2.717097    0.662551
  H     -6.227683   -1.207218    0.376351
  H     -6.264424   -2.493880   -0.838545

 Total Charge           Charge          ....    0
 Multiplicity           Mult            ....    1
 Number of Electrons    NEL             ....  202
 Basis Dimension        Dim             ....  334

ORBITAL ENERGIES
----------------

  NO   OCC          E(Eh)            E(eV)
   0   2.0000     -88.038197     -2395.6411
   1   2.0000     -88.037982     -2395.6353
   2   2.0000     -87.987880     -2394.2719
   3   2.0000     -87.982530     -2394.1264
   4   2.0000     -76.426606     -2079.6737
   5   2.0000     -76.426038     -2079.6582
   6   2.0000     -18.800081      -511.5762
   7   2.0000     -18.798184      -511.5246
   8   2.0000     -18.794894      -511.4351
   9   2.0000     -18.791859      -511.3525
  10   2.0000      -9.963099      -271.1097
  11   2.0000      -9.959012      -270.9985
  12   2.0000      -9.957610      -270.9604
  13   2.0000      -9.953607      -270.8514
  14   2.0000      -9.947810      -270.6937
  15   2.0000      -9.895439      -269.2686
  16   2.0000      -9.892892      -269.1993
  17   2.0000      -9.889900      -269.1179
  18   2.0000      -9.887906      -269.0636
  19   2.0000      -7.683542      -209.0798
  20   2.0000      -7.683016      -209.0655
  21   2.0000      -7.633151      -207.7086
  22   2.0000      -7.627843      -207.5641
  23   2.0000      -6.424206      -174.8115
  24   2.0000      -6.424074      -174.8079
  25   2.0000      -5.711300      -155.4124
  26   2.0000      -5.710698      -155.3960
  27   2.0000      -5.708303      -155.3308
  28   2.0000      -5.707700      -155.3144
  29   2.0000      -5.700355      -155.1146
  30   2.0000      -5.700053      -155.1063
  31   2.0000      -5.662173      -154.0756
  32   2.0000      -5.656808      -153.9296
  33   2.0000      -5.653853      -153.8492
  34   2.0000      -5.653058      -153.8275
  35   2.0000      -5.648565      -153.7053
  36   2.0000      -5.647803      -153.6845
  37   2.0000      -4.647260      -126.4584
  38   2.0000      -4.647188      -126.4564
  39   2.0000      -4.645610      -126.4135
  40   2.0000      -4.645535      -126.4114
  41   2.0000      -4.644640      -126.3871
  42   2.0000      -4.644164      -126.3741
  43   2.0000      -0.992231       -27.0000
  44   2.0000      -0.989334       -26.9211
  45   2.0000      -0.948836       -25.8191
  46   2.0000      -0.947925       -25.7944
  47   2.0000      -0.762269       -20.7424
  48   2.0000      -0.725616       -19.7450
  49   2.0000      -0.714746       -19.4492
  50   2.0000      -0.696540       -18.9538
  51   2.0000      -0.695910       -18.9367
  52   2.0000      -0.675030       -18.3685
  53   2.0000      -0.650200       -17.6928
  54   2.0000      -0.636019       -17.3070
  55   2.0000      -0.596308       -16.2264
  56   2.0000      -0.591942       -16.1076
  57   2.0000      -0.578073       -15.7302
  58   2.0000      -0.577012       -15.7013
  59   2.0000      -0.559999       -15.2383
  60   2.0000      -0.512356       -13.9419
  61   2.0000      -0.505701       -13.7608
  62   2.0000      -0.484749       -13.1907
  63   2.0000      -0.477554       -12.9949
  64   2.0000      -0.460254       -12.5242
  65   2.0000      -0.448865       -12.2142
  66   2.0000      -0.446705       -12.1555
  67   2.0000      -0.443212       -12.0604
  68   2.0000      -0.432149       -11.7594
  69   2.0000      -0.414256       -11.2725
  70   2.0000      -0.407875       -11.0988
  71   2.0000      -0.402454       -10.9513
  72   2.0000      -0.398533       -10.8446
  73   2.0000      -0.389163       -10.5897
  74   2.0000      -0.376938       -10.2570
  75   2.0000      -0.371646       -10.1130
  76   2.0000      -0.370068       -10.0701
  77   2.0000      -0.362222        -9.8566
  78   2.0000      -0.358797        -9.7634
  79   2.0000      -0.355045        -9.6613
  80   2.0000      -0.351828        -9.5737
  81   2.0000      -0.349427        -9.5084
  82   2.0000      -0.345580        -9.4037
  83   2.0000      -0.343307        -9.3419
  84   2.0000      -0.336856        -9.1663
  85   2.0000      -0.325560        -8.8589
  86   2.0000      -0.316829        -8.6213
  87   2.0000      -0.315860        -8.5950
  88   2.0000      -0.305999        -8.3267
  89   2.0000      -0.296386        -8.0651
  90   2.0000      -0.284542        -7.7428
  91   2.0000      -0.278050        -7.5661
  92   2.0000      -0.273195        -7.4340
  93   2.0000      -0.271279        -7.3819
  94   2.0000      -0.255634        -6.9561
  95   2.0000      -0.231235        -6.2922
  96   2.0000      -0.218244        -5.9387
  97   2.0000      -0.211627        -5.7587
  98   2.0000      -0.202819        -5.5190
  99   2.0000      -0.200231        -5.4486
 100   2.0000      -0.194782        -5.3003
 101   0.0000      -0.044502        -1.2109
 102   0.0000      -0.023058        -0.6275
 103   0.0000      -0.001759        -0.0479
 104   0.0000       0.002446         0.0665
 105   0.0000       0.014054         0.3824

MULLIKEN ATOMIC CHARGES
-----------------------
   0 C :   -0.315004
   1 C :   -0.007517
   2 O :   -0.380884
   3 P :    0.614831
   4 S :   -0.308742
   5 O :   -0.371619
   6 C :   -0.037326
   7 C :   -0.277297
   8 S :   -0.077974
   9 C :   -0.374279
  10 S :   -0.103097
  11 P :    0.614468
  12 S :   -0.318128
  13 O :   -0.354460
  14 C :    0.013872
  15 C :   -0.360792
  16 O :   -0.390219
  17 C :   -0.010863
  18 C :   -0.281452
  19 H :    0.115053
  20 H :    0.130815
  21 H :    0.110221
  22 H :    0.105987
  23 H :    0.115174
  24 H :    0.120080
  25 H :    0.111274
  26 H :    0.126708
  27 H :    0.112955
  28 H :    0.119097
  29 H :    0.188238
  30 H :    0.200113
  31 H :    0.107228
  32 H :    0.109399
  33 H :    0.108409
  34 H :    0.119450
  35 H :    0.159497
  36 H :    0.110034
  37 H :    0.105991
  38 H :    0.113656
  39 H :    0.121942
  40 H :    0.115161
Sum of atomic charges:   -0.0000000

LOEWDIN ATOMIC CHARGES
----------------------
   0 C :   -0.364873
   1 C :   -0.121962
   2 O :   -0.248806
   3 P :    0.571420
   4 S :   -0.304498
   5 O :   -0.244512
   6 C :   -0.118781
   7 C :   -0.348932
   8 S :    0.082478
   9 C :   -0.489601
  10 S :    0.064590
  11 P :    0.570895
  12 S :   -0.311923
  13 O :   -0.233426
  14 C :   -0.104330
  15 C :   -0.377769
  16 O :   -0.249908
  17 C :   -0.119011
  18 C :   -0.350429
  19 H :    0.132175
  20 H :    0.125921
  21 H :    0.121087
  22 H :    0.115842
  23 H :    0.110488
  24 H :    0.115345
  25 H :    0.109055
  26 H :    0.132612
  27 H :    0.131501
  28 H :    0.127962
  29 H :    0.127485
  30 H :    0.128821
  31 H :    0.121677
  32 H :    0.114242
  33 H :    0.128516
  34 H :    0.116943
  35 H :    0.130124
  36 H :    0.111662
  37 H :    0.110445
  38 H :    0.125261
  39 H :    0.129570
  40 H :    0.132642

  Mayer bond orders larger than 0.100000
B(  0-C ,  1-C ) :   1.1620 B(  0-C , 19-H ) :   0.9397 B(  0-C , 20-H ) :   0.9351
B(  0-C , 21-H ) :   0.9468 B(  1-C ,  2-O ) :   0.8981 B(  1-C , 22-H ) :   0.9305
B(  1-C , 23-H ) :   0.9108 B(  2-O ,  3-P ) :   1.0600 B(  3-P ,  4-S ) :   1.6351
B(  3-P ,  5-O ) :   1.1228 B(  3-P ,  8-S ) :   0.9745 B(  4-S ,  8-S ) :   0.1027
B(  5-O ,  6-C ) :   0.8975 B(  6-C ,  7-C ) :   1.1661 B(  6-C , 24-H ) :   0.9263
B(  6-C , 25-H ) :   0.9172 B(  7-C , 26-H ) :   0.9488 B(  7-C , 27-H ) :   0.9401
B(  7-C , 28-H ) :   0.9506 B(  8-S ,  9-C ) :   1.0072 B(  9-C , 10-S ) :   1.0104
B(  9-C , 29-H ) :   0.8671 B(  9-C , 30-H ) :   0.8645 B( 10-S , 11-P ) :   0.9406
B( 10-S , 12-S ) :   0.1137 B( 11-P , 12-S ) :   1.6463 B( 11-P , 13-O ) :   1.1459
B( 11-P , 16-O ) :   1.0767 B( 13-O , 14-C ) :   0.8978 B( 14-C , 15-C ) :   1.1696
B( 14-C , 31-H ) :   0.9344 B( 14-C , 32-H ) :   0.9291 B( 15-C , 33-H ) :   0.9345
B( 15-C , 34-H ) :   0.9393 B( 15-C , 35-H ) :   0.9185 B( 16-O , 17-C ) :   0.8982
B( 17-C , 18-C ) :   1.1600 B( 17-C , 36-H ) :   0.9096 B( 17-C , 37-H ) :   0.9290
B( 18-C , 38-H ) :   0.9514 B( 18-C , 39-H ) :   0.9506 B( 18-C , 40-H ) :   0.9415

Dispersion correction           -0.063569894
FINAL SINGLE POINT ENERGY     -2929.517900657613

DIPOLE MOMENT
-------------

Method             : SCF
Type of density    : Electron Density
Multiplicity       :   1
Irrep              :   0
Energy             : -2929.6398206733329062 Eh
Relativity type    :
Basis              : AO
                                X                 Y                 Z
Electronic contribution:     -1.809740527      12.400883979     -20.553492695
Nuclear contribution   :      1.571961306     -13.596321508      22.665392225
                        -----------------------------------------
Total Dipole Moment    :     -0.237779221      -1.195437529       2.111899530
                        -----------------------------------------
Magnitude (a.u.)       :      2.438386653
Magnitude (Debye)      :      6.197886318

Rotational constants in cm-1:             0.012972             0.004422             0.004337
Rotational constants in MHz :           388.878652           132.572855           130.030114

                             ****ORCA TERMINATED NORMALLY****
TOTAL RUN TIME: 0 days 0 hours 0 minutes 21 seconds 8 msec
