                         Program Version 6.0.0  -   RELEASE  -
|  1> ! pbe def2-sv(p) def2/J RI DEFGRID1 loosescf d4 GCP(DFT/SV(P)) printgap
|  2> %output
|  3>     printlevel normal
|  4> end
|  5> * xyz 0 1
|  6> C 0.8563041262 1.3790422725 -0.6269621148
|  7> C 1.5889944885 0.1620506523 -0.0480823084
|  8> H 2.5584787307 0.0592234656 -0.5554463168
|  9> C 0.7703655001 -1.1102963164 -0.3336666744
| 10> H 1.2158730141 -1.9329755455 0.244696564
| 11> C -0.6813169819 -0.9142283276 0.1457678622
| 12> H -1.3089059667 -1.7456212351 -0.1947648453
| 13> C -1.2630601064 0.3894191428 -0.4482104858
| 14> H -1.3130086841 0.3069165832 -1.5460371238
| 15> O -0.4485753919 1.4940749006 -0.0976818392
| 16> O -2.5427018645 0.6250980579 0.0034234811
| 17> O -0.7806999432 -0.8979290349 1.5470107561
| 18> O 0.8411747123 -1.3541206092 -1.7156661754
| 19> O 1.7551919803 0.2513699729 1.3480964906
| 20> H 0.8173715932 1.2765487648 -1.7189841555
| 21> H 1.3585393645 2.3088720301 -0.3582527821
| 22> H -2.5516001464 0.5211113267 0.9714350939
| 23> H -0.0526445596 -0.353393492 1.8981632829
| 24> H 0.5267335135 -2.2484818069 -1.9094917227
| 25> H 2.2610534775 1.0471724213 1.5673277454
| 26> *
| 27>
| 28>                          ****END OF INPUT****

CARTESIAN COORDINATES (ANGSTROEM)
---------------------------------
  C      0.856304    1.379042   -0.626962
  C      1.588994    0.162051   -0.048082
  H      2.558479    0.059223   -0.555446
  C      0.770366   -1.110296   -0.333667
  H      1.215873   -1.932976    0.244697
  C     -0.681317   -0.914228    0.145768
  H     -1.308906   -1.745621   -0.194765
  C     -1.263060    0.389419   -0.448210
  H     -1.313009    0.306917   -1.546037
  O     -0.448575    1.494075   -0.097682
  O     -2.542702    0.625098    0.003423
  O     -0.780700   -0.897929    1.547011
  O      0.841175   -1.354121   -1.715666
  O      1.755192    0.251370    1.348096
  H      0.817372    1.276549   -1.718984
  H      1.358539    2.308872   -0.358253
  H     -2.551600    0.521111    0.971435
  H     -0.052645   -0.353393    1.898163
  H      0.526734   -2.248482   -1.909492
  H      2.261053    1.047172    1.567328

 Total Charge           Charge          ....    0
 Multiplicity           Mult            ....    1
 Number of Electrons    NEL             ....   80
 Basis Dimension        Dim             ....  160

ORBITAL ENERGIES
----------------

  NO   OCC          E(Eh)            E(eV)
   0   2.0000     -18.780822      -511.0521
   1   2.0000     -18.769099      -510.7331
   2   2.0000     -18.755873      -510.3732
   3   2.0000     -18.746559      -510.1198
   4   2.0000     -18.744831      -510.0728
   5   2.0000      -9.971855      -271.3480
   6   2.0000      -9.954493      -270.8755
   7   2.0000      -9.950996      -270.7804
   8   2.0000      -9.938175      -270.4315
   9   2.0000      -9.935502      -270.3587
  10   2.0000      -0.975802       -26.5529
  11   2.0000      -0.952821       -25.9276
  12   2.0000      -0.942960       -25.6593
  13   2.0000      -0.919660       -25.0252
  14   2.0000      -0.902350       -24.5542
  15   2.0000      -0.703849       -19.1527
  16   2.0000      -0.667830       -18.1726
  17   2.0000      -0.597903       -16.2698
  18   2.0000      -0.574045       -15.6206
  19   2.0000      -0.536619       -14.6021
  20   2.0000      -0.503754       -13.7078
  21   2.0000      -0.490589       -13.3496
  22   2.0000      -0.463595       -12.6151
  23   2.0000      -0.439271       -11.9532
  24   2.0000      -0.428576       -11.6621
  25   2.0000      -0.422139       -11.4870
  26   2.0000      -0.416136       -11.3236
  27   2.0000      -0.385663       -10.4944
  28   2.0000      -0.373619       -10.1667
  29   2.0000      -0.351674        -9.5695
  30   2.0000      -0.325200        -8.8491
  31   2.0000      -0.318494        -8.6667
  32   2.0000      -0.295697        -8.0463
  33   2.0000      -0.289685        -7.8827
  34   2.0000      -0.274066        -7.4577
  35   2.0000      -0.247855        -6.7445
  36   2.0000      -0.245215        -6.6726
  37   2.0000      -0.238348        -6.4858
  38   2.0000      -0.223612        -6.0848
  39   2.0000      -0.194371        -5.2891
  40   0.0000       0.003539         0.0963
  41   0.0000       0.013886         0.3779
  42   0.0000       0.053668         1.4604
  43   0.0000       0.071704         1.9512
  44   0.0000       0.077745         2.1156

MULLIKEN ATOMIC CHARGES
-----------------------
   0 C :    0.048171
   1 C :    0.020359
   2 H :    0.075949
   3 C :    0.008708
   4 H :    0.081142
   5 C :    0.039829
   6 H :    0.062559
   7 C :    0.180422
   8 H :    0.050092
   9 O :   -0.306732
  10 O :   -0.377317
  11 O :   -0.440751
  12 O :   -0.412320
  13 O :   -0.426994
  14 H :    0.084056
  15 H :    0.083991
  16 H :    0.299859
  17 H :    0.305195
  18 H :    0.311117
  19 H :    0.312662
Sum of atomic charges:   -0.0000000

LOEWDIN ATOMIC CHARGES
----------------------
   0 C :   -0.125803
   1 C :   -0.080032
   2 H :    0.109130
   3 C :   -0.073702
   4 H :    0.105755
   5 C :   -0.097010
   6 H :    0.110820
   7 C :   -0.007100
   8 H :    0.094263
   9 O :   -0.169256
  10 O :   -0.289559
  11 O :   -0.320706
  12 O :   -0.314544
  13 O :   -0.309550
  14 H :    0.112056
  15 H :    0.110981
  16 H :    0.281259
  17 H :    0.273721
  18 H :    0.294962
  19 H :    0.294317

  Mayer bond orders larger than 0.100000
B(  0-C ,  1-C ) :   1.0584 B(  0-C ,  9-O ) :   1.0399 B(  0-C , 14-H ) :   0.8880
B(  0-C , 15-H ) :   0.9235 B(  1-C ,  2-H ) :   0.8928 B(  1-C ,  3-C ) :   1.0100
B(  1-C , 13-O ) :   1.0124 B(  3-C ,  4-H ) :   0.9071 B(  3-C ,  5-C ) :   0.9752
B(  3-C , 12-O ) :   1.0674 B(  5-C ,  6-H ) :   0.8922 B(  5-C ,  7-C ) :   0.9676
B(  5-C , 11-O ) :   1.0440 B(  7-C ,  8-H ) :   0.8851 B(  7-C ,  9-O ) :   0.9938
B(  7-C , 10-O ) :   1.1828 B( 10-O , 16-H ) :   0.8253 B( 11-O , 17-H ) :   0.8053
B( 12-O , 18-H ) :   0.8452 B( 13-O , 17-H ) :   0.1016 B( 13-O , 19-H ) :   0.8408

Dispersion correction           -0.019860514
FINAL SINGLE POINT ENERGY      -571.420463947526

DIPOLE MOMENT
-------------

Method             : SCF
Type of density    : Electron Density
Multiplicity       :   1
Irrep              :   0
Energy             :  -571.5299519216641784 Eh
Relativity type    :
Basis              : AO
                                X                 Y                 Z
Electronic contribution:     -2.028511451       0.471756950       1.431532444
Nuclear contribution   :      3.277334500      -0.711842562      -1.486266285
                        -----------------------------------------
Total Dipole Moment    :      1.248823049      -0.240085613      -0.054733841
                        -----------------------------------------
Magnitude (a.u.)       :      1.272869162
Magnitude (Debye)      :      3.235376290

Rotational constants in cm-1:             0.058111             0.040684             0.038754
Rotational constants in MHz :          1742.129184          1219.670926          1161.819054

                             ****ORCA TERMINATED NORMALLY****
TOTAL RUN TIME: 0 days 0 hours 0 minutes 11 seconds 188 msec
