                         Program Version 6.0.1  -  RELEASE   -
|  1> ! pbe def2-sv(p) def2/J RI DEFGRID1 loosescf d4 GCP(DFT/SV(P)) printgap
|  2> %output
|  3>     printlevel normal
|  4> end
|  5> * xyz 0 1
|  6> C 5.5852859908 -1.2994577051 -0.1028257302
|  7> C 4.6001616424 -0.6155685416 -1.0311488226
|  8> O 3.2942233278 -1.1859248628 -0.8116500353
|  9> C 2.3954749273 -1.0764506858 -1.7686483418
| 10> O 2.5950695901 -0.5665390458 -2.8475972063
| 11> C 1.0625565256 -1.6688373039 -1.3411678103
| 12> C 0.1049226997 -0.5108853547 -1.0334180076
| 13> H -0.0728781284 0.0797288647 -1.9361087962
| 14> C 0.7712002469 0.377851474 1.13467e-05
| 15> O 1.6463681646 1.1569242511 -0.302302759
| 16> O 0.3618250357 0.1322368363 1.2258184432
| 17> C 1.0321458809 0.8068630856 2.3094726962
| 18> C 2.2329218746 -0.0045608329 2.7651199038
| 19> S -1.4751700637 -1.1930298327 -0.4373753143
| 20> P -2.3152569656 0.5863533985 0.3605546846
| 21> S -1.587536095 2.272175231 -0.3289260728
| 22> O -3.8766047864 0.37381601 0.0852732854
| 23> C -4.4140827839 0.413550966 -1.2415037162
| 24> O -2.2923740155 0.4993362538 1.9351316296
| 25> C -2.8161726509 -0.6464031977 2.6421442562
| 26> H 5.6191956087 -2.3643980138 -0.3129737453
| 27> H 6.570994366 -0.8728543193 -0.2550927783
| 28> H 5.2899245119 -1.154324033 0.9320797375
| 29> H 4.8629934581 -0.7541195471 -2.0842242036
| 30> H 4.5248478192 0.4581694995 -0.8306246502
| 31> H 1.2042550264 -2.2845487477 -0.4532573453
| 32> H 0.6523849912 -2.2650000328 -2.1559450238
| 33> H 1.330398648 1.8002536947 1.9620244746
| 34> H 0.2758846285 0.8949374567 3.0896698442
| 35> H 1.9181453967 -0.9919143618 3.0906198571
| 36> H 2.9390780995 -0.1096558804 1.9440307818
| 37> H 2.7189389141 0.5087921313 3.5879040532
| 38> H -4.0544516108 1.2997575267 -1.7667608013
| 39> H -5.4931724207 0.4576757427 -1.1185402678
| 40> H -4.1249524229 -0.4857412133 -1.7850545495
| 41> H -2.3213649521 -1.5529519773 2.2942744211
| 42> H -3.8896340399 -0.7197897214 2.4818000883
| 43> H -2.5934867097 -0.4598182852 3.6893087734
| 44> *
| 45>
| 46>                          ****END OF INPUT****

CARTESIAN COORDINATES (ANGSTROEM)
---------------------------------
  C      5.585286   -1.299458   -0.102826
  C      4.600162   -0.615569   -1.031149
  O      3.294223   -1.185925   -0.811650
  C      2.395475   -1.076451   -1.768648
  O      2.595070   -0.566539   -2.847597
  C      1.062557   -1.668837   -1.341168
  C      0.104923   -0.510885   -1.033418
  H     -0.072878    0.079729   -1.936109
  C      0.771200    0.377851    0.000011
  O      1.646368    1.156924   -0.302303
  O      0.361825    0.132237    1.225818
  C      1.032146    0.806863    2.309473
  C      2.232922   -0.004561    2.765120
  S     -1.475170   -1.193030   -0.437375
  P     -2.315257    0.586353    0.360555
  S     -1.587536    2.272175   -0.328926
  O     -3.876605    0.373816    0.085273
  C     -4.414083    0.413551   -1.241504
  O     -2.292374    0.499336    1.935132
  C     -2.816173   -0.646403    2.642144
  H      5.619196   -2.364398   -0.312974
  H      6.570994   -0.872854   -0.255093
  H      5.289925   -1.154324    0.932080
  H      4.862993   -0.754120   -2.084224
  H      4.524848    0.458169   -0.830625
  H      1.204255   -2.284549   -0.453257
  H      0.652385   -2.265000   -2.155945
  H      1.330399    1.800254    1.962024
  H      0.275885    0.894937    3.089670
  H      1.918145   -0.991914    3.090620
  H      2.939078   -0.109656    1.944031
  H      2.718939    0.508792    3.587904
  H     -4.054452    1.299758   -1.766761
  H     -5.493172    0.457676   -1.118540
  H     -4.124952   -0.485741   -1.785055
  H     -2.321365   -1.552952    2.294274
  H     -3.889634   -0.719790    2.481800
  H     -2.593487   -0.459818    3.689309

 Total Charge           Charge          ....    0
 Multiplicity           Mult            ....    1
 Number of Electrons    NEL             ....  174
 Basis Dimension        Dim             ....  316

ORBITAL ENERGIES
----------------

  NO   OCC          E(Eh)            E(eV)
   0   2.0000     -88.043222     -2395.7779
   1   2.0000     -87.985171     -2394.1982
   2   2.0000     -76.428846     -2079.7346
   3   2.0000     -18.809913      -511.8438
   4   2.0000     -18.801965      -511.6275
   5   2.0000     -18.799151      -511.5509
   6   2.0000     -18.796110      -511.4682
   7   2.0000     -18.736175      -509.8372
   8   2.0000     -18.732155      -509.7279
   9   2.0000     -10.016203      -272.5547
  10   2.0000     -10.008694      -272.3504
  11   2.0000      -9.955244      -270.8960
  12   2.0000      -9.949111      -270.7291
  13   2.0000      -9.947549      -270.6866
  14   2.0000      -9.947522      -270.6858
  15   2.0000      -9.943678      -270.5812
  16   2.0000      -9.916724      -269.8478
  17   2.0000      -9.889675      -269.1117
  18   2.0000      -9.889106      -269.0962
  19   2.0000      -7.688163      -209.2056
  20   2.0000      -7.630224      -207.6289
  21   2.0000      -6.425950      -174.8590
  22   2.0000      -5.715877      -155.5369
  23   2.0000      -5.712694      -155.4503
  24   2.0000      -5.705312      -155.2494
  25   2.0000      -5.659396      -154.0000
  26   2.0000      -5.650545      -153.7592
  27   2.0000      -5.650420      -153.7558
  28   2.0000      -4.648676      -126.4969
  29   2.0000      -4.647872      -126.4750
  30   2.0000      -4.646199      -126.4295
  31   2.0000      -1.017561       -27.6893
  32   2.0000      -1.007564       -27.4172
  33   2.0000      -0.991724       -26.9862
  34   2.0000      -0.947257       -25.7762
  35   2.0000      -0.918713       -24.9995
  36   2.0000      -0.911082       -24.7918
  37   2.0000      -0.770321       -20.9615
  38   2.0000      -0.715978       -19.4828
  39   2.0000      -0.703508       -19.1434
  40   2.0000      -0.697304       -18.9746
  41   2.0000      -0.663062       -18.0428
  42   2.0000      -0.641359       -17.4523
  43   2.0000      -0.623786       -16.9741
  44   2.0000      -0.616178       -16.7671
  45   2.0000      -0.592937       -16.1346
  46   2.0000      -0.564771       -15.3682
  47   2.0000      -0.520062       -14.1516
  48   2.0000      -0.508754       -13.8439
  49   2.0000      -0.500023       -13.6063
  50   2.0000      -0.480703       -13.0806
  51   2.0000      -0.476198       -12.9580
  52   2.0000      -0.460964       -12.5435
  53   2.0000      -0.453608       -12.3433
  54   2.0000      -0.438739       -11.9387
  55   2.0000      -0.435270       -11.8443
  56   2.0000      -0.430843       -11.7238
  57   2.0000      -0.419415       -11.4129
  58   2.0000      -0.414789       -11.2870
  59   2.0000      -0.406749       -11.0682
  60   2.0000      -0.402879       -10.9629
  61   2.0000      -0.399512       -10.8713
  62   2.0000      -0.394855       -10.7446
  63   2.0000      -0.391090       -10.6421
  64   2.0000      -0.368937       -10.0393
  65   2.0000      -0.364373        -9.9151
  66   2.0000      -0.359409        -9.7800
  67   2.0000      -0.352958        -9.6045
  68   2.0000      -0.347432        -9.4541
  69   2.0000      -0.343918        -9.3585
  70   2.0000      -0.334737        -9.1086
  71   2.0000      -0.330039        -8.9808
  72   2.0000      -0.328428        -8.9370
  73   2.0000      -0.315179        -8.5765
  74   2.0000      -0.309069        -8.4102
  75   2.0000      -0.303473        -8.2579
  76   2.0000      -0.298988        -8.1359
  77   2.0000      -0.296566        -8.0700
  78   2.0000      -0.277112        -7.5406
  79   2.0000      -0.265520        -7.2252
  80   2.0000      -0.262139        -7.1332
  81   2.0000      -0.255720        -6.9585
  82   2.0000      -0.237720        -6.4687
  83   2.0000      -0.219845        -5.9823
  84   2.0000      -0.214336        -5.8324
  85   2.0000      -0.203537        -5.5385
  86   2.0000      -0.201968        -5.4958
  87   0.0000      -0.042579        -1.1586
  88   0.0000      -0.031206        -0.8492
  89   0.0000      -0.022376        -0.6089
  90   0.0000       0.011148         0.3034
  91   0.0000       0.014909         0.4057

MULLIKEN ATOMIC CHARGES
-----------------------
   0 C :   -0.287649
   1 C :   -0.023683
   2 O :   -0.239585
   3 C :    0.094312
   4 O :   -0.192256
   5 C :   -0.060626
   6 C :   -0.257407
   7 H :    0.159718
   8 C :    0.162502
   9 O :   -0.186669
  10 O :   -0.224606
  11 C :   -0.010195
  12 C :   -0.320261
  13 S :   -0.106107
  14 P :    0.608551
  15 S :   -0.294295
  16 O :   -0.388531
  17 C :   -0.101561
  18 O :   -0.361189
  19 C :   -0.109408
  20 H :    0.112730
  21 H :    0.113008
  22 H :    0.119399
  23 H :    0.113302
  24 H :    0.118234
  25 H :    0.105565
  26 H :    0.125331
  27 H :    0.117872
  28 H :    0.105634
  29 H :    0.110851
  30 H :    0.137690
  31 H :    0.113640
  32 H :    0.121644
  33 H :    0.126552
  34 H :    0.116543
  35 H :    0.122176
  36 H :    0.128053
  37 H :    0.130720
Sum of atomic charges:   -0.0000000

LOEWDIN ATOMIC CHARGES
----------------------
   0 C :   -0.351286
   1 C :   -0.108066
   2 O :   -0.060341
   3 C :    0.025881
   4 O :   -0.157550
   5 C :   -0.240760
   6 C :   -0.256708
   7 H :    0.148752
   8 C :   -0.001205
   9 O :   -0.147493
  10 O :   -0.056649
  11 C :   -0.108313
  12 C :   -0.357520
  13 S :    0.084244
  14 P :    0.571157
  15 S :   -0.288064
  16 O :   -0.259903
  17 C :   -0.215562
  18 O :   -0.235779
  19 C :   -0.210420
  20 H :    0.125786
  21 H :    0.131515
  22 H :    0.124454
  23 H :    0.119567
  24 H :    0.122977
  25 H :    0.132182
  26 H :    0.143582
  27 H :    0.124758
  28 H :    0.117441
  29 H :    0.123494
  30 H :    0.128269
  31 H :    0.130885
  32 H :    0.113867
  33 H :    0.123236
  34 H :    0.109645
  35 H :    0.110879
  36 H :    0.118025
  37 H :    0.125022

  Mayer bond orders larger than 0.100000
B(  0-C ,  1-C ) :   1.1558 B(  0-C , 20-H ) :   0.9499 B(  0-C , 21-H ) :   0.9440
B(  0-C , 22-H ) :   0.9489 B(  1-C ,  2-O ) :   0.8945 B(  1-C , 23-H ) :   0.9212
B(  1-C , 24-H ) :   0.9294 B(  2-O ,  3-C ) :   1.2067 B(  3-C ,  4-O ) :   2.0742
B(  3-C ,  5-C ) :   1.0088 B(  5-C ,  6-C ) :   1.0585 B(  5-C , 25-H ) :   0.8963
B(  5-C , 26-H ) :   0.8932 B(  6-C ,  7-H ) :   0.8671 B(  6-C ,  8-C ) :   0.9177
B(  6-C , 13-S ) :   0.9977 B(  8-C ,  9-O ) :   2.0146 B(  8-C , 10-O ) :   1.2352
B( 10-O , 11-C ) :   0.9003 B( 11-C , 12-C ) :   1.1716 B( 11-C , 27-H ) :   0.9126
B( 11-C , 28-H ) :   0.9324 B( 12-C , 29-H ) :   0.9481 B( 12-C , 30-H ) :   0.9352
B( 12-C , 31-H ) :   0.9440 B( 13-S , 14-P ) :   0.9580 B( 13-S , 15-S ) :   0.1144
B( 14-P , 15-S ) :   1.6454 B( 14-P , 16-O ) :   1.0725 B( 14-P , 18-O ) :   1.1220
B( 16-O , 17-C ) :   0.9297 B( 17-C , 32-H ) :   0.9361 B( 17-C , 33-H ) :   0.9584
B( 17-C , 34-H ) :   0.9468 B( 18-O , 19-C ) :   0.9150 B( 19-C , 35-H ) :   0.9373
B( 19-C , 36-H ) :   0.9479 B( 19-C , 37-H ) :   0.9589

Dispersion correction           -0.052693140
FINAL SINGLE POINT ENERGY     -1979.016986600056

DIPOLE MOMENT
-------------

Method             : SCF
Type of density    : Electron Density
Multiplicity       :   1
Irrep              :   0
Energy             : -1979.1472357010188716 Eh
Relativity type    :
Basis              : AO
                                X                 Y                 Z
Electronic contribution:    -16.936118497       7.033919077      -8.054866301
Nuclear contribution   :     16.590549707      -8.538361188       9.421204695
                        -----------------------------------------
Total Dipole Moment    :     -0.345568791      -1.504442111       1.366338395
                        -----------------------------------------
Magnitude (a.u.)       :      2.061466581
Magnitude (Debye)      :      5.239831632

Rotational constants in cm-1:             0.017771             0.006053             0.005424
Rotational constants in MHz :           532.749258           181.476048           162.593680

                             ****ORCA TERMINATED NORMALLY****
TOTAL RUN TIME: 0 days 0 hours 0 minutes 44 seconds 692 msec
