                         Program Version 6.0.1  -  RELEASE   -
|  1> ! pbe def2-sv(p) def2/J RI DEFGRID1 loosescf d4 GCP(DFT/SV(P)) printgap
|  2> %output
|  3>     printlevel normal
|  4> end
|  5> * xyz 0 1
|  6> C 2.8393061758 -3.8210365369 0.2925678765
|  7> C 2.7390081319 -2.3416835101 0.6044637172
|  8> O 2.3732744972 -1.6571332742 -0.6095446375
|  9> C 2.103025547 -0.3752982849 -0.5469725404
| 10> O 2.1348255971 0.2919862522 0.4680337944
| 11> C 1.7499562808 0.2091329647 -1.9012733314
| 12> C 0.4058981629 0.9393173353 -1.8247568842
| 13> H 0.279809459 1.5745584231 -2.7042118585
| 14> C 0.3106996476 1.7936587495 -0.5760069192
| 15> O -0.522998781 1.5720934827 0.2908483702
| 16> O 1.1373515537 2.7880068476 -0.5904648166
| 17> C 1.2390779852 3.6658237989 0.5559064437
| 18> C 2.6312360643 3.5441214311 1.1490976539
| 19> S -1.0111666498 -0.2158510929 -1.847822987
| 20> P -1.6282616979 -0.498605274 0.1567101417
| 21> S -0.55959246 -1.0211871571 1.7278339945
| 22> O -2.906476537 0.4113771411 0.4912654082
| 23> C -2.9773513855 1.4139554788 1.502226722
| 24> O -2.4268190206 -1.7900585698 -0.4003379857
| 25> C -3.2063339013 -2.6242618845 0.4551257423
| 26> H 3.1267383308 -4.3561055513 1.191258614
| 27> H 1.8780907459 -4.1919025115 -0.051225872
| 28> H 3.5810940061 -3.9885147364 -0.4824771297
| 29> H 3.6920567943 -1.9312760622 0.9518277225
| 30> H 1.9763934813 -2.1331157018 1.3626849754
| 31> H 1.7041837173 -0.5829549117 -2.6461638148
| 32> H 2.526788933 0.9298847123 -2.1641861745
| 33> H 1.0536235684 4.6699935911 0.1701449438
| 34> H 0.472435128 3.3884126614 1.2825910737
| 35> H 2.7075335359 4.1877983684 2.0188905672
| 36> H 2.8112985913 2.5141195216 1.4486606922
| 37> H 3.3781641807 3.835176538 0.417062347
| 38> H -3.9786833686 1.34737242 1.9229637092
| 39> H -2.8106714507 2.392248297 1.05532297
| 40> H -2.2269441889 1.22626188 2.2722171124
| 41> H -4.1528374783 -2.1377767286 0.6898053617
| 42> H -2.657932865 -2.8315139744 1.3772742179
| 43> H -3.3752016424 -3.5430357619 -0.1011520242
| 44> *
| 45>
| 46>                          ****END OF INPUT****

CARTESIAN COORDINATES (ANGSTROEM)
---------------------------------
  C      2.839306   -3.821037    0.292568
  C      2.739008   -2.341684    0.604464
  O      2.373274   -1.657133   -0.609545
  C      2.103026   -0.375298   -0.546973
  O      2.134826    0.291986    0.468034
  C      1.749956    0.209133   -1.901273
  C      0.405898    0.939317   -1.824757
  H      0.279809    1.574558   -2.704212
  C      0.310700    1.793659   -0.576007
  O     -0.522999    1.572093    0.290848
  O      1.137352    2.788007   -0.590465
  C      1.239078    3.665824    0.555906
  C      2.631236    3.544121    1.149098
  S     -1.011167   -0.215851   -1.847823
  P     -1.628262   -0.498605    0.156710
  S     -0.559592   -1.021187    1.727834
  O     -2.906477    0.411377    0.491265
  C     -2.977351    1.413955    1.502227
  O     -2.426819   -1.790059   -0.400338
  C     -3.206334   -2.624262    0.455126
  H      3.126738   -4.356106    1.191259
  H      1.878091   -4.191903   -0.051226
  H      3.581094   -3.988515   -0.482477
  H      3.692057   -1.931276    0.951828
  H      1.976393   -2.133116    1.362685
  H      1.704184   -0.582955   -2.646164
  H      2.526789    0.929885   -2.164186
  H      1.053624    4.669994    0.170145
  H      0.472435    3.388413    1.282591
  H      2.707534    4.187798    2.018891
  H      2.811299    2.514120    1.448661
  H      3.378164    3.835177    0.417062
  H     -3.978683    1.347372    1.922964
  H     -2.810671    2.392248    1.055323
  H     -2.226944    1.226262    2.272217
  H     -4.152837   -2.137777    0.689805
  H     -2.657933   -2.831514    1.377274
  H     -3.375202   -3.543036   -0.101152

 Total Charge           Charge          ....    0
 Multiplicity           Mult            ....    1
 Number of Electrons    NEL             ....  174
 Basis Dimension        Dim             ....  316

ORBITAL ENERGIES
----------------

  NO   OCC          E(Eh)            E(eV)
   0   2.0000     -88.030224     -2395.4242
   1   2.0000     -87.959488     -2393.4993
   2   2.0000     -76.412578     -2079.2919
   3   2.0000     -18.823985      -512.2267
   4   2.0000     -18.804928      -511.7081
   5   2.0000     -18.771383      -510.7953
   6   2.0000     -18.766513      -510.6628
   7   2.0000     -18.759965      -510.4846
   8   2.0000     -18.740603      -509.9577
   9   2.0000     -10.036356      -273.1031
  10   2.0000     -10.013001      -272.4676
  11   2.0000      -9.957664      -270.9618
  12   2.0000      -9.954303      -270.8703
  13   2.0000      -9.938752      -270.4472
  14   2.0000      -9.926372      -270.1103
  15   2.0000      -9.922141      -269.9952
  16   2.0000      -9.917278      -269.8628
  17   2.0000      -9.887369      -269.0490
  18   2.0000      -9.881683      -268.8943
  19   2.0000      -7.675345      -208.8568
  20   2.0000      -7.604564      -206.9307
  21   2.0000      -6.407257      -174.3503
  22   2.0000      -5.703874      -155.2103
  23   2.0000      -5.699619      -155.0945
  24   2.0000      -5.691849      -154.8831
  25   2.0000      -5.633693      -153.3006
  26   2.0000      -5.625414      -153.0753
  27   2.0000      -5.624205      -153.0424
  28   2.0000      -4.630156      -125.9930
  29   2.0000      -4.629308      -125.9699
  30   2.0000      -4.627811      -125.9291
  31   2.0000      -1.036160       -28.1954
  32   2.0000      -1.011883       -27.5347
  33   2.0000      -0.960081       -26.1251
  34   2.0000      -0.941705       -25.6251
  35   2.0000      -0.918155       -24.9843
  36   2.0000      -0.914400       -24.8821
  37   2.0000      -0.767683       -20.8897
  38   2.0000      -0.716416       -19.4947
  39   2.0000      -0.707585       -19.2544
  40   2.0000      -0.685141       -18.6436
  41   2.0000      -0.648758       -17.6536
  42   2.0000      -0.623134       -16.9563
  43   2.0000      -0.610978       -16.6256
  44   2.0000      -0.607566       -16.5327
  45   2.0000      -0.586588       -15.9619
  46   2.0000      -0.559809       -15.2332
  47   2.0000      -0.515786       -14.0353
  48   2.0000      -0.506157       -13.7732
  49   2.0000      -0.501904       -13.6575
  50   2.0000      -0.490168       -13.3382
  51   2.0000      -0.465712       -12.6727
  52   2.0000      -0.460729       -12.5371
  53   2.0000      -0.447173       -12.1682
  54   2.0000      -0.444393       -12.0926
  55   2.0000      -0.425748       -11.5852
  56   2.0000      -0.421195       -11.4613
  57   2.0000      -0.416095       -11.3225
  58   2.0000      -0.407407       -11.0861
  59   2.0000      -0.403511       -10.9801
  60   2.0000      -0.395698       -10.7675
  61   2.0000      -0.391707       -10.6589
  62   2.0000      -0.381828       -10.3901
  63   2.0000      -0.378919       -10.3109
  64   2.0000      -0.366983        -9.9861
  65   2.0000      -0.364203        -9.9105
  66   2.0000      -0.362108        -9.8534
  67   2.0000      -0.353088        -9.6080
  68   2.0000      -0.345207        -9.3935
  69   2.0000      -0.342180        -9.3112
  70   2.0000      -0.334809        -9.1106
  71   2.0000      -0.331404        -9.0180
  72   2.0000      -0.313551        -8.5321
  73   2.0000      -0.308760        -8.4018
  74   2.0000      -0.297569        -8.0973
  75   2.0000      -0.294720        -8.0197
  76   2.0000      -0.286487        -7.7957
  77   2.0000      -0.281410        -7.6576
  78   2.0000      -0.267760        -7.2861
  79   2.0000      -0.259855        -7.0710
  80   2.0000      -0.256051        -6.9675
  81   2.0000      -0.250211        -6.8086
  82   2.0000      -0.240013        -6.5311
  83   2.0000      -0.227049        -6.1783
  84   2.0000      -0.209543        -5.7019
  85   2.0000      -0.179532        -4.8853
  86   2.0000      -0.172164        -4.6848
  87   0.0000      -0.045635        -1.2418
  88   0.0000      -0.034609        -0.9417
  89   0.0000      -0.027755        -0.7552
  90   0.0000       0.010381         0.2825
  91   0.0000       0.036988         1.0065

MULLIKEN ATOMIC CHARGES
-----------------------
   0 C :   -0.274631
   1 C :   -0.042927
   2 O :   -0.215029
   3 C :    0.102401
   4 O :   -0.201747
   5 C :   -0.023574
   6 C :   -0.311448
   7 H :    0.148256
   8 C :    0.240599
   9 O :   -0.214605
  10 O :   -0.214495
  11 C :   -0.025808
  12 C :   -0.303514
  13 S :   -0.078045
  14 P :    0.666233
  15 S :   -0.347446
  16 O :   -0.395176
  17 C :   -0.085275
  18 O :   -0.409521
  19 C :   -0.091692
  20 H :    0.110314
  21 H :    0.123077
  22 H :    0.108636
  23 H :    0.096151
  24 H :    0.137580
  25 H :    0.117932
  26 H :    0.122058
  27 H :    0.108733
  28 H :    0.127011
  29 H :    0.112213
  30 H :    0.149419
  31 H :    0.109443
  32 H :    0.111764
  33 H :    0.103285
  34 H :    0.116250
  35 H :    0.103004
  36 H :    0.106410
  37 H :    0.114164
Sum of atomic charges:   -0.0000000

LOEWDIN ATOMIC CHARGES
----------------------
   0 C :   -0.349945
   1 C :   -0.112053
   2 O :   -0.042583
   3 C :    0.029954
   4 O :   -0.155111
   5 C :   -0.246129
   6 C :   -0.262981
   7 H :    0.147878
   8 C :    0.036101
   9 O :   -0.147621
  10 O :   -0.028556
  11 C :   -0.102107
  12 C :   -0.356008
  13 S :    0.119041
  14 P :    0.584369
  15 S :   -0.336174
  16 O :   -0.258219
  17 C :   -0.214845
  18 O :   -0.281985
  19 C :   -0.217855
  20 H :    0.130690
  21 H :    0.130667
  22 H :    0.123033
  23 H :    0.112953
  24 H :    0.119189
  25 H :    0.137625
  26 H :    0.146059
  27 H :    0.119344
  28 H :    0.126537
  29 H :    0.130611
  30 H :    0.139072
  31 H :    0.123589
  32 H :    0.113567
  33 H :    0.106871
  34 H :    0.108178
  35 H :    0.106843
  36 H :    0.103344
  37 H :    0.116656

  Mayer bond orders larger than 0.100000
B(  0-C ,  1-C ) :   1.1580 B(  0-C , 20-H ) :   0.9439 B(  0-C , 21-H ) :   0.9489
B(  0-C , 22-H ) :   0.9503 B(  1-C ,  2-O ) :   0.8933 B(  1-C , 23-H ) :   0.9318
B(  1-C , 24-H ) :   0.9082 B(  2-O ,  3-C ) :   1.2753 B(  2-O ,  4-O ) :   0.1021
B(  3-C ,  4-O ) :   1.9385 B(  3-C ,  5-C ) :   1.0048 B(  4-O ,  8-C ) :   0.1089
B(  5-C ,  6-C ) :   1.0184 B(  5-C , 25-H ) :   0.9039 B(  5-C , 26-H ) :   0.8770
B(  6-C ,  7-H ) :   0.8777 B(  6-C ,  8-C ) :   0.9080 B(  6-C , 13-S ) :   1.0430
B(  8-C ,  9-O ) :   1.8456 B(  8-C , 10-O ) :   1.2899 B(  9-O , 14-P ) :   0.1807
B( 10-O , 11-C ) :   0.8863 B( 11-C , 12-C ) :   1.1783 B( 11-C , 27-H ) :   0.9364
B( 11-C , 28-H ) :   0.9095 B( 12-C , 29-H ) :   0.9418 B( 12-C , 30-H ) :   0.9321
B( 12-C , 31-H ) :   0.9499 B( 13-S , 14-P ) :   0.9308 B( 13-S , 15-S ) :   0.1079
B( 14-P , 15-S ) :   1.5639 B( 14-P , 16-O ) :   1.0745 B( 14-P , 18-O ) :   1.0349
B( 16-O , 17-C ) :   0.9384 B( 17-C , 32-H ) :   0.9547 B( 17-C , 33-H ) :   0.9548
B( 17-C , 34-H ) :   0.9314 B( 18-O , 19-C ) :   0.9482 B( 19-C , 35-H ) :   0.9519
B( 19-C , 36-H ) :   0.9285 B( 19-C , 37-H ) :   0.9609

Dispersion correction           -0.053430726
FINAL SINGLE POINT ENERGY     -1979.007306885487

DIPOLE MOMENT
-------------

Method             : SCF
Type of density    : Electron Density
Multiplicity       :   1
Irrep              :   0
Energy             : -1979.1379906687511721 Eh
Relativity type    :
Basis              : AO
                                X                 Y                 Z
Electronic contribution:    -10.094178757       0.156994464      -7.749545891
Nuclear contribution   :     10.865733302       0.852031658       7.374225508
                        -----------------------------------------
Total Dipole Moment    :      0.771554545       1.009026122      -0.375320383
                        -----------------------------------------
Magnitude (a.u.)       :      1.324498215
Magnitude (Debye)      :      3.366606913

Rotational constants in cm-1:             0.010968             0.009458             0.006750
Rotational constants in MHz :           328.822176           283.543030           202.373223

                             ****ORCA TERMINATED NORMALLY****
TOTAL RUN TIME: 0 days 0 hours 0 minutes 37 seconds 702 msec
