                         Program Version 6.0.0  -   RELEASE  -
|  1> ! pbe def2-sv(p) def2/J RI DEFGRID1 loosescf d4 GCP(DFT/SV(P)) printgap
|  2> %output
|  3>     printlevel normal
|  4> end
|  5> * xyz 0 1
|  6> C 3.5715826946 -1.3742605475 -2.7484402213
|  7> C 4.0885182479 -0.1127086769 -2.0846057972
|  8> O 3.7960840022 -0.0908699064 -0.6801083406
|  9> P 2.3704798039 0.2616453961 -0.0855314909
| 10> S 1.3370605346 1.4972148851 -1.2144174565
| 11> O 2.9355023971 0.7414789814 1.3058327372
| 12> C 2.1814838573 1.1012446689 2.4757308725
| 13> C 1.8021884715 2.5684475022 2.44821728
| 14> S 1.4269036527 -1.5898134847 0.3676961042
| 15> C 0.2428639341 -1.6959181788 -1.0217560369
| 16> S -1.4438416629 -2.0987561151 -0.5028011603
| 17> P -2.122027371 -0.1842518529 0.0581226101
| 18> S -1.1875394627 0.8059574614 1.4743122527
| 19> O -3.6633930524 -0.42714366 0.3566198964
| 20> C -4.1518233281 -0.7558456175 1.6676440346
| 21> C -3.7006321883 -2.1325972062 2.1108183702
| 22> O -2.1488779218 0.4870088291 -1.3749245682
| 23> C -2.2345870917 1.9116447432 -1.5732552091
| 24> C -3.5429157056 2.4773537692 -1.0648475999
| 25> H 3.8956137225 -2.2493343009 -2.1910419752
| 26> H 2.4837588982 -1.3570314063 -2.7852336097
| 27> H 3.9562262468 -1.4302007153 -3.7617668413
| 28> H 3.6542331432 0.778046484 -2.5512888463
| 29> H 5.1771886212 -0.0562431388 -2.1260249239
| 30> H 1.2902517947 0.4729680328 2.5536056598
| 31> H 2.8573801538 0.8810069163 3.3041249996
| 32> H 2.6880552943 3.1836724042 2.3170013989
| 33> H 1.112181978 2.7611300614 1.6290358227
| 34> H 1.3106863824 2.8270877583 3.3802625763
| 35> H 0.5497033259 -2.5146923005 -1.6670518093
| 36> H 0.2399841991 -0.7379094236 -1.5492922846
| 37> H -3.8014673392 0.0077612134 2.3700912763
| 38> H -5.2362642913 -0.6985409399 1.5658499243
| 39> H -3.960272838 -2.8748650086 1.360210745
| 40> H -2.620017663 -2.1421261589 2.2513940848
| 41> H -4.1800908772 -2.3843797886 3.0513153643
| 42> H -1.3808912143 2.3837093824 -1.0761436766
| 43> H -2.1300806523 2.0281478122 -2.6527770698
| 44> H -3.590900672 2.3841464828 0.0196604767
| 45> H -3.6069931935 3.5276595906 -1.3313477714
| 46> H -4.3790701828 1.938153371 -1.5025142628
| 47> *
| 48>
| 49>                          ****END OF INPUT****

CARTESIAN COORDINATES (ANGSTROEM)
---------------------------------
  C      3.571583   -1.374261   -2.748440
  C      4.088518   -0.112709   -2.084606
  O      3.796084   -0.090870   -0.680108
  P      2.370480    0.261645   -0.085531
  S      1.337061    1.497215   -1.214417
  O      2.935502    0.741479    1.305833
  C      2.181484    1.101245    2.475731
  C      1.802188    2.568448    2.448217
  S      1.426904   -1.589813    0.367696
  C      0.242864   -1.695918   -1.021756
  S     -1.443842   -2.098756   -0.502801
  P     -2.122027   -0.184252    0.058123
  S     -1.187539    0.805957    1.474312
  O     -3.663393   -0.427144    0.356620
  C     -4.151823   -0.755846    1.667644
  C     -3.700632   -2.132597    2.110818
  O     -2.148878    0.487009   -1.374925
  C     -2.234587    1.911645   -1.573255
  C     -3.542916    2.477354   -1.064848
  H      3.895614   -2.249334   -2.191042
  H      2.483759   -1.357031   -2.785234
  H      3.956226   -1.430201   -3.761767
  H      3.654233    0.778046   -2.551289
  H      5.177189   -0.056243   -2.126025
  H      1.290252    0.472968    2.553606
  H      2.857380    0.881007    3.304125
  H      2.688055    3.183672    2.317001
  H      1.112182    2.761130    1.629036
  H      1.310686    2.827088    3.380263
  H      0.549703   -2.514692   -1.667052
  H      0.239984   -0.737909   -1.549292
  H     -3.801467    0.007761    2.370091
  H     -5.236264   -0.698541    1.565850
  H     -3.960273   -2.874865    1.360211
  H     -2.620018   -2.142126    2.251394
  H     -4.180091   -2.384380    3.051315
  H     -1.380891    2.383709   -1.076144
  H     -2.130081    2.028148   -2.652777
  H     -3.590901    2.384146    0.019660
  H     -3.606993    3.527660   -1.331348
  H     -4.379070    1.938153   -1.502514

 Total Charge           Charge          ....    0
 Multiplicity           Mult            ....    1
 Number of Electrons    NEL             ....  202
 Basis Dimension        Dim             ....  334

ORBITAL ENERGIES
----------------

  NO   OCC          E(Eh)            E(eV)
   0   2.0000     -88.043637     -2395.7892
   1   2.0000     -88.039219     -2395.6689
   2   2.0000     -87.987613     -2394.2647
   3   2.0000     -87.985752     -2394.2140
   4   2.0000     -76.426244     -2079.6638
   5   2.0000     -76.425042     -2079.6311
   6   2.0000     -18.794016      -511.4112
   7   2.0000     -18.789135      -511.2784
   8   2.0000     -18.788646      -511.2650
   9   2.0000     -18.782279      -511.0918
  10   2.0000      -9.956493      -270.9299
  11   2.0000      -9.953239      -270.8414
  12   2.0000      -9.948920      -270.7239
  13   2.0000      -9.946085      -270.6467
  14   2.0000      -9.945409      -270.6283
  15   2.0000      -9.886235      -269.0181
  16   2.0000      -9.885461      -268.9971
  17   2.0000      -9.880289      -268.8563
  18   2.0000      -9.873500      -268.6716
  19   2.0000      -7.689204      -209.2339
  20   2.0000      -7.684327      -209.1012
  21   2.0000      -7.632275      -207.6847
  22   2.0000      -7.630521      -207.6370
  23   2.0000      -6.423829      -174.8013
  24   2.0000      -6.422229      -174.7577
  25   2.0000      -5.717115      -155.5706
  26   2.0000      -5.713709      -155.4779
  27   2.0000      -5.712218      -155.4374
  28   2.0000      -5.708871      -155.3463
  29   2.0000      -5.706047      -155.2694
  30   2.0000      -5.701281      -155.1397
  31   2.0000      -5.660998      -154.0436
  32   2.0000      -5.659234      -153.9956
  33   2.0000      -5.653195      -153.8312
  34   2.0000      -5.652326      -153.8076
  35   2.0000      -5.651174      -153.7763
  36   2.0000      -5.650851      -153.7675
  37   2.0000      -4.646312      -126.4326
  38   2.0000      -4.645609      -126.4134
  39   2.0000      -4.644493      -126.3831
  40   2.0000      -4.644364      -126.3796
  41   2.0000      -4.644196      -126.3750
  42   2.0000      -4.642806      -126.3372
  43   2.0000      -0.986816       -26.8526
  44   2.0000      -0.985401       -26.8141
  45   2.0000      -0.946227       -25.7481
  46   2.0000      -0.939762       -25.5722
  47   2.0000      -0.760882       -20.7046
  48   2.0000      -0.720458       -19.6047
  49   2.0000      -0.708383       -19.2761
  50   2.0000      -0.687079       -18.6964
  51   2.0000      -0.680088       -18.5061
  52   2.0000      -0.673377       -18.3235
  53   2.0000      -0.653429       -17.7807
  54   2.0000      -0.635516       -17.2933
  55   2.0000      -0.601344       -16.3634
  56   2.0000      -0.594479       -16.1766
  57   2.0000      -0.572222       -15.5710
  58   2.0000      -0.564219       -15.3532
  59   2.0000      -0.562466       -15.3055
  60   2.0000      -0.497318       -13.5327
  61   2.0000      -0.489725       -13.3261
  62   2.0000      -0.472821       -12.8661
  63   2.0000      -0.467233       -12.7141
  64   2.0000      -0.452161       -12.3039
  65   2.0000      -0.444331       -12.0909
  66   2.0000      -0.438352       -11.9282
  67   2.0000      -0.432931       -11.7807
  68   2.0000      -0.421910       -11.4808
  69   2.0000      -0.417795       -11.3688
  70   2.0000      -0.412928       -11.2364
  71   2.0000      -0.401093       -10.9143
  72   2.0000      -0.391442       -10.6517
  73   2.0000      -0.387993       -10.5578
  74   2.0000      -0.383911       -10.4468
  75   2.0000      -0.377516       -10.2727
  76   2.0000      -0.366682        -9.9779
  77   2.0000      -0.355473        -9.6729
  78   2.0000      -0.350926        -9.5492
  79   2.0000      -0.347434        -9.4542
  80   2.0000      -0.344716        -9.3802
  81   2.0000      -0.343587        -9.3495
  82   2.0000      -0.337291        -9.1782
  83   2.0000      -0.333704        -9.0806
  84   2.0000      -0.327642        -8.9156
  85   2.0000      -0.315763        -8.5924
  86   2.0000      -0.309994        -8.4354
  87   2.0000      -0.295846        -8.0504
  88   2.0000      -0.292244        -7.9524
  89   2.0000      -0.285920        -7.7803
  90   2.0000      -0.281306        -7.6547
  91   2.0000      -0.271513        -7.3883
  92   2.0000      -0.267869        -7.2891
  93   2.0000      -0.262693        -7.1482
  94   2.0000      -0.258263        -7.0277
  95   2.0000      -0.241408        -6.5690
  96   2.0000      -0.223880        -6.0921
  97   2.0000      -0.207941        -5.6584
  98   2.0000      -0.205381        -5.5887
  99   2.0000      -0.197077        -5.3627
 100   2.0000      -0.190502        -5.1838
 101   0.0000      -0.038735        -1.0540
 102   0.0000      -0.032594        -0.8869
 103   0.0000      -0.016375        -0.4456
 104   0.0000       0.002439         0.0664
 105   0.0000       0.015631         0.4253

MULLIKEN ATOMIC CHARGES
-----------------------
   0 C :   -0.321246
   1 C :   -0.001199
   2 O :   -0.357507
   3 P :    0.614880
   4 S :   -0.333509
   5 O :   -0.356442
   6 C :   -0.018454
   7 C :   -0.303079
   8 S :   -0.089010
   9 C :   -0.383025
  10 S :   -0.072998
  11 P :    0.620136
  12 S :   -0.333699
  13 O :   -0.371171
  14 C :   -0.003993
  15 C :   -0.323647
  16 O :   -0.367619
  17 C :   -0.011328
  18 C :   -0.307083
  19 H :    0.120508
  20 H :    0.121495
  21 H :    0.112010
  22 H :    0.111394
  23 H :    0.105511
  24 H :    0.128112
  25 H :    0.103042
  26 H :    0.112372
  27 H :    0.137671
  28 H :    0.106747
  29 H :    0.190629
  30 H :    0.204041
  31 H :    0.110768
  32 H :    0.106161
  33 H :    0.120573
  34 H :    0.131425
  35 H :    0.115161
  36 H :    0.130745
  37 H :    0.103954
  38 H :    0.120390
  39 H :    0.111836
  40 H :    0.115443
Sum of atomic charges:   -0.0000000

LOEWDIN ATOMIC CHARGES
----------------------
   0 C :   -0.365345
   1 C :   -0.119852
   2 O :   -0.237613
   3 P :    0.569371
   4 S :   -0.303838
   5 O :   -0.226144
   6 C :   -0.117567
   7 C :   -0.363790
   8 S :    0.068445
   9 C :   -0.484811
  10 S :    0.095747
  11 P :    0.575058
  12 S :   -0.313152
  13 O :   -0.241476
  14 C :   -0.120533
  15 C :   -0.371181
  16 O :   -0.237400
  17 C :   -0.118914
  18 C :   -0.366209
  19 H :    0.127226
  20 H :    0.119874
  21 H :    0.130642
  22 H :    0.107618
  23 H :    0.119298
  24 H :    0.105456
  25 H :    0.117472
  26 H :    0.124880
  27 H :    0.124420
  28 H :    0.129017
  29 H :    0.135272
  30 H :    0.121931
  31 H :    0.109947
  32 H :    0.119200
  33 H :    0.124890
  34 H :    0.122980
  35 H :    0.132318
  36 H :    0.110427
  37 H :    0.119279
  38 H :    0.121084
  39 H :    0.130522
  40 H :    0.125449

  Mayer bond orders larger than 0.100000
B(  0-C ,  1-C ) :   1.1599 B(  0-C , 19-H ) :   0.9458 B(  0-C , 20-H ) :   0.9355
B(  0-C , 21-H ) :   0.9391 B(  1-C ,  2-O ) :   0.9265 B(  1-C , 22-H ) :   0.9099
B(  1-C , 23-H ) :   0.9336 B(  2-O ,  3-P ) :   1.1092 B(  3-P ,  4-S ) :   1.5826
B(  3-P ,  5-O ) :   1.1540 B(  3-P ,  8-S ) :   0.9602 B(  4-S ,  8-S ) :   0.1221
B(  4-S , 30-H ) :   0.1068 B(  5-O ,  6-C ) :   0.9030 B(  6-C ,  7-C ) :   1.1708
B(  6-C , 24-H ) :   0.9073 B(  6-C , 25-H ) :   0.9344 B(  7-C , 26-H ) :   0.9465
B(  7-C , 27-H ) :   0.9336 B(  7-C , 28-H ) :   0.9399 B(  8-S ,  9-C ) :   0.9949
B(  9-C , 10-S ) :   1.0014 B(  9-C , 29-H ) :   0.9023 B(  9-C , 30-H ) :   0.8418
B( 10-S , 11-P ) :   0.9664 B( 10-S , 12-S ) :   0.1133 B( 11-P , 12-S ) :   1.6058
B( 11-P , 13-O ) :   1.1044 B( 11-P , 16-O ) :   1.1282 B( 13-O , 14-C ) :   0.9074
B( 14-C , 15-C ) :   1.1655 B( 14-C , 31-H ) :   0.9139 B( 14-C , 32-H ) :   0.9329
B( 15-C , 33-H ) :   0.9439 B( 15-C , 34-H ) :   0.9338 B( 15-C , 35-H ) :   0.9379
B( 16-O , 17-C ) :   0.8977 B( 17-C , 18-C ) :   1.1628 B( 17-C , 36-H ) :   0.9104
B( 17-C , 37-H ) :   0.9359 B( 18-C , 38-H ) :   0.9358 B( 18-C , 39-H ) :   0.9389
B( 18-C , 40-H ) :   0.9449

Dispersion correction           -0.066975895
FINAL SINGLE POINT ENERGY     -2929.521505237170

DIPOLE MOMENT
-------------

Method             : SCF
Type of density    : Electron Density
Multiplicity       :   1
Irrep              :   0
Energy             : -2929.6391957565670054 Eh
Relativity type    :
Basis              : AO
                                X                 Y                 Z
Electronic contribution:      5.144335548      -6.570583918      -0.737030885
Nuclear contribution   :     -5.532386990       6.293650056       0.585537018
                        -----------------------------------------
Total Dipole Moment    :     -0.388051441      -0.276933861      -0.151493867
                        -----------------------------------------
Magnitude (a.u.)       :      0.500226625
Magnitude (Debye)      :      1.271475036

Rotational constants in cm-1:             0.011589             0.005304             0.005082
Rotational constants in MHz :           347.431184           159.011202           152.349355

                             ****ORCA TERMINATED NORMALLY****
TOTAL RUN TIME: 0 days 0 hours 0 minutes 21 seconds 329 msec
