                         Program Version 6.0.0  -   RELEASE  -
|  1> ! wb97x-v def2-tzvp def2/J RIJCOSX DEFGRID2 scfconv7 GCP(DFT/TZ) printgap
|  2> %output
|  3>     printlevel normal
|  4> end
|  5> * xyz 0 1
|  6> C -1.0509206623118357 -2.1943283315553757 9.04198551303847e-06
|  7> C -0.20335903838781214 -0.9591672191008876 2.6482866890500016e-05
|  8> C 1.1909018515220302 -1.0532234256408899 4.5644039232988256e-05
|  9> C 1.9921156278183185 0.08719955255173159 1.282675657782291e-05
| 10> C 1.4167398641325797 1.3560361495227877 -1.2918432624243672e-05
| 11> C 0.03284422857954773 1.4714415179853497 -3.49826391080792e-05
| 12> C -0.7538770973593456 0.32637677015113264 -2.8507558600296346e-05
| 13> Cl -2.510511548925767 0.5170578830227244 -0.00012952775542048376
| 14> O 3.365650116192409 0.014426984404999385 1.5124429696433186e-05
| 15> H -0.4241546742407978 -3.0880564995992694 0.0006959417779872088
| 16> H -1.7020669345721173 -2.225413397875575 0.8800113433520934
| 17> H -1.7010160994757624 -2.226074064572241 -0.8807567720325742
| 18> H 1.656714602066196 -2.035514900629759 8.481333935687113e-05
| 19> H 2.045663217292351 2.239707711654025 -1.8247787266869507e-05
| 20> H -0.4289684132119601 2.452399210531184 -6.121567920429409e-05
| 21> H 3.634964827050063 -0.9147125220129921 1.9502168453680743e-05
| 22> *
| 23>
| 24>                          ****END OF INPUT****

CARTESIAN COORDINATES (ANGSTROEM)
---------------------------------
  C     -1.050921   -2.194328    0.000009
  C     -0.203359   -0.959167    0.000026
  C      1.190902   -1.053223    0.000046
  C      1.992116    0.087200    0.000013
  C      1.416740    1.356036   -0.000013
  C      0.032844    1.471442   -0.000035
  C     -0.753877    0.326377   -0.000029
  Cl    -2.510512    0.517058   -0.000130
  O      3.365650    0.014427    0.000015
  H     -0.424155   -3.088056    0.000696
  H     -1.702067   -2.225413    0.880011
  H     -1.701016   -2.226074   -0.880757
  H      1.656715   -2.035515    0.000085
  H      2.045663    2.239708   -0.000018
  H     -0.428968    2.452399   -0.000061
  H      3.634965   -0.914713    0.000020

 Total Charge           Charge          ....    0
 Multiplicity           Mult            ....    1
 Number of Electrons    NEL             ....   74
 Basis Dimension        Dim             ....  327

ORBITAL ENERGIES
----------------

  NO   OCC          E(Eh)            E(eV)
   0   2.0000    -107.139027     -2915.4011
   1   2.0000     -21.711123      -590.7897
   2   2.0000     -12.123543      -329.8984
   3   2.0000     -12.108033      -329.4763
   4   2.0000     -12.080730      -328.7334
   5   2.0000     -12.067782      -328.3810
   6   2.0000     -12.061961      -328.2227
   7   2.0000     -12.056605      -328.0769
   8   2.0000     -12.052379      -327.9619
   9   2.0000     -11.292096      -307.2736
  10   2.0000      -9.083666      -247.1791
  11   2.0000      -9.081017      -247.1070
  12   2.0000      -9.081001      -247.1066
  13   2.0000      -1.724627       -46.9295
  14   2.0000      -1.429786       -38.9065
  15   2.0000      -1.380377       -37.5620
  16   2.0000      -1.312882       -35.7253
  17   2.0000      -1.280889       -34.8548
  18   2.0000      -1.210887       -32.9499
  19   2.0000      -1.160273       -31.5726
  20   2.0000      -1.115854       -30.3639
  21   2.0000      -1.068975       -29.0883
  22   2.0000      -1.013143       -27.5690
  23   2.0000      -0.963800       -26.2263
  24   2.0000      -0.960089       -26.1254
  25   2.0000      -0.955632       -26.0041
  26   2.0000      -0.909542       -24.7499
  27   2.0000      -0.887084       -24.1388
  28   2.0000      -0.873069       -23.7574
  29   2.0000      -0.852566       -23.1995
  30   2.0000      -0.836223       -22.7548
  31   2.0000      -0.823608       -22.4115
  32   2.0000      -0.811705       -22.0876
  33   2.0000      -0.786009       -21.3884
  34   2.0000      -0.763838       -20.7851
  35   2.0000      -0.654965       -17.8225
  36   2.0000      -0.647594       -17.6219
  37   0.0000      -0.265521        -7.2252
  38   0.0000      -0.261962        -7.1283
  39   0.0000      -0.253901        -6.9090
  40   0.0000      -0.155249        -4.2245
  41   0.0000      -0.090752        -2.4695

MULLIKEN ATOMIC CHARGES
-----------------------
   0 C :   -0.349015
   1 C :    0.096134
   2 C :   -0.269650
   3 C :    0.282316
   4 C :   -0.218826
   5 C :   -0.146314
   6 C :    0.038028
   7 Cl:   -0.108465
   8 O :   -0.389643
   9 H :    0.111939
  10 H :    0.134836
  11 H :    0.134827
  12 H :    0.108888
  13 H :    0.127829
  14 H :    0.133323
  15 H :    0.313793
Sum of atomic charges:    0.0000000

LOEWDIN ATOMIC CHARGES
----------------------
   0 C :   -0.255008
   1 C :   -0.170716
   2 C :   -0.117580
   3 C :   -0.259156
   4 C :   -0.119329
   5 C :   -0.135599
   6 C :   -0.386807
   7 Cl:    0.361330
   8 O :    0.068428
   9 H :    0.124118
  10 H :    0.131164
  11 H :    0.131176
  12 H :    0.143376
  13 H :    0.149928
  14 H :    0.149026
  15 H :    0.185650

  Mayer bond orders larger than 0.100000
B(  0-C ,  1-C ) :   0.9276 B(  0-C ,  9-H ) :   0.9911 B(  0-C , 10-H ) :   0.9662
B(  0-C , 11-H ) :   0.9661 B(  1-C ,  2-C ) :   1.4051 B(  1-C ,  6-C ) :   1.3081
B(  2-C ,  3-C ) :   1.3793 B(  2-C , 12-H ) :   0.9332 B(  3-C ,  4-C ) :   1.4109
B(  3-C ,  8-O ) :   1.1379 B(  4-C ,  5-C ) :   1.4276 B(  4-C , 13-H ) :   0.9721
B(  5-C ,  6-C ) :   1.4051 B(  5-C , 14-H ) :   0.9679 B(  6-C ,  7-Cl) :   1.0509
B(  8-O , 15-H ) :   0.8900

FINAL SINGLE POINT ENERGY      -806.352620538509

DIPOLE MOMENT
-------------

Method             : SCF
Type of density    : Electron Density
Multiplicity       :   1
Irrep              :   0
Energy             :  -806.3614801035090522 Eh
Relativity type    :
Basis              : AO
                                X                 Y                 Z
Electronic contribution:     -5.800785932       5.437862440      -0.000302471
Nuclear contribution   :      6.329534415      -6.174154994       0.000303978
                        -----------------------------------------
Total Dipole Moment    :      0.528748483      -0.736292554       0.000001507
                        -----------------------------------------
Magnitude (a.u.)       :      0.906477624
Magnitude (Debye)      :      2.304083011

Rotational constants in cm-1:             0.094475             0.031093             0.023496
Rotational constants in MHz :          2832.279725           932.151872           704.386397

                             ****ORCA TERMINATED NORMALLY****
TOTAL RUN TIME: 0 days 0 hours 3 minutes 5 seconds 595 msec
