                         Program Version 6.0.0  -   RELEASE  -
|  1> ! wb97x-v def2-tzvp def2/J RIJCOSX DEFGRID2 scfconv7 GCP(DFT/TZ) printgap
|  2> %output
|  3>     printlevel normal
|  4> end
|  5> %cpcm
|  6>     smd true
|  7>     smdsolvent "water"
|  8> end
|  9> * xyz 0 1
| 10> C -1.0509206623118357 -2.1943283315553757 9.04198551303847e-06
| 11> C -0.20335903838781214 -0.9591672191008876 2.6482866890500016e-05
| 12> C 1.1909018515220302 -1.0532234256408899 4.5644039232988256e-05
| 13> C 1.9921156278183185 0.08719955255173159 1.282675657782291e-05
| 14> C 1.4167398641325797 1.3560361495227877 -1.2918432624243672e-05
| 15> C 0.03284422857954773 1.4714415179853497 -3.49826391080792e-05
| 16> C -0.7538770973593456 0.32637677015113264 -2.8507558600296346e-05
| 17> Cl -2.510511548925767 0.5170578830227244 -0.00012952775542048376
| 18> O 3.365650116192409 0.014426984404999385 1.5124429696433186e-05
| 19> H -0.4241546742407978 -3.0880564995992694 0.0006959417779872088
| 20> H -1.7020669345721173 -2.225413397875575 0.8800113433520934
| 21> H -1.7010160994757624 -2.226074064572241 -0.8807567720325742
| 22> H 1.656714602066196 -2.035514900629759 8.481333935687113e-05
| 23> H 2.045663217292351 2.239707711654025 -1.8247787266869507e-05
| 24> H -0.4289684132119601 2.452399210531184 -6.121567920429409e-05
| 25> H 3.634964827050063 -0.9147125220129921 1.9502168453680743e-05
| 26> *
| 27>
| 28>                          ****END OF INPUT****

CARTESIAN COORDINATES (ANGSTROEM)
---------------------------------
  C     -1.050921   -2.194328    0.000009
  C     -0.203359   -0.959167    0.000026
  C      1.190902   -1.053223    0.000046
  C      1.992116    0.087200    0.000013
  C      1.416740    1.356036   -0.000013
  C      0.032844    1.471442   -0.000035
  C     -0.753877    0.326377   -0.000029
  Cl    -2.510512    0.517058   -0.000130
  O      3.365650    0.014427    0.000015
  H     -0.424155   -3.088056    0.000696
  H     -1.702067   -2.225413    0.880011
  H     -1.701016   -2.226074   -0.880757
  H      1.656715   -2.035515    0.000085
  H      2.045663    2.239708   -0.000018
  H     -0.428968    2.452399   -0.000061
  H      3.634965   -0.914713    0.000020

 Total Charge           Charge          ....    0
 Multiplicity           Mult            ....    1
 Number of Electrons    NEL             ....   74
 Basis Dimension        Dim             ....  327

ORBITAL ENERGIES
----------------

  NO   OCC          E(Eh)            E(eV)
   0   2.0000    -107.142596     -2915.4983
   1   2.0000     -21.703751      -590.5891
   2   2.0000     -12.118075      -329.7496
   3   2.0000     -12.105587      -329.4098
   4   2.0000     -12.075151      -328.5816
   5   2.0000     -12.063005      -328.2511
   6   2.0000     -12.052128      -327.9551
   7   2.0000     -12.051011      -327.9247
   8   2.0000     -12.039360      -327.6076
   9   2.0000     -11.295731      -307.3725
  10   2.0000      -9.087285      -247.2776
  11   2.0000      -9.084703      -247.2073
  12   2.0000      -9.084680      -247.2067
  13   2.0000      -1.717454       -46.7343
  14   2.0000      -1.429846       -38.9081
  15   2.0000      -1.378367       -37.5073
  16   2.0000      -1.306642       -35.5555
  17   2.0000      -1.276562       -34.7370
  18   2.0000      -1.201730       -32.7007
  19   2.0000      -1.154172       -31.4066
  20   2.0000      -1.109477       -30.1904
  21   2.0000      -1.062548       -28.9134
  22   2.0000      -1.008985       -27.4559
  23   2.0000      -0.960300       -26.1311
  24   2.0000      -0.955490       -26.0002
  25   2.0000      -0.950820       -25.8731
  26   2.0000      -0.900376       -24.5005
  27   2.0000      -0.878935       -23.9170
  28   2.0000      -0.868104       -23.6223
  29   2.0000      -0.844445       -22.9785
  30   2.0000      -0.827748       -22.5242
  31   2.0000      -0.811489       -22.0817
  32   2.0000      -0.811256       -22.0754
  33   2.0000      -0.788636       -21.4599
  34   2.0000      -0.761491       -20.7212
  35   2.0000      -0.650279       -17.6950
  36   2.0000      -0.644574       -17.5397
  37   0.0000      -0.262563        -7.1447
  38   0.0000      -0.262519        -7.1435
  39   0.0000      -0.248412        -6.7596
  40   0.0000      -0.147491        -4.0134
  41   0.0000      -0.085917        -2.3379

MULLIKEN ATOMIC CHARGES
-----------------------
   0 C :   -0.388844
   1 C :    0.114421
   2 C :   -0.321026
   3 C :    0.299907
   4 C :   -0.277028
   5 C :   -0.188780
   6 C :    0.036054
   7 Cl:   -0.128679
   8 O :   -0.466794
   9 H :    0.146573
  10 H :    0.146568
  11 H :    0.146582
  12 H :    0.172779
  13 H :    0.160955
  14 H :    0.167728
  15 H :    0.379583
Sum of atomic charges:    0.0000000

LOEWDIN ATOMIC CHARGES
----------------------
   0 C :   -0.256488
   1 C :   -0.174338
   2 C :   -0.106108
   3 C :   -0.266469
   4 C :   -0.131341
   5 C :   -0.144342
   6 C :   -0.398049
   7 Cl:    0.344584
   8 O :    0.044635
   9 H :    0.133450
  10 H :    0.133262
  11 H :    0.133282
  12 H :    0.161943
  13 H :    0.157175
  14 H :    0.157383
  15 H :    0.211423

  Mayer bond orders larger than 0.100000
B(  0-C ,  1-C ) :   0.9271 B(  0-C ,  9-H ) :   0.9839 B(  0-C , 10-H ) :   0.9649
B(  0-C , 11-H ) :   0.9648 B(  1-C ,  2-C ) :   1.3597 B(  1-C ,  6-C ) :   1.2833
B(  2-C ,  3-C ) :   1.3820 B(  2-C , 12-H ) :   0.9535 B(  3-C ,  4-C ) :   1.3775
B(  3-C ,  8-O ) :   1.1017 B(  4-C ,  5-C ) :   1.4335 B(  4-C , 13-H ) :   0.9789
B(  5-C ,  6-C ) :   1.3802 B(  5-C , 14-H ) :   0.9724 B(  6-C ,  7-Cl) :   1.0373
B(  8-O , 15-H ) :   0.8481

FINAL SINGLE POINT ENERGY      -806.361921815106

DIPOLE MOMENT
-------------

Method             : SCF
Type of density    : Electron Density
Multiplicity       :   1
Irrep              :   0
Energy             :  -806.3707813801055408 Eh
Relativity type    :
Basis              : AO
                                X                 Y                 Z
Electronic contribution:     -5.587909583       5.083926353      -0.000303434
Nuclear contribution   :      6.329534415      -6.174154994       0.000303978
                        -----------------------------------------
Total Dipole Moment    :      0.741624832      -1.090228641       0.000000544
                        -----------------------------------------
Magnitude (a.u.)       :      1.318562050
Magnitude (Debye)      :      3.351518382

Rotational constants in cm-1:             0.094475             0.031093             0.023496
Rotational constants in MHz :          2832.279725           932.151872           704.386397

                             ****ORCA TERMINATED NORMALLY****
TOTAL RUN TIME: 0 days 0 hours 3 minutes 26 seconds 114 msec
