                         Program Version 6.0.0  -   RELEASE  -
|  1> ! wb97x-v def2-tzvp def2/J RIJCOSX DEFGRID2 scfconv7 GCP(DFT/TZ) printgap
|  2> %output
|  3>     printlevel normal
|  4> end
|  5> * xyz 0 1
|  6> C 2.3948476527973814 -5.94083325872426e-05 -0.08418839459189155
|  7> N 1.0027460904291061 -2.1979249691506106e-05 0.3677341768092193
|  8> C 0.3212372461050082 1.1936032048472447 -0.1588464374238069
|  9> C -1.1467212608504518 1.1974531544982965 0.22351532368489027
| 10> N -1.80953683422304 -7.571953859998282e-06 -0.3206886897736727
| 11> C -1.1467552753813326 -1.1974565385720486 0.2235869391030066
| 12> C 0.3212057735936751 -1.193664299471754 -0.15876617146556748
| 13> H 2.9116577869708187 -0.8869450253353149 0.2970763864295362
| 14> H 2.9116184080212943 0.8869468158802487 0.29684425994847075
| 15> H 2.481310542289871 -0.00020155498891021704 -1.1863795632067753
| 16> H 0.8067251517584373 2.0871074523046262 0.24977222214942774
| 17> H 0.41233315740305077 1.2427809977941113 -1.2618409783064062
| 18> H -1.2340358093999169 1.2559738726549277 1.3227954587489534
| 19> H -1.6205553808850444 2.092931118126992 -0.19208650650374925
| 20> H -2.7680649447297196 1.647683028272493e-05 0.014823518158507428
| 21> H -1.234080481464833 -1.2559158708480607 1.3228692950235914
| 22> H -1.6206083674154845 -2.0929453762407295 -0.1919716257123132
| 23> H 0.8066690857818957 -2.0871542717017855 0.24991169977457098
| 24> H 0.4123054694166939 -1.2429135261670095 -1.2617566168221295
| 25> *
| 26>
| 27>                          ****END OF INPUT****

CARTESIAN COORDINATES (ANGSTROEM)
---------------------------------
  C      2.394848   -0.000059   -0.084188
  N      1.002746   -0.000022    0.367734
  C      0.321237    1.193603   -0.158846
  C     -1.146721    1.197453    0.223515
  N     -1.809537   -0.000008   -0.320689
  C     -1.146755   -1.197457    0.223587
  C      0.321206   -1.193664   -0.158766
  H      2.911658   -0.886945    0.297076
  H      2.911618    0.886947    0.296844
  H      2.481311   -0.000202   -1.186380
  H      0.806725    2.087107    0.249772
  H      0.412333    1.242781   -1.261841
  H     -1.234036    1.255974    1.322795
  H     -1.620555    2.092931   -0.192087
  H     -2.768065    0.000016    0.014824
  H     -1.234080   -1.255916    1.322869
  H     -1.620608   -2.092945   -0.191972
  H      0.806669   -2.087154    0.249912
  H      0.412305   -1.242914   -1.261757

 Total Charge           Charge          ....    0
 Multiplicity           Mult            ....    1
 Number of Electrons    NEL             ....   56
 Basis Dimension        Dim             ....  289

ORBITAL ENERGIES
----------------

  NO   OCC          E(Eh)            E(eV)
   0   2.0000     -16.517379      -449.4607
   1   2.0000     -16.510314      -449.2685
   2   2.0000     -12.064500      -328.2917
   3   2.0000     -12.064181      -328.2831
   4   2.0000     -12.062743      -328.2439
   5   2.0000     -12.062645      -328.2413
   6   2.0000     -12.059138      -328.1458
   7   2.0000      -1.493982       -40.6533
   8   2.0000      -1.456046       -39.6210
   9   2.0000      -1.273616       -34.6569
  10   2.0000      -1.229420       -33.4542
  11   2.0000      -1.138210       -30.9723
  12   2.0000      -1.136741       -30.9323
  13   2.0000      -1.027833       -27.9687
  14   2.0000      -0.975020       -26.5316
  15   2.0000      -0.935851       -25.4658
  16   2.0000      -0.927224       -25.2311
  17   2.0000      -0.905183       -24.6313
  18   2.0000      -0.897320       -24.4173
  19   2.0000      -0.873103       -23.7583
  20   2.0000      -0.835125       -22.7249
  21   2.0000      -0.814138       -22.1538
  22   2.0000      -0.811737       -22.0885
  23   2.0000      -0.798285       -21.7224
  24   2.0000      -0.784649       -21.3514
  25   2.0000      -0.782734       -21.2993
  26   2.0000      -0.711287       -19.3551
  27   2.0000      -0.681505       -18.5447
  28   0.0000      -0.115365        -3.1393
  29   0.0000      -0.063097        -1.7170
  30   0.0000      -0.061216        -1.6658
  31   0.0000      -0.048091        -1.3086
  32   0.0000      -0.037374        -1.0170

MULLIKEN ATOMIC CHARGES
-----------------------
   0 C :   -0.279442
   1 N :   -0.149192
   2 C :   -0.137684
   3 C :   -0.103254
   4 N :   -0.316563
   5 C :   -0.103280
   6 C :   -0.137682
   7 H :    0.115076
   8 H :    0.115071
   9 H :    0.095248
  10 H :    0.098986
  11 H :    0.078896
  12 H :    0.082289
  13 H :    0.098541
  14 H :    0.184272
  15 H :    0.082286
  16 H :    0.098548
  17 H :    0.098983
  18 H :    0.078903
Sum of atomic charges:   -0.0000000

LOEWDIN ATOMIC CHARGES
----------------------
   0 C :   -0.321367
   1 N :    0.055691
   2 C :   -0.285145
   3 C :   -0.304521
   4 N :   -0.028544
   5 C :   -0.304520
   6 C :   -0.285145
   7 H :    0.112012
   8 H :    0.112012
   9 H :    0.099086
  10 H :    0.129835
  11 H :    0.120909
  12 H :    0.117233
  13 H :    0.126949
  14 H :    0.160589
  15 H :    0.117233
  16 H :    0.126949
  17 H :    0.129835
  18 H :    0.120909

  Mayer bond orders larger than 0.100000
B(  0-C ,  1-N ) :   0.9911 B(  0-C ,  7-H ) :   0.9799 B(  0-C ,  8-H ) :   0.9799
B(  0-C ,  9-H ) :   0.9784 B(  1-N ,  2-C ) :   0.9915 B(  1-N ,  6-C ) :   0.9915
B(  2-C ,  3-C ) :   1.0246 B(  2-C , 10-H ) :   0.9637 B(  2-C , 11-H ) :   0.9649
B(  3-C ,  4-N ) :   1.0165 B(  3-C , 12-H ) :   0.9771 B(  3-C , 13-H ) :   0.9632
B(  4-N ,  5-C ) :   1.0165 B(  4-N , 14-H ) :   0.9405 B(  5-C ,  6-C ) :   1.0246
B(  5-C , 15-H ) :   0.9771 B(  5-C , 16-H ) :   0.9632 B(  6-C , 17-H ) :   0.9637
B(  6-C , 18-H ) :   0.9649

FINAL SINGLE POINT ENERGY      -307.256254635650

DIPOLE MOMENT
-------------

Method             : SCF
Type of density    : Electron Density
Multiplicity       :   1
Irrep              :   0
Energy             :  -307.2700047506504006 Eh
Relativity type    :
Basis              : AO
                                X                 Y                 Z
Electronic contribution:     -2.209439682       0.000056659       0.559848964
Nuclear contribution   :      2.130164052      -0.000049197      -0.415468781
                        -----------------------------------------
Total Dipole Moment    :     -0.079275630       0.000007462       0.144380183
                        -----------------------------------------
Magnitude (a.u.)       :      0.164712668
Magnitude (Debye)      :      0.418666330

Rotational constants in cm-1:             0.156219             0.077436             0.056548
Rotational constants in MHz :          4683.319340          2321.487619          1695.261827

                             ****ORCA TERMINATED NORMALLY****
TOTAL RUN TIME: 0 days 0 hours 2 minutes 26 seconds 958 msec
