                         Program Version 6.0.0  -   RELEASE  -
|  1> ! wb97x-v def2-tzvp def2/J RIJCOSX DEFGRID2 scfconv7 GCP(DFT/TZ) printgap
|  2> %output
|  3>     printlevel normal
|  4> end
|  5> %cpcm
|  6>     smd true
|  7>     smdsolvent "water"
|  8> end
|  9> * xyz 0 1
| 10> C 2.3948476527973814 -5.94083325872426e-05 -0.08418839459189155
| 11> N 1.0027460904291061 -2.1979249691506106e-05 0.3677341768092193
| 12> C 0.3212372461050082 1.1936032048472447 -0.1588464374238069
| 13> C -1.1467212608504518 1.1974531544982965 0.22351532368489027
| 14> N -1.80953683422304 -7.571953859998282e-06 -0.3206886897736727
| 15> C -1.1467552753813326 -1.1974565385720486 0.2235869391030066
| 16> C 0.3212057735936751 -1.193664299471754 -0.15876617146556748
| 17> H 2.9116577869708187 -0.8869450253353149 0.2970763864295362
| 18> H 2.9116184080212943 0.8869468158802487 0.29684425994847075
| 19> H 2.481310542289871 -0.00020155498891021704 -1.1863795632067753
| 20> H 0.8067251517584373 2.0871074523046262 0.24977222214942774
| 21> H 0.41233315740305077 1.2427809977941113 -1.2618409783064062
| 22> H -1.2340358093999169 1.2559738726549277 1.3227954587489534
| 23> H -1.6205553808850444 2.092931118126992 -0.19208650650374925
| 24> H -2.7680649447297196 1.647683028272493e-05 0.014823518158507428
| 25> H -1.234080481464833 -1.2559158708480607 1.3228692950235914
| 26> H -1.6206083674154845 -2.0929453762407295 -0.1919716257123132
| 27> H 0.8066690857818957 -2.0871542717017855 0.24991169977457098
| 28> H 0.4123054694166939 -1.2429135261670095 -1.2617566168221295
| 29> *
| 30>
| 31>                          ****END OF INPUT****

CARTESIAN COORDINATES (ANGSTROEM)
---------------------------------
  C      2.394848   -0.000059   -0.084188
  N      1.002746   -0.000022    0.367734
  C      0.321237    1.193603   -0.158846
  C     -1.146721    1.197453    0.223515
  N     -1.809537   -0.000008   -0.320689
  C     -1.146755   -1.197457    0.223587
  C      0.321206   -1.193664   -0.158766
  H      2.911658   -0.886945    0.297076
  H      2.911618    0.886947    0.296844
  H      2.481311   -0.000202   -1.186380
  H      0.806725    2.087107    0.249772
  H      0.412333    1.242781   -1.261841
  H     -1.234036    1.255974    1.322795
  H     -1.620555    2.092931   -0.192087
  H     -2.768065    0.000016    0.014824
  H     -1.234080   -1.255916    1.322869
  H     -1.620608   -2.092945   -0.191972
  H      0.806669   -2.087154    0.249912
  H      0.412305   -1.242914   -1.261757

 Total Charge           Charge          ....    0
 Multiplicity           Mult            ....    1
 Number of Electrons    NEL             ....   56
 Basis Dimension        Dim             ....  289

ORBITAL ENERGIES
----------------

  NO   OCC          E(Eh)            E(eV)
   0   2.0000     -16.515874      -449.4198
   1   2.0000     -16.506539      -449.1658
   2   2.0000     -12.057568      -328.1031
   3   2.0000     -12.057227      -328.0938
   4   2.0000     -12.056106      -328.0633
   5   2.0000     -12.056035      -328.0614
   6   2.0000     -12.051275      -327.9319
   7   2.0000      -1.490484       -40.5581
   8   2.0000      -1.451789       -39.5052
   9   2.0000      -1.267913       -34.5017
  10   2.0000      -1.223894       -33.3038
  11   2.0000      -1.132733       -30.8232
  12   2.0000      -1.130514       -30.7629
  13   2.0000      -1.022098       -27.8127
  14   2.0000      -0.969398       -26.3787
  15   2.0000      -0.931158       -25.3381
  16   2.0000      -0.922630       -25.1060
  17   2.0000      -0.900011       -24.4906
  18   2.0000      -0.892031       -24.2734
  19   2.0000      -0.867814       -23.6144
  20   2.0000      -0.828286       -22.5388
  21   2.0000      -0.806845       -21.9554
  22   2.0000      -0.805547       -21.9200
  23   2.0000      -0.792016       -21.5519
  24   2.0000      -0.777991       -21.1702
  25   2.0000      -0.776259       -21.1231
  26   2.0000      -0.709162       -19.2973
  27   2.0000      -0.679089       -18.4789
  28   0.0000      -0.109602        -2.9824
  29   0.0000      -0.058134        -1.5819
  30   0.0000      -0.054736        -1.4894
  31   0.0000      -0.041847        -1.1387
  32   0.0000      -0.031984        -0.8703

MULLIKEN ATOMIC CHARGES
-----------------------
   0 C :   -0.320385
   1 N :   -0.194945
   2 C :   -0.157648
   3 C :   -0.124849
   4 N :   -0.388907
   5 C :   -0.124880
   6 C :   -0.157642
   7 H :    0.136175
   8 H :    0.136174
   9 H :    0.110952
  10 H :    0.125378
  11 H :    0.087389
  12 H :    0.093304
  13 H :    0.122418
  14 H :    0.228970
  15 H :    0.093302
  16 H :    0.122425
  17 H :    0.125375
  18 H :    0.087396
Sum of atomic charges:    0.0000000

LOEWDIN ATOMIC CHARGES
----------------------
   0 C :   -0.325845
   1 N :    0.038078
   2 C :   -0.288488
   3 C :   -0.306071
   4 N :   -0.049022
   5 C :   -0.306070
   6 C :   -0.288488
   7 H :    0.115854
   8 H :    0.115855
   9 H :    0.103683
  10 H :    0.135492
  11 H :    0.121818
  12 H :    0.119708
  13 H :    0.131890
  14 H :    0.172700
  15 H :    0.119708
  16 H :    0.131891
  17 H :    0.135492
  18 H :    0.121818

  Mayer bond orders larger than 0.100000
B(  0-C ,  1-N ) :   0.9860 B(  0-C ,  7-H ) :   0.9748 B(  0-C ,  8-H ) :   0.9748
B(  0-C ,  9-H ) :   0.9802 B(  1-N ,  2-C ) :   0.9803 B(  1-N ,  6-C ) :   0.9803
B(  2-C ,  3-C ) :   1.0111 B(  2-C , 10-H ) :   0.9650 B(  2-C , 11-H ) :   0.9696
B(  3-C ,  4-N ) :   1.0028 B(  3-C , 12-H ) :   0.9795 B(  3-C , 13-H ) :   0.9678
B(  4-N ,  5-C ) :   1.0029 B(  4-N , 14-H ) :   0.9277 B(  5-C ,  6-C ) :   1.0110
B(  5-C , 15-H ) :   0.9795 B(  5-C , 16-H ) :   0.9678 B(  6-C , 17-H ) :   0.9650
B(  6-C , 18-H ) :   0.9696

FINAL SINGLE POINT ENERGY      -307.271385607286

DIPOLE MOMENT
-------------

Method             : SCF
Type of density    : Electron Density
Multiplicity       :   1
Irrep              :   0
Energy             :  -307.2851357222863840 Eh
Relativity type    :
Basis              : AO
                                X                 Y                 Z
Electronic contribution:     -2.227839711       0.000060037       0.583104074
Nuclear contribution   :      2.130164052      -0.000049197      -0.415468781
                        -----------------------------------------
Total Dipole Moment    :     -0.097675659       0.000010840       0.167635293
                        -----------------------------------------
Magnitude (a.u.)       :      0.194015788
Magnitude (Debye)      :      0.493148942

Rotational constants in cm-1:             0.156219             0.077436             0.056548
Rotational constants in MHz :          4683.319340          2321.487619          1695.261827

                             ****ORCA TERMINATED NORMALLY****
TOTAL RUN TIME: 0 days 0 hours 2 minutes 37 seconds 734 msec
