                         Program Version 6.0.0  -   RELEASE  -
|  1> ! wb97x-v def2-tzvp def2/J RIJCOSX DEFGRID2 scfconv7 GCP(DFT/TZ) printgap
|  2> %output
|  3>     printlevel normal
|  4> end
|  5> * xyz 0 1
|  6> C -0.1945555404369493 1.2757485027048914 7.597773929553694e-06
|  7> C 1.2418263679886612 1.202246895627475 -7.436596848972132e-05
|  8> O 2.000435359143185 2.1751568559495316 -5.862806755299444e-05
|  9> N 1.7692630777781682 -0.09302969310580304 -6.256246170135217e-05
| 10> C 1.0601318291907256 -1.2694871116868762 -3.877983696830434e-05
| 11> O 1.5817704221318953 -2.378078714592761 -5.79719332945449e-05
| 12> N -0.3169177130415584 -1.1048312690657844 -1.636508614310849e-05
| 13> C -0.9047561058961902 0.1265303525966181 7.614167262737091e-06
| 14> Cl -2.634650779170692 0.1168922022699842 8.134735712708468e-06
| 15> H -0.6719529948863574 2.2448180764348846 2.4208613938126414e-05
| 16> H 2.779989253817091 -0.1824592694285184 -7.224761373657942e-05
| 17> H -0.8723442504365103 -1.9529077851335648 -3.965363371469791e-06
| 18> *
| 19>
| 20>                          ****END OF INPUT****

CARTESIAN COORDINATES (ANGSTROEM)
---------------------------------
  C     -0.194556    1.275749    0.000008
  C      1.241826    1.202247   -0.000074
  O      2.000435    2.175157   -0.000059
  N      1.769263   -0.093030   -0.000063
  C      1.060132   -1.269487   -0.000039
  O      1.581770   -2.378079   -0.000058
  N     -0.316918   -1.104831   -0.000016
  C     -0.904756    0.126530    0.000008
  Cl    -2.634651    0.116892    0.000008
  H     -0.671953    2.244818    0.000024
  H      2.779989   -0.182459   -0.000072
  H     -0.872344   -1.952908   -0.000004

 Total Charge           Charge          ....    0
 Multiplicity           Mult            ....    1
 Number of Electrons    NEL             ....   74
 Basis Dimension        Dim             ....  303

ORBITAL ENERGIES
----------------

  NO   OCC          E(Eh)            E(eV)
   0   2.0000    -107.197328     -2916.9876
   1   2.0000     -21.669687      -589.6622
   2   2.0000     -21.660232      -589.4049
   3   2.0000     -16.621985      -452.3072
   4   2.0000     -16.599752      -451.7022
   5   2.0000     -12.223205      -332.6103
   6   2.0000     -12.207683      -332.1879
   7   2.0000     -12.186603      -331.6143
   8   2.0000     -12.084707      -328.8416
   9   2.0000     -11.350465      -308.8619
  10   2.0000      -9.142055      -248.7680
  11   2.0000      -9.139233      -248.6912
  12   2.0000      -9.139195      -248.6901
  13   2.0000      -1.739402       -47.3315
  14   2.0000      -1.713331       -46.6221
  15   2.0000      -1.616464       -43.9862
  16   2.0000      -1.554708       -42.3058
  17   2.0000      -1.469580       -39.9893
  18   2.0000      -1.360878       -37.0314
  19   2.0000      -1.253855       -34.1191
  20   2.0000      -1.238405       -33.6987
  21   2.0000      -1.136418       -30.9235
  22   2.0000      -1.117563       -30.4104
  23   2.0000      -1.075466       -29.2649
  24   2.0000      -1.057611       -28.7791
  25   2.0000      -1.037857       -28.2415
  26   2.0000      -0.983999       -26.7760
  27   2.0000      -0.982598       -26.7378
  28   2.0000      -0.931295       -25.3418
  29   2.0000      -0.923053       -25.1176
  30   2.0000      -0.903198       -24.5773
  31   2.0000      -0.897483       -24.4218
  32   2.0000      -0.868140       -23.6233
  33   2.0000      -0.847648       -23.0657
  34   2.0000      -0.844744       -22.9867
  35   2.0000      -0.834554       -22.7094
  36   2.0000      -0.711728       -19.3671
  37   0.0000      -0.362460        -9.8630
  38   0.0000      -0.321057        -8.7364
  39   0.0000      -0.319547        -8.6953
  40   0.0000      -0.185704        -5.0533
  41   0.0000      -0.155735        -4.2378

MULLIKEN ATOMIC CHARGES
-----------------------
   0 C :   -0.276267
   1 C :    0.247019
   2 O :   -0.348480
   3 N :   -0.213183
   4 C :    0.299496
   5 O :   -0.349642
   6 N :   -0.232254
   7 C :    0.207243
   8 Cl:   -0.021660
   9 H :    0.167236
  10 H :    0.259028
  11 H :    0.261463
Sum of atomic charges:   -0.0000000

LOEWDIN ATOMIC CHARGES
----------------------
   0 C :   -0.158120
   1 C :   -0.405138
   2 O :    0.065074
   3 N :    0.203252
   4 C :   -0.481099
   5 O :    0.055352
   6 N :    0.177753
   7 C :   -0.485208
   8 Cl:    0.444905
   9 H :    0.161074
  10 H :    0.212907
  11 H :    0.209248

  Mayer bond orders larger than 0.100000
B(  0-C ,  1-C ) :   1.0963 B(  0-C ,  7-C ) :   1.6363 B(  0-C ,  9-H ) :   0.9637
B(  1-C ,  2-O ) :   2.0999 B(  1-C ,  3-N ) :   1.0965 B(  3-N ,  4-C ) :   1.1715
B(  3-N , 10-H ) :   0.8880 B(  4-C ,  5-O ) :   2.1337 B(  4-C ,  6-N ) :   1.0902
B(  6-N ,  7-C ) :   1.1569 B(  6-N , 11-H ) :   0.8956 B(  7-C ,  8-Cl) :   1.1508

FINAL SINGLE POINT ENERGY      -874.399520813796

DIPOLE MOMENT
-------------

Method             : SCF
Type of density    : Electron Density
Multiplicity       :   1
Irrep              :   0
Energy             :  -874.4063499468960572 Eh
Relativity type    :
Basis              : AO
                                X                 Y                 Z
Electronic contribution:     -6.073291422      -0.302018992       0.000044695
Nuclear contribution   :      4.757150645      -0.066539137      -0.000021483
                        -----------------------------------------
Total Dipole Moment    :     -1.316140777      -0.368558129       0.000023211
                        -----------------------------------------
Magnitude (a.u.)       :      1.366770514
Magnitude (Debye)      :      3.474054559

Rotational constants in cm-1:             0.067626             0.037735             0.024220
Rotational constants in MHz :          2027.381687          1131.271714           726.106750

                             ****ORCA TERMINATED NORMALLY****
TOTAL RUN TIME: 0 days 0 hours 2 minutes 35 seconds 45 msec
