                         Program Version 6.0.0  -   RELEASE  -
|  1> ! wb97x-v def2-tzvp def2/J RIJCOSX DEFGRID2 scfconv7 GCP(DFT/TZ) printgap
|  2> %output
|  3>     printlevel normal
|  4> end
|  5> %cpcm
|  6>     smd true
|  7>     smdsolvent "water"
|  8> end
|  9> * xyz 0 1
| 10> C -0.1945555404369493 1.2757485027048914 7.597773929553694e-06
| 11> C 1.2418263679886612 1.202246895627475 -7.436596848972132e-05
| 12> O 2.000435359143185 2.1751568559495316 -5.862806755299444e-05
| 13> N 1.7692630777781682 -0.09302969310580304 -6.256246170135217e-05
| 14> C 1.0601318291907256 -1.2694871116868762 -3.877983696830434e-05
| 15> O 1.5817704221318953 -2.378078714592761 -5.79719332945449e-05
| 16> N -0.3169177130415584 -1.1048312690657844 -1.636508614310849e-05
| 17> C -0.9047561058961902 0.1265303525966181 7.614167262737091e-06
| 18> Cl -2.634650779170692 0.1168922022699842 8.134735712708468e-06
| 19> H -0.6719529948863574 2.2448180764348846 2.4208613938126414e-05
| 20> H 2.779989253817091 -0.1824592694285184 -7.224761373657942e-05
| 21> H -0.8723442504365103 -1.9529077851335648 -3.965363371469791e-06
| 22> *
| 23>
| 24>                          ****END OF INPUT****

CARTESIAN COORDINATES (ANGSTROEM)
---------------------------------
  C     -0.194556    1.275749    0.000008
  C      1.241826    1.202247   -0.000074
  O      2.000435    2.175157   -0.000059
  N      1.769263   -0.093030   -0.000063
  C      1.060132   -1.269487   -0.000039
  O      1.581770   -2.378079   -0.000058
  N     -0.316918   -1.104831   -0.000016
  C     -0.904756    0.126530    0.000008
  Cl    -2.634651    0.116892    0.000008
  H     -0.671953    2.244818    0.000024
  H      2.779989   -0.182459   -0.000072
  H     -0.872344   -1.952908   -0.000004

 Total Charge           Charge          ....    0
 Multiplicity           Mult            ....    1
 Number of Electrons    NEL             ....   74
 Basis Dimension        Dim             ....  303

ORBITAL ENERGIES
----------------

  NO   OCC          E(Eh)            E(eV)
   0   2.0000    -107.180896     -2916.5405
   1   2.0000     -21.670848      -589.6938
   2   2.0000     -21.665332      -589.5436
   3   2.0000     -16.605940      -451.8706
   4   2.0000     -16.592303      -451.4995
   5   2.0000     -12.220396      -332.5339
   6   2.0000     -12.194456      -331.8280
   7   2.0000     -12.187988      -331.6520
   8   2.0000     -12.070296      -328.4495
   9   2.0000     -11.333971      -308.4130
  10   2.0000      -9.125568      -248.3193
  11   2.0000      -9.122717      -248.2417
  12   2.0000      -9.122713      -248.2416
  13   2.0000      -1.740995       -47.3749
  14   2.0000      -1.721081       -46.8330
  15   2.0000      -1.603348       -43.6293
  16   2.0000      -1.544445       -42.0265
  17   2.0000      -1.453283       -39.5458
  18   2.0000      -1.348503       -36.6946
  19   2.0000      -1.243387       -33.8343
  20   2.0000      -1.229432       -33.4546
  21   2.0000      -1.121432       -30.5157
  22   2.0000      -1.110322       -30.2134
  23   2.0000      -1.081366       -29.4255
  24   2.0000      -1.058955       -28.8156
  25   2.0000      -1.029684       -28.0191
  26   2.0000      -0.977396       -26.5963
  27   2.0000      -0.973608       -26.4932
  28   2.0000      -0.932048       -25.3623
  29   2.0000      -0.920424       -25.0460
  30   2.0000      -0.899959       -24.4891
  31   2.0000      -0.892773       -24.2936
  32   2.0000      -0.870731       -23.6938
  33   2.0000      -0.840444       -22.8696
  34   2.0000      -0.828803       -22.5529
  35   2.0000      -0.822807       -22.3897
  36   2.0000      -0.699098       -19.0234
  37   0.0000      -0.353232        -9.6119
  38   0.0000      -0.312510        -8.5038
  39   0.0000      -0.304003        -8.2723
  40   0.0000      -0.174872        -4.7585
  41   0.0000      -0.148216        -4.0332

MULLIKEN ATOMIC CHARGES
-----------------------
   0 C :   -0.295814
   1 C :    0.313316
   2 O :   -0.488535
   3 N :   -0.202690
   4 C :    0.353035
   5 O :   -0.468446
   6 N :   -0.208723
   7 C :    0.208411
   8 Cl:   -0.018835
   9 H :    0.200321
  10 H :    0.298025
  11 H :    0.309935
Sum of atomic charges:   -0.0000000

LOEWDIN ATOMIC CHARGES
----------------------
   0 C :   -0.154563
   1 C :   -0.392266
   2 O :   -0.017305
   3 N :    0.221001
   4 C :   -0.459483
   5 O :   -0.010627
   6 N :    0.202500
   7 C :   -0.466179
   8 Cl:    0.451077
   9 H :    0.169468
  10 H :    0.227446
  11 H :    0.228932

  Mayer bond orders larger than 0.100000
B(  0-C ,  1-C ) :   1.1246 B(  0-C ,  7-C ) :   1.6303 B(  0-C ,  9-H ) :   0.9428
B(  1-C ,  2-O ) :   1.9645 B(  1-C ,  3-N ) :   1.1232 B(  3-N ,  4-C ) :   1.1885
B(  3-N , 10-H ) :   0.8649 B(  4-C ,  5-O ) :   2.0237 B(  4-C ,  6-N ) :   1.1298
B(  6-N ,  7-C ) :   1.1800 B(  6-N , 11-H ) :   0.8668 B(  7-C ,  8-Cl) :   1.1514

FINAL SINGLE POINT ENERGY      -874.419600652417

DIPOLE MOMENT
-------------

Method             : SCF
Type of density    : Electron Density
Multiplicity       :   1
Irrep              :   0
Energy             :  -874.4264297855166888 Eh
Relativity type    :
Basis              : AO
                                X                 Y                 Z
Electronic contribution:     -6.593472365      -0.525913688       0.000052160
Nuclear contribution   :      4.757150645      -0.066539137      -0.000021483
                        -----------------------------------------
Total Dipole Moment    :     -1.836321720      -0.592452825       0.000030677
                        -----------------------------------------
Magnitude (a.u.)       :      1.929527872
Magnitude (Debye)      :      4.904470086

Rotational constants in cm-1:             0.067626             0.037735             0.024220
Rotational constants in MHz :          2027.381687          1131.271714           726.106750

                             ****ORCA TERMINATED NORMALLY****
TOTAL RUN TIME: 0 days 0 hours 2 minutes 49 seconds 48 msec
