                         Program Version 6.0.0  -   RELEASE  -
|  1> ! pbe def2-sv(p) def2/J RI DEFGRID1 loosescf d4 GCP(DFT/SV(P)) printgap
|  2> %output
|  3>     printlevel normal
|  4> end
|  5> * xyz 0 1
|  6> C 1.98687857 0.5015833026 3.5217454467
|  7> C 0.7691893678 0.5796984163 2.6251436633
|  8> O 1.1411358744 0.7752169328 1.249537663
|  9> P 1.7710211834 -0.3816335475 0.3802297051
| 10> S 1.2775856695 -2.2236561157 0.8562356294
| 11> O 3.3146862191 -0.0146383492 0.5282959306
| 12> C 4.3619834658 -0.7228168218 -0.1601735444
| 13> C 4.9055177996 -1.8592386627 0.685079964
| 14> S 1.4008550603 0.1922520727 -1.6181716063
| 15> C 0.1771792369 -1.0593103834 -2.1013290436
| 16> S -1.4899955297 -0.4122008318 -2.4475452649
| 17> P -2.0109163447 0.4525874122 -0.5809765045
| 18> S -3.9159489053 0.8827077762 -0.4664933033
| 19> O -0.9860864994 1.6391926483 -0.3511320977
| 20> C -1.0323261902 2.8176547835 -1.1822805428
| 21> C -1.8136326164 3.9246788887 -0.5035200328
| 22> O -1.409681261 -0.5212409933 0.5210806732
| 23> C -2.2083285758 -1.6248224515 1.0081681809
| 24> C -2.9045198641 -1.2561276648 2.3021338681
| 25> H 1.6696804684 0.4390669025 4.5580691938
| 26> H 2.5690788239 -0.3851414091 3.2734167528
| 27> H 2.6109796181 1.3804741784 3.3841141971
| 28> H 0.1419007142 1.4419754309 2.8555318647
| 29> H 0.1748541829 -0.3366557296 2.6973107449
| 30> H 3.9805167886 -1.0917993083 -1.1169190529
| 31> H 5.1268037417 0.034112777 -0.3439058238
| 32> H 5.2612412339 -1.4791499623 1.6387856657
| 33> H 4.1310237186 -2.6004212497 0.8693904208
| 34> H 5.7282981335 -2.3325541442 0.1591640437
| 35> H 0.1303575156 -1.8206347647 -1.3181834062
| 36> H 0.5005923029 -1.4902765237 -3.0456349982
| 37> H 0.0142256566 3.0955229103 -1.3281953378
| 38> H -1.4769984274 2.5610768319 -2.1504767123
| 39> H -2.8473875177 3.6186277207 -0.3568744172
| 40> H -1.3746500141 4.1527386895 0.4635504102
| 41> H -1.7908613025 4.8117008138 -1.1283730729
| 42> H -2.9397175293 -1.9044695629 0.2432640469
| 43> H -1.4986686821 -2.4433697565 1.1531323361
| 44> H -3.5914478044 -0.4295426675 2.1332033694
| 45> H -3.4632703203 -2.1156173628 2.6583327762
| 46> H -2.1778580129 -0.9632001476 3.054825036
| 47> *
| 48>
| 49>                          ****END OF INPUT****

CARTESIAN COORDINATES (ANGSTROEM)
---------------------------------
  C      1.986879    0.501583    3.521745
  C      0.769189    0.579698    2.625144
  O      1.141136    0.775217    1.249538
  P      1.771021   -0.381634    0.380230
  S      1.277586   -2.223656    0.856236
  O      3.314686   -0.014638    0.528296
  C      4.361983   -0.722817   -0.160174
  C      4.905518   -1.859239    0.685080
  S      1.400855    0.192252   -1.618172
  C      0.177179   -1.059310   -2.101329
  S     -1.489996   -0.412201   -2.447545
  P     -2.010916    0.452587   -0.580977
  S     -3.915949    0.882708   -0.466493
  O     -0.986086    1.639193   -0.351132
  C     -1.032326    2.817655   -1.182281
  C     -1.813633    3.924679   -0.503520
  O     -1.409681   -0.521241    0.521081
  C     -2.208329   -1.624822    1.008168
  C     -2.904520   -1.256128    2.302134
  H      1.669680    0.439067    4.558069
  H      2.569079   -0.385141    3.273417
  H      2.610980    1.380474    3.384114
  H      0.141901    1.441975    2.855532
  H      0.174854   -0.336656    2.697311
  H      3.980517   -1.091799   -1.116919
  H      5.126804    0.034113   -0.343906
  H      5.261241   -1.479150    1.638786
  H      4.131024   -2.600421    0.869390
  H      5.728298   -2.332554    0.159164
  H      0.130358   -1.820635   -1.318183
  H      0.500592   -1.490277   -3.045635
  H      0.014226    3.095523   -1.328195
  H     -1.476998    2.561077   -2.150477
  H     -2.847388    3.618628   -0.356874
  H     -1.374650    4.152739    0.463550
  H     -1.790861    4.811701   -1.128373
  H     -2.939718   -1.904470    0.243264
  H     -1.498669   -2.443370    1.153132
  H     -3.591448   -0.429543    2.133203
  H     -3.463270   -2.115617    2.658333
  H     -2.177858   -0.963200    3.054825

 Total Charge           Charge          ....    0
 Multiplicity           Mult            ....    1
 Number of Electrons    NEL             ....  202
 Basis Dimension        Dim             ....  334

ORBITAL ENERGIES
----------------

  NO   OCC          E(Eh)            E(eV)
   0   2.0000     -88.049930     -2395.9604
   1   2.0000     -88.042666     -2395.7627
   2   2.0000     -87.995177     -2394.4705
   3   2.0000     -87.985894     -2394.2179
   4   2.0000     -76.431402     -2079.8042
   5   2.0000     -76.425007     -2079.6302
   6   2.0000     -18.797046      -511.4936
   7   2.0000     -18.792883      -511.3803
   8   2.0000     -18.790040      -511.3030
   9   2.0000     -18.786710      -511.2124
  10   2.0000      -9.958210      -270.9767
  11   2.0000      -9.956852      -270.9397
  12   2.0000      -9.950872      -270.7770
  13   2.0000      -9.949743      -270.7463
  14   2.0000      -9.947650      -270.6893
  15   2.0000      -9.884251      -268.9642
  16   2.0000      -9.884004      -268.9574
  17   2.0000      -9.878990      -268.8210
  18   2.0000      -9.877979      -268.7935
  19   2.0000      -7.694799      -209.3861
  20   2.0000      -7.687811      -209.1960
  21   2.0000      -7.639905      -207.8924
  22   2.0000      -7.631110      -207.6531
  23   2.0000      -6.428886      -174.9389
  24   2.0000      -6.422618      -174.7683
  25   2.0000      -5.722607      -155.7201
  26   2.0000      -5.719343      -155.6312
  27   2.0000      -5.715949      -155.5389
  28   2.0000      -5.711809      -155.4262
  29   2.0000      -5.711770      -155.4252
  30   2.0000      -5.705089      -155.2434
  31   2.0000      -5.668607      -154.2506
  32   2.0000      -5.660833      -154.0391
  33   2.0000      -5.660035      -154.0174
  34   2.0000      -5.659924      -154.0144
  35   2.0000      -5.651836      -153.7943
  36   2.0000      -5.651139      -153.7753
  37   2.0000      -4.651114      -126.5632
  38   2.0000      -4.650580      -126.5487
  39   2.0000      -4.649753      -126.5262
  40   2.0000      -4.645057      -126.3984
  41   2.0000      -4.644826      -126.3921
  42   2.0000      -4.642780      -126.3365
  43   2.0000      -0.990849       -26.9624
  44   2.0000      -0.986327       -26.8393
  45   2.0000      -0.947193       -25.7744
  46   2.0000      -0.943602       -25.6767
  47   2.0000      -0.763360       -20.7721
  48   2.0000      -0.721553       -19.6344
  49   2.0000      -0.708548       -19.2806
  50   2.0000      -0.687850       -18.7173
  51   2.0000      -0.679844       -18.4995
  52   2.0000      -0.678441       -18.4613
  53   2.0000      -0.656374       -17.8609
  54   2.0000      -0.641492       -17.4559
  55   2.0000      -0.601207       -16.3597
  56   2.0000      -0.590544       -16.0695
  57   2.0000      -0.573442       -15.6041
  58   2.0000      -0.567020       -15.4294
  59   2.0000      -0.557901       -15.1813
  60   2.0000      -0.507136       -13.7999
  61   2.0000      -0.497011       -13.5243
  62   2.0000      -0.479164       -13.0387
  63   2.0000      -0.473720       -12.8906
  64   2.0000      -0.452981       -12.3262
  65   2.0000      -0.443421       -12.0661
  66   2.0000      -0.441231       -12.0065
  67   2.0000      -0.438162       -11.9230
  68   2.0000      -0.421266       -11.4632
  69   2.0000      -0.418857       -11.3977
  70   2.0000      -0.407812       -11.0971
  71   2.0000      -0.402485       -10.9522
  72   2.0000      -0.396075       -10.7777
  73   2.0000      -0.390876       -10.6363
  74   2.0000      -0.378410       -10.2971
  75   2.0000      -0.375605       -10.2207
  76   2.0000      -0.362741        -9.8707
  77   2.0000      -0.357198        -9.7199
  78   2.0000      -0.354394        -9.6436
  79   2.0000      -0.350636        -9.5413
  80   2.0000      -0.347431        -9.4541
  81   2.0000      -0.343114        -9.3366
  82   2.0000      -0.337707        -9.1895
  83   2.0000      -0.333354        -9.0710
  84   2.0000      -0.327236        -8.9045
  85   2.0000      -0.325544        -8.8585
  86   2.0000      -0.317451        -8.6383
  87   2.0000      -0.299624        -8.1532
  88   2.0000      -0.295794        -8.0490
  89   2.0000      -0.294620        -8.0170
  90   2.0000      -0.284871        -7.7517
  91   2.0000      -0.274026        -7.4566
  92   2.0000      -0.269054        -7.3213
  93   2.0000      -0.265244        -7.2177
  94   2.0000      -0.256535        -6.9807
  95   2.0000      -0.237519        -6.4632
  96   2.0000      -0.228104        -6.2070
  97   2.0000      -0.213875        -5.8198
  98   2.0000      -0.209102        -5.6900
  99   2.0000      -0.202974        -5.5232
 100   2.0000      -0.198124        -5.3912
 101   0.0000      -0.040572        -1.1040
 102   0.0000      -0.027302        -0.7429
 103   0.0000      -0.017465        -0.4752
 104   0.0000      -0.001577        -0.0429
 105   0.0000       0.011625         0.3163

MULLIKEN ATOMIC CHARGES
-----------------------
   0 C :   -0.300606
   1 C :   -0.027111
   2 O :   -0.348047
   3 P :    0.630556
   4 S :   -0.335188
   5 O :   -0.371478
   6 C :   -0.008340
   7 C :   -0.296562
   8 S :   -0.087222
   9 C :   -0.352386
  10 S :   -0.089908
  11 P :    0.577868
  12 S :   -0.315617
  13 O :   -0.345052
  14 C :   -0.010950
  15 C :   -0.283410
  16 O :   -0.367617
  17 C :   -0.015866
  18 C :   -0.292614
  19 H :    0.110565
  20 H :    0.121844
  21 H :    0.116405
  22 H :    0.107638
  23 H :    0.129824
  24 H :    0.096609
  25 H :    0.107611
  26 H :    0.114745
  27 H :    0.129653
  28 H :    0.107780
  29 H :    0.200798
  30 H :    0.181489
  31 H :    0.105340
  32 H :    0.099151
  33 H :    0.126576
  34 H :    0.111181
  35 H :    0.105958
  36 H :    0.104213
  37 H :    0.115520
  38 H :    0.124422
  39 H :    0.108416
  40 H :    0.113813
Sum of atomic charges:    0.0000000

LOEWDIN ATOMIC CHARGES
----------------------
   0 C :   -0.363432
   1 C :   -0.117927
   2 O :   -0.222451
   3 P :    0.579142
   4 S :   -0.299206
   5 O :   -0.245872
   6 C :   -0.118331
   7 C :   -0.364737
   8 S :    0.098469
   9 C :   -0.484056
  10 S :    0.069432
  11 P :    0.559774
  12 S :   -0.315600
  13 O :   -0.230396
  14 C :   -0.120105
  15 C :   -0.361704
  16 O :   -0.236954
  17 C :   -0.125636
  18 C :   -0.360740
  19 H :    0.129796
  20 H :    0.122224
  21 H :    0.126379
  22 H :    0.119753
  23 H :    0.108993
  24 H :    0.103254
  25 H :    0.119098
  26 H :    0.125377
  27 H :    0.123407
  28 H :    0.128930
  29 H :    0.122833
  30 H :    0.138853
  31 H :    0.114408
  32 H :    0.104945
  33 H :    0.124528
  34 H :    0.124570
  35 H :    0.128101
  36 H :    0.108875
  37 H :    0.110507
  38 H :    0.123910
  39 H :    0.130309
  40 H :    0.121284

  Mayer bond orders larger than 0.100000
B(  0-C ,  1-C ) :   1.1577 B(  0-C , 19-H ) :   0.9396 B(  0-C , 20-H ) :   0.9370
B(  0-C , 21-H ) :   0.9458 B(  1-C ,  2-O ) :   0.9014 B(  1-C , 22-H ) :   0.9347
B(  1-C , 23-H ) :   0.9039 B(  2-O ,  3-P ) :   1.1566 B(  3-P ,  4-S ) :   1.5690
B(  3-P ,  5-O ) :   1.1040 B(  3-P ,  8-S ) :   0.9685 B(  4-S ,  8-S ) :   0.1171
B(  4-S , 29-H ) :   0.1078 B(  5-O ,  6-C ) :   0.9099 B(  6-C ,  7-C ) :   1.1656
B(  6-C , 24-H ) :   0.9128 B(  6-C , 25-H ) :   0.9363 B(  7-C , 26-H ) :   0.9465
B(  7-C , 27-H ) :   0.9317 B(  7-C , 28-H ) :   0.9396 B(  8-S ,  9-C ) :   1.0051
B(  9-C , 10-S ) :   0.9743 B(  9-C , 29-H ) :   0.8534 B(  9-C , 30-H ) :   0.9106
B( 10-S , 11-P ) :   0.9756 B( 11-P , 12-S ) :   1.6447 B( 11-P , 13-O ) :   1.1180
B( 11-P , 16-O ) :   1.0924 B( 13-O , 14-C ) :   0.9009 B( 14-C , 15-C ) :   1.1685
B( 14-C , 31-H ) :   0.9303 B( 14-C , 32-H ) :   0.9112 B( 15-C , 33-H ) :   0.9330
B( 15-C , 34-H ) :   0.9477 B( 15-C , 35-H ) :   0.9403 B( 16-O , 17-C ) :   0.8896
B( 17-C , 18-C ) :   1.1714 B( 17-C , 36-H ) :   0.9107 B( 17-C , 37-H ) :   0.9126
B( 18-C , 38-H ) :   0.9327 B( 18-C , 39-H ) :   0.9390 B( 18-C , 40-H ) :   0.9455

Dispersion correction           -0.068383447
FINAL SINGLE POINT ENERGY     -2929.523544444316

DIPOLE MOMENT
-------------

Method             : SCF
Type of density    : Electron Density
Multiplicity       :   1
Irrep              :   0
Energy             : -2929.6429377447129809 Eh
Relativity type    :
Basis              : AO
                                X                 Y                 Z
Electronic contribution:     -9.120172333      -1.943269722     -17.275135606
Nuclear contribution   :     10.529894233       2.019606437      17.533386996
                        -----------------------------------------
Total Dipole Moment    :      1.409721901       0.076336715       0.258251390
                        -----------------------------------------
Magnitude (a.u.)       :      1.435213194
Magnitude (Debye)      :      3.648022026

Rotational constants in cm-1:             0.011899             0.005718             0.005411
Rotational constants in MHz :           356.727643           171.409906           162.212089

                             ****ORCA TERMINATED NORMALLY****
TOTAL RUN TIME: 0 days 0 hours 0 minutes 22 seconds 383 msec
