                         Program Version 6.0.0  -   RELEASE  -
|  1> ! pbe def2-sv(p) def2/J RI DEFGRID1 loosescf d4 GCP(DFT/SV(P)) printgap
|  2> %output
|  3>     printlevel normal
|  4> end
|  5> * xyz 0 1
|  6> C 0.5966353637 1.7064037928 -0.0574279873
|  7> C 1.3926687782 0.4085575946 -0.2395860154
|  8> H 1.6332967945 0.2669940731 -1.2993851744
|  9> C 0.537623584 -0.7823071458 0.2249091154
| 10> H 0.3285415937 -0.6964484794 1.3034471195
| 11> C -0.7961638225 -0.7507189558 -0.5264716151
| 12> H -0.5866696228 -0.819265085 -1.606565783
| 13> C -1.4795711292 0.6028726455 -0.2689047113
| 14> H -2.3854086857 0.6642334466 -0.8846702713
| 15> O -0.6573324202 1.6550535354 -0.7233479845
| 16> O -1.7625601074 0.7173021159 1.085477503
| 17> O -1.6654640988 -1.7760358152 -0.134363
| 18> O 1.168052037 -2.0130999719 -0.0469707821
| 19> O 2.6299918502 0.4385931453 0.4270993327
| 20> H 1.12461634 2.5524338153 -0.496654246
| 21> H 0.4357115249 1.8825472675 1.0144094033
| 22> H -2.4276948005 1.4055519539 1.2368373357
| 23> H -1.160055441 -2.6038052692 -0.1128828046
| 24> H 2.1072204763 -1.9329206504 0.1795481062
| 25> H 2.4978146037 0.6892282614 1.3538421859
| 26> *
| 27>
| 28>                          ****END OF INPUT****

CARTESIAN COORDINATES (ANGSTROEM)
---------------------------------
  C      0.596635    1.706404   -0.057428
  C      1.392669    0.408558   -0.239586
  H      1.633297    0.266994   -1.299385
  C      0.537624   -0.782307    0.224909
  H      0.328542   -0.696448    1.303447
  C     -0.796164   -0.750719   -0.526472
  H     -0.586670   -0.819265   -1.606566
  C     -1.479571    0.602873   -0.268905
  H     -2.385409    0.664233   -0.884670
  O     -0.657332    1.655054   -0.723348
  O     -1.762560    0.717302    1.085478
  O     -1.665464   -1.776036   -0.134363
  O      1.168052   -2.013100   -0.046971
  O      2.629992    0.438593    0.427099
  H      1.124616    2.552434   -0.496654
  H      0.435712    1.882547    1.014409
  H     -2.427695    1.405552    1.236837
  H     -1.160055   -2.603805   -0.112883
  H      2.107220   -1.932921    0.179548
  H      2.497815    0.689228    1.353842

 Total Charge           Charge          ....    0
 Multiplicity           Mult            ....    1
 Number of Electrons    NEL             ....   80
 Basis Dimension        Dim             ....  160

ORBITAL ENERGIES
----------------

  NO   OCC          E(Eh)            E(eV)
   0   2.0000     -18.766849      -510.6719
   1   2.0000     -18.766560      -510.6641
   2   2.0000     -18.765316      -510.6302
   3   2.0000     -18.752745      -510.2881
   4   2.0000     -18.741146      -509.9725
   5   2.0000      -9.984410      -271.6896
   6   2.0000      -9.944593      -270.6061
   7   2.0000      -9.937112      -270.4026
   8   2.0000      -9.936973      -270.3988
   9   2.0000      -9.936671      -270.3906
  10   2.0000      -0.981126       -26.6978
  11   2.0000      -0.949217       -25.8295
  12   2.0000      -0.930648       -25.3242
  13   2.0000      -0.913854       -24.8672
  14   2.0000      -0.909181       -24.7401
  15   2.0000      -0.700103       -19.0508
  16   2.0000      -0.679548       -18.4915
  17   2.0000      -0.583184       -15.8692
  18   2.0000      -0.580838       -15.8054
  19   2.0000      -0.534143       -14.5348
  20   2.0000      -0.497085       -13.5264
  21   2.0000      -0.488345       -13.2886
  22   2.0000      -0.470752       -12.8098
  23   2.0000      -0.447977       -12.1901
  24   2.0000      -0.422909       -11.5080
  25   2.0000      -0.422393       -11.4939
  26   2.0000      -0.394635       -10.7386
  27   2.0000      -0.377102       -10.2615
  28   2.0000      -0.371596       -10.1116
  29   2.0000      -0.352533        -9.5929
  30   2.0000      -0.329632        -8.9698
  31   2.0000      -0.306349        -8.3362
  32   2.0000      -0.301150        -8.1947
  33   2.0000      -0.295436        -8.0392
  34   2.0000      -0.265202        -7.2165
  35   2.0000      -0.252041        -6.8584
  36   2.0000      -0.244381        -6.6499
  37   2.0000      -0.230276        -6.2661
  38   2.0000      -0.211756        -5.7622
  39   2.0000      -0.208891        -5.6842
  40   0.0000       0.011105         0.3022
  41   0.0000       0.021701         0.5905
  42   0.0000       0.040523         1.1027
  43   0.0000       0.057800         1.5728
  44   0.0000       0.073703         2.0056

MULLIKEN ATOMIC CHARGES
-----------------------
   0 C :    0.085510
   1 C :   -0.021115
   2 H :    0.074927
   3 C :    0.020692
   4 H :    0.058017
   5 C :    0.100360
   6 H :    0.062853
   7 C :    0.134294
   8 H :    0.074795
   9 O :   -0.314990
  10 O :   -0.386259
  11 O :   -0.417766
  12 O :   -0.427636
  13 O :   -0.419128
  14 H :    0.101969
  15 H :    0.049027
  16 H :    0.309515
  17 H :    0.309750
  18 H :    0.304996
  19 H :    0.300191
Sum of atomic charges:   -0.0000000

LOEWDIN ATOMIC CHARGES
----------------------
   0 C :   -0.129438
   1 C :   -0.090859
   2 H :    0.118813
   3 C :   -0.088456
   4 H :    0.102091
   5 C :   -0.076633
   6 H :    0.105872
   7 C :    0.001091
   8 H :    0.104148
   9 O :   -0.160385
  10 O :   -0.296463
  11 O :   -0.317182
  12 O :   -0.330249
  13 O :   -0.312087
  14 H :    0.119974
  15 H :    0.096426
  16 H :    0.293681
  17 H :    0.288981
  18 H :    0.285227
  19 H :    0.285448

  Mayer bond orders larger than 0.100000
B(  0-C ,  1-C ) :   1.0561 B(  0-C ,  9-O ) :   1.0085 B(  0-C , 14-H ) :   0.9250
B(  0-C , 15-H ) :   0.8826 B(  1-C ,  2-H ) :   0.8667 B(  1-C ,  3-C ) :   1.0158
B(  1-C , 13-O ) :   1.0194 B(  3-C ,  4-H ) :   0.8757 B(  3-C ,  5-C ) :   0.9980
B(  3-C , 12-O ) :   1.0827 B(  5-C ,  6-H ) :   0.8818 B(  5-C ,  7-C ) :   0.9869
B(  5-C , 11-O ) :   1.0950 B(  7-C ,  8-H ) :   0.9041 B(  7-C ,  9-O ) :   1.0480
B(  7-C , 10-O ) :   1.1279 B( 10-O , 16-H ) :   0.8414 B( 11-O , 17-H ) :   0.8372
B( 12-O , 18-H ) :   0.8312 B( 13-O , 19-H ) :   0.8464

Dispersion correction           -0.019181150
FINAL SINGLE POINT ENERGY      -571.417858456102

DIPOLE MOMENT
-------------

Method             : SCF
Type of density    : Electron Density
Multiplicity       :   1
Irrep              :   0
Energy             :  -571.5260826176486262 Eh
Relativity type    :
Basis              : AO
                                X                 Y                 Z
Electronic contribution:     -1.243725862      -0.816393745      -0.123591799
Nuclear contribution   :      1.466205917       1.306967552       0.654397152
                        -----------------------------------------
Total Dipole Moment    :      0.222480055       0.490573807       0.530805353
                        -----------------------------------------
Magnitude (a.u.)       :      0.756250195
Magnitude (Debye)      :      1.922235233

Rotational constants in cm-1:             0.056542             0.045032             0.029174
Rotational constants in MHz :          1695.095667          1350.023021           874.615502

                             ****ORCA TERMINATED NORMALLY****
TOTAL RUN TIME: 0 days 0 hours 0 minutes 11 seconds 18 msec
