                         Program Version 6.0.0  -   RELEASE  -
|  1> ! r2scan-3c def2/J RI DEFGRID2 scfconv6 printgap
|  2> %output
|  3>     printlevel normal
|  4> end
|  5> * xyz 0 1
|  6> C 0.0008771405 -2.4705159697 -7.94582e-05
|  7> C 1.2025247035 -1.7819633872 0.0116487063
|  8> C 1.1932058546 -0.3927526479 0.0149570884
|  9> C -0.0010326922 0.3144201053 0.0017082856
| 10> C -1.1943672486 -0.3945941766 -0.0121225756
| 11> C -1.2018625182 -1.7836617997 -0.0109843197
| 12> C -2.4779448065 0.3841311101 -0.0047421687
| 13> F -3.5598367205 -0.3607578542 -0.2716710193
| 14> F -2.7153651481 0.9677786484 1.1907908838
| 15> F -2.481047925 1.3880956006 -0.9029366641
| 16> C 2.4773147567 0.3850937531 0.0054047565
| 17> F 2.7406207268 0.9224832465 -1.2065464689
| 18> F 2.4640571794 1.421884045 0.8645958204
| 19> F 3.5523295858 -0.3507353277 0.3220045367
| 20> H 0.0016362515 -3.5476898841 -0.0008576325
| 21> H 2.1405836397 -2.3139023429 0.0220009559
| 22> H -0.0020904378 1.3936329309 0.0025954614
| 23> H -2.1391007855 -2.3170217439 -0.0218121776
| 24> *
| 25>
| 26>                          ****END OF INPUT****

CARTESIAN COORDINATES (ANGSTROEM)
---------------------------------
  C      0.000877   -2.470516   -0.000079
  C      1.202525   -1.781963    0.011649
  C      1.193206   -0.392753    0.014957
  C     -0.001033    0.314420    0.001708
  C     -1.194367   -0.394594   -0.012123
  C     -1.201863   -1.783662   -0.010984
  C     -2.477945    0.384131   -0.004742
  F     -3.559837   -0.360758   -0.271671
  F     -2.715365    0.967779    1.190791
  F     -2.481048    1.388096   -0.902937
  C      2.477315    0.385094    0.005405
  F      2.740621    0.922483   -1.206546
  F      2.464057    1.421884    0.864596
  F      3.552330   -0.350735    0.322005
  H      0.001636   -3.547690   -0.000858
  H      2.140584   -2.313902    0.022001
  H     -0.002090    1.393633    0.002595
  H     -2.139101   -2.317022   -0.021812

 Total Charge           Charge          ....    0
 Multiplicity           Mult            ....    1
 Number of Electrons    NEL             ....  106
 Basis Dimension        Dim             ....  316

ORBITAL ENERGIES
----------------

  NO   OCC          E(Eh)            E(eV)
   0   2.0000     -24.528467      -667.4535
   1   2.0000     -24.528275      -667.4483
   2   2.0000     -24.524155      -667.3362
   3   2.0000     -24.523818      -667.3270
   4   2.0000     -24.520938      -667.2487
   5   2.0000     -24.520773      -667.2442
   6   2.0000     -10.295137      -280.1449
   7   2.0000     -10.295135      -280.1449
   8   2.0000     -10.091644      -274.6076
   9   2.0000     -10.091619      -274.6069
  10   2.0000     -10.084337      -274.4088
  11   2.0000     -10.080403      -274.3017
  12   2.0000     -10.080384      -274.3012
  13   2.0000     -10.075493      -274.1681
  14   2.0000      -1.283775       -34.9333
  15   2.0000      -1.283745       -34.9325
  16   2.0000      -1.195638       -32.5350
  17   2.0000      -1.195619       -32.5344
  18   2.0000      -1.189162       -32.3587
  19   2.0000      -1.189154       -32.3585
  20   2.0000      -0.878870       -23.9153
  21   2.0000      -0.793166       -21.5832
  22   2.0000      -0.772703       -21.0263
  23   2.0000      -0.690134       -18.7795
  24   2.0000      -0.685314       -18.6484
  25   2.0000      -0.622921       -16.9505
  26   2.0000      -0.618431       -16.8284
  27   2.0000      -0.578134       -15.7318
  28   2.0000      -0.566199       -15.4071
  29   2.0000      -0.561855       -15.2888
  30   2.0000      -0.561328       -15.2745
  31   2.0000      -0.555249       -15.1091
  32   2.0000      -0.509304       -13.8589
  33   2.0000      -0.499980       -13.6051
  34   2.0000      -0.467382       -12.7181
  35   2.0000      -0.444401       -12.0928
  36   2.0000      -0.437394       -11.9021
  37   2.0000      -0.435102       -11.8397
  38   2.0000      -0.433101       -11.7853
  39   2.0000      -0.432553       -11.7704
  40   2.0000      -0.406301       -11.0560
  41   2.0000      -0.400227       -10.8907
  42   2.0000      -0.397484       -10.8161
  43   2.0000      -0.395489       -10.7618
  44   2.0000      -0.390476       -10.6254
  45   2.0000      -0.387754       -10.5513
  46   2.0000      -0.375136       -10.2080
  47   2.0000      -0.373629       -10.1670
  48   2.0000      -0.373620       -10.1667
  49   2.0000      -0.352377        -9.5887
  50   2.0000      -0.348573        -9.4851
  51   2.0000      -0.281945        -7.6721
  52   2.0000      -0.278583        -7.5806
  53   0.0000      -0.084363        -2.2956
  54   0.0000      -0.079998        -2.1769
  55   0.0000       0.051389         1.3984
  56   0.0000       0.057215         1.5569
  57   0.0000       0.077422         2.1068

MULLIKEN ATOMIC CHARGES
-----------------------
   0 C :   -0.130287
   1 C :   -0.163850
   2 C :    0.115780
   3 C :   -0.189667
   4 C :    0.116143
   5 C :   -0.164857
   6 C :    0.513553
   7 F :   -0.215581
   8 F :   -0.209710
   9 F :   -0.214135
  10 C :    0.513463
  11 F :   -0.209470
  12 F :   -0.214589
  13 F :   -0.215741
  14 H :    0.152904
  15 H :    0.170515
  16 H :    0.174776
  17 H :    0.170752
Sum of atomic charges:   -0.0000000

LOEWDIN ATOMIC CHARGES
----------------------
   0 C :   -0.138904
   1 C :   -0.107573
   2 C :   -0.059193
   3 C :   -0.079297
   4 C :   -0.059264
   5 C :   -0.107672
   6 C :    0.531551
   7 F :   -0.207667
   8 F :   -0.211205
   9 F :   -0.209117
  10 C :    0.531604
  11 F :   -0.211373
  12 F :   -0.208921
  13 F :   -0.207788
  14 H :    0.175125
  15 H :    0.186359
  16 H :    0.196954
  17 H :    0.186382

  Mayer bond orders larger than 0.100000
B(  0-C ,  1-C ) :   1.3761 B(  0-C ,  5-C ) :   1.3739 B(  0-C , 14-H ) :   0.9576
B(  1-C ,  2-C ) :   1.3856 B(  1-C , 15-H ) :   0.9487 B(  2-C ,  3-C ) :   1.4413
B(  2-C , 10-C ) :   0.9671 B(  3-C ,  4-C ) :   1.4407 B(  3-C , 16-H ) :   0.8900
B(  4-C ,  5-C ) :   1.3852 B(  4-C ,  6-C ) :   0.9674 B(  5-C , 17-H ) :   0.9500
B(  6-C ,  7-F ) :   1.0577 B(  6-C ,  8-F ) :   1.0262 B(  6-C ,  9-F ) :   1.0335
B( 10-C , 11-F ) :   1.0258 B( 10-C , 12-F ) :   1.0346 B( 10-C , 13-F ) :   1.0559

Dispersion correction           -0.006491005
FINAL SINGLE POINT ENERGY      -906.280511888309

DIPOLE MOMENT
-------------

Method             : SCF
Type of density    : Electron Density
Multiplicity       :   1
Irrep              :   0
Energy             :  -906.2893058763764884 Eh
Relativity type    :
Basis              : AO
                                X                 Y                 Z
Electronic contribution:     -0.001533580       8.903425828      -0.002646009
Nuclear contribution   :      0.000263037     -10.061238468       0.005293976
                        -----------------------------------------
Total Dipole Moment    :     -0.001270543      -1.157812640       0.002647968
                        -----------------------------------------
Magnitude (a.u.)       :      1.157816365
Magnitude (Debye)      :      2.942935321

Rotational constants in cm-1:             0.043783             0.012880             0.011101
Rotational constants in MHz :          1312.575161           386.120982           332.802169

                             ****ORCA TERMINATED NORMALLY****
TOTAL RUN TIME: 0 days 0 hours 0 minutes 39 seconds 565 msec
