                         Program Version 6.0.0  -   RELEASE  -
|  1> ! r2scan-3c def2/J RI DEFGRID2 scfconv6 printgap
|  2> %output
|  3>     printlevel normal
|  4> end
|  5> %cpcm
|  6>     smd true
|  7>     smdsolvent "water"
|  8> end
|  9> * xyz 0 1
| 10> C 0.0008771405 -2.4705159697 -7.94582e-05
| 11> C 1.2025247035 -1.7819633872 0.0116487063
| 12> C 1.1932058546 -0.3927526479 0.0149570884
| 13> C -0.0010326922 0.3144201053 0.0017082856
| 14> C -1.1943672486 -0.3945941766 -0.0121225756
| 15> C -1.2018625182 -1.7836617997 -0.0109843197
| 16> C -2.4779448065 0.3841311101 -0.0047421687
| 17> F -3.5598367205 -0.3607578542 -0.2716710193
| 18> F -2.7153651481 0.9677786484 1.1907908838
| 19> F -2.481047925 1.3880956006 -0.9029366641
| 20> C 2.4773147567 0.3850937531 0.0054047565
| 21> F 2.7406207268 0.9224832465 -1.2065464689
| 22> F 2.4640571794 1.421884045 0.8645958204
| 23> F 3.5523295858 -0.3507353277 0.3220045367
| 24> H 0.0016362515 -3.5476898841 -0.0008576325
| 25> H 2.1405836397 -2.3139023429 0.0220009559
| 26> H -0.0020904378 1.3936329309 0.0025954614
| 27> H -2.1391007855 -2.3170217439 -0.0218121776
| 28> *
| 29>
| 30>                          ****END OF INPUT****

CARTESIAN COORDINATES (ANGSTROEM)
---------------------------------
  C      0.000877   -2.470516   -0.000079
  C      1.202525   -1.781963    0.011649
  C      1.193206   -0.392753    0.014957
  C     -0.001033    0.314420    0.001708
  C     -1.194367   -0.394594   -0.012123
  C     -1.201863   -1.783662   -0.010984
  C     -2.477945    0.384131   -0.004742
  F     -3.559837   -0.360758   -0.271671
  F     -2.715365    0.967779    1.190791
  F     -2.481048    1.388096   -0.902937
  C      2.477315    0.385094    0.005405
  F      2.740621    0.922483   -1.206546
  F      2.464057    1.421884    0.864596
  F      3.552330   -0.350735    0.322005
  H      0.001636   -3.547690   -0.000858
  H      2.140584   -2.313902    0.022001
  H     -0.002090    1.393633    0.002595
  H     -2.139101   -2.317022   -0.021812

 Total Charge           Charge          ....    0
 Multiplicity           Mult            ....    1
 Number of Electrons    NEL             ....  106
 Basis Dimension        Dim             ....  316

ORBITAL ENERGIES
----------------

  NO   OCC          E(Eh)            E(eV)
   0   2.0000     -24.525429      -667.3708
   1   2.0000     -24.525299      -667.3673
   2   2.0000     -24.522476      -667.2905
   3   2.0000     -24.522192      -667.2828
   4   2.0000     -24.520009      -667.2234
   5   2.0000     -24.519888      -667.2201
   6   2.0000     -10.290424      -280.0167
   7   2.0000     -10.290411      -280.0163
   8   2.0000     -10.076352      -274.1915
   9   2.0000     -10.076326      -274.1908
  10   2.0000     -10.067727      -273.9568
  11   2.0000     -10.061463      -273.7863
  12   2.0000     -10.061445      -273.7858
  13   2.0000     -10.054171      -273.5879
  14   2.0000      -1.281802       -34.8796
  15   2.0000      -1.281773       -34.8788
  16   2.0000      -1.193347       -32.4726
  17   2.0000      -1.193319       -32.4719
  18   2.0000      -1.188342       -32.3364
  19   2.0000      -1.188327       -32.3360
  20   2.0000      -0.862800       -23.4780
  21   2.0000      -0.779995       -21.2248
  22   2.0000      -0.755641       -20.5620
  23   2.0000      -0.683325       -18.5942
  24   2.0000      -0.675345       -18.3771
  25   2.0000      -0.610214       -16.6048
  26   2.0000      -0.609423       -16.5832
  27   2.0000      -0.568675       -15.4744
  28   2.0000      -0.563240       -15.3265
  29   2.0000      -0.560640       -15.2558
  30   2.0000      -0.560211       -15.2441
  31   2.0000      -0.549638       -14.9564
  32   2.0000      -0.498682       -13.5698
  33   2.0000      -0.480825       -13.0839
  34   2.0000      -0.452624       -12.3165
  35   2.0000      -0.435776       -11.8581
  36   2.0000      -0.434722       -11.8294
  37   2.0000      -0.433397       -11.7933
  38   2.0000      -0.430707       -11.7201
  39   2.0000      -0.421415       -11.4673
  40   2.0000      -0.401234       -10.9181
  41   2.0000      -0.395094       -10.7511
  42   2.0000      -0.394296       -10.7293
  43   2.0000      -0.390469       -10.6252
  44   2.0000      -0.383950       -10.4478
  45   2.0000      -0.376920       -10.2565
  46   2.0000      -0.372710       -10.1420
  47   2.0000      -0.372681       -10.1412
  48   2.0000      -0.364161        -9.9093
  49   2.0000      -0.336653        -9.1608
  50   2.0000      -0.334931        -9.1139
  51   2.0000      -0.267026        -7.2661
  52   2.0000      -0.262111        -7.1324
  53   0.0000      -0.069000        -1.8776
  54   0.0000      -0.063841        -1.7372
  55   0.0000       0.065357         1.7785
  56   0.0000       0.078026         2.1232
  57   0.0000       0.085757         2.3336

MULLIKEN ATOMIC CHARGES
-----------------------
   0 C :   -0.184380
   1 C :   -0.167399
   2 C :    0.099325
   3 C :   -0.189469
   4 C :    0.099196
   5 C :   -0.168356
   6 C :    0.513981
   7 F :   -0.218919
   8 F :   -0.219492
   9 F :   -0.221258
  10 C :    0.513987
  11 F :   -0.219394
  12 F :   -0.221448
  13 F :   -0.219177
  14 H :    0.190532
  15 H :    0.201702
  16 H :    0.208819
  17 H :    0.201750
Sum of atomic charges:   -0.0000000

LOEWDIN ATOMIC CHARGES
----------------------
   0 C :   -0.135879
   1 C :   -0.102468
   2 C :   -0.067363
   3 C :   -0.082869
   4 C :   -0.067390
   5 C :   -0.102392
   6 C :    0.531688
   7 F :   -0.210844
   8 F :   -0.219503
   9 F :   -0.215769
  10 C :    0.531721
  11 F :   -0.219742
  12 F :   -0.215391
  13 F :   -0.211078
  14 H :    0.188377
  15 H :    0.196471
  16 H :    0.205981
  17 H :    0.196450

  Mayer bond orders larger than 0.100000
B(  0-C ,  1-C ) :   1.3723 B(  0-C ,  5-C ) :   1.3705 B(  0-C , 14-H ) :   0.9600
B(  1-C ,  2-C ) :   1.3537 B(  1-C , 15-H ) :   0.9469 B(  2-C ,  3-C ) :   1.4393
B(  2-C , 10-C ) :   0.9712 B(  3-C ,  4-C ) :   1.4399 B(  3-C , 16-H ) :   0.8750
B(  4-C ,  5-C ) :   1.3529 B(  4-C ,  6-C ) :   0.9714 B(  5-C , 17-H ) :   0.9481
B(  6-C ,  7-F ) :   1.0586 B(  6-C ,  8-F ) :   1.0229 B(  6-C ,  9-F ) :   1.0310
B( 10-C , 11-F ) :   1.0226 B( 10-C , 12-F ) :   1.0324 B( 10-C , 13-F ) :   1.0568

Dispersion correction           -0.006491005
FINAL SINGLE POINT ENERGY      -906.279607165620

DIPOLE MOMENT
-------------

Method             : SCF
Type of density    : Electron Density
Multiplicity       :   1
Irrep              :   0
Energy             :  -906.2884011536880280 Eh
Relativity type    :
Basis              : AO
                                X                 Y                 Z
Electronic contribution:     -0.002411661       8.547121966      -0.002534946
Nuclear contribution   :      0.000263037     -10.061238468       0.005293976
                        -----------------------------------------
Total Dipole Moment    :     -0.002148624      -1.514116502       0.002759030
                        -----------------------------------------
Magnitude (a.u.)       :      1.514120541
Magnitude (Debye)      :      3.848588562

Rotational constants in cm-1:             0.043783             0.012880             0.011101
Rotational constants in MHz :          1312.575161           386.120982           332.802169

                             ****ORCA TERMINATED NORMALLY****
TOTAL RUN TIME: 0 days 0 hours 0 minutes 48 seconds 626 msec
