                         Program Version 6.0.0  -   RELEASE  -
|  1> ! pbe def2-sv(p) def2/J RI DEFGRID1 loosescf d4 GCP(DFT/SV(P)) printgap
|  2> %output
|  3>     printlevel normal
|  4> end
|  5> * xyz 0 1
|  6> C 3.4004726559 -0.8606822454 -2.9968352182
|  7> C 3.994002641 0.3041958223 -2.2288859046
|  8> O 3.8066033648 0.1628120849 -0.8126029059
|  9> P 2.4211030552 0.411313695 -0.0863163157
| 10> S 1.2960475111 1.7634573285 -0.9661971316
| 11> O 3.070260742 0.7715775539 1.3047476583
| 12> C 2.4055060476 0.8855828664 2.577020479
| 13> C 2.6146014264 -0.3704284363 3.4003733525
| 14> S 1.5211748145 -1.4943261655 0.1811129371
| 15> C 0.2165629681 -1.4248522491 -1.0966990694
| 16> S -1.4087599021 -1.9237312647 -0.4783611461
| 17> P -2.0880169842 -0.0965165172 0.3130526269
| 18> S -1.1014537045 0.7754942892 1.7570185576
| 19> O -3.5631272612 -0.4095565613 0.7965415348
| 20> C -4.567713305 -1.0144285099 -0.0550352537
| 21> C -4.7391400627 -2.4810800173 0.2847926963
| 22> O -2.1872580684 0.7245195257 -1.0580380457
| 23> C -2.2499614258 2.1605181242 -1.0880434403
| 24> C -3.5743097848 2.6732306964 -0.5616858389
| 25> H 2.3136708258 -0.820283546 -2.9503752085
| 26> H 3.7099448402 -0.8007487684 -4.0353651761
| 27> H 3.7419407326 -1.8013672816 -2.5725381676
| 28> H 3.5463536564 1.2501478345 -2.5516295073
| 29> H 5.0777538444 0.3505485506 -2.3445429494
| 30> H 2.8727681327 1.7500970967 3.0530994804
| 31> H 1.3417636913 1.0906629172 2.429791458
| 32> H 3.6764093428 -0.5807157485 3.4922202335
| 33> H 2.1868771689 -0.2184310418 4.3860385377
| 34> H 2.1248318384 -1.2210331303 2.9316536956
| 35> H 0.461921278 -2.1427464007 -1.8748695095
| 36> H 0.160983193 -0.403245886 -1.4824562689
| 37> H -5.4791875036 -0.4520312743 0.1557027785
| 38> H -4.2801629527 -0.8784115454 -1.1004023556
| 39> H -3.8273869729 -3.0323336307 0.0650455415
| 40> H -4.9701273021 -2.5921032663 1.3405532465
| 41> H -5.5534227933 -2.8887370214 -0.3058053422
| 42> H -1.4152289011 2.5601703599 -0.5033272944
| 43> H -2.100562986 2.4095048314 -2.1396415375
| 44> H -3.5967039037 3.7552908584 -0.6439612963
| 45> H -4.397865559 2.2507975916 -1.1317458113
| 46> H -3.6860135256 2.3966361689 0.4867190058
| 47> *
| 48>
| 49>                          ****END OF INPUT****

CARTESIAN COORDINATES (ANGSTROEM)
---------------------------------
  C      3.400473   -0.860682   -2.996835
  C      3.994003    0.304196   -2.228886
  O      3.806603    0.162812   -0.812603
  P      2.421103    0.411314   -0.086316
  S      1.296048    1.763457   -0.966197
  O      3.070261    0.771578    1.304748
  C      2.405506    0.885583    2.577020
  C      2.614601   -0.370428    3.400373
  S      1.521175   -1.494326    0.181113
  C      0.216563   -1.424852   -1.096699
  S     -1.408760   -1.923731   -0.478361
  P     -2.088017   -0.096517    0.313053
  S     -1.101454    0.775494    1.757019
  O     -3.563127   -0.409557    0.796542
  C     -4.567713   -1.014429   -0.055035
  C     -4.739140   -2.481080    0.284793
  O     -2.187258    0.724520   -1.058038
  C     -2.249961    2.160518   -1.088043
  C     -3.574310    2.673231   -0.561686
  H      2.313671   -0.820284   -2.950375
  H      3.709945   -0.800749   -4.035365
  H      3.741941   -1.801367   -2.572538
  H      3.546354    1.250148   -2.551630
  H      5.077754    0.350549   -2.344543
  H      2.872768    1.750097    3.053099
  H      1.341764    1.090663    2.429791
  H      3.676409   -0.580716    3.492220
  H      2.186877   -0.218431    4.386039
  H      2.124832   -1.221033    2.931654
  H      0.461921   -2.142746   -1.874870
  H      0.160983   -0.403246   -1.482456
  H     -5.479188   -0.452031    0.155703
  H     -4.280163   -0.878412   -1.100402
  H     -3.827387   -3.032334    0.065046
  H     -4.970127   -2.592103    1.340553
  H     -5.553423   -2.888737   -0.305805
  H     -1.415229    2.560170   -0.503327
  H     -2.100563    2.409505   -2.139642
  H     -3.596704    3.755291   -0.643961
  H     -4.397866    2.250798   -1.131746
  H     -3.686014    2.396636    0.486719

 Total Charge           Charge          ....    0
 Multiplicity           Mult            ....    1
 Number of Electrons    NEL             ....  202
 Basis Dimension        Dim             ....  334

ORBITAL ENERGIES
----------------

  NO   OCC          E(Eh)            E(eV)
   0   2.0000     -88.045783     -2395.8476
   1   2.0000     -88.040839     -2395.7130
   2   2.0000     -87.984815     -2394.1885
   3   2.0000     -87.979532     -2394.0448
   4   2.0000     -76.424067     -2079.6046
   5   2.0000     -76.424054     -2079.6042
   6   2.0000     -18.795537      -511.4526
   7   2.0000     -18.789183      -511.2797
   8   2.0000     -18.786446      -511.2052
   9   2.0000     -18.781442      -511.0690
  10   2.0000      -9.960018      -271.0259
  11   2.0000      -9.957572      -270.9593
  12   2.0000      -9.948944      -270.7245
  13   2.0000      -9.944745      -270.6103
  14   2.0000      -9.944007      -270.5902
  15   2.0000      -9.891295      -269.1558
  16   2.0000      -9.886464      -269.0244
  17   2.0000      -9.882477      -268.9159
  18   2.0000      -9.877414      -268.7781
  19   2.0000      -7.691282      -209.2904
  20   2.0000      -7.685832      -209.1421
  21   2.0000      -7.629588      -207.6116
  22   2.0000      -7.624609      -207.4762
  23   2.0000      -6.421912      -174.7491
  24   2.0000      -6.421289      -174.7322
  25   2.0000      -5.719201      -155.6274
  26   2.0000      -5.715685      -155.5317
  27   2.0000      -5.713716      -155.4781
  28   2.0000      -5.710329      -155.3860
  29   2.0000      -5.708212      -155.3283
  30   2.0000      -5.702850      -155.1824
  31   2.0000      -5.658278      -153.9696
  32   2.0000      -5.653699      -153.8450
  33   2.0000      -5.650483      -153.7575
  34   2.0000      -5.649693      -153.7360
  35   2.0000      -5.645203      -153.6138
  36   2.0000      -5.644570      -153.5966
  37   2.0000      -4.644891      -126.3939
  38   2.0000      -4.643557      -126.3576
  39   2.0000      -4.643459      -126.3549
  40   2.0000      -4.643273      -126.3499
  41   2.0000      -4.642217      -126.3212
  42   2.0000      -4.641833      -126.3107
  43   2.0000      -0.985121       -26.8065
  44   2.0000      -0.983758       -26.7694
  45   2.0000      -0.944317       -25.6962
  46   2.0000      -0.938292       -25.5322
  47   2.0000      -0.762376       -20.7453
  48   2.0000      -0.721132       -19.6230
  49   2.0000      -0.711272       -19.3547
  50   2.0000      -0.692106       -18.8332
  51   2.0000      -0.680904       -18.5283
  52   2.0000      -0.675159       -18.3720
  53   2.0000      -0.650429       -17.6991
  54   2.0000      -0.632930       -17.2229
  55   2.0000      -0.600127       -16.3303
  56   2.0000      -0.586407       -15.9569
  57   2.0000      -0.579279       -15.7630
  58   2.0000      -0.564908       -15.3719
  59   2.0000      -0.561707       -15.2848
  60   2.0000      -0.502473       -13.6730
  61   2.0000      -0.493200       -13.4207
  62   2.0000      -0.477165       -12.9843
  63   2.0000      -0.466788       -12.7019
  64   2.0000      -0.455002       -12.3812
  65   2.0000      -0.449336       -12.2271
  66   2.0000      -0.440480       -11.9861
  67   2.0000      -0.432168       -11.7599
  68   2.0000      -0.425584       -11.5807
  69   2.0000      -0.415613       -11.3094
  70   2.0000      -0.409477       -11.1424
  71   2.0000      -0.398975       -10.8567
  72   2.0000      -0.390223       -10.6185
  73   2.0000      -0.388035       -10.5590
  74   2.0000      -0.380743       -10.3606
  75   2.0000      -0.372255       -10.1296
  76   2.0000      -0.366403        -9.9703
  77   2.0000      -0.359380        -9.7792
  78   2.0000      -0.355936        -9.6855
  79   2.0000      -0.352228        -9.5846
  80   2.0000      -0.347564        -9.4577
  81   2.0000      -0.344097        -9.3634
  82   2.0000      -0.340197        -9.2572
  83   2.0000      -0.336646        -9.1606
  84   2.0000      -0.332880        -9.0581
  85   2.0000      -0.314760        -8.5651
  86   2.0000      -0.307702        -8.3730
  87   2.0000      -0.305696        -8.3184
  88   2.0000      -0.291626        -7.9356
  89   2.0000      -0.286293        -7.7904
  90   2.0000      -0.275553        -7.4982
  91   2.0000      -0.273684        -7.4473
  92   2.0000      -0.268253        -7.2995
  93   2.0000      -0.264811        -7.2059
  94   2.0000      -0.256741        -6.9863
  95   2.0000      -0.239948        -6.5293
  96   2.0000      -0.222316        -6.0495
  97   2.0000      -0.206101        -5.6083
  98   2.0000      -0.204180        -5.5560
  99   2.0000      -0.194372        -5.2891
 100   2.0000      -0.185613        -5.0508
 101   0.0000      -0.038683        -1.0526
 102   0.0000      -0.031577        -0.8593
 103   0.0000      -0.017620        -0.4795
 104   0.0000       0.008642         0.2352
 105   0.0000       0.012885         0.3506

MULLIKEN ATOMIC CHARGES
-----------------------
   0 C :   -0.323400
   1 C :    0.001030
   2 O :   -0.358100
   3 P :    0.611967
   4 S :   -0.333506
   5 O :   -0.357153
   6 C :   -0.022193
   7 C :   -0.302134
   8 S :   -0.094343
   9 C :   -0.368248
  10 S :   -0.096768
  11 P :    0.624131
  12 S :   -0.317579
  13 O :   -0.365828
  14 C :   -0.033514
  15 C :   -0.292646
  16 O :   -0.387336
  17 C :   -0.018353
  18 C :   -0.312789
  19 H :    0.121108
  20 H :    0.111950
  21 H :    0.120548
  22 H :    0.110988
  23 H :    0.105560
  24 H :    0.104858
  25 H :    0.141234
  26 H :    0.113862
  27 H :    0.111972
  28 H :    0.129598
  29 H :    0.188999
  30 H :    0.205401
  31 H :    0.112364
  32 H :    0.110964
  33 H :    0.131964
  34 H :    0.124490
  35 H :    0.112315
  36 H :    0.134452
  37 H :    0.102543
  38 H :    0.114054
  39 H :    0.107650
  40 H :    0.129889
Sum of atomic charges:   -0.0000000

LOEWDIN ATOMIC CHARGES
----------------------
   0 C :   -0.366527
   1 C :   -0.119051
   2 O :   -0.238034
   3 P :    0.569139
   4 S :   -0.307956
   5 O :   -0.228015
   6 C :   -0.116784
   7 C :   -0.360365
   8 S :    0.073631
   9 C :   -0.482901
  10 S :    0.088543
  11 P :    0.568217
  12 S :   -0.302423
  13 O :   -0.239959
  14 C :   -0.120868
  15 C :   -0.359657
  16 O :   -0.252673
  17 C :   -0.124721
  18 C :   -0.366402
  19 H :    0.119368
  20 H :    0.130590
  21 H :    0.126892
  22 H :    0.108283
  23 H :    0.119353
  24 H :    0.120069
  25 H :    0.106754
  26 H :    0.124808
  27 H :    0.131755
  28 H :    0.121085
  29 H :    0.134892
  30 H :    0.123075
  31 H :    0.121287
  32 H :    0.109738
  33 H :    0.119887
  34 H :    0.131309
  35 H :    0.131504
  36 H :    0.111115
  37 H :    0.117511
  38 H :    0.131921
  39 H :    0.120069
  40 H :    0.125542

  Mayer bond orders larger than 0.100000
B(  0-C ,  1-C ) :   1.1597 B(  0-C , 19-H ) :   0.9346 B(  0-C , 20-H ) :   0.9388
B(  0-C , 21-H ) :   0.9455 B(  1-C ,  2-O ) :   0.9258 B(  1-C , 22-H ) :   0.9111
B(  1-C , 23-H ) :   0.9338 B(  2-O ,  3-P ) :   1.1082 B(  3-P ,  4-S ) :   1.5950
B(  3-P ,  5-O ) :   1.1568 B(  3-P ,  8-S ) :   0.9512 B(  4-S ,  8-S ) :   0.1217
B(  4-S , 30-H ) :   0.1104 B(  5-O ,  6-C ) :   0.8942 B(  6-C ,  7-C ) :   1.1671
B(  6-C , 24-H ) :   0.9330 B(  6-C , 25-H ) :   0.9000 B(  7-C , 26-H ) :   0.9476
B(  7-C , 27-H ) :   0.9398 B(  7-C , 28-H ) :   0.9381 B(  8-S ,  9-C ) :   0.9957
B(  9-C , 10-S ) :   1.0002 B(  9-C , 29-H ) :   0.9028 B(  9-C , 30-H ) :   0.8387
B( 10-S , 11-P ) :   0.9661 B( 10-S , 12-S ) :   0.1073 B( 11-P , 12-S ) :   1.6572
B( 11-P , 13-O ) :   1.1171 B( 11-P , 16-O ) :   1.0690 B( 13-O , 14-C ) :   0.8959
B( 14-C , 15-C ) :   1.1671 B( 14-C , 31-H ) :   0.9320 B( 14-C , 32-H ) :   0.9144
B( 15-C , 33-H ) :   0.9367 B( 15-C , 34-H ) :   0.9453 B( 15-C , 35-H ) :   0.9388
B( 16-O , 17-C ) :   0.9009 B( 17-C , 18-C ) :   1.1594 B( 17-C , 36-H ) :   0.9058
B( 17-C , 37-H ) :   0.9357 B( 18-C , 38-H ) :   0.9402 B( 18-C , 39-H ) :   0.9457
B( 18-C , 40-H ) :   0.9349

Dispersion correction           -0.065965977
FINAL SINGLE POINT ENERGY     -2929.516324188230

DIPOLE MOMENT
-------------

Method             : SCF
Type of density    : Electron Density
Multiplicity       :   1
Irrep              :   0
Energy             : -2929.6353555663922634 Eh
Relativity type    :
Basis              : AO
                                X                 Y                 Z
Electronic contribution:      7.228507998      -0.235584617       4.205190141
Nuclear contribution   :     -7.880982323      -0.254520964      -5.181866075
                        -----------------------------------------
Total Dipole Moment    :     -0.652474326      -0.490105581      -0.976675933
                        -----------------------------------------
Magnitude (a.u.)       :      1.272722320
Magnitude (Debye)      :      3.235003049

Rotational constants in cm-1:             0.011927             0.004962             0.004871
Rotational constants in MHz :           357.569089           148.767659           146.041672

                             ****ORCA TERMINATED NORMALLY****
TOTAL RUN TIME: 0 days 0 hours 0 minutes 21 seconds 77 msec
