                         Program Version 6.0.1  -  RELEASE   -
|  1> ! pbe def2-sv(p) def2/J RI DEFGRID1 loosescf d4 GCP(DFT/SV(P)) printgap
|  2> %output
|  3>     printlevel normal
|  4> end
|  5> * xyz 0 1
|  6> C 4.9907764986 -0.1112041867 -0.4936369506
|  7> C 4.4903017851 -1.3567888273 -1.2070056712
|  8> O 3.0635436417 -1.2855712879 -1.3921365421
|  9> C 2.2804047436 -1.9476192384 -0.5561804008
| 10> O 2.671992645 -2.6948877104 0.3102912852
| 11> C 0.812349336 -1.7273722803 -0.8784074114
| 12> C 0.518561811 -0.2448024479 -1.0755803856
| 13> H 1.1007734224 0.1327417677 -1.9236973831
| 14> C 0.9377154155 0.5617579448 0.1393934378
| 15> O 1.8860176146 0.2502578142 0.8214525006
| 16> O 0.2039937904 1.644620581 0.3076636877
| 17> C 0.5522148544 2.5387348551 1.3839098054
| 18> C 1.5959395355 3.5441959052 0.9295665505
| 19> S -1.2120284939 0.0622035926 -1.5464569294
| 20> P -2.1668332369 0.1308287668 0.3509724559
| 21> S -1.289669001 -0.7561831972 1.8665331518
| 22> O -2.5502577758 1.6304151959 0.6620248254
| 23> C -3.2614664338 2.451133874 -0.2890205233
| 24> O -3.6116321365 -0.4598102717 -0.0059572174
| 25> C -3.7973049197 -1.843977641 -0.3206485517
| 26> H 4.7970220134 0.7718017298 -1.0961999382
| 27> H 4.4760768708 -0.0052131302 0.4593544601
| 28> H 6.0573723216 -0.1992008641 -0.3162809075
| 29> H 4.719641931 -2.2561384228 -0.6288643459
| 30> H 4.9042536746 -1.435014167 -2.2133650361
| 31> H 0.2280969193 -2.1378612554 -0.0523415371
| 32> H 0.576125972 -2.2694045844 -1.7953383274
| 33> H -0.3886863352 3.0204260398 1.6514872504
| 34> H 0.9158326708 1.9384386137 2.2232383677
| 35> H 1.2409227555 4.0843695385 0.0563812383
| 36> H 1.7846451471 4.2463291934 1.7347384143
| 37> H 2.5240941528 3.0337779863 0.6827022827
| 38> H -3.3400218451 3.4275333486 0.181562364
| 39> H -4.247609182 2.0314086575 -0.4757779512
| 40> H -2.6969880927 2.5127188775 -1.2191543002
| 41> H -3.3037522123 -2.46916628 0.4251238577
| 42> H -3.3959326364 -2.0554742631 -1.31147308
| 43> H -4.8717582915 -2.0073649289 -0.2993590572
| 44> *
| 45>
| 46>                          ****END OF INPUT****

CARTESIAN COORDINATES (ANGSTROEM)
---------------------------------
  C      4.990776   -0.111204   -0.493637
  C      4.490302   -1.356789   -1.207006
  O      3.063544   -1.285571   -1.392137
  C      2.280405   -1.947619   -0.556180
  O      2.671993   -2.694888    0.310291
  C      0.812349   -1.727372   -0.878407
  C      0.518562   -0.244802   -1.075580
  H      1.100773    0.132742   -1.923697
  C      0.937715    0.561758    0.139393
  O      1.886018    0.250258    0.821453
  O      0.203994    1.644621    0.307664
  C      0.552215    2.538735    1.383910
  C      1.595940    3.544196    0.929567
  S     -1.212028    0.062204   -1.546457
  P     -2.166833    0.130829    0.350972
  S     -1.289669   -0.756183    1.866533
  O     -2.550258    1.630415    0.662025
  C     -3.261466    2.451134   -0.289021
  O     -3.611632   -0.459810   -0.005957
  C     -3.797305   -1.843978   -0.320649
  H      4.797022    0.771802   -1.096200
  H      4.476077   -0.005213    0.459354
  H      6.057372   -0.199201   -0.316281
  H      4.719642   -2.256138   -0.628864
  H      4.904254   -1.435014   -2.213365
  H      0.228097   -2.137861   -0.052342
  H      0.576126   -2.269405   -1.795338
  H     -0.388686    3.020426    1.651487
  H      0.915833    1.938439    2.223238
  H      1.240923    4.084370    0.056381
  H      1.784645    4.246329    1.734738
  H      2.524094    3.033778    0.682702
  H     -3.340022    3.427533    0.181562
  H     -4.247609    2.031409   -0.475778
  H     -2.696988    2.512719   -1.219154
  H     -3.303752   -2.469166    0.425124
  H     -3.395933   -2.055474   -1.311473
  H     -4.871758   -2.007365   -0.299359

 Total Charge           Charge          ....    0
 Multiplicity           Mult            ....    1
 Number of Electrons    NEL             ....  174
 Basis Dimension        Dim             ....  316

ORBITAL ENERGIES
----------------

  NO   OCC          E(Eh)            E(eV)
   0   2.0000     -88.045558     -2395.8414
   1   2.0000     -87.988250     -2394.2820
   2   2.0000     -76.431462     -2079.8058
   3   2.0000     -18.813044      -511.9289
   4   2.0000     -18.800169      -511.5786
   5   2.0000     -18.797402      -511.5033
   6   2.0000     -18.790988      -511.3288
   7   2.0000     -18.744586      -510.0661
   8   2.0000     -18.720538      -509.4117
   9   2.0000     -10.022671      -272.7307
  10   2.0000      -9.998608      -272.0760
  11   2.0000      -9.955404      -270.9003
  12   2.0000      -9.952408      -270.8188
  13   2.0000      -9.948565      -270.7142
  14   2.0000      -9.947830      -270.6942
  15   2.0000      -9.937624      -270.4165
  16   2.0000      -9.901093      -269.4224
  17   2.0000      -9.890042      -269.1217
  18   2.0000      -9.876641      -268.7571
  19   2.0000      -7.690428      -209.2672
  20   2.0000      -7.633113      -207.7076
  21   2.0000      -6.428363      -174.9247
  22   2.0000      -5.718307      -155.6030
  23   2.0000      -5.714811      -155.5079
  24   2.0000      -5.707523      -155.3096
  25   2.0000      -5.662357      -154.0806
  26   2.0000      -5.653459      -153.8384
  27   2.0000      -5.653228      -153.8321
  28   2.0000      -4.651133      -126.5638
  29   2.0000      -4.650266      -126.5402
  30   2.0000      -4.648660      -126.4965
  31   2.0000      -1.020395       -27.7664
  32   2.0000      -0.996634       -27.1198
  33   2.0000      -0.992746       -27.0140
  34   2.0000      -0.948256       -25.8034
  35   2.0000      -0.925987       -25.1974
  36   2.0000      -0.899868       -24.4866
  37   2.0000      -0.768916       -20.9233
  38   2.0000      -0.709689       -19.3116
  39   2.0000      -0.705032       -19.1849
  40   2.0000      -0.691078       -18.8052
  41   2.0000      -0.657553       -17.8929
  42   2.0000      -0.642004       -17.4698
  43   2.0000      -0.627431       -17.0733
  44   2.0000      -0.618393       -16.8273
  45   2.0000      -0.587427       -15.9847
  46   2.0000      -0.568077       -15.4582
  47   2.0000      -0.520637       -14.1673
  48   2.0000      -0.503393       -13.6980
  49   2.0000      -0.492118       -13.3912
  50   2.0000      -0.486673       -13.2430
  51   2.0000      -0.480871       -13.0852
  52   2.0000      -0.455762       -12.4019
  53   2.0000      -0.441218       -12.0061
  54   2.0000      -0.439733       -11.9657
  55   2.0000      -0.430345       -11.7103
  56   2.0000      -0.427012       -11.6196
  57   2.0000      -0.421957       -11.4820
  58   2.0000      -0.420008       -11.4290
  59   2.0000      -0.407135       -11.0787
  60   2.0000      -0.399770       -10.8783
  61   2.0000      -0.399260       -10.8644
  62   2.0000      -0.394654       -10.7391
  63   2.0000      -0.378600       -10.3022
  64   2.0000      -0.370384       -10.0787
  65   2.0000      -0.365227        -9.9383
  66   2.0000      -0.355313        -9.6685
  67   2.0000      -0.351383        -9.5616
  68   2.0000      -0.345324        -9.3967
  69   2.0000      -0.339181        -9.2296
  70   2.0000      -0.330669        -8.9980
  71   2.0000      -0.330169        -8.9844
  72   2.0000      -0.317415        -8.6373
  73   2.0000      -0.314817        -8.5666
  74   2.0000      -0.309975        -8.4349
  75   2.0000      -0.303607        -8.2616
  76   2.0000      -0.300116        -8.1666
  77   2.0000      -0.284794        -7.7496
  78   2.0000      -0.277570        -7.5531
  79   2.0000      -0.267512        -7.2794
  80   2.0000      -0.266171        -7.2429
  81   2.0000      -0.245316        -6.6754
  82   2.0000      -0.243475        -6.6253
  83   2.0000      -0.222473        -6.0538
  84   2.0000      -0.208536        -5.6745
  85   2.0000      -0.205578        -5.5941
  86   2.0000      -0.201294        -5.4775
  87   0.0000      -0.043667        -1.1882
  88   0.0000      -0.034226        -0.9313
  89   0.0000      -0.005203        -0.1416
  90   0.0000       0.002092         0.0569
  91   0.0000       0.012190         0.3317

MULLIKEN ATOMIC CHARGES
-----------------------
   0 C :   -0.304331
   1 C :   -0.017975
   2 O :   -0.257314
   3 C :    0.109931
   4 O :   -0.187576
   5 C :   -0.032995
   6 C :   -0.304067
   7 H :    0.160207
   8 C :    0.183493
   9 O :   -0.173291
  10 O :   -0.230259
  11 C :   -0.012361
  12 C :   -0.304301
  13 S :   -0.099341
  14 P :    0.605643
  15 S :   -0.287953
  16 O :   -0.363330
  17 C :   -0.109306
  18 O :   -0.388175
  19 C :   -0.102106
  20 H :    0.102464
  21 H :    0.143237
  22 H :    0.106545
  23 H :    0.112244
  24 H :    0.096544
  25 H :    0.116977
  26 H :    0.110133
  27 H :    0.107586
  28 H :    0.120463
  29 H :    0.110959
  30 H :    0.116292
  31 H :    0.125099
  32 H :    0.130620
  33 H :    0.127955
  34 H :    0.122623
  35 H :    0.122330
  36 H :    0.116305
  37 H :    0.127029
Sum of atomic charges:    0.0000000

LOEWDIN ATOMIC CHARGES
----------------------
   0 C :   -0.357390
   1 C :   -0.111609
   2 O :   -0.074505
   3 C :    0.028933
   4 O :   -0.157392
   5 C :   -0.249064
   6 C :   -0.269112
   7 H :    0.153871
   8 C :    0.012358
   9 O :   -0.132532
  10 O :   -0.059083
  11 C :   -0.110426
  12 C :   -0.355695
  13 S :    0.094087
  14 P :    0.572028
  15 S :   -0.282572
  16 O :   -0.236202
  17 C :   -0.211120
  18 O :   -0.259929
  19 C :   -0.215878
  20 H :    0.118890
  21 H :    0.135805
  22 H :    0.127043
  23 H :    0.121028
  24 H :    0.113395
  25 H :    0.135649
  26 H :    0.140862
  27 H :    0.118221
  28 H :    0.124987
  29 H :    0.123386
  30 H :    0.132409
  31 H :    0.129014
  32 H :    0.125276
  33 H :    0.117851
  34 H :    0.110886
  35 H :    0.113707
  36 H :    0.109230
  37 H :    0.123593

  Mayer bond orders larger than 0.100000
B(  0-C ,  1-C ) :   1.1764 B(  0-C , 20-H ) :   0.9512 B(  0-C , 21-H ) :   0.9380
B(  0-C , 22-H ) :   0.9434 B(  1-C ,  2-O ) :   0.9185 B(  1-C , 23-H ) :   0.9066
B(  1-C , 24-H ) :   0.9383 B(  2-O ,  3-C ) :   1.1801 B(  3-C ,  4-O ) :   2.0868
B(  3-C ,  5-C ) :   1.0134 B(  5-C ,  6-C ) :   1.0368 B(  5-C , 25-H ) :   0.8858
B(  5-C , 26-H ) :   0.8833 B(  6-C ,  7-H ) :   0.8525 B(  6-C ,  8-C ) :   0.9126
B(  6-C , 13-S ) :   0.9964 B(  8-C ,  9-O ) :   2.0109 B(  8-C , 10-O ) :   1.2382
B( 10-O , 11-C ) :   0.8979 B( 11-C , 12-C ) :   1.1722 B( 11-C , 27-H ) :   0.9310
B( 11-C , 28-H ) :   0.9140 B( 12-C , 29-H ) :   0.9483 B( 12-C , 30-H ) :   0.9450
B( 12-C , 31-H ) :   0.9451 B( 13-S , 14-P ) :   0.9584 B( 13-S , 15-S ) :   0.1150
B( 14-P , 15-S ) :   1.6344 B( 14-P , 16-O ) :   1.1174 B( 14-P , 18-O ) :   1.0704
B( 16-O , 17-C ) :   0.9154 B( 17-C , 32-H ) :   0.9589 B( 17-C , 33-H ) :   0.9473
B( 17-C , 34-H ) :   0.9378 B( 18-O , 19-C ) :   0.9299 B( 19-C , 35-H ) :   0.9361
B( 19-C , 36-H ) :   0.9467 B( 19-C , 37-H ) :   0.9584

Dispersion correction           -0.053570916
FINAL SINGLE POINT ENERGY     -1979.020693038328

DIPOLE MOMENT
-------------

Method             : SCF
Type of density    : Electron Density
Multiplicity       :   1
Irrep              :   0
Energy             : -1979.1509393656383509 Eh
Relativity type    :
Basis              : AO
                                X                 Y                 Z
Electronic contribution:    -13.189893720      -8.172239176       2.495557195
Nuclear contribution   :     12.428179991       9.613514500      -3.987509939
                        -----------------------------------------
Total Dipole Moment    :     -0.761713729       1.441275324      -1.491952744
                        -----------------------------------------
Magnitude (a.u.)       :      2.209842835
Magnitude (Debye)      :      5.616974097

Rotational constants in cm-1:             0.015379             0.006910             0.005747
Rotational constants in MHz :           461.054241           207.148701           172.294717

                             ****ORCA TERMINATED NORMALLY****
TOTAL RUN TIME: 0 days 0 hours 0 minutes 43 seconds 464 msec
