                         Program Version 6.0.0  -   RELEASE  -
|  1> ! pbe def2-sv(p) def2/J RI DEFGRID1 loosescf d4 GCP(DFT/SV(P)) printgap
|  2> %output
|  3>     printlevel normal
|  4> end
|  5> * xyz 0 1
|  6> C 2.7749666235 -1.3915985455 -0.0001369018
|  7> C 1.5784664928 -0.6980940262 -0.0001485677
|  8> C 1.5784713402 0.6980809621 -8.12133e-05
|  9> C 2.7749590194 1.3916014917 4.60401e-05
| 10> C 3.9767980748 0.6950558522 7.88624e-05
| 11> C 3.9767888323 -0.6950394741 -3.23788e-05
| 12> Cl 5.4631932859 -1.5688469998 -4.39926e-05
| 13> Cl 5.463188358 1.5688460488 0.0002574593
| 14> O 0.4100377713 1.4242764262 -0.000137819
| 15> C -0.7431813552 0.6990787809 -0.0001190069
| 16> C -0.7431821032 -0.6990842383 -0.0001225285
| 17> C -1.9510866127 -1.3892835139 -2.47142e-05
| 18> C -3.1620451103 -0.6952469951 5.19516e-05
| 19> C -3.1620417788 0.6952478601 5.5777e-06
| 20> C -1.9510849889 1.389287499 -7.74244e-05
| 21> Cl -1.9225286564 3.1042657377 -0.0001353832
| 22> Cl -4.642277964 1.5599723208 6.76085e-05
| 23> Cl -4.6422743035 -1.5599663037 0.0002060415
| 24> Cl -1.922537372 -3.1042695368 1.7403e-06
| 25> O 0.4100395903 -1.4242833604 -0.0002184893
| 26> H 2.7593358829 -2.4683101219 -0.000216636
| 27> H 2.7593028359 2.4683082717 0.0001162531
| 28> *
| 29>
| 30>                          ****END OF INPUT****

CARTESIAN COORDINATES (ANGSTROEM)
---------------------------------
  C      2.774967   -1.391599   -0.000137
  C      1.578466   -0.698094   -0.000149
  C      1.578471    0.698081   -0.000081
  C      2.774959    1.391601    0.000046
  C      3.976798    0.695056    0.000079
  C      3.976789   -0.695039   -0.000032
  Cl     5.463193   -1.568847   -0.000044
  Cl     5.463188    1.568846    0.000257
  O      0.410038    1.424276   -0.000138
  C     -0.743181    0.699079   -0.000119
  C     -0.743182   -0.699084   -0.000123
  C     -1.951087   -1.389284   -0.000025
  C     -3.162045   -0.695247    0.000052
  C     -3.162042    0.695248    0.000006
  C     -1.951085    1.389287   -0.000077
  Cl    -1.922529    3.104266   -0.000135
  Cl    -4.642278    1.559972    0.000068
  Cl    -4.642274   -1.559966    0.000206
  Cl    -1.922537   -3.104270    0.000002
  O      0.410040   -1.424283   -0.000218
  H      2.759336   -2.468310   -0.000217
  H      2.759303    2.468308    0.000116

 Total Charge           Charge          ....    0
 Multiplicity           Mult            ....    1
 Number of Electrons    NEL             ....  192
 Basis Dimension        Dim             ....  308

ORBITAL ENERGIES
----------------

  NO   OCC          E(Eh)            E(eV)
   0   2.0000    -100.663514     -2739.1935
   1   2.0000    -100.663469     -2739.1923
   2   2.0000    -100.662304     -2739.1605
   3   2.0000    -100.662218     -2739.1582
   4   2.0000    -100.657215     -2739.0221
   5   2.0000    -100.657134     -2739.0199
   6   2.0000     -18.848666      -512.8983
   7   2.0000     -18.848484      -512.8933
   8   2.0000     -10.000915      -272.1387
   9   2.0000     -10.000684      -272.1325
  10   2.0000      -9.995068      -271.9796
  11   2.0000      -9.994852      -271.9737
  12   2.0000      -9.982898      -271.6485
  13   2.0000      -9.982680      -271.6425
  14   2.0000      -9.982082      -271.6263
  15   2.0000      -9.981967      -271.6231
  16   2.0000      -9.976284      -271.4685
  17   2.0000      -9.976060      -271.4624
  18   2.0000      -9.932110      -270.2665
  19   2.0000      -9.932005      -270.2636
  20   2.0000      -9.199071      -250.3195
  21   2.0000      -9.199036      -250.3185
  22   2.0000      -9.198001      -250.2903
  23   2.0000      -9.197928      -250.2883
  24   2.0000      -9.193032      -250.1551
  25   2.0000      -9.192964      -250.1533
  26   2.0000      -7.030899      -191.3205
  27   2.0000      -7.030891      -191.3203
  28   2.0000      -7.029790      -191.2903
  29   2.0000      -7.029774      -191.2899
  30   2.0000      -7.024638      -191.1501
  31   2.0000      -7.024622      -191.1497
  32   2.0000      -7.018986      -190.9963
  33   2.0000      -7.018985      -190.9963
  34   2.0000      -7.017986      -190.9691
  35   2.0000      -7.017982      -190.9690
  36   2.0000      -7.017945      -190.9680
  37   2.0000      -7.017935      -190.9677
  38   2.0000      -7.016901      -190.9396
  39   2.0000      -7.016864      -190.9386
  40   2.0000      -7.012962      -190.8324
  41   2.0000      -7.012951      -190.8321
  42   2.0000      -7.012143      -190.8101
  43   2.0000      -7.012107      -190.8091
  44   2.0000      -1.054695       -28.6997
  45   2.0000      -1.019820       -27.7507
  46   2.0000      -0.875986       -23.8368
  47   2.0000      -0.854645       -23.2561
  48   2.0000      -0.836232       -22.7550
  49   2.0000      -0.817560       -22.2469
  50   2.0000      -0.797064       -21.6892
  51   2.0000      -0.789935       -21.4952
  52   2.0000      -0.787753       -21.4358
  53   2.0000      -0.765085       -20.8190
  54   2.0000      -0.720227       -19.5984
  55   2.0000      -0.699663       -19.0388
  56   2.0000      -0.670601       -18.2480
  57   2.0000      -0.661808       -18.0087
  58   2.0000      -0.622055       -16.9270
  59   2.0000      -0.604339       -16.4449
  60   2.0000      -0.574910       -15.6441
  61   2.0000      -0.562182       -15.2978
  62   2.0000      -0.537304       -14.6208
  63   2.0000      -0.517985       -14.0951
  64   2.0000      -0.480947       -13.0872
  65   2.0000      -0.472942       -12.8694
  66   2.0000      -0.465986       -12.6801
  67   2.0000      -0.462643       -12.5891
  68   2.0000      -0.446830       -12.1589
  69   2.0000      -0.431375       -11.7383
  70   2.0000      -0.427471       -11.6321
  71   2.0000      -0.410084       -11.1590
  72   2.0000      -0.409363       -11.1393
  73   2.0000      -0.407713       -11.0944
  74   2.0000      -0.403382       -10.9766
  75   2.0000      -0.394032       -10.7222
  76   2.0000      -0.384581       -10.4650
  77   2.0000      -0.384024       -10.4498
  78   2.0000      -0.381262       -10.3747
  79   2.0000      -0.351388        -9.5618
  80   2.0000      -0.335882        -9.1398
  81   2.0000      -0.326100        -8.8736
  82   2.0000      -0.318321        -8.6619
  83   2.0000      -0.306456        -8.3391
  84   2.0000      -0.305277        -8.3070
  85   2.0000      -0.303538        -8.2597
  86   2.0000      -0.299738        -8.1563
  87   2.0000      -0.295787        -8.0488
  88   2.0000      -0.286049        -7.7838
  89   2.0000      -0.273166        -7.4332
  90   2.0000      -0.269768        -7.3407
  91   2.0000      -0.264425        -7.1954
  92   2.0000      -0.250563        -6.8182
  93   2.0000      -0.238959        -6.5024
  94   2.0000      -0.222083        -6.0432
  95   2.0000      -0.197367        -5.3706
  96   0.0000      -0.080974        -2.2034
  97   0.0000      -0.070367        -1.9148
  98   0.0000      -0.069283        -1.8853
  99   0.0000      -0.059765        -1.6263
 100   0.0000      -0.039084        -1.0635

MULLIKEN ATOMIC CHARGES
-----------------------
   0 C :   -0.227384
   1 C :    0.228982
   2 C :    0.228970
   3 C :   -0.227376
   4 C :    0.102367
   5 C :    0.102372
   6 Cl:   -0.044485
   7 Cl:   -0.044476
   8 O :   -0.187700
   9 C :    0.122976
  10 C :    0.122979
  11 C :   -0.020560
  12 C :   -0.016907
  13 C :   -0.016887
  14 C :   -0.020580
  15 Cl:   -0.003447
  16 Cl:   -0.012807
  17 Cl:   -0.012805
  18 Cl:   -0.003454
  19 O :   -0.187694
  20 H :    0.058959
  21 H :    0.058956
Sum of atomic charges:   -0.0000000

LOEWDIN ATOMIC CHARGES
----------------------
   0 C :   -0.141411
   1 C :    0.018108
   2 C :    0.018110
   3 C :   -0.141410
   4 C :   -0.158932
   5 C :   -0.158923
   6 Cl:    0.155803
   7 Cl:    0.155819
   8 O :   -0.010449
   9 C :   -0.005801
  10 C :   -0.005801
  11 C :   -0.178915
  12 C :   -0.185368
  13 C :   -0.185364
  14 C :   -0.178920
  15 Cl:    0.180536
  16 Cl:    0.176913
  17 Cl:    0.176919
  18 Cl:    0.180531
  19 O :   -0.010446
  20 H :    0.149501
  21 H :    0.149501

  Mayer bond orders larger than 0.100000
B(  0-C ,  1-C ) :   1.3293 B(  0-C ,  3-C ) :   0.1259 B(  0-C ,  5-C ) :   1.3041
B(  0-C , 20-H ) :   0.9831 B(  1-C ,  2-C ) :   1.2789 B(  1-C , 19-O ) :   1.0369
B(  2-C ,  3-C ) :   1.3293 B(  2-C ,  8-O ) :   1.0368 B(  3-C ,  4-C ) :   1.3041
B(  3-C , 21-H ) :   0.9831 B(  4-C ,  5-C ) :   1.4251 B(  4-C ,  7-Cl) :   1.0358
B(  5-C ,  6-Cl) :   1.0358 B(  8-O ,  9-C ) :   1.1422 B(  9-C , 10-C ) :   1.2275
B(  9-C , 14-C ) :   1.3825 B( 10-C , 11-C ) :   1.3825 B( 10-C , 19-O ) :   1.1422
B( 11-C , 12-C ) :   1.4298 B( 11-C , 18-Cl) :   1.0996 B( 12-C , 13-C ) :   1.4280
B( 12-C , 17-Cl) :   1.1132 B( 13-C , 14-C ) :   1.4298 B( 13-C , 16-Cl) :   1.1132
B( 14-C , 15-Cl) :   1.0996

Dispersion correction           -0.046576902
FINAL SINGLE POINT ENERGY     -3366.941055599766

DIPOLE MOMENT
-------------

Method             : SCF
Type of density    : Electron Density
Multiplicity       :   1
Irrep              :   0
Energy             : -3366.9696454033469308 Eh
Relativity type    :
Basis              : AO
                                X                 Y                 Z
Electronic contribution:     -8.044341748       0.000026234       0.000559261
Nuclear contribution   :      8.146789227      -0.000003539      -0.000573879
                        -----------------------------------------
Total Dipole Moment    :      0.102447480       0.000022696      -0.000014618
                        -----------------------------------------
Magnitude (a.u.)       :      0.102447483
Magnitude (Debye)      :      0.260400808

Rotational constants in cm-1:             0.013518             0.003443             0.002744
Rotational constants in MHz :           405.245610           103.205845            82.257048

                             ****ORCA TERMINATED NORMALLY****
TOTAL RUN TIME: 0 days 0 hours 0 minutes 43 seconds 749 msec
