                         Program Version 6.0.0  -   RELEASE  -
|  1> ! r2scan-3c def2/J RI DEFGRID2 scfconv6 printgap
|  2> %output
|  3>     printlevel normal
|  4> end
|  5> * xyz 0 1
|  6> C 0.8591668999 1.3917459867 -0.5943465182
|  7> C 1.5945055868 0.1668085969 -0.0258904301
|  8> H 2.5684828734 0.0953390539 -0.522668688
|  9> C 0.7731455855 -1.1095737021 -0.317238975
| 10> H 1.1981245128 -1.9367255862 0.2685780669
| 11> C -0.6774452237 -0.9130433698 0.1467879478
| 12> H -1.2810831458 -1.7600867854 -0.2113324092
| 13> C -1.2495159683 0.3712871332 -0.4752074884
| 14> H -1.254383544 0.2553014775 -1.5782837302
| 15> O -0.4705578499 1.4910150444 -0.1244221812
| 16> O -2.524570825 0.5558786932 0.0291948434
| 17> O -0.7003587661 -0.8359256918 1.5486909281
| 18> O 0.7366018254 -1.4114538199 -1.6901982028
| 19> O 1.8777946483 0.2931121428 1.3430889483
| 20> H 0.8573775712 1.3273423938 -1.6907143255
| 21> H 1.3499777196 2.3085089175 -0.26828319
| 22> H -2.8188438064 1.4602776977 -0.1606230276
| 23> H -1.5844918167 -0.5363956318 1.8156638935
| 24> H 1.589940111 -1.7751364464 -1.967730671
| 25> H 1.0459242651 0.1968149827 1.8386254085
| 26> *
| 27>
| 28>                          ****END OF INPUT****

CARTESIAN COORDINATES (ANGSTROEM)
---------------------------------
  C      0.859167    1.391746   -0.594347
  C      1.594506    0.166809   -0.025890
  H      2.568483    0.095339   -0.522669
  C      0.773146   -1.109574   -0.317239
  H      1.198125   -1.936726    0.268578
  C     -0.677445   -0.913043    0.146788
  H     -1.281083   -1.760087   -0.211332
  C     -1.249516    0.371287   -0.475207
  H     -1.254384    0.255301   -1.578284
  O     -0.470558    1.491015   -0.124422
  O     -2.524571    0.555879    0.029195
  O     -0.700359   -0.835926    1.548691
  O      0.736602   -1.411454   -1.690198
  O      1.877795    0.293112    1.343089
  H      0.857378    1.327342   -1.690714
  H      1.349978    2.308509   -0.268283
  H     -2.818844    1.460278   -0.160623
  H     -1.584492   -0.536396    1.815664
  H      1.589940   -1.775136   -1.967731
  H      1.045924    0.196815    1.838625

 Total Charge           Charge          ....    0
 Multiplicity           Mult            ....    1
 Number of Electrons    NEL             ....   80
 Basis Dimension        Dim             ....  265

ORBITAL ENERGIES
----------------

  NO   OCC          E(Eh)            E(eV)
   0   2.0000     -18.975883      -516.3600
   1   2.0000     -18.970620      -516.2168
   2   2.0000     -18.967847      -516.1414
   3   2.0000     -18.965394      -516.0746
   4   2.0000     -18.939048      -515.3577
   5   2.0000     -10.137505      -275.8555
   6   2.0000     -10.095492      -274.7123
   7   2.0000     -10.093268      -274.6518
   8   2.0000     -10.085134      -274.4304
   9   2.0000     -10.079132      -274.2671
  10   2.0000      -1.055087       -28.7104
  11   2.0000      -1.013477       -27.5781
  12   2.0000      -1.001731       -27.2585
  13   2.0000      -0.989908       -26.9368
  14   2.0000      -0.974827       -26.5264
  15   2.0000      -0.745282       -20.2802
  16   2.0000      -0.717290       -19.5185
  17   2.0000      -0.631133       -17.1740
  18   2.0000      -0.614462       -16.7204
  19   2.0000      -0.551745       -15.0138
  20   2.0000      -0.519540       -14.1374
  21   2.0000      -0.510957       -13.9039
  22   2.0000      -0.494658       -13.4603
  23   2.0000      -0.478893       -13.0313
  24   2.0000      -0.451661       -12.2903
  25   2.0000      -0.438680       -11.9371
  26   2.0000      -0.418640       -11.3918
  27   2.0000      -0.402953       -10.9649
  28   2.0000      -0.391113       -10.6427
  29   2.0000      -0.379053       -10.3145
  30   2.0000      -0.345811        -9.4100
  31   2.0000      -0.339575        -9.2403
  32   2.0000      -0.330547        -8.9946
  33   2.0000      -0.317246        -8.6327
  34   2.0000      -0.293065        -7.9747
  35   2.0000      -0.281161        -7.6508
  36   2.0000      -0.266246        -7.2449
  37   2.0000      -0.251823        -6.8524
  38   2.0000      -0.242898        -6.6096
  39   2.0000      -0.213050        -5.7974
  40   0.0000       0.026378         0.7178
  41   0.0000       0.053219         1.4482
  42   0.0000       0.079871         2.1734
  43   0.0000       0.092923         2.5286
  44   0.0000       0.099492         2.7073

MULLIKEN ATOMIC CHARGES
-----------------------
   0 C :   -0.205924
   1 C :   -0.050889
   2 H :    0.149444
   3 C :   -0.050697
   4 H :    0.146933
   5 C :    0.035196
   6 H :    0.154036
   7 C :   -0.035345
   8 H :    0.146161
   9 O :   -0.214491
  10 O :   -0.411984
  11 O :   -0.433002
  12 O :   -0.409981
  13 O :   -0.401078
  14 H :    0.151781
  15 H :    0.160502
  16 H :    0.312209
  17 H :    0.317867
  18 H :    0.301855
  19 H :    0.337408
Sum of atomic charges:    0.0000000

LOEWDIN ATOMIC CHARGES
----------------------
   0 C :    0.043506
   1 C :    0.084486
   2 H :    0.188636
   3 C :    0.118904
   4 H :    0.186834
   5 C :    0.130355
   6 H :    0.188444
   7 C :    0.288200
   8 H :    0.188931
   9 O :   -0.683475
  10 O :   -0.508976
  11 O :   -0.571005
  12 O :   -0.589735
  13 O :   -0.571566
  14 H :    0.175992
  15 H :    0.193035
  16 H :    0.286495
  17 H :    0.288681
  18 H :    0.275915
  19 H :    0.286344

  Mayer bond orders larger than 0.100000
B(  0-C ,  1-C ) :   0.8871 B(  0-C ,  9-O ) :   0.9190 B(  0-C , 14-H ) :   0.9761
B(  0-C , 15-H ) :   0.9519 B(  1-C ,  2-H ) :   0.9765 B(  1-C ,  3-C ) :   0.8743
B(  1-C , 13-O ) :   0.9848 B(  3-C ,  4-H ) :   0.9637 B(  3-C ,  5-C ) :   0.9414
B(  3-C , 12-O ) :   0.9343 B(  5-C ,  6-H ) :   0.9233 B(  5-C ,  7-C ) :   0.9220
B(  5-C , 11-O ) :   0.9175 B(  7-C ,  8-H ) :   0.9801 B(  7-C ,  9-O ) :   0.9320
B(  7-C , 10-O ) :   1.0694 B( 10-O , 16-H ) :   0.8792 B( 11-O , 17-H ) :   0.8709
B( 12-O , 18-H ) :   0.8964 B( 13-O , 19-H ) :   0.8373

Dispersion correction           -0.006447549
FINAL SINGLE POINT ENERGY      -572.562583973362

DIPOLE MOMENT
-------------

Method             : SCF
Type of density    : Electron Density
Multiplicity       :   1
Irrep              :   0
Energy             :  -572.5732126333166434 Eh
Relativity type    :
Basis              : AO
                                X                 Y                 Z
Electronic contribution:     -1.733666162       0.289912776       1.562106806
Nuclear contribution   :      1.551689665      -0.340834651      -2.307240281
                        -----------------------------------------
Total Dipole Moment    :     -0.181976497      -0.050921875      -0.745133475
                        -----------------------------------------
Magnitude (a.u.)       :      0.768721262
Magnitude (Debye)      :      1.953934166

Rotational constants in cm-1:             0.058584             0.040608             0.038507
Rotational constants in MHz :          1756.302472          1217.390835          1154.419258

                             ****ORCA TERMINATED NORMALLY****
TOTAL RUN TIME: 0 days 0 hours 0 minutes 44 seconds 811 msec
