                         Program Version 6.0.0  -   RELEASE  -
|  1> ! r2scan-3c def2/J RI DEFGRID2 scfconv6 printgap
|  2> %output
|  3>     printlevel normal
|  4> end
|  5> %cpcm
|  6>     smd true
|  7>     smdsolvent "water"
|  8> end
|  9> * xyz 0 1
| 10> C 0.8591668999 1.3917459867 -0.5943465182
| 11> C 1.5945055868 0.1668085969 -0.0258904301
| 12> H 2.5684828734 0.0953390539 -0.522668688
| 13> C 0.7731455855 -1.1095737021 -0.317238975
| 14> H 1.1981245128 -1.9367255862 0.2685780669
| 15> C -0.6774452237 -0.9130433698 0.1467879478
| 16> H -1.2810831458 -1.7600867854 -0.2113324092
| 17> C -1.2495159683 0.3712871332 -0.4752074884
| 18> H -1.254383544 0.2553014775 -1.5782837302
| 19> O -0.4705578499 1.4910150444 -0.1244221812
| 20> O -2.524570825 0.5558786932 0.0291948434
| 21> O -0.7003587661 -0.8359256918 1.5486909281
| 22> O 0.7366018254 -1.4114538199 -1.6901982028
| 23> O 1.8777946483 0.2931121428 1.3430889483
| 24> H 0.8573775712 1.3273423938 -1.6907143255
| 25> H 1.3499777196 2.3085089175 -0.26828319
| 26> H -2.8188438064 1.4602776977 -0.1606230276
| 27> H -1.5844918167 -0.5363956318 1.8156638935
| 28> H 1.589940111 -1.7751364464 -1.967730671
| 29> H 1.0459242651 0.1968149827 1.8386254085
| 30> *
| 31>
| 32>                          ****END OF INPUT****

CARTESIAN COORDINATES (ANGSTROEM)
---------------------------------
  C      0.859167    1.391746   -0.594347
  C      1.594506    0.166809   -0.025890
  H      2.568483    0.095339   -0.522669
  C      0.773146   -1.109574   -0.317239
  H      1.198125   -1.936726    0.268578
  C     -0.677445   -0.913043    0.146788
  H     -1.281083   -1.760087   -0.211332
  C     -1.249516    0.371287   -0.475207
  H     -1.254384    0.255301   -1.578284
  O     -0.470558    1.491015   -0.124422
  O     -2.524571    0.555879    0.029195
  O     -0.700359   -0.835926    1.548691
  O      0.736602   -1.411454   -1.690198
  O      1.877795    0.293112    1.343089
  H      0.857378    1.327342   -1.690714
  H      1.349978    2.308509   -0.268283
  H     -2.818844    1.460278   -0.160623
  H     -1.584492   -0.536396    1.815664
  H      1.589940   -1.775136   -1.967731
  H      1.045924    0.196815    1.838625

 Total Charge           Charge          ....    0
 Multiplicity           Mult            ....    1
 Number of Electrons    NEL             ....   80
 Basis Dimension        Dim             ....  265

ORBITAL ENERGIES
----------------

  NO   OCC          E(Eh)            E(eV)
   0   2.0000     -18.970065      -516.2017
   1   2.0000     -18.968349      -516.1550
   2   2.0000     -18.966658      -516.1090
   3   2.0000     -18.962995      -516.0093
   4   2.0000     -18.952739      -515.7303
   5   2.0000     -10.133199      -275.7384
   6   2.0000     -10.089406      -274.5467
   7   2.0000     -10.087698      -274.5002
   8   2.0000     -10.082173      -274.3499
   9   2.0000     -10.075079      -274.1568
  10   2.0000      -1.053362       -28.6634
  11   2.0000      -1.008970       -27.4555
  12   2.0000      -0.998572       -27.1725
  13   2.0000      -0.992895       -27.0180
  14   2.0000      -0.979264       -26.6471
  15   2.0000      -0.741034       -20.1646
  16   2.0000      -0.714482       -19.4420
  17   2.0000      -0.625645       -17.0247
  18   2.0000      -0.612539       -16.6680
  19   2.0000      -0.547521       -14.8988
  20   2.0000      -0.515892       -14.0381
  21   2.0000      -0.507756       -13.8168
  22   2.0000      -0.491555       -13.3759
  23   2.0000      -0.474722       -12.9178
  24   2.0000      -0.448249       -12.1975
  25   2.0000      -0.435752       -11.8574
  26   2.0000      -0.418671       -11.3926
  27   2.0000      -0.399424       -10.8689
  28   2.0000      -0.390055       -10.6139
  29   2.0000      -0.378533       -10.3004
  30   2.0000      -0.350063        -9.5257
  31   2.0000      -0.338023        -9.1981
  32   2.0000      -0.332496        -9.0477
  33   2.0000      -0.319181        -8.6854
  34   2.0000      -0.293613        -7.9896
  35   2.0000      -0.281581        -7.6622
  36   2.0000      -0.267044        -7.2666
  37   2.0000      -0.253035        -6.8854
  38   2.0000      -0.245944        -6.6925
  39   2.0000      -0.216164        -5.8821
  40   0.0000       0.040184         1.0935
  41   0.0000       0.069514         1.8916
  42   0.0000       0.092517         2.5175
  43   0.0000       0.101386         2.7588
  44   0.0000       0.110327         3.0022

MULLIKEN ATOMIC CHARGES
-----------------------
   0 C :   -0.244816
   1 C :   -0.030088
   2 H :    0.178334
   3 C :   -0.064973
   4 H :    0.173077
   5 C :    0.046675
   6 H :    0.172779
   7 C :   -0.035822
   8 H :    0.164656
   9 O :   -0.259020
  10 O :   -0.457740
  11 O :   -0.479011
  12 O :   -0.471304
  13 O :   -0.478258
  14 H :    0.176602
  15 H :    0.177074
  16 H :    0.358316
  17 H :    0.352827
  18 H :    0.354040
  19 H :    0.366649
Sum of atomic charges:    0.0000000

LOEWDIN ATOMIC CHARGES
----------------------
   0 C :    0.044765
   1 C :    0.086679
   2 H :    0.202463
   3 C :    0.121911
   4 H :    0.192965
   5 C :    0.127162
   6 H :    0.194804
   7 C :    0.289653
   8 H :    0.196793
   9 O :   -0.708621
  10 O :   -0.520708
  11 O :   -0.587048
  12 O :   -0.604016
  13 O :   -0.610254
  14 H :    0.186229
  15 H :    0.197955
  16 H :    0.302524
  17 H :    0.299600
  18 H :    0.295711
  19 H :    0.291433

  Mayer bond orders larger than 0.100000
B(  0-C ,  1-C ) :   0.8786 B(  0-C ,  9-O ) :   0.9031 B(  0-C , 14-H ) :   0.9735
B(  0-C , 15-H ) :   0.9476 B(  1-C ,  2-H ) :   0.9654 B(  1-C ,  3-C ) :   0.8693
B(  1-C , 13-O ) :   0.9512 B(  3-C ,  4-H ) :   0.9772 B(  3-C ,  5-C ) :   0.9141
B(  3-C , 12-O ) :   0.9381 B(  5-C ,  6-H ) :   0.9270 B(  5-C ,  7-C ) :   0.8995
B(  5-C , 11-O ) :   0.9097 B(  7-C ,  8-H ) :   0.9842 B(  7-C ,  9-O ) :   0.9269
B(  7-C , 10-O ) :   1.0696 B( 10-O , 16-H ) :   0.8552 B( 11-O , 17-H ) :   0.8538
B( 12-O , 18-H ) :   0.8689 B( 13-O , 19-H ) :   0.8209

Dispersion correction           -0.006447549
FINAL SINGLE POINT ENERGY      -572.587774912322

DIPOLE MOMENT
-------------

Method             : SCF
Type of density    : Electron Density
Multiplicity       :   1
Irrep              :   0
Energy             :  -572.5984035722758563 Eh
Relativity type    :
Basis              : AO
                                X                 Y                 Z
Electronic contribution:     -1.706966122       0.241716654       1.208282362
Nuclear contribution   :      1.551689665      -0.340834651      -2.307240281
                        -----------------------------------------
Total Dipole Moment    :     -0.155276457      -0.099117997      -1.098957919
                        -----------------------------------------
Magnitude (a.u.)       :      1.114290654
Magnitude (Debye)      :      2.832301757

Rotational constants in cm-1:             0.058584             0.040608             0.038507
Rotational constants in MHz :          1756.302472          1217.390835          1154.419258

                             ****ORCA TERMINATED NORMALLY****
TOTAL RUN TIME: 0 days 0 hours 0 minutes 51 seconds 54 msec
