                         Program Version 6.0.0  -   RELEASE  -
|  1> ! r2scan-3c def2/J RI DEFGRID2 scfconv6 printgap
|  2> %output
|  3>     printlevel normal
|  4> end
|  5> * xyz 0 1
|  6> C -1.6972180567 0.4087977892 -0.0195486319
|  7> C -0.6204843016 -0.6537470142 0.0726684671
|  8> S 1.0415509095 0.1392229338 -0.0268277354
|  9> H -2.6782573012 -0.0558304905 0.0394073043
| 10> H -1.5969300405 1.1233423582 0.7947615778
| 11> H -1.6194259829 0.9480278891 -0.9612710357
| 12> H -0.6911763389 -1.3588831019 -0.7540052269
| 13> H -0.6690376056 -1.1823539416 1.0233856737
| 14> H 1.7388308468 -0.9844443822 0.0781883564
| 15> *
| 16>
| 17>                          ****END OF INPUT****

CARTESIAN COORDINATES (ANGSTROEM)
---------------------------------
  C     -1.697218    0.408798   -0.019549
  C     -0.620484   -0.653747    0.072668
  S      1.041551    0.139223   -0.026828
  H     -2.678257   -0.055830    0.039407
  H     -1.596930    1.123342    0.794762
  H     -1.619426    0.948028   -0.961271
  H     -0.691176   -1.358883   -0.754005
  H     -0.669038   -1.182354    1.023386
  H      1.738831   -0.984444    0.078188

 Total Charge           Charge          ....    0
 Multiplicity           Mult            ....    1
 Number of Electrons    NEL             ....   34
 Basis Dimension        Dim             ....   95

ORBITAL ENERGIES
----------------

  NO   OCC          E(Eh)            E(eV)
   0   2.0000     -88.549407     -2409.5519
   1   2.0000     -10.068100      -273.9669
   2   2.0000     -10.033069      -273.0137
   3   2.0000      -7.844526      -213.4604
   4   2.0000      -5.791632      -157.5983
   5   2.0000      -5.788088      -157.5019
   6   2.0000      -5.781545      -157.3238
   7   2.0000      -0.768184       -20.9034
   8   2.0000      -0.671940       -18.2844
   9   2.0000      -0.569968       -15.5096
  10   2.0000      -0.434055       -11.8112
  11   2.0000      -0.431183       -11.7331
  12   2.0000      -0.365518        -9.9463
  13   2.0000      -0.340417        -9.2632
  14   2.0000      -0.336273        -9.1504
  15   2.0000      -0.297949        -8.1076
  16   2.0000      -0.208447        -5.6721
  17   0.0000       0.007497         0.2040
  18   0.0000       0.059074         1.6075
  19   0.0000       0.110220         2.9992
  20   0.0000       0.122232         3.3261
  21   0.0000       0.156888         4.2691

MULLIKEN ATOMIC CHARGES
-----------------------
   0 C :   -0.451677
   1 C :   -0.178085
   2 S :   -0.268162
   3 H :    0.146561
   4 H :    0.155002
   5 H :    0.154981
   6 H :    0.152379
   7 H :    0.152319
   8 H :    0.136683
Sum of atomic charges:   -0.0000000

LOEWDIN ATOMIC CHARGES
----------------------
   0 C :   -0.427478
   1 C :   -0.358240
   2 S :   -0.119746
   3 H :    0.155564
   4 H :    0.156175
   5 H :    0.156163
   6 H :    0.155635
   7 H :    0.155646
   8 H :    0.126282

  Mayer bond orders larger than 0.100000
B(  0-C ,  1-C ) :   0.9311 B(  0-C ,  3-H ) :   0.9631 B(  0-C ,  4-H ) :   0.9717
B(  0-C ,  5-H ) :   0.9717 B(  1-C ,  2-S ) :   0.9827 B(  1-C ,  6-H ) :   0.9563
B(  1-C ,  7-H ) :   0.9563 B(  2-S ,  8-H ) :   0.9618

Dispersion correction           -0.001603052
FINAL SINGLE POINT ENERGY      -477.956777287680

DIPOLE MOMENT
-------------

Method             : SCF
Type of density    : Electron Density
Multiplicity       :   1
Irrep              :   0
Energy             :  -477.9628044882041991 Eh
Relativity type    :
Basis              : AO
                                X                 Y                 Z
Electronic contribution:      4.729245087       0.921945515      -0.151610810
Nuclear contribution   :     -5.204595813      -1.420735728       0.207599236
                        -----------------------------------------
Total Dipole Moment    :     -0.475350726      -0.498790212       0.055988426
                        -----------------------------------------
Magnitude (a.u.)       :      0.691292046
Magnitude (Debye)      :      1.757124739

Rotational constants in cm-1:             0.967419             0.179976             0.160955
Rotational constants in MHz :         29002.488899          5395.552361          4825.306530

                             ****ORCA TERMINATED NORMALLY****
TOTAL RUN TIME: 0 days 0 hours 0 minutes 20 seconds 962 msec
