                         Program Version 6.0.0  -   RELEASE  -
|  1> ! r2scan-3c def2/J RI DEFGRID2 scfconv6 printgap
|  2> %output
|  3>     printlevel normal
|  4> end
|  5> %cpcm
|  6>     smd true
|  7>     smdsolvent "water"
|  8> end
|  9> * xyz 0 1
| 10> C -1.6972180567 0.4087977892 -0.0195486319
| 11> C -0.6204843016 -0.6537470142 0.0726684671
| 12> S 1.0415509095 0.1392229338 -0.0268277354
| 13> H -2.6782573012 -0.0558304905 0.0394073043
| 14> H -1.5969300405 1.1233423582 0.7947615778
| 15> H -1.6194259829 0.9480278891 -0.9612710357
| 16> H -0.6911763389 -1.3588831019 -0.7540052269
| 17> H -0.6690376056 -1.1823539416 1.0233856737
| 18> H 1.7388308468 -0.9844443822 0.0781883564
| 19> *
| 20>
| 21>                          ****END OF INPUT****

CARTESIAN COORDINATES (ANGSTROEM)
---------------------------------
  C     -1.697218    0.408798   -0.019549
  C     -0.620484   -0.653747    0.072668
  S      1.041551    0.139223   -0.026828
  H     -2.678257   -0.055830    0.039407
  H     -1.596930    1.123342    0.794762
  H     -1.619426    0.948028   -0.961271
  H     -0.691176   -1.358883   -0.754005
  H     -0.669038   -1.182354    1.023386
  H      1.738831   -0.984444    0.078188

 Total Charge           Charge          ....    0
 Multiplicity           Mult            ....    1
 Number of Electrons    NEL             ....   34
 Basis Dimension        Dim             ....   95

ORBITAL ENERGIES
----------------

  NO   OCC          E(Eh)            E(eV)
   0   2.0000     -88.548026     -2409.5143
   1   2.0000     -10.057072      -273.6669
   2   2.0000     -10.019980      -272.6575
   3   2.0000      -7.843289      -213.4267
   4   2.0000      -5.790133      -157.5575
   5   2.0000      -5.786703      -157.4642
   6   2.0000      -5.780754      -157.3023
   7   2.0000      -0.759459       -20.6659
   8   2.0000      -0.664875       -18.0922
   9   2.0000      -0.559585       -15.2271
  10   2.0000      -0.422129       -11.4867
  11   2.0000      -0.422024       -11.4838
  12   2.0000      -0.355066        -9.6618
  13   2.0000      -0.331137        -9.0107
  14   2.0000      -0.323843        -8.8122
  15   2.0000      -0.293864        -7.9964
  16   2.0000      -0.209542        -5.7019
  17   0.0000       0.011328         0.3082
  18   0.0000       0.065128         1.7722
  19   0.0000       0.121168         3.2971
  20   0.0000       0.132615         3.6086
  21   0.0000       0.170372         4.6360

MULLIKEN ATOMIC CHARGES
-----------------------
   0 C :   -0.479770
   1 C :   -0.183502
   2 S :   -0.345819
   3 H :    0.166185
   4 H :    0.162215
   5 H :    0.162147
   6 H :    0.172230
   7 H :    0.172060
   8 H :    0.174253
Sum of atomic charges:   -0.0000000

LOEWDIN ATOMIC CHARGES
----------------------
   0 C :   -0.433173
   1 C :   -0.351865
   2 S :   -0.157907
   3 H :    0.162923
   4 H :    0.157283
   5 H :    0.157274
   6 H :    0.163308
   7 H :    0.163263
   8 H :    0.138894

  Mayer bond orders larger than 0.100000
B(  0-C ,  1-C ) :   0.9193 B(  0-C ,  3-H ) :   0.9580 B(  0-C ,  4-H ) :   0.9697
B(  0-C ,  5-H ) :   0.9696 B(  1-C ,  2-S ) :   0.9699 B(  1-C ,  6-H ) :   0.9537
B(  1-C ,  7-H ) :   0.9537 B(  2-S ,  8-H ) :   0.9551

Dispersion correction           -0.001603052
FINAL SINGLE POINT ENERGY      -477.958812252099

DIPOLE MOMENT
-------------

Method             : SCF
Type of density    : Electron Density
Multiplicity       :   1
Irrep              :   0
Energy             :  -477.9648394526230391 Eh
Relativity type    :
Basis              : AO
                                X                 Y                 Z
Electronic contribution:      4.578548922       0.731215599      -0.130965153
Nuclear contribution   :     -5.204595813      -1.420735728       0.207599236
                        -----------------------------------------
Total Dipole Moment    :     -0.626046890      -0.689520129       0.076634083
                        -----------------------------------------
Magnitude (a.u.)       :      0.934476056
Magnitude (Debye)      :      2.375249370

Rotational constants in cm-1:             0.967419             0.179976             0.160955
Rotational constants in MHz :         29002.488899          5395.552361          4825.306530

                             ****ORCA TERMINATED NORMALLY****
TOTAL RUN TIME: 0 days 0 hours 0 minutes 21 seconds 368 msec
