                         Program Version 6.0.1  -  RELEASE   -
|  1> ! r2scan-3c def2/J RI DEFGRID2 scfconv6 printgap
|  2> %output
|  3>     printlevel normal
|  4> end
|  5> * xyz 0 1
|  6> C 5.1924711141 -0.4268323865 0.1203647556
|  7> C 4.6196685947 -1.6382249783 -0.5970003571
|  8> O 3.1940004726 -1.7235996695 -0.4031019569
|  9> C 2.4082038092 -1.0982996021 -1.2530384421
| 10> O 2.7912384416 -0.4624549621 -2.2111672239
| 11> C 0.9443542725 -1.3104984582 -0.9121235825
| 12> C 0.1432255682 -0.0901973779 -1.3440326858
| 13> H 0.4488239569 0.1884587644 -2.3605180671
| 14> C 0.3701985519 1.1240045528 -0.4632519737
| 15> O -0.4941298386 1.9590984351 -0.2766905591
| 16> O 1.5883224104 1.1690954894 0.0012065314
| 17> C 1.9721815938 2.246934952 0.8826077903
| 18> C 2.311427266 1.6814061241 2.2503874078
| 19> S -1.6451894882 -0.3956133111 -1.4591855792
| 20> P -2.2568316598 0.0043895449 0.5377807825
| 21> S -0.9586984596 -0.2841518874 1.9710010941
| 22> O -2.9904136747 1.3973700179 0.6392476291
| 23> C -3.9191884911 1.8681778509 -0.3556622367
| 24> O -3.5318309267 -0.9646160085 0.6367445518
| 25> C -3.3877267935 -2.3884577694 0.6695278934
| 26> H 4.974187053 -0.483924215 1.1831844671
| 27> H 6.2676491765 -0.3989892059 -0.0225976691
| 28> H 4.7565961518 0.4834435812 -0.2848387028
| 29> H 5.0093444845 -2.5679664637 -0.1822725524
| 30> H 4.8215896403 -1.5830012115 -1.6705286737
| 31> H 0.8450441668 -1.5059499859 0.1563076273
| 32> H 0.5947226388 -2.1834578531 -1.467489623
| 33> H 2.841831455 2.7135433264 0.4153558698
| 34> H 1.1465014534 2.9612857151 0.9379394158
| 35> H 2.6233060517 2.4894445277 2.9033209307
| 36> H 1.440421385 1.1902274342 2.6794340886
| 37> H 3.1130609222 0.954250841 2.1655547094
| 38> H -4.6704465697 1.1072998102 -0.5599085835
| 39> H -3.375766982 2.1232272698 -1.2652208113
| 40> H -4.3718192535 2.7554609748 0.0790685355
| 41> H -2.627179168 -2.6709456218 1.3991377584
| 42> H -3.1138425814 -2.7552079492 -0.319275918
| 43> H -4.3597366941 -2.7735043074 0.9667865207
| 44> *
| 45>
| 46>                          ****END OF INPUT****

CARTESIAN COORDINATES (ANGSTROEM)
---------------------------------
  C      5.192471   -0.426832    0.120365
  C      4.619669   -1.638225   -0.597000
  O      3.194000   -1.723600   -0.403102
  C      2.408204   -1.098300   -1.253038
  O      2.791238   -0.462455   -2.211167
  C      0.944354   -1.310498   -0.912124
  C      0.143226   -0.090197   -1.344033
  H      0.448824    0.188459   -2.360518
  C      0.370199    1.124005   -0.463252
  O     -0.494130    1.959098   -0.276691
  O      1.588322    1.169095    0.001207
  C      1.972182    2.246935    0.882608
  C      2.311427    1.681406    2.250387
  S     -1.645189   -0.395613   -1.459186
  P     -2.256832    0.004390    0.537781
  S     -0.958698   -0.284152    1.971001
  O     -2.990414    1.397370    0.639248
  C     -3.919188    1.868178   -0.355662
  O     -3.531831   -0.964616    0.636745
  C     -3.387727   -2.388458    0.669528
  H      4.974187   -0.483924    1.183184
  H      6.267649   -0.398989   -0.022598
  H      4.756596    0.483444   -0.284839
  H      5.009344   -2.567966   -0.182273
  H      4.821590   -1.583001   -1.670529
  H      0.845044   -1.505950    0.156308
  H      0.594723   -2.183458   -1.467490
  H      2.841831    2.713543    0.415356
  H      1.146501    2.961286    0.937939
  H      2.623306    2.489445    2.903321
  H      1.440421    1.190227    2.679434
  H      3.113061    0.954251    2.165555
  H     -4.670447    1.107300   -0.559909
  H     -3.375767    2.123227   -1.265221
  H     -4.371819    2.755461    0.079069
  H     -2.627179   -2.670946    1.399138
  H     -3.113843   -2.755208   -0.319276
  H     -4.359737   -2.773504    0.966787

 Total Charge           Charge          ....    0
 Multiplicity           Mult            ....    1
 Number of Electrons    NEL             ....  174
 Basis Dimension        Dim             ....  510

ORBITAL ENERGIES
----------------

  NO   OCC          E(Eh)            E(eV)
   0   2.0000     -88.574961     -2410.2472
   1   2.0000     -88.515112     -2408.6187
   2   2.0000     -76.911981     -2092.8814
   3   2.0000     -19.009194      -517.2665
   4   2.0000     -19.003668      -517.1161
   5   2.0000     -18.986526      -516.6496
   6   2.0000     -18.985513      -516.6221
   7   2.0000     -18.933838      -515.2159
   8   2.0000     -18.933732      -515.2131
   9   2.0000     -10.166859      -276.6543
  10   2.0000     -10.160334      -276.4767
  11   2.0000     -10.096513      -274.7401
  12   2.0000     -10.096182      -274.7311
  13   2.0000     -10.094017      -274.6722
  14   2.0000     -10.089941      -274.5613
  15   2.0000     -10.088538      -274.5231
  16   2.0000     -10.053632      -273.5732
  17   2.0000     -10.034314      -273.0476
  18   2.0000     -10.026463      -272.8339
  19   2.0000      -7.869231      -214.1327
  20   2.0000      -7.810336      -212.5300
  21   2.0000      -6.589941      -179.3214
  22   2.0000      -5.816278      -158.2690
  23   2.0000      -5.813011      -158.1801
  24   2.0000      -5.806268      -157.9966
  25   2.0000      -5.758163      -156.6876
  26   2.0000      -5.750578      -156.4812
  27   2.0000      -5.750109      -156.4684
  28   2.0000      -4.735572      -128.8615
  29   2.0000      -4.735105      -128.8488
  30   2.0000      -4.733480      -128.8045
  31   2.0000      -1.087011       -29.5791
  32   2.0000      -1.079616       -29.3778
  33   2.0000      -1.044656       -28.4265
  34   2.0000      -1.002602       -27.2822
  35   2.0000      -0.987449       -26.8698
  36   2.0000      -0.983928       -26.7740
  37   2.0000      -0.809557       -22.0292
  38   2.0000      -0.754843       -20.5403
  39   2.0000      -0.748311       -20.3626
  40   2.0000      -0.728544       -19.8247
  41   2.0000      -0.697645       -18.9839
  42   2.0000      -0.671029       -18.2596
  43   2.0000      -0.658557       -17.9203
  44   2.0000      -0.651284       -17.7224
  45   2.0000      -0.629338       -17.1251
  46   2.0000      -0.596637       -16.2353
  47   2.0000      -0.541139       -14.7251
  48   2.0000      -0.530806       -14.4440
  49   2.0000      -0.526392       -14.3239
  50   2.0000      -0.498705       -13.5705
  51   2.0000      -0.488680       -13.2976
  52   2.0000      -0.487335       -13.2611
  53   2.0000      -0.466473       -12.6934
  54   2.0000      -0.457815       -12.4578
  55   2.0000      -0.449988       -12.2448
  56   2.0000      -0.447491       -12.1769
  57   2.0000      -0.443146       -12.0586
  58   2.0000      -0.433520       -11.7967
  59   2.0000      -0.428338       -11.6557
  60   2.0000      -0.418090       -11.3768
  61   2.0000      -0.413594       -11.2545
  62   2.0000      -0.407398       -11.0859
  63   2.0000      -0.404785       -11.0148
  64   2.0000      -0.396351       -10.7853
  65   2.0000      -0.382178       -10.3996
  66   2.0000      -0.377033       -10.2596
  67   2.0000      -0.367988       -10.0135
  68   2.0000      -0.363906        -9.9024
  69   2.0000      -0.354741        -9.6530
  70   2.0000      -0.349036        -9.4977
  71   2.0000      -0.345168        -9.3925
  72   2.0000      -0.334284        -9.0963
  73   2.0000      -0.328513        -8.9393
  74   2.0000      -0.317168        -8.6306
  75   2.0000      -0.313350        -8.5267
  76   2.0000      -0.311707        -8.4820
  77   2.0000      -0.306061        -8.3283
  78   2.0000      -0.286942        -7.8081
  79   2.0000      -0.279348        -7.6014
  80   2.0000      -0.273672        -7.4470
  81   2.0000      -0.271721        -7.3939
  82   2.0000      -0.252992        -6.8843
  83   2.0000      -0.247739        -6.7413
  84   2.0000      -0.232351        -6.3226
  85   2.0000      -0.213189        -5.8012
  86   2.0000      -0.212061        -5.7705
  87   0.0000      -0.044420        -1.2087
  88   0.0000      -0.027463        -0.7473
  89   0.0000      -0.011759        -0.3200
  90   0.0000       0.007154         0.1947
  91   0.0000       0.019895         0.5414

MULLIKEN ATOMIC CHARGES
-----------------------
   0 C :   -0.490756
   1 C :   -0.123393
   2 O :   -0.159408
   3 C :    0.329973
   4 O :   -0.420582
   5 C :   -0.425555
   6 C :    0.056376
   7 H :    0.227575
   8 C :    0.212532
   9 O :   -0.394924
  10 O :   -0.071560
  11 C :   -0.164580
  12 C :   -0.455431
  13 S :   -0.180074
  14 P :    0.766594
  15 S :   -0.457966
  16 O :   -0.292274
  17 C :   -0.299095
  18 O :   -0.352549
  19 C :   -0.299487
  20 H :    0.153885
  21 H :    0.149776
  22 H :    0.173870
  23 H :    0.150683
  24 H :    0.169472
  25 H :    0.218598
  26 H :    0.189062
  27 H :    0.147694
  28 H :    0.191306
  29 H :    0.147870
  30 H :    0.178006
  31 H :    0.149662
  32 H :    0.161943
  33 H :    0.176495
  34 H :    0.154893
  35 H :    0.173558
  36 H :    0.155929
  37 H :    0.151884
Sum of atomic charges:    0.0000000

LOEWDIN ATOMIC CHARGES
----------------------
   0 C :   -0.390805
   1 C :    0.030954
   2 O :   -0.575035
   3 C :    0.356983
   4 O :   -0.441701
   5 C :   -0.212629
   6 C :   -0.198629
   7 H :    0.220323
   8 C :    0.348620
   9 O :   -0.460562
  10 O :   -0.569631
  11 C :    0.038280
  12 C :   -0.389047
  13 S :    0.202580
  14 P :    0.406313
  15 S :   -0.079557
  16 O :   -0.638735
  17 C :   -0.050189
  18 O :   -0.686914
  19 C :   -0.063594
  20 H :    0.156768
  21 H :    0.159996
  22 H :    0.165394
  23 H :    0.178919
  24 H :    0.189338
  25 H :    0.202781
  26 H :    0.188644
  27 H :    0.177799
  28 H :    0.199000
  29 H :    0.159186
  30 H :    0.169921
  31 H :    0.156448
  32 H :    0.170554
  33 H :    0.176949
  34 H :    0.181019
  35 H :    0.175796
  36 H :    0.167588
  37 H :    0.176874

  Mayer bond orders larger than 0.100000
B(  0-C ,  1-C ) :   0.9342 B(  0-C , 20-H ) :   0.9713 B(  0-C , 21-H ) :   0.9650
B(  0-C , 22-H ) :   0.9703 B(  1-C ,  2-O ) :   0.8059 B(  1-C , 23-H ) :   0.9615
B(  1-C , 24-H ) :   0.9697 B(  2-O ,  3-C ) :   1.1009 B(  3-C ,  4-O ) :   1.8537
B(  3-C ,  5-C ) :   0.8966 B(  4-O ,  6-C ) :   0.1094 B(  5-C ,  6-C ) :   0.8775
B(  5-C , 25-H ) :   0.9620 B(  5-C , 26-H ) :   0.9420 B(  6-C ,  7-H ) :   0.8914
B(  6-C ,  8-C ) :   0.9703 B(  6-C , 13-S ) :   0.8288 B(  8-C ,  9-O ) :   1.7964
B(  8-C , 10-O ) :   1.1621 B( 10-O , 11-C ) :   0.7424 B( 11-C , 12-C ) :   0.9372
B( 11-C , 27-H ) :   0.9585 B( 11-C , 28-H ) :   0.9681 B( 12-C , 29-H ) :   0.9679
B( 12-C , 30-H ) :   0.9606 B( 12-C , 31-H ) :   0.9709 B( 13-S , 14-P ) :   1.0088
B( 14-P , 15-S ) :   1.7538 B( 14-P , 16-O ) :   1.2067 B( 14-P , 18-O ) :   1.0133
B( 16-O , 17-C ) :   0.7966 B( 17-C , 32-H ) :   0.9643 B( 17-C , 33-H ) :   0.9564
B( 17-C , 34-H ) :   0.9648 B( 18-O , 19-C ) :   0.8359 B( 19-C , 35-H ) :   0.9591
B( 19-C , 36-H ) :   0.9566 B( 19-C , 37-H ) :   0.9685

Dispersion correction           -0.017899919
FINAL SINGLE POINT ENERGY     -1981.451544790059

DIPOLE MOMENT
-------------

Method             : SCF
Type of density    : Electron Density
Multiplicity       :   1
Irrep              :   0
Energy             : -1981.4712627199241979 Eh
Relativity type    :
Basis              : AO
                                X                 Y                 Z
Electronic contribution:    -17.014254380      -0.534027927      -4.165360361
Nuclear contribution   :     17.452629898       0.077112361       3.940313588
                        -----------------------------------------
Total Dipole Moment    :      0.438375519      -0.456915567      -0.225046773
                        -----------------------------------------
Magnitude (a.u.)       :      0.672005194
Magnitude (Debye)      :      1.708101457

Rotational constants in cm-1:             0.016954             0.006209             0.005735
Rotational constants in MHz :           508.275196           186.141965           171.924815

                             ****ORCA TERMINATED NORMALLY****
TOTAL RUN TIME: 0 days 0 hours 1 minutes 18 seconds 212 msec
