                         Program Version 6.0.1  -  RELEASE   -
|  1> ! r2scan-3c def2/J RI DEFGRID2 scfconv6 printgap
|  2> %output
|  3>     printlevel normal
|  4> end
|  5> %cpcm
|  6>     smd true
|  7>     smdsolvent "water"
|  8> end
|  9> * xyz 0 1
| 10> C 5.1924711141 -0.4268323865 0.1203647556
| 11> C 4.6196685947 -1.6382249783 -0.5970003571
| 12> O 3.1940004726 -1.7235996695 -0.4031019569
| 13> C 2.4082038092 -1.0982996021 -1.2530384421
| 14> O 2.7912384416 -0.4624549621 -2.2111672239
| 15> C 0.9443542725 -1.3104984582 -0.9121235825
| 16> C 0.1432255682 -0.0901973779 -1.3440326858
| 17> H 0.4488239569 0.1884587644 -2.3605180671
| 18> C 0.3701985519 1.1240045528 -0.4632519737
| 19> O -0.4941298386 1.9590984351 -0.2766905591
| 20> O 1.5883224104 1.1690954894 0.0012065314
| 21> C 1.9721815938 2.246934952 0.8826077903
| 22> C 2.311427266 1.6814061241 2.2503874078
| 23> S -1.6451894882 -0.3956133111 -1.4591855792
| 24> P -2.2568316598 0.0043895449 0.5377807825
| 25> S -0.9586984596 -0.2841518874 1.9710010941
| 26> O -2.9904136747 1.3973700179 0.6392476291
| 27> C -3.9191884911 1.8681778509 -0.3556622367
| 28> O -3.5318309267 -0.9646160085 0.6367445518
| 29> C -3.3877267935 -2.3884577694 0.6695278934
| 30> H 4.974187053 -0.483924215 1.1831844671
| 31> H 6.2676491765 -0.3989892059 -0.0225976691
| 32> H 4.7565961518 0.4834435812 -0.2848387028
| 33> H 5.0093444845 -2.5679664637 -0.1822725524
| 34> H 4.8215896403 -1.5830012115 -1.6705286737
| 35> H 0.8450441668 -1.5059499859 0.1563076273
| 36> H 0.5947226388 -2.1834578531 -1.467489623
| 37> H 2.841831455 2.7135433264 0.4153558698
| 38> H 1.1465014534 2.9612857151 0.9379394158
| 39> H 2.6233060517 2.4894445277 2.9033209307
| 40> H 1.440421385 1.1902274342 2.6794340886
| 41> H 3.1130609222 0.954250841 2.1655547094
| 42> H -4.6704465697 1.1072998102 -0.5599085835
| 43> H -3.375766982 2.1232272698 -1.2652208113
| 44> H -4.3718192535 2.7554609748 0.0790685355
| 45> H -2.627179168 -2.6709456218 1.3991377584
| 46> H -3.1138425814 -2.7552079492 -0.319275918
| 47> H -4.3597366941 -2.7735043074 0.9667865207
| 48> *
| 49>
| 50>                          ****END OF INPUT****

CARTESIAN COORDINATES (ANGSTROEM)
---------------------------------
  C      5.192471   -0.426832    0.120365
  C      4.619669   -1.638225   -0.597000
  O      3.194000   -1.723600   -0.403102
  C      2.408204   -1.098300   -1.253038
  O      2.791238   -0.462455   -2.211167
  C      0.944354   -1.310498   -0.912124
  C      0.143226   -0.090197   -1.344033
  H      0.448824    0.188459   -2.360518
  C      0.370199    1.124005   -0.463252
  O     -0.494130    1.959098   -0.276691
  O      1.588322    1.169095    0.001207
  C      1.972182    2.246935    0.882608
  C      2.311427    1.681406    2.250387
  S     -1.645189   -0.395613   -1.459186
  P     -2.256832    0.004390    0.537781
  S     -0.958698   -0.284152    1.971001
  O     -2.990414    1.397370    0.639248
  C     -3.919188    1.868178   -0.355662
  O     -3.531831   -0.964616    0.636745
  C     -3.387727   -2.388458    0.669528
  H      4.974187   -0.483924    1.183184
  H      6.267649   -0.398989   -0.022598
  H      4.756596    0.483444   -0.284839
  H      5.009344   -2.567966   -0.182273
  H      4.821590   -1.583001   -1.670529
  H      0.845044   -1.505950    0.156308
  H      0.594723   -2.183458   -1.467490
  H      2.841831    2.713543    0.415356
  H      1.146501    2.961286    0.937939
  H      2.623306    2.489445    2.903321
  H      1.440421    1.190227    2.679434
  H      3.113061    0.954251    2.165555
  H     -4.670447    1.107300   -0.559909
  H     -3.375767    2.123227   -1.265221
  H     -4.371819    2.755461    0.079069
  H     -2.627179   -2.670946    1.399138
  H     -3.113843   -2.755208   -0.319276
  H     -4.359737   -2.773504    0.966787

 Total Charge           Charge          ....    0
 Multiplicity           Mult            ....    1
 Number of Electrons    NEL             ....  174
 Basis Dimension        Dim             ....  510

ORBITAL ENERGIES
----------------

  NO   OCC          E(Eh)            E(eV)
   0   2.0000     -88.580777     -2410.4055
   1   2.0000     -88.527978     -2408.9688
   2   2.0000     -76.921546     -2093.1417
   3   2.0000     -19.015997      -517.4516
   4   2.0000     -19.007961      -517.2329
   5   2.0000     -18.996269      -516.9148
   6   2.0000     -18.992146      -516.8026
   7   2.0000     -18.948470      -515.6141
   8   2.0000     -18.946733      -515.5668
   9   2.0000     -10.178352      -276.9670
  10   2.0000     -10.170168      -276.7443
  11   2.0000     -10.098688      -274.7993
  12   2.0000     -10.088287      -274.5162
  13   2.0000     -10.085642      -274.4443
  14   2.0000     -10.084586      -274.4155
  15   2.0000     -10.080595      -274.3069
  16   2.0000     -10.053376      -273.5663
  17   2.0000     -10.019461      -272.6434
  18   2.0000     -10.019040      -272.6319
  19   2.0000      -7.874962      -214.2886
  20   2.0000      -7.823433      -212.8864
  21   2.0000      -6.599665      -179.5860
  22   2.0000      -5.822048      -158.4260
  23   2.0000      -5.818773      -158.3369
  24   2.0000      -5.811938      -158.1509
  25   2.0000      -5.771166      -157.0414
  26   2.0000      -5.763718      -156.8387
  27   2.0000      -5.763209      -156.8249
  28   2.0000      -4.745273      -129.1254
  29   2.0000      -4.744762      -129.1115
  30   2.0000      -4.743287      -129.0714
  31   2.0000      -1.094970       -29.7957
  32   2.0000      -1.085475       -29.5373
  33   2.0000      -1.052942       -28.6520
  34   2.0000      -1.009877       -27.4801
  35   2.0000      -1.000466       -27.2241
  36   2.0000      -0.995068       -27.0772
  37   2.0000      -0.812952       -22.1215
  38   2.0000      -0.750605       -20.4250
  39   2.0000      -0.746549       -20.3146
  40   2.0000      -0.729977       -19.8637
  41   2.0000      -0.697957       -18.9924
  42   2.0000      -0.668852       -18.2004
  43   2.0000      -0.661873       -18.0105
  44   2.0000      -0.653358       -17.7788
  45   2.0000      -0.624389       -16.9905
  46   2.0000      -0.595652       -16.2085
  47   2.0000      -0.541596       -14.7376
  48   2.0000      -0.530219       -14.4280
  49   2.0000      -0.524984       -14.2855
  50   2.0000      -0.502330       -13.6691
  51   2.0000      -0.491722       -13.3804
  52   2.0000      -0.490128       -13.3371
  53   2.0000      -0.473093       -12.8735
  54   2.0000      -0.462855       -12.5949
  55   2.0000      -0.454950       -12.3798
  56   2.0000      -0.452071       -12.3015
  57   2.0000      -0.447732       -12.1834
  58   2.0000      -0.439057       -11.9473
  59   2.0000      -0.427306       -11.6276
  60   2.0000      -0.415057       -11.2943
  61   2.0000      -0.411762       -11.2046
  62   2.0000      -0.407552       -11.0900
  63   2.0000      -0.407218       -11.0810
  64   2.0000      -0.392904       -10.6915
  65   2.0000      -0.379052       -10.3145
  66   2.0000      -0.373555       -10.1649
  67   2.0000      -0.367484        -9.9998
  68   2.0000      -0.361433        -9.8351
  69   2.0000      -0.354611        -9.6495
  70   2.0000      -0.348923        -9.4947
  71   2.0000      -0.342438        -9.3182
  72   2.0000      -0.334778        -9.1098
  73   2.0000      -0.330294        -8.9878
  74   2.0000      -0.319436        -8.6923
  75   2.0000      -0.315036        -8.5726
  76   2.0000      -0.310480        -8.4486
  77   2.0000      -0.305700        -8.3185
  78   2.0000      -0.292790        -7.9672
  79   2.0000      -0.285653        -7.7730
  80   2.0000      -0.279665        -7.6101
  81   2.0000      -0.277454        -7.5499
  82   2.0000      -0.263995        -7.1837
  83   2.0000      -0.261614        -7.1189
  84   2.0000      -0.242791        -6.6067
  85   2.0000      -0.226774        -6.1708
  86   2.0000      -0.224032        -6.0962
  87   0.0000      -0.051764        -1.4086
  88   0.0000      -0.036998        -1.0068
  89   0.0000      -0.020054        -0.5457
  90   0.0000       0.001724         0.0469
  91   0.0000       0.012015         0.3269

MULLIKEN ATOMIC CHARGES
-----------------------
   0 C :   -0.515796
   1 C :   -0.127078
   2 O :   -0.178565
   3 C :    0.359643
   4 O :   -0.489731
   5 C :   -0.431504
   6 C :    0.044414
   7 H :    0.257703
   8 C :    0.237287
   9 O :   -0.447815
  10 O :   -0.088814
  11 C :   -0.156226
  12 C :   -0.494465
  13 S :   -0.177714
  14 P :    0.764707
  15 S :   -0.492131
  16 O :   -0.341611
  17 C :   -0.305432
  18 O :   -0.382674
  19 C :   -0.305459
  20 H :    0.170371
  21 H :    0.172728
  22 H :    0.173500
  23 H :    0.176295
  24 H :    0.174251
  25 H :    0.219034
  26 H :    0.226333
  27 H :    0.178195
  28 H :    0.190300
  29 H :    0.173651
  30 H :    0.167182
  31 H :    0.172084
  32 H :    0.184549
  33 H :    0.181518
  34 H :    0.181964
  35 H :    0.176020
  36 H :    0.174181
  37 H :    0.179106
Sum of atomic charges:    0.0000000

LOEWDIN ATOMIC CHARGES
----------------------
   0 C :   -0.392827
   1 C :    0.036441
   2 O :   -0.579065
   3 C :    0.365584
   4 O :   -0.488308
   5 C :   -0.207337
   6 C :   -0.195413
   7 H :    0.230930
   8 C :    0.353482
   9 O :   -0.504042
  10 O :   -0.571491
  11 C :    0.044670
  12 C :   -0.392607
  13 S :    0.215651
  14 P :    0.401475
  15 S :   -0.107390
  16 O :   -0.670968
  17 C :   -0.044402
  18 O :   -0.699896
  19 C :   -0.057625
  20 H :    0.162675
  21 H :    0.168617
  22 H :    0.164056
  23 H :    0.190224
  24 H :    0.191072
  25 H :    0.202697
  26 H :    0.204301
  27 H :    0.191144
  28 H :    0.198193
  29 H :    0.169061
  30 H :    0.163435
  31 H :    0.163262
  32 H :    0.180868
  33 H :    0.180208
  34 H :    0.192034
  35 H :    0.177150
  36 H :    0.175696
  37 H :    0.188446

  Mayer bond orders larger than 0.100000
B(  0-C ,  1-C ) :   0.9298 B(  0-C , 20-H ) :   0.9668 B(  0-C , 21-H ) :   0.9596
B(  0-C , 22-H ) :   0.9665 B(  1-C ,  2-O ) :   0.7893 B(  1-C , 23-H ) :   0.9517
B(  1-C , 24-H ) :   0.9652 B(  2-O ,  3-C ) :   1.1155 B(  3-C ,  4-O ) :   1.8002
B(  3-C ,  5-C ) :   0.9123 B(  5-C ,  6-C ) :   0.8605 B(  5-C , 25-H ) :   0.9638
B(  5-C , 26-H ) :   0.9225 B(  6-C ,  7-H ) :   0.8867 B(  6-C ,  8-C ) :   0.9702
B(  6-C , 13-S ) :   0.8137 B(  8-C ,  9-O ) :   1.7569 B(  8-C , 10-O ) :   1.1757
B( 10-O , 11-C ) :   0.7307 B( 11-C , 12-C ) :   0.9262 B( 11-C , 27-H ) :   0.9473
B( 11-C , 28-H ) :   0.9627 B( 12-C , 29-H ) :   0.9617 B( 12-C , 30-H ) :   0.9627
B( 12-C , 31-H ) :   0.9685 B( 13-S , 14-P ) :   1.0283 B( 14-P , 15-S ) :   1.7568
B( 14-P , 16-O ) :   1.1924 B( 14-P , 18-O ) :   1.0156 B( 16-O , 17-C ) :   0.7910
B( 17-C , 32-H ) :   0.9542 B( 17-C , 33-H ) :   0.9485 B( 17-C , 34-H ) :   0.9541
B( 18-O , 19-C ) :   0.8280 B( 19-C , 35-H ) :   0.9548 B( 19-C , 36-H ) :   0.9496
B( 19-C , 37-H ) :   0.9583

Dispersion correction           -0.017899919
FINAL SINGLE POINT ENERGY     -1981.465377288488

DIPOLE MOMENT
-------------

Method             : SCF
Type of density    : Electron Density
Multiplicity       :   1
Irrep              :   0
Energy             : -1981.4850952183533082 Eh
Relativity type    :
Basis              : AO
                                X                 Y                 Z
Electronic contribution:    -16.775882924      -1.002009806      -4.414826610
Nuclear contribution   :     17.452629898       0.077112361       3.940313588
                        -----------------------------------------
Total Dipole Moment    :      0.676746975      -0.924897445      -0.474513022
                        -----------------------------------------
Magnitude (a.u.)       :      1.240396856
Magnitude (Debye)      :      3.152838247

Rotational constants in cm-1:             0.016954             0.006209             0.005735
Rotational constants in MHz :           508.275196           186.141965           171.924815

                             ****ORCA TERMINATED NORMALLY****
TOTAL RUN TIME: 0 days 0 hours 1 minutes 46 seconds 391 msec
