                         Program Version 6.0.0  -   RELEASE  -
|  1> ! pbe def2-sv(p) def2/J RI DEFGRID1 loosescf d4 GCP(DFT/SV(P)) printgap
|  2> %output
|  3>     printlevel normal
|  4> end
|  5> * xyz 0 1
|  6> C 1.0108389709 -0.1073267445 3.4980112192
|  7> C 1.8191189565 0.8727919055 2.6710269407
|  8> O 1.4794029961 0.7651271908 1.2665000189
|  9> P 2.3262446674 -0.1319355832 0.2715151346
| 10> S 2.8491806322 -1.9212558043 0.8903131609
| 11> O 3.5559466928 0.830777922 -0.0323675131
| 12> C 4.7706732509 0.3567792933 -0.639197316
| 13> C 4.5645038683 -0.036452585 -2.0875815954
| 14> S 1.0897373093 -0.0227651596 -1.4340593834
| 15> C 0.0622352521 -1.4586707383 -1.0116736961
| 16> S -1.0286019975 -1.1559511438 0.3923111277
| 17> P -2.2800893373 0.2678042502 -0.5976554054
| 18> S -2.5770908486 -0.0455073794 -2.5044803507
| 19> O -1.6246688538 1.6872397553 -0.3970485639
| 20> C -1.3627944339 2.2804640618 0.8961821789
| 21> C -2.4348130245 3.2931219149 1.2417411881
| 22> O -3.5379359062 0.3488200096 0.3699206238
| 23> C -4.2916742544 -0.7814602505 0.8493962081
| 24> C -4.8012948665 -1.6653631146 -0.2690507928
| 25> H 1.2590284264 -1.129591243 3.221265616
| 26> H 1.2378353811 0.0408019986 4.5488327546
| 27> H -0.0522047815 0.0444527497 3.3337811057
| 28> H 2.8912592857 0.6990691824 2.7951254334
| 29> H 1.5836831343 1.9061559872 2.9307585539
| 30> H 5.4583722382 1.197865194 -0.5424885733
| 31> H 5.1375886052 -0.4956621676 -0.0582582689
| 32> H 5.5227361841 -0.2795936264 -2.535266401
| 33> H 3.9149906051 -0.9091451274 -2.1475186147
| 34> H 4.1034818414 0.7790408389 -2.6394859356
| 35> H 0.7016850349 -2.2986739084 -0.740054387
| 36> H -0.5378651266 -1.6769928596 -1.89548404
| 37> H -1.3075245836 1.4871659449 1.6465547296
| 38> H -0.3828132893 2.7505167039 0.7909796804
| 39> H -3.4013785994 2.802717144 1.3222080216
| 40> H -2.1891343429 3.7645186726 2.1881785967
| 41> H -2.4919071127 4.0513938827 0.4657187454
| 42> H -3.6549386892 -1.3510415969 1.5319827989
| 43> H -5.1146329952 -0.3246292249 1.4019416713
| 44> H -5.4360614492 -2.4416666567 0.1458280798
| 45> H -5.3698904409 -1.0793779176 -0.9872231415
| 46> H -3.9667881991 -2.1304856176 -0.7916621724
| 47> *
| 48>
| 49>                          ****END OF INPUT****

CARTESIAN COORDINATES (ANGSTROEM)
---------------------------------
  C      1.010839   -0.107327    3.498011
  C      1.819119    0.872792    2.671027
  O      1.479403    0.765127    1.266500
  P      2.326245   -0.131936    0.271515
  S      2.849181   -1.921256    0.890313
  O      3.555947    0.830778   -0.032368
  C      4.770673    0.356779   -0.639197
  C      4.564504   -0.036453   -2.087582
  S      1.089737   -0.022765   -1.434059
  C      0.062235   -1.458671   -1.011674
  S     -1.028602   -1.155951    0.392311
  P     -2.280089    0.267804   -0.597655
  S     -2.577091   -0.045507   -2.504480
  O     -1.624669    1.687240   -0.397049
  C     -1.362794    2.280464    0.896182
  C     -2.434813    3.293122    1.241741
  O     -3.537936    0.348820    0.369921
  C     -4.291674   -0.781460    0.849396
  C     -4.801295   -1.665363   -0.269051
  H      1.259028   -1.129591    3.221266
  H      1.237835    0.040802    4.548833
  H     -0.052205    0.044453    3.333781
  H      2.891259    0.699069    2.795125
  H      1.583683    1.906156    2.930759
  H      5.458372    1.197865   -0.542489
  H      5.137589   -0.495662   -0.058258
  H      5.522736   -0.279594   -2.535266
  H      3.914991   -0.909145   -2.147519
  H      4.103482    0.779041   -2.639486
  H      0.701685   -2.298674   -0.740054
  H     -0.537865   -1.676993   -1.895484
  H     -1.307525    1.487166    1.646555
  H     -0.382813    2.750517    0.790980
  H     -3.401379    2.802717    1.322208
  H     -2.189134    3.764519    2.188179
  H     -2.491907    4.051394    0.465719
  H     -3.654939   -1.351042    1.531983
  H     -5.114633   -0.324629    1.401942
  H     -5.436061   -2.441667    0.145828
  H     -5.369890   -1.079378   -0.987223
  H     -3.966788   -2.130486   -0.791662

 Total Charge           Charge          ....    0
 Multiplicity           Mult            ....    1
 Number of Electrons    NEL             ....  202
 Basis Dimension        Dim             ....  334

ORBITAL ENERGIES
----------------

  NO   OCC          E(Eh)            E(eV)
   0   2.0000     -88.042963     -2395.7708
   1   2.0000     -88.042561     -2395.7599
   2   2.0000     -87.991576     -2394.3725
   3   2.0000     -87.982056     -2394.1135
   4   2.0000     -76.428618     -2079.7284
   5   2.0000     -76.425838     -2079.6528
   6   2.0000     -18.798042      -511.5207
   7   2.0000     -18.795803      -511.4598
   8   2.0000     -18.792896      -511.3807
   9   2.0000     -18.787576      -511.2359
  10   2.0000      -9.960855      -271.0486
  11   2.0000      -9.958362      -270.9808
  12   2.0000      -9.953518      -270.8490
  13   2.0000      -9.952795      -270.8293
  14   2.0000      -9.951455      -270.7929
  15   2.0000      -9.884674      -268.9757
  16   2.0000      -9.884538      -268.9720
  17   2.0000      -9.884392      -268.9680
  18   2.0000      -9.884091      -268.9598
  19   2.0000      -7.688131      -209.2047
  20   2.0000      -7.687346      -209.1833
  21   2.0000      -7.636478      -207.7991
  22   2.0000      -7.627414      -207.5525
  23   2.0000      -6.426391      -174.8710
  24   2.0000      -6.422970      -174.7779
  25   2.0000      -5.715964      -155.5393
  26   2.0000      -5.715004      -155.5132
  27   2.0000      -5.712854      -155.4547
  28   2.0000      -5.711875      -155.4280
  29   2.0000      -5.704890      -155.2380
  30   2.0000      -5.704567      -155.2292
  31   2.0000      -5.665251      -154.1593
  32   2.0000      -5.657235      -153.9412
  33   2.0000      -5.656666      -153.9257
  34   2.0000      -5.656509      -153.9214
  35   2.0000      -5.647920      -153.6877
  36   2.0000      -5.647463      -153.6753
  37   2.0000      -4.648947      -126.5043
  38   2.0000      -4.648034      -126.4794
  39   2.0000      -4.646942      -126.4497
  40   2.0000      -4.645880      -126.4208
  41   2.0000      -4.644944      -126.3953
  42   2.0000      -4.642993      -126.3423
  43   2.0000      -0.989722       -26.9317
  44   2.0000      -0.988939       -26.9104
  45   2.0000      -0.947595       -25.7854
  46   2.0000      -0.944557       -25.7027
  47   2.0000      -0.765842       -20.8396
  48   2.0000      -0.722155       -19.6508
  49   2.0000      -0.710861       -19.3435
  50   2.0000      -0.691583       -18.8189
  51   2.0000      -0.688231       -18.7277
  52   2.0000      -0.676607       -18.4114
  53   2.0000      -0.651784       -17.7359
  54   2.0000      -0.639592       -17.4042
  55   2.0000      -0.599851       -16.3228
  56   2.0000      -0.590008       -16.0549
  57   2.0000      -0.577463       -15.7136
  58   2.0000      -0.573440       -15.6041
  59   2.0000      -0.562453       -15.3051
  60   2.0000      -0.507270       -13.8035
  61   2.0000      -0.498920       -13.5763
  62   2.0000      -0.474822       -12.9206
  63   2.0000      -0.471642       -12.8340
  64   2.0000      -0.462609       -12.5882
  65   2.0000      -0.448135       -12.1944
  66   2.0000      -0.440759       -11.9937
  67   2.0000      -0.434893       -11.8340
  68   2.0000      -0.433168       -11.7871
  69   2.0000      -0.416066       -11.3217
  70   2.0000      -0.410844       -11.1796
  71   2.0000      -0.401130       -10.9153
  72   2.0000      -0.397617       -10.8197
  73   2.0000      -0.386045       -10.5048
  74   2.0000      -0.379623       -10.3301
  75   2.0000      -0.375810       -10.2263
  76   2.0000      -0.366412        -9.9706
  77   2.0000      -0.356619        -9.7041
  78   2.0000      -0.355337        -9.6692
  79   2.0000      -0.352036        -9.5794
  80   2.0000      -0.348029        -9.4704
  81   2.0000      -0.346502        -9.4288
  82   2.0000      -0.344395        -9.3715
  83   2.0000      -0.338742        -9.2176
  84   2.0000      -0.337088        -9.1726
  85   2.0000      -0.321940        -8.7604
  86   2.0000      -0.312665        -8.5080
  87   2.0000      -0.298468        -8.1217
  88   2.0000      -0.297891        -8.1060
  89   2.0000      -0.290603        -7.9077
  90   2.0000      -0.287585        -7.8256
  91   2.0000      -0.281976        -7.6729
  92   2.0000      -0.276392        -7.5210
  93   2.0000      -0.266225        -7.2443
  94   2.0000      -0.258713        -7.0399
  95   2.0000      -0.234529        -6.3819
  96   2.0000      -0.219082        -5.9615
  97   2.0000      -0.213649        -5.8137
  98   2.0000      -0.204915        -5.5760
  99   2.0000      -0.199382        -5.4255
 100   2.0000      -0.197179        -5.3655
 101   0.0000      -0.045064        -1.2263
 102   0.0000      -0.024978        -0.6797
 103   0.0000      -0.006895        -0.1876
 104   0.0000      -0.002119        -0.0577
 105   0.0000       0.009892         0.2692

MULLIKEN ATOMIC CHARGES
-----------------------
   0 C :   -0.302049
   1 C :   -0.001356
   2 O :   -0.362367
   3 P :    0.608338
   4 S :   -0.340780
   5 O :   -0.373634
   6 C :   -0.006127
   7 C :   -0.316513
   8 S :   -0.050148
   9 C :   -0.373063
  10 S :   -0.102258
  11 P :    0.596645
  12 S :   -0.309555
  13 O :   -0.345014
  14 C :   -0.027691
  15 C :   -0.281793
  16 O :   -0.381847
  17 C :   -0.010923
  18 C :   -0.308036
  19 H :    0.130576
  20 H :    0.106920
  21 H :    0.122155
  22 H :    0.104803
  23 H :    0.103971
  24 H :    0.105477
  25 H :    0.111979
  26 H :    0.114076
  27 H :    0.127135
  28 H :    0.120532
  29 H :    0.192698
  30 H :    0.195600
  31 H :    0.107354
  32 H :    0.115863
  33 H :    0.117616
  34 H :    0.104565
  35 H :    0.120301
  36 H :    0.112972
  37 H :    0.108288
  38 H :    0.111617
  39 H :    0.127585
  40 H :    0.126087
Sum of atomic charges:   -0.0000000

LOEWDIN ATOMIC CHARGES
----------------------
   0 C :   -0.363408
   1 C :   -0.111219
   2 O :   -0.241234
   3 P :    0.571589
   4 S :   -0.324785
   5 O :   -0.246059
   6 C :   -0.120570
   7 C :   -0.368831
   8 S :    0.108704
   9 C :   -0.486703
  10 S :    0.069552
  11 P :    0.568300
  12 S :   -0.305703
  13 O :   -0.228371
  14 C :   -0.116161
  15 C :   -0.358276
  16 O :   -0.246093
  17 C :   -0.115174
  18 C :   -0.368760
  19 H :    0.125898
  20 H :    0.128105
  21 H :    0.120414
  22 H :    0.111455
  23 H :    0.116525
  24 H :    0.118772
  25 H :    0.110018
  26 H :    0.131666
  27 H :    0.121456
  28 H :    0.125970
  29 H :    0.128663
  30 H :    0.129420
  31 H :    0.101785
  32 H :    0.120492
  33 H :    0.125208
  34 H :    0.126878
  35 H :    0.129114
  36 H :    0.107859
  37 H :    0.120542
  38 H :    0.130320
  39 H :    0.130898
  40 H :    0.121747

  Mayer bond orders larger than 0.100000
B(  0-C ,  1-C ) :   1.1704 B(  0-C , 19-H ) :   0.9310 B(  0-C , 20-H ) :   0.9385
B(  0-C , 21-H ) :   0.9424 B(  1-C ,  2-O ) :   0.8910 B(  1-C , 22-H ) :   0.9165
B(  1-C , 23-H ) :   0.9335 B(  2-O ,  3-P ) :   1.1212 B(  3-P ,  4-S ) :   1.5849
B(  3-P ,  5-O ) :   1.1102 B(  3-P ,  8-S ) :   0.9709 B(  4-S ,  8-S ) :   0.1116
B(  5-O ,  6-C ) :   0.9077 B(  6-C ,  7-C ) :   1.1648 B(  6-C , 24-H ) :   0.9333
B(  6-C , 25-H ) :   0.9145 B(  7-C , 26-H ) :   0.9381 B(  7-C , 27-H ) :   0.9351
B(  7-C , 28-H ) :   0.9451 B(  8-S ,  9-C ) :   1.0052 B(  9-C , 10-S ) :   1.0098
B(  9-C , 29-H ) :   0.8750 B(  9-C , 30-H ) :   0.8726 B( 10-S , 11-P ) :   0.9395
B( 10-S , 12-S ) :   0.1103 B( 11-P , 12-S ) :   1.6450 B( 11-P , 13-O ) :   1.1420
B( 11-P , 16-O ) :   1.0774 B( 13-O , 14-C ) :   0.8928 B( 14-C , 15-C ) :   1.1551
B( 14-C , 31-H ) :   0.9094 B( 14-C , 32-H ) :   0.9306 B( 15-C , 33-H ) :   0.9428
B( 15-C , 34-H ) :   0.9412 B( 15-C , 35-H ) :   0.9465 B( 16-O , 17-C ) :   0.9114
B( 17-C , 18-C ) :   1.1678 B( 17-C , 36-H ) :   0.9256 B( 17-C , 37-H ) :   0.9330
B( 18-C , 38-H ) :   0.9347 B( 18-C , 39-H ) :   0.9432 B( 18-C , 40-H ) :   0.9321

Dispersion correction           -0.066325110
FINAL SINGLE POINT ENERGY     -2929.521859835333

DIPOLE MOMENT
-------------

Method             : SCF
Type of density    : Electron Density
Multiplicity       :   1
Irrep              :   0
Energy             : -2929.6409270729250238 Eh
Relativity type    :
Basis              : AO
                                X                 Y                 Z
Electronic contribution:      2.193733258      -4.586545195     -12.018636238
Nuclear contribution   :     -2.017751612       5.095986935      13.507168208
                        -----------------------------------------
Total Dipole Moment    :      0.175981646       0.509441740       1.488531970
                        -----------------------------------------
Magnitude (a.u.)       :      1.583107024
Magnitude (Debye)      :      4.023938268

Rotational constants in cm-1:             0.012540             0.005023             0.004671
Rotational constants in MHz :           375.943919           150.599327           140.041169

                             ****ORCA TERMINATED NORMALLY****
TOTAL RUN TIME: 0 days 0 hours 0 minutes 21 seconds 771 msec
