                         Program Version 6.0.0  -   RELEASE  -
|  1> ! pbe def2-sv(p) def2/J RI DEFGRID1 loosescf d4 GCP(DFT/SV(P)) printgap
|  2> %output
|  3>     printlevel normal
|  4> end
|  5> * xyz 0 1
|  6> C 6.1293681992 -1.3900382653 -0.1576525154
|  7> C 4.6713365169 -1.4407761395 -0.5659082161
|  8> O 4.0496844733 -0.21062602 -0.1345370724
|  9> P 2.6310750967 0.2258218751 -0.692962372
| 10> S 2.4479442337 0.2877577484 -2.6431612292
| 11> O 2.4239930228 1.6483432587 -0.0561703415
| 12> C 2.8945152232 2.0874405263 1.2437212727
| 13> C 2.2287115541 1.3443602117 2.3817977554
| 14> S 1.2978587323 -1.1678146646 0.2180876902
| 15> C -0.1387874413 -0.7392832782 -0.7775787147
| 16> S -0.8500727022 0.8696078744 -0.2741719988
| 17> P -2.8003191635 0.2049335474 0.1928622838
| 18> S -4.0251289633 1.5189795185 0.9696309779
| 19> O -2.620411935 -1.1374942158 1.0357901704
| 20> C -2.578151803 -1.1377055632 2.4728395621
| 21> C -1.314737876 -0.4893036657 3.0001413579
| 22> O -3.190138591 -0.3776003292 -1.232615348
| 23> C -4.5641641143 -0.5893870068 -1.6186281764
| 24> C -5.2135536385 -1.7003320238 -0.8204622244
| 25> H 6.6162189 -2.3095510062 -0.4652572043
| 26> H 6.6223028065 -0.5477085178 -0.6349797665
| 27> H 6.2111592555 -1.2829870695 0.919915429
| 28> H 4.1486577486 -2.2719296107 -0.0856567929
| 29> H 4.5589805403 -1.5249773705 -1.6516450199
| 30> H 3.9785566923 1.9661837435 1.2722890961
| 31> H 2.6355009529 3.1473002339 1.251025898
| 32> H 1.1474712276 1.4030646542 2.2835703904
| 33> H 2.5295114883 0.2990263023 2.383457508
| 34> H 2.5250146733 1.7997144507 3.3214973839
| 35> H -0.8812201091 -1.5198888235 -0.6397748389
| 36> H 0.169838135 -0.6572596622 -1.8207356283
| 37> H -3.4636360023 -0.6114279195 2.8432990991
| 38> H -2.6315894966 -2.1944615445 2.7373792466
| 39> H -0.4353363576 -0.9680648043 2.5744479283
| 40> H -1.3106294697 0.5683620209 2.7358050023
| 41> H -1.2860083664 -0.580775227 4.080934972
| 42> H -5.1086072806 0.3507371717 -1.4849814358
| 43> H -4.5003393615 -0.8335222327 -2.6799074732
| 44> H -4.6191483157 -2.608014823 -0.88285423
| 45> H -5.299341975 -1.4035211231 0.2238966785
| 46> H -6.2067063887 -1.8908057905 -1.2150235298
| 47> *
| 48>
| 49>                          ****END OF INPUT****

CARTESIAN COORDINATES (ANGSTROEM)
---------------------------------
  C      6.129368   -1.390038   -0.157653
  C      4.671337   -1.440776   -0.565908
  O      4.049684   -0.210626   -0.134537
  P      2.631075    0.225822   -0.692962
  S      2.447944    0.287758   -2.643161
  O      2.423993    1.648343   -0.056170
  C      2.894515    2.087441    1.243721
  C      2.228712    1.344360    2.381798
  S      1.297859   -1.167815    0.218088
  C     -0.138787   -0.739283   -0.777579
  S     -0.850073    0.869608   -0.274172
  P     -2.800319    0.204934    0.192862
  S     -4.025129    1.518980    0.969631
  O     -2.620412   -1.137494    1.035790
  C     -2.578152   -1.137706    2.472840
  C     -1.314738   -0.489304    3.000141
  O     -3.190139   -0.377600   -1.232615
  C     -4.564164   -0.589387   -1.618628
  C     -5.213554   -1.700332   -0.820462
  H      6.616219   -2.309551   -0.465257
  H      6.622303   -0.547709   -0.634980
  H      6.211159   -1.282987    0.919915
  H      4.148658   -2.271930   -0.085657
  H      4.558981   -1.524977   -1.651645
  H      3.978557    1.966184    1.272289
  H      2.635501    3.147300    1.251026
  H      1.147471    1.403065    2.283570
  H      2.529511    0.299026    2.383458
  H      2.525015    1.799714    3.321497
  H     -0.881220   -1.519889   -0.639775
  H      0.169838   -0.657260   -1.820736
  H     -3.463636   -0.611428    2.843299
  H     -2.631589   -2.194462    2.737379
  H     -0.435336   -0.968065    2.574448
  H     -1.310629    0.568362    2.735805
  H     -1.286008   -0.580775    4.080935
  H     -5.108607    0.350737   -1.484981
  H     -4.500339   -0.833522   -2.679907
  H     -4.619148   -2.608015   -0.882854
  H     -5.299342   -1.403521    0.223897
  H     -6.206706   -1.890806   -1.215024

 Total Charge           Charge          ....    0
 Multiplicity           Mult            ....    1
 Number of Electrons    NEL             ....  202
 Basis Dimension        Dim             ....  334

ORBITAL ENERGIES
----------------

  NO   OCC          E(Eh)            E(eV)
   0   2.0000     -88.046249     -2395.8602
   1   2.0000     -88.038628     -2395.6529
   2   2.0000     -87.988668     -2394.2934
   3   2.0000     -87.984373     -2394.1765
   4   2.0000     -76.429624     -2079.7558
   5   2.0000     -76.425832     -2079.6526
   6   2.0000     -18.803261      -511.6627
   7   2.0000     -18.796246      -511.4719
   8   2.0000     -18.794818      -511.4330
   9   2.0000     -18.789243      -511.2813
  10   2.0000      -9.961019      -271.0531
  11   2.0000      -9.959548      -271.0131
  12   2.0000      -9.954085      -270.8644
  13   2.0000      -9.952773      -270.8287
  14   2.0000      -9.951506      -270.7942
  15   2.0000      -9.895265      -269.2639
  16   2.0000      -9.889115      -269.0965
  17   2.0000      -9.884581      -268.9731
  18   2.0000      -9.884400      -268.9682
  19   2.0000      -7.691084      -209.2850
  20   2.0000      -7.683757      -209.0856
  21   2.0000      -7.633823      -207.7269
  22   2.0000      -7.629654      -207.6134
  23   2.0000      -6.427238      -174.8940
  24   2.0000      -6.423609      -174.7953
  25   2.0000      -5.718643      -155.6122
  26   2.0000      -5.715768      -155.5339
  27   2.0000      -5.711983      -155.4310
  28   2.0000      -5.708247      -155.3293
  29   2.0000      -5.708187      -155.3277
  30   2.0000      -5.700444      -155.1170
  31   2.0000      -5.662787      -154.0923
  32   2.0000      -5.658668      -153.9802
  33   2.0000      -5.654418      -153.8645
  34   2.0000      -5.653967      -153.8523
  35   2.0000      -5.650392      -153.7550
  36   2.0000      -5.649570      -153.7326
  37   2.0000      -4.650353      -126.5425
  38   2.0000      -4.648840      -126.5014
  39   2.0000      -4.647291      -126.4592
  40   2.0000      -4.646004      -126.4242
  41   2.0000      -4.645552      -126.4119
  42   2.0000      -4.644047      -126.3710
  43   2.0000      -0.995455       -27.0877
  44   2.0000      -0.987281       -26.8653
  45   2.0000      -0.951458       -25.8905
  46   2.0000      -0.945979       -25.7414
  47   2.0000      -0.763947       -20.7881
  48   2.0000      -0.725523       -19.7425
  49   2.0000      -0.712724       -19.3942
  50   2.0000      -0.698396       -19.0043
  51   2.0000      -0.688076       -18.7235
  52   2.0000      -0.675465       -18.3803
  53   2.0000      -0.654361       -17.8061
  54   2.0000      -0.636996       -17.3336
  55   2.0000      -0.599174       -16.3044
  56   2.0000      -0.594718       -16.1831
  57   2.0000      -0.579387       -15.7659
  58   2.0000      -0.572901       -15.5894
  59   2.0000      -0.562968       -15.3191
  60   2.0000      -0.512133       -13.9358
  61   2.0000      -0.494436       -13.4543
  62   2.0000      -0.479488       -13.0475
  63   2.0000      -0.473924       -12.8961
  64   2.0000      -0.458657       -12.4807
  65   2.0000      -0.451577       -12.2880
  66   2.0000      -0.445726       -12.1288
  67   2.0000      -0.442449       -12.0397
  68   2.0000      -0.434581       -11.8255
  69   2.0000      -0.418454       -11.3867
  70   2.0000      -0.408969       -11.1286
  71   2.0000      -0.403649       -10.9839
  72   2.0000      -0.396433       -10.7875
  73   2.0000      -0.393662       -10.7121
  74   2.0000      -0.385039       -10.4774
  75   2.0000      -0.373797       -10.1715
  76   2.0000      -0.367821       -10.0089
  77   2.0000      -0.359995        -9.7960
  78   2.0000      -0.357240        -9.7210
  79   2.0000      -0.352567        -9.5938
  80   2.0000      -0.348632        -9.4868
  81   2.0000      -0.348388        -9.4801
  82   2.0000      -0.343854        -9.3567
  83   2.0000      -0.342370        -9.3164
  84   2.0000      -0.333267        -9.0687
  85   2.0000      -0.323938        -8.8148
  86   2.0000      -0.319030        -8.6812
  87   2.0000      -0.309418        -8.4197
  88   2.0000      -0.299490        -8.1495
  89   2.0000      -0.294633        -8.0174
  90   2.0000      -0.287222        -7.8157
  91   2.0000      -0.279557        -7.6071
  92   2.0000      -0.273042        -7.4299
  93   2.0000      -0.266587        -7.2542
  94   2.0000      -0.260280        -7.0826
  95   2.0000      -0.235363        -6.4046
  96   2.0000      -0.219016        -5.9597
  97   2.0000      -0.208725        -5.6797
  98   2.0000      -0.206814        -5.6277
  99   2.0000      -0.204558        -5.5663
 100   2.0000      -0.194911        -5.3038
 101   0.0000      -0.043715        -1.1896
 102   0.0000      -0.031344        -0.8529
 103   0.0000      -0.017220        -0.4686
 104   0.0000       0.005206         0.1417
 105   0.0000       0.017329         0.4716

MULLIKEN ATOMIC CHARGES
-----------------------
   0 C :   -0.281652
   1 C :   -0.012867
   2 O :   -0.389283
   3 P :    0.609136
   4 S :   -0.308651
   5 O :   -0.353474
   6 C :    0.005389
   7 C :   -0.336437
   8 S :   -0.113427
   9 C :   -0.363547
  10 S :   -0.053540
  11 P :    0.595457
  12 S :   -0.320479
  13 O :   -0.381238
  14 C :    0.001036
  15 C :   -0.342548
  16 O :   -0.377787
  17 C :   -0.004071
  18 C :   -0.307820
  19 H :    0.115739
  20 H :    0.123766
  21 H :    0.114969
  22 H :    0.106304
  23 H :    0.111000
  24 H :    0.111134
  25 H :    0.114749
  26 H :    0.147190
  27 H :    0.119775
  28 H :    0.113047
  29 H :    0.191499
  30 H :    0.202519
  31 H :    0.110291
  32 H :    0.104151
  33 H :    0.127963
  34 H :    0.138826
  35 H :    0.110844
  36 H :    0.114237
  37 H :    0.107754
  38 H :    0.114677
  39 H :    0.122717
  40 H :    0.112653
Sum of atomic charges:    0.0000000

LOEWDIN ATOMIC CHARGES
----------------------
   0 C :   -0.350370
   1 C :   -0.118251
   2 O :   -0.249631
   3 P :    0.566026
   4 S :   -0.307298
   5 O :   -0.231663
   6 C :   -0.105548
   7 C :   -0.370642
   8 S :    0.075482
   9 C :   -0.480924
  10 S :    0.094797
  11 P :    0.566850
  12 S :   -0.320179
  13 O :   -0.247685
  14 C :   -0.119808
  15 C :   -0.373286
  16 O :   -0.249414
  17 C :   -0.115341
  18 C :   -0.365547
  19 H :    0.133005
  20 H :    0.130491
  21 H :    0.126007
  22 H :    0.109658
  23 H :    0.112742
  24 H :    0.114733
  25 H :    0.125206
  26 H :    0.130198
  27 H :    0.116297
  28 H :    0.131298
  29 H :    0.134175
  30 H :    0.128338
  31 H :    0.110158
  32 H :    0.118047
  33 H :    0.118242
  34 H :    0.121975
  35 H :    0.130388
  36 H :    0.112846
  37 H :    0.120195
  38 H :    0.125248
  39 H :    0.122446
  40 H :    0.130736

  Mayer bond orders larger than 0.100000
B(  0-C ,  1-C ) :   1.1606 B(  0-C , 19-H ) :   0.9412 B(  0-C , 20-H ) :   0.9505
B(  0-C , 21-H ) :   0.9510 B(  1-C ,  2-O ) :   0.8981 B(  1-C , 22-H ) :   0.9288
B(  1-C , 23-H ) :   0.9110 B(  2-O ,  3-P ) :   1.0805 B(  3-P ,  4-S ) :   1.6568
B(  3-P ,  5-O ) :   1.1500 B(  3-P ,  8-S ) :   0.9366 B(  4-S ,  8-S ) :   0.1113
B(  5-O ,  6-C ) :   0.8914 B(  6-C ,  7-C ) :   1.1704 B(  6-C , 24-H ) :   0.9284
B(  6-C , 25-H ) :   0.9338 B(  7-C , 26-H ) :   0.9316 B(  7-C , 27-H ) :   0.9401
B(  7-C , 28-H ) :   0.9346 B(  8-S ,  9-C ) :   1.0125 B(  9-C , 10-S ) :   0.9661
B(  9-C , 29-H ) :   0.8873 B(  9-C , 30-H ) :   0.8604 B( 10-S , 11-P ) :   1.0001
B( 11-P , 12-S ) :   1.6321 B( 11-P , 13-O ) :   1.0586 B( 11-P , 16-O ) :   1.0991
B( 13-O , 14-C ) :   0.9090 B( 14-C , 15-C ) :   1.1646 B( 14-C , 31-H ) :   0.9141
B( 14-C , 32-H ) :   0.9334 B( 15-C , 33-H ) :   0.9336 B( 15-C , 34-H ) :   0.9298
B( 15-C , 35-H ) :   0.9363 B( 16-O , 17-C ) :   0.9088 B( 17-C , 18-C ) :   1.1622
B( 17-C , 36-H ) :   0.9189 B( 17-C , 37-H ) :   0.9354 B( 18-C , 38-H ) :   0.9465
B( 18-C , 39-H ) :   0.9364 B( 18-C , 40-H ) :   0.9382

Dispersion correction           -0.062940125
FINAL SINGLE POINT ENERGY     -2929.516116782553

DIPOLE MOMENT
-------------

Method             : SCF
Type of density    : Electron Density
Multiplicity       :   1
Irrep              :   0
Energy             : -2929.6388655624355124 Eh
Relativity type    :
Basis              : AO
                                X                 Y                 Z
Electronic contribution:     -4.474665003       9.999235179     -13.384280006
Nuclear contribution   :      5.260471331     -11.378636422      14.626325875
                        -----------------------------------------
Total Dipole Moment    :      0.785806328      -1.379401243       1.242045868
                        -----------------------------------------
Magnitude (a.u.)       :      2.015667957
Magnitude (Debye)      :      5.123420782

Rotational constants in cm-1:             0.014543             0.003966             0.003717
Rotational constants in MHz :           435.975013           118.897539           111.439646

                             ****ORCA TERMINATED NORMALLY****
TOTAL RUN TIME: 0 days 0 hours 0 minutes 20 seconds 596 msec
