                         Program Version 6.0.0  -   RELEASE  -
|  1> ! pbe def2-sv(p) def2/J RI DEFGRID1 loosescf d4 GCP(DFT/SV(P)) printgap
|  2> %output
|  3>     printlevel normal
|  4> end
|  5> * xyz 0 1
|  6> C 5.7730309536 -1.2418704527 0.0173116258
|  7> C 4.7450236 -0.1655086843 -0.2643387711
|  8> O 3.4572776248 -0.6649669704 0.1538751583
|  9> P 2.1130409606 0.0469258233 -0.3085505097
| 10> S 1.9542269903 0.3373742044 -2.2415429048
| 11> O 2.0806155024 1.3571012324 0.59754292
| 12> C 1.8234973263 2.6900238814 0.1271610203
| 13> C 3.127415689 3.4427566699 -0.0451048341
| 14> S 0.8484484092 -1.3319949312 0.6419583238
| 15> C -0.2283771895 -1.8111869351 -0.7629753018
| 16> S -1.9595486726 -1.8962955195 -0.271955237
| 17> P -2.1767330761 0.1285669711 0.3497156295
| 18> S -1.1990139212 1.4622440674 -0.7018234003
| 19> O -1.7561957878 0.1945158641 1.8659224012
| 20> C -1.951490703 -0.8360469214 2.8660981152
| 21> C -3.3959577898 -1.268928303 2.9868615852
| 22> O -3.7454568093 0.3610916878 0.4121634338
| 23> C -4.5218263784 0.7902267516 -0.7200498181
| 24> C -4.5573222782 -0.2470167664 -1.8238329241
| 25> H 5.7736156773 -1.4835651225 1.0761560823
| 26> H 5.5361188189 -2.1389956554 -0.5473248136
| 27> H 6.754809905 -0.8822381988 -0.2729081284
| 28> H 4.6937293522 0.0716819264 -1.332966779
| 29> H 4.9580789327 0.7485744625 0.2968045776
| 30> H 1.2731762277 2.6408670399 -0.8176415227
| 31> H 1.185592847 3.1445727818 0.8871110606
| 32> H 3.7219034326 2.9798651148 -0.8309076848
| 33> H 2.9095711534 4.4683421374 -0.3247698159
| 34> H 3.6910589003 3.4340102713 0.8839419259
| 35> H 0.0461719399 -2.8091974155 -1.0946484322
| 36> H -0.097656489 -1.0777560595 -1.5635289265
| 37> H -1.3028347718 -1.6795378356 2.6113695445
| 38> H -1.5919282107 -0.3619366716 3.7804365181
| 39> H -3.4864981227 -1.9664996241 3.8137085633
| 40> H -4.0328454566 -0.4075192282 3.1697695557
| 41> H -3.720509317 -1.7597107169 2.071517552
| 42> H -5.5133348146 0.9657822734 -0.3003670103
| 43> H -4.1025896193 1.731169085 -1.0902142711
| 44> H -4.856362325 -1.2137058827 -1.4271637178
| 45> H -5.2645938601 0.0658646749 -2.5852630668
| 46> H -3.5725625546 -0.3425049421 -2.2787134297
| 47> *
| 48>
| 49>                          ****END OF INPUT****

CARTESIAN COORDINATES (ANGSTROEM)
---------------------------------
  C      5.773031   -1.241870    0.017312
  C      4.745024   -0.165509   -0.264339
  O      3.457278   -0.664967    0.153875
  P      2.113041    0.046926   -0.308551
  S      1.954227    0.337374   -2.241543
  O      2.080616    1.357101    0.597543
  C      1.823497    2.690024    0.127161
  C      3.127416    3.442757   -0.045105
  S      0.848448   -1.331995    0.641958
  C     -0.228377   -1.811187   -0.762975
  S     -1.959549   -1.896296   -0.271955
  P     -2.176733    0.128567    0.349716
  S     -1.199014    1.462244   -0.701823
  O     -1.756196    0.194516    1.865922
  C     -1.951491   -0.836047    2.866098
  C     -3.395958   -1.268928    2.986862
  O     -3.745457    0.361092    0.412163
  C     -4.521826    0.790227   -0.720050
  C     -4.557322   -0.247017   -1.823833
  H      5.773616   -1.483565    1.076156
  H      5.536119   -2.138996   -0.547325
  H      6.754810   -0.882238   -0.272908
  H      4.693729    0.071682   -1.332967
  H      4.958079    0.748574    0.296805
  H      1.273176    2.640867   -0.817642
  H      1.185593    3.144573    0.887111
  H      3.721903    2.979865   -0.830908
  H      2.909571    4.468342   -0.324770
  H      3.691059    3.434010    0.883942
  H      0.046172   -2.809197   -1.094648
  H     -0.097656   -1.077756   -1.563529
  H     -1.302835   -1.679538    2.611370
  H     -1.591928   -0.361937    3.780437
  H     -3.486498   -1.966500    3.813709
  H     -4.032845   -0.407519    3.169770
  H     -3.720509   -1.759711    2.071518
  H     -5.513335    0.965782   -0.300367
  H     -4.102590    1.731169   -1.090214
  H     -4.856362   -1.213706   -1.427164
  H     -5.264594    0.065865   -2.585263
  H     -3.572563   -0.342505   -2.278713

 Total Charge           Charge          ....    0
 Multiplicity           Mult            ....    1
 Number of Electrons    NEL             ....  202
 Basis Dimension        Dim             ....  334

ORBITAL ENERGIES
----------------

  NO   OCC          E(Eh)            E(eV)
   0   2.0000     -88.047294     -2395.8887
   1   2.0000     -88.037515     -2395.6226
   2   2.0000     -87.983244     -2394.1458
   3   2.0000     -87.980513     -2394.0715
   4   2.0000     -76.426010     -2079.6575
   5   2.0000     -76.419304     -2079.4750
   6   2.0000     -18.793385      -511.3940
   7   2.0000     -18.788451      -511.2598
   8   2.0000     -18.781501      -511.0706
   9   2.0000     -18.781188      -511.0621
  10   2.0000      -9.954265      -270.8693
  11   2.0000      -9.953797      -270.8566
  12   2.0000      -9.953130      -270.8384
  13   2.0000      -9.947526      -270.6859
  14   2.0000      -9.939389      -270.4645
  15   2.0000      -9.887462      -269.0515
  16   2.0000      -9.884236      -268.9637
  17   2.0000      -9.884076      -268.9594
  18   2.0000      -9.878944      -268.8197
  19   2.0000      -7.692044      -209.3112
  20   2.0000      -7.682711      -209.0572
  21   2.0000      -7.628200      -207.5739
  22   2.0000      -7.625334      -207.4959
  23   2.0000      -6.423086      -174.7811
  24   2.0000      -6.417113      -174.6185
  25   2.0000      -5.719895      -155.6462
  26   2.0000      -5.716405      -155.5513
  27   2.0000      -5.710698      -155.3960
  28   2.0000      -5.709251      -155.3566
  29   2.0000      -5.707456      -155.3078
  30   2.0000      -5.699226      -155.0838
  31   2.0000      -5.657043      -153.9360
  32   2.0000      -5.654296      -153.8612
  33   2.0000      -5.649144      -153.7210
  34   2.0000      -5.648097      -153.6925
  35   2.0000      -5.645816      -153.6305
  36   2.0000      -5.645567      -153.6237
  37   2.0000      -4.645823      -126.4193
  38   2.0000      -4.645033      -126.3978
  39   2.0000      -4.643301      -126.3506
  40   2.0000      -4.639397      -126.2444
  41   2.0000      -4.638579      -126.2222
  42   2.0000      -4.638119      -126.2096
  43   2.0000      -0.986165       -26.8349
  44   2.0000      -0.976123       -26.5617
  45   2.0000      -0.944536       -25.7021
  46   2.0000      -0.934292       -25.4234
  47   2.0000      -0.762340       -20.7443
  48   2.0000      -0.720312       -19.6007
  49   2.0000      -0.709333       -19.3019
  50   2.0000      -0.690316       -18.7844
  51   2.0000      -0.681545       -18.5458
  52   2.0000      -0.672637       -18.3034
  53   2.0000      -0.648639       -17.6504
  54   2.0000      -0.632548       -17.2125
  55   2.0000      -0.599039       -16.3007
  56   2.0000      -0.587872       -15.9968
  57   2.0000      -0.575815       -15.6687
  58   2.0000      -0.566237       -15.4081
  59   2.0000      -0.555937       -15.1278
  60   2.0000      -0.499924       -13.6036
  61   2.0000      -0.490483       -13.3467
  62   2.0000      -0.473049       -12.8723
  63   2.0000      -0.470648       -12.8070
  64   2.0000      -0.447715       -12.1829
  65   2.0000      -0.442748       -12.0478
  66   2.0000      -0.438769       -11.9395
  67   2.0000      -0.433905       -11.8071
  68   2.0000      -0.428976       -11.6730
  69   2.0000      -0.417465       -11.3598
  70   2.0000      -0.410463       -11.1693
  71   2.0000      -0.397278       -10.8105
  72   2.0000      -0.388451       -10.5703
  73   2.0000      -0.381301       -10.3757
  74   2.0000      -0.379173       -10.3178
  75   2.0000      -0.369788       -10.0624
  76   2.0000      -0.364282        -9.9126
  77   2.0000      -0.357448        -9.7267
  78   2.0000      -0.352973        -9.6049
  79   2.0000      -0.352403        -9.5894
  80   2.0000      -0.347614        -9.4590
  81   2.0000      -0.344526        -9.3750
  82   2.0000      -0.336532        -9.1575
  83   2.0000      -0.334423        -9.1001
  84   2.0000      -0.330968        -9.0061
  85   2.0000      -0.313256        -8.5241
  86   2.0000      -0.309032        -8.4092
  87   2.0000      -0.292433        -7.9575
  88   2.0000      -0.291542        -7.9333
  89   2.0000      -0.288655        -7.8547
  90   2.0000      -0.279895        -7.6163
  91   2.0000      -0.272399        -7.4124
  92   2.0000      -0.268580        -7.3084
  93   2.0000      -0.262407        -7.1405
  94   2.0000      -0.257385        -7.0038
  95   2.0000      -0.232628        -6.3301
  96   2.0000      -0.218065        -5.9339
  97   2.0000      -0.212623        -5.7858
  98   2.0000      -0.197218        -5.3666
  99   2.0000      -0.196711        -5.3528
 100   2.0000      -0.187183        -5.0935
 101   0.0000      -0.045057        -1.2261
 102   0.0000      -0.033561        -0.9132
 103   0.0000      -0.007127        -0.1939
 104   0.0000       0.010067         0.2739
 105   0.0000       0.023912         0.6507

MULLIKEN ATOMIC CHARGES
-----------------------
   0 C :   -0.270442
   1 C :   -0.025948
   2 O :   -0.375704
   3 P :    0.644844
   4 S :   -0.326981
   5 O :   -0.383081
   6 C :   -0.016495
   7 C :   -0.288204
   8 S :   -0.099503
   9 C :   -0.343481
  10 S :   -0.118153
  11 P :    0.599444
  12 S :   -0.316096
  13 O :   -0.350776
  14 C :   -0.000155
  15 C :   -0.306343
  16 O :   -0.372321
  17 C :    0.000624
  18 C :   -0.320096
  19 H :    0.115968
  20 H :    0.118894
  21 H :    0.108455
  22 H :    0.104615
  23 H :    0.102991
  24 H :    0.128165
  25 H :    0.106595
  26 H :    0.112133
  27 H :    0.110248
  28 H :    0.111619
  29 H :    0.182094
  30 H :    0.211699
  31 H :    0.110689
  32 H :    0.110138
  33 H :    0.113451
  34 H :    0.122205
  35 H :    0.118281
  36 H :    0.104472
  37 H :    0.113990
  38 H :    0.115601
  39 H :    0.114428
  40 H :    0.132135
Sum of atomic charges:   -0.0000000

LOEWDIN ATOMIC CHARGES
----------------------
   0 C :   -0.349372
   1 C :   -0.121622
   2 O :   -0.254202
   3 P :    0.572574
   4 S :   -0.307593
   5 O :   -0.245294
   6 C :   -0.121552
   7 C :   -0.360088
   8 S :    0.087522
   9 C :   -0.474912
  10 S :    0.077454
  11 P :    0.569533
  12 S :   -0.301096
  13 O :   -0.231086
  14 C :   -0.114431
  15 C :   -0.366431
  16 O :   -0.242524
  17 C :   -0.116727
  18 C :   -0.371152
  19 H :    0.126970
  20 H :    0.128712
  21 H :    0.129152
  22 H :    0.106779
  23 H :    0.109515
  24 H :    0.105491
  25 H :    0.117923
  26 H :    0.121186
  27 H :    0.130288
  28 H :    0.121983
  29 H :    0.135783
  30 H :    0.124950
  31 H :    0.103047
  32 H :    0.123281
  33 H :    0.131405
  34 H :    0.128849
  35 H :    0.116411
  36 H :    0.118574
  37 H :    0.113452
  38 H :    0.122364
  39 H :    0.131787
  40 H :    0.123099

  Mayer bond orders larger than 0.100000
B(  0-C ,  1-C ) :   1.1607 B(  0-C , 19-H ) :   0.9504 B(  0-C , 20-H ) :   0.9507
B(  0-C , 21-H ) :   0.9421 B(  1-C ,  2-O ) :   0.9125 B(  1-C , 22-H ) :   0.9124
B(  1-C , 23-H ) :   0.9255 B(  2-O ,  3-P ) :   1.1124 B(  3-P ,  4-S ) :   1.6079
B(  3-P ,  5-O ) :   1.1152 B(  3-P ,  8-S ) :   0.9582 B(  4-S ,  8-S ) :   0.1116
B(  5-O ,  6-C ) :   0.9011 B(  6-C ,  7-C ) :   1.1583 B(  6-C , 24-H ) :   0.9027
B(  6-C , 25-H ) :   0.9340 B(  7-C , 26-H ) :   0.9408 B(  7-C , 27-H ) :   0.9406
B(  7-C , 28-H ) :   0.9458 B(  8-S ,  9-C ) :   1.0012 B(  9-C , 10-S ) :   1.0036
B(  9-C , 29-H ) :   0.9095 B(  9-C , 30-H ) :   0.8507 B( 10-S , 11-P ) :   0.9336
B( 10-S , 12-S ) :   0.1053 B( 11-P , 12-S ) :   1.6241 B( 11-P , 13-O ) :   1.1476
B( 11-P , 16-O ) :   1.0973 B( 13-O , 14-C ) :   0.9003 B( 14-C , 15-C ) :   1.1687
B( 14-C , 31-H ) :   0.9140 B( 14-C , 32-H ) :   0.9342 B( 15-C , 33-H ) :   0.9364
B( 15-C , 34-H ) :   0.9430 B( 15-C , 35-H ) :   0.9378 B( 16-O , 17-C ) :   0.9050
B( 17-C , 18-C ) :   1.1658 B( 17-C , 36-H ) :   0.9342 B( 17-C , 37-H ) :   0.9166
B( 18-C , 38-H ) :   0.9445 B( 18-C , 39-H ) :   0.9372 B( 18-C , 40-H ) :   0.9347

Dispersion correction           -0.065743641
FINAL SINGLE POINT ENERGY     -2929.516690538335

DIPOLE MOMENT
-------------

Method             : SCF
Type of density    : Electron Density
Multiplicity       :   1
Irrep              :   0
Energy             : -2929.6351095656305006 Eh
Relativity type    :
Basis              : AO
                                X                 Y                 Z
Electronic contribution:     -3.225250998      -4.049965932      -3.174117093
Nuclear contribution   :      2.884244282       3.775394376       3.951971753
                        -----------------------------------------
Total Dipole Moment    :     -0.341006716      -0.274571556       0.777854659
                        -----------------------------------------
Magnitude (a.u.)       :      0.892599009
Magnitude (Debye)      :      2.268806375

Rotational constants in cm-1:             0.013431             0.004738             0.004461
Rotational constants in MHz :           402.664451           142.030739           133.728438

                             ****ORCA TERMINATED NORMALLY****
TOTAL RUN TIME: 0 days 0 hours 0 minutes 20 seconds 929 msec
