                         Program Version 6.0.0  -   RELEASE  -
|  1> ! wb97x-v def2-tzvp def2/J RIJCOSX DEFGRID2 scfconv7 GCP(DFT/TZ) printgap
|  2> %output
|  3>     printlevel normal
|  4> end
|  5> * xyz 0 1
|  6> C -1.2672651474778285 0.2682211349394245 -6.585980122905245e-06
|  7> C 1.5404707966847466e-06 -0.5825212277967662 -2.645433956091836e-06
|  8> C 1.267272409512779 0.2682151023807609 1.209406912044622e-05
|  9> H -1.3034663259274604 0.9145298924342714 -0.8845171926255626
| 10> H -2.1703950011544992 -0.35105389171626 -3.550385300607798e-05
| 11> H -1.303497026236086 0.9144918976359867 0.8845304850238058
| 12> H -7.32456713887395e-06 -1.2397868124958271 0.878372196249706
| 13> H 6.789721360756165e-06 -1.2397758190614714 -0.8783857914176427
| 14> H 2.1703994092811993 -0.3510640099006215 4.0338929415780664e-05
| 15> H 1.303472668174259 0.9145176166044262 0.8845273522116325
| 16> H 1.3035105882272047 0.9144918582833055 -0.884520326565095
| 17> *
| 18>
| 19>                          ****END OF INPUT****

CARTESIAN COORDINATES (ANGSTROEM)
---------------------------------
  C     -1.267265    0.268221   -0.000007
  C      0.000002   -0.582521   -0.000003
  C      1.267272    0.268215    0.000012
  H     -1.303466    0.914530   -0.884517
  H     -2.170395   -0.351054   -0.000036
  H     -1.303497    0.914492    0.884530
  H     -0.000007   -1.239787    0.878372
  H      0.000007   -1.239776   -0.878386
  H      2.170399   -0.351064    0.000040
  H      1.303473    0.914518    0.884527
  H      1.303511    0.914492   -0.884520

 Total Charge           Charge          ....    0
 Multiplicity           Mult            ....    1
 Number of Electrons    NEL             ....   26
 Basis Dimension        Dim             ....  141

ORBITAL ENERGIES
----------------

  NO   OCC          E(Eh)            E(eV)
   0   2.0000     -12.039816      -327.6201
   1   2.0000     -12.031546      -327.3950
   2   2.0000     -12.031214      -327.3860
   3   2.0000      -1.282508       -34.8988
   4   2.0000      -1.171203       -31.8700
   5   2.0000      -1.055973       -28.7345
   6   2.0000      -0.877402       -23.8753
   7   2.0000      -0.864806       -23.5326
   8   2.0000      -0.835155       -22.7257
   9   2.0000      -0.803876       -21.8746
  10   2.0000      -0.779056       -21.1992
  11   2.0000      -0.765943       -20.8424
  12   2.0000      -0.746058       -20.3013
  13   0.0000      -0.008883        -0.2417
  14   0.0000      -0.001683        -0.0458
  15   0.0000       0.008306         0.2260
  16   0.0000       0.025229         0.6865
  17   0.0000       0.034574         0.9408

MULLIKEN ATOMIC CHARGES
-----------------------
   0 C :   -0.329902
   1 C :   -0.136331
   2 C :   -0.329903
   3 H :    0.101453
   4 H :    0.109979
   5 H :    0.101455
   6 H :    0.085180
   7 H :    0.085183
   8 H :    0.109978
   9 H :    0.101453
  10 H :    0.101454
Sum of atomic charges:   -0.0000000

LOEWDIN ATOMIC CHARGES
----------------------
   0 C :   -0.312033
   1 C :   -0.320201
   2 C :   -0.312033
   3 H :    0.115024
   4 H :    0.114673
   5 H :    0.115024
   6 H :    0.127412
   7 H :    0.127413
   8 H :    0.114673
   9 H :    0.115024
  10 H :    0.115024

  Mayer bond orders larger than 0.100000
B(  0-C ,  1-C ) :   0.9870 B(  0-C ,  3-H ) :   0.9796 B(  0-C ,  4-H ) :   0.9809
B(  0-C ,  5-H ) :   0.9796 B(  1-C ,  2-C ) :   0.9870 B(  1-C ,  6-H ) :   0.9756
B(  1-C ,  7-H ) :   0.9756 B(  2-C ,  8-H ) :   0.9809 B(  2-C ,  9-H ) :   0.9796
B(  2-C , 10-H ) :   0.9796

FINAL SINGLE POINT ENERGY      -119.138882242405

DIPOLE MOMENT
-------------

Method             : SCF
Type of density    : Electron Density
Multiplicity       :   1
Irrep              :   0
Energy             :  -119.1464731277049225 Eh
Relativity type    :
Basis              : AO
                                X                 Y                 Z
Electronic contribution:     -0.000000272      -0.494743225      -0.000002929
Nuclear contribution   :      0.000000233       0.459387963       0.000003008
                        -----------------------------------------
Total Dipole Moment    :     -0.000000039      -0.035355262       0.000000079
                        -----------------------------------------
Magnitude (a.u.)       :      0.035355262
Magnitude (Debye)      :      0.089865935

Rotational constants in cm-1:             0.978220             0.282676             0.249932
Rotational constants in MHz :         29326.290164          8474.413578          7492.777146

                             ****ORCA TERMINATED NORMALLY****
TOTAL RUN TIME: 0 days 0 hours 0 minutes 32 seconds 194 msec
