                         Program Version 6.0.0  -   RELEASE  -
|  1> ! wb97x-v def2-tzvp def2/J RIJCOSX DEFGRID2 scfconv7 GCP(DFT/TZ) printgap
|  2> %output
|  3>     printlevel normal
|  4> end
|  5> %cpcm
|  6>     smd true
|  7>     smdsolvent "water"
|  8> end
|  9> * xyz 0 1
| 10> C -1.2672651474778285 0.2682211349394245 -6.585980122905245e-06
| 11> C 1.5404707966847466e-06 -0.5825212277967662 -2.645433956091836e-06
| 12> C 1.267272409512779 0.2682151023807609 1.209406912044622e-05
| 13> H -1.3034663259274604 0.9145298924342714 -0.8845171926255626
| 14> H -2.1703950011544992 -0.35105389171626 -3.550385300607798e-05
| 15> H -1.303497026236086 0.9144918976359867 0.8845304850238058
| 16> H -7.32456713887395e-06 -1.2397868124958271 0.878372196249706
| 17> H 6.789721360756165e-06 -1.2397758190614714 -0.8783857914176427
| 18> H 2.1703994092811993 -0.3510640099006215 4.0338929415780664e-05
| 19> H 1.303472668174259 0.9145176166044262 0.8845273522116325
| 20> H 1.3035105882272047 0.9144918582833055 -0.884520326565095
| 21> *
| 22>
| 23>                          ****END OF INPUT****

CARTESIAN COORDINATES (ANGSTROEM)
---------------------------------
  C     -1.267265    0.268221   -0.000007
  C      0.000002   -0.582521   -0.000003
  C      1.267272    0.268215    0.000012
  H     -1.303466    0.914530   -0.884517
  H     -2.170395   -0.351054   -0.000036
  H     -1.303497    0.914492    0.884530
  H     -0.000007   -1.239787    0.878372
  H      0.000007   -1.239776   -0.878386
  H      2.170399   -0.351064    0.000040
  H      1.303473    0.914518    0.884527
  H      1.303511    0.914492   -0.884520

 Total Charge           Charge          ....    0
 Multiplicity           Mult            ....    1
 Number of Electrons    NEL             ....   26
 Basis Dimension        Dim             ....  141

ORBITAL ENERGIES
----------------

  NO   OCC          E(Eh)            E(eV)
   0   2.0000     -12.032400      -327.4183
   1   2.0000     -12.024027      -327.1904
   2   2.0000     -12.023696      -327.1814
   3   2.0000      -1.275436       -34.7064
   4   2.0000      -1.164435       -31.6859
   5   2.0000      -1.049129       -28.5483
   6   2.0000      -0.870117       -23.6771
   7   2.0000      -0.857810       -23.3422
   8   2.0000      -0.828232       -22.5373
   9   2.0000      -0.796775       -21.6814
  10   2.0000      -0.772047       -21.0085
  11   2.0000      -0.758891       -20.6505
  12   2.0000      -0.738667       -20.1002
  13   0.0000      -0.000658        -0.0179
  14   0.0000       0.004980         0.1355
  15   0.0000       0.014910         0.4057
  16   0.0000       0.034140         0.9290
  17   0.0000       0.042993         1.1699

MULLIKEN ATOMIC CHARGES
-----------------------
   0 C :   -0.379088
   1 C :   -0.149069
   2 C :   -0.379088
   3 H :    0.116466
   4 H :    0.124471
   5 H :    0.116469
   6 H :    0.096217
   7 H :    0.096220
   8 H :    0.124469
   9 H :    0.116467
  10 H :    0.116467
Sum of atomic charges:    0.0000000

LOEWDIN ATOMIC CHARGES
----------------------
   0 C :   -0.319061
   1 C :   -0.322682
   2 C :   -0.319061
   3 H :    0.117215
   4 H :    0.116660
   5 H :    0.117215
   6 H :    0.129312
   7 H :    0.129312
   8 H :    0.116660
   9 H :    0.117214
  10 H :    0.117215

  Mayer bond orders larger than 0.100000
B(  0-C ,  1-C ) :   0.9819 B(  0-C ,  3-H ) :   0.9774 B(  0-C ,  4-H ) :   0.9779
B(  0-C ,  5-H ) :   0.9774 B(  1-C ,  2-C ) :   0.9819 B(  1-C ,  6-H ) :   0.9747
B(  1-C ,  7-H ) :   0.9747 B(  2-C ,  8-H ) :   0.9779 B(  2-C ,  9-H ) :   0.9774
B(  2-C , 10-H ) :   0.9774

FINAL SINGLE POINT ENERGY      -119.136234372032

DIPOLE MOMENT
-------------

Method             : SCF
Type of density    : Electron Density
Multiplicity       :   1
Irrep              :   0
Energy             :  -119.1438252573316845 Eh
Relativity type    :
Basis              : AO
                                X                 Y                 Z
Electronic contribution:     -0.000000322      -0.500366865      -0.000002845
Nuclear contribution   :      0.000000233       0.459387963       0.000003008
                        -----------------------------------------
Total Dipole Moment    :     -0.000000089      -0.040978901       0.000000163
                        -----------------------------------------
Magnitude (a.u.)       :      0.040978901
Magnitude (Debye)      :      0.104160090

Rotational constants in cm-1:             0.978220             0.282676             0.249932
Rotational constants in MHz :         29326.290164          8474.413578          7492.777146

                             ****ORCA TERMINATED NORMALLY****
TOTAL RUN TIME: 0 days 0 hours 0 minutes 32 seconds 632 msec
