                         Program Version 6.0.0  -   RELEASE  -
|  1> ! pbe def2-sv(p) def2/J RI DEFGRID1 loosescf d4 GCP(DFT/SV(P)) printgap
|  2> %output
|  3>     printlevel normal
|  4> end
|  5> * xyz 0 1
|  6> C 2.8941265875 2.1527873169 -1.6642772002
|  7> C 2.0593769041 0.8901247023 -1.6797128896
|  8> O 1.2835979491 0.7753796991 -0.4536338239
|  9> P 1.7660728424 -0.1286702846 0.7543294189
| 10> S 0.8999269447 0.2893666534 2.4580869904
| 11> O 3.3355707103 0.1249741015 0.768447032
| 12> C 4.1540166429 -0.2205220753 1.8989545862
| 13> C 4.2477753648 -1.719511497 2.094552759
| 14> S 1.6423177278 -2.1166313697 -0.0127242931
| 15> C -0.0174781009 -2.1002202172 -0.7457259952
| 16> S -1.3390391437 -1.5767447226 0.3939810064
| 17> P -1.8899467295 0.2536155307 -0.4947168453
| 18> S -1.3823678096 0.5468214354 -2.3670041986
| 19> O -1.3633612223 1.2950293528 0.5703527695
| 20> C -1.1700990614 2.6897733925 0.2703016869
| 21> C -2.4814052466 3.4114762072 0.0439867473
| 22> O -3.4582442845 0.329310734 -0.2329769253
| 23> C -4.430529792 -0.1919367701 -1.1555205841
| 24> C -4.3876920963 -1.7033627837 -1.2528346587
| 25> H 3.6219429606 2.1149238069 -0.858333832
| 26> H 3.4122841078 2.2406573577 -2.6140833387
| 27> H 2.2574781496 3.0222678092 -1.5230213909
| 28> H 2.686134473 0.0016810941 -1.7866275724
| 29> H 1.3132560866 0.9172501902 -2.4778117033
| 30> H 5.1247225792 0.2171554025 1.662237064
| 31> H 3.7336727857 0.2589296026 2.7886512632
| 32> H 3.2741393452 -2.1174598583 2.3785395843
| 33> H 4.5683719436 -2.2035957035 1.175612713
| 34> H 4.95930519 -1.9351706749 2.8850258035
| 35> H -0.2129775286 -3.1337939857 -1.0212263582
| 36> H -0.0381612042 -1.4498460508 -1.6242840761
| 37> H -0.6388430571 3.0681519769 1.1456272068
| 38> H -0.5248284825 2.7633725355 -0.6111980568
| 39> H -2.2903499956 4.4744605248 -0.0655632815
| 40> H -2.9588933702 3.0409589036 -0.8624310608
| 41> H -3.1483196327 3.2468676637 0.8863795354
| 42> H -5.3823929736 0.1584550773 -0.7541823231
| 43> H -4.251059738 0.2603055726 -2.13647379
| 44> H -4.445546674 -2.147638065 -0.2622498961
| 45> H -5.2253026332 -2.0458951485 -1.8519599055
| 46> H -3.4603814806 -2.0217652388 -1.7269335504
| 47> *
| 48>
| 49>                          ****END OF INPUT****

CARTESIAN COORDINATES (ANGSTROEM)
---------------------------------
  C      2.894127    2.152787   -1.664277
  C      2.059377    0.890125   -1.679713
  O      1.283598    0.775380   -0.453634
  P      1.766073   -0.128670    0.754329
  S      0.899927    0.289367    2.458087
  O      3.335571    0.124974    0.768447
  C      4.154017   -0.220522    1.898955
  C      4.247775   -1.719511    2.094553
  S      1.642318   -2.116631   -0.012724
  C     -0.017478   -2.100220   -0.745726
  S     -1.339039   -1.576745    0.393981
  P     -1.889947    0.253616   -0.494717
  S     -1.382368    0.546821   -2.367004
  O     -1.363361    1.295029    0.570353
  C     -1.170099    2.689773    0.270302
  C     -2.481405    3.411476    0.043987
  O     -3.458244    0.329311   -0.232977
  C     -4.430530   -0.191937   -1.155521
  C     -4.387692   -1.703363   -1.252835
  H      3.621943    2.114924   -0.858334
  H      3.412284    2.240657   -2.614083
  H      2.257478    3.022268   -1.523021
  H      2.686134    0.001681   -1.786628
  H      1.313256    0.917250   -2.477812
  H      5.124723    0.217155    1.662237
  H      3.733673    0.258930    2.788651
  H      3.274139   -2.117460    2.378540
  H      4.568372   -2.203596    1.175613
  H      4.959305   -1.935171    2.885026
  H     -0.212978   -3.133794   -1.021226
  H     -0.038161   -1.449846   -1.624284
  H     -0.638843    3.068152    1.145627
  H     -0.524828    2.763373   -0.611198
  H     -2.290350    4.474461   -0.065563
  H     -2.958893    3.040959   -0.862431
  H     -3.148320    3.246868    0.886380
  H     -5.382393    0.158455   -0.754182
  H     -4.251060    0.260306   -2.136474
  H     -4.445547   -2.147638   -0.262250
  H     -5.225303   -2.045895   -1.851960
  H     -3.460381   -2.021765   -1.726934

 Total Charge           Charge          ....    0
 Multiplicity           Mult            ....    1
 Number of Electrons    NEL             ....  202
 Basis Dimension        Dim             ....  334

ORBITAL ENERGIES
----------------

  NO   OCC          E(Eh)            E(eV)
   0   2.0000     -88.042179     -2395.7495
   1   2.0000     -88.038484     -2395.6489
   2   2.0000     -87.991821     -2394.3792
   3   2.0000     -87.978309     -2394.0115
   4   2.0000     -76.424952     -2079.6287
   5   2.0000     -76.422694     -2079.5672
   6   2.0000     -18.791851      -511.3523
   7   2.0000     -18.790808      -511.3239
   8   2.0000     -18.789881      -511.2986
   9   2.0000     -18.781030      -511.0578
  10   2.0000      -9.955917      -270.9143
  11   2.0000      -9.952073      -270.8097
  12   2.0000      -9.951090      -270.7829
  13   2.0000      -9.947574      -270.6872
  14   2.0000      -9.942711      -270.5549
  15   2.0000      -9.884950      -268.9832
  16   2.0000      -9.883204      -268.9357
  17   2.0000      -9.883188      -268.9352
  18   2.0000      -9.878526      -268.8083
  19   2.0000      -7.687112      -209.1769
  20   2.0000      -7.683626      -209.0821
  21   2.0000      -7.636616      -207.8029
  22   2.0000      -7.623426      -207.4440
  23   2.0000      -6.422503      -174.7652
  24   2.0000      -6.420081      -174.6993
  25   2.0000      -5.714969      -155.5122
  26   2.0000      -5.711791      -155.4257
  27   2.0000      -5.711589      -155.4202
  28   2.0000      -5.708004      -155.3227
  29   2.0000      -5.703875      -155.2103
  30   2.0000      -5.700657      -155.1228
  31   2.0000      -5.665180      -154.1574
  32   2.0000      -5.657598      -153.9511
  33   2.0000      -5.656727      -153.9274
  34   2.0000      -5.652570      -153.8143
  35   2.0000      -5.643881      -153.5778
  36   2.0000      -5.643530      -153.5683
  37   2.0000      -4.644699      -126.3887
  38   2.0000      -4.644136      -126.3734
  39   2.0000      -4.643452      -126.3548
  40   2.0000      -4.643236      -126.3489
  41   2.0000      -4.641875      -126.3118
  42   2.0000      -4.639983      -126.2604
  43   2.0000      -0.987192       -26.8629
  44   2.0000      -0.982249       -26.7284
  45   2.0000      -0.943694       -25.6792
  46   2.0000      -0.939370       -25.5616
  47   2.0000      -0.759885       -20.6775
  48   2.0000      -0.716997       -19.5105
  49   2.0000      -0.705902       -19.2086
  50   2.0000      -0.689245       -18.7553
  51   2.0000      -0.684000       -18.6126
  52   2.0000      -0.672645       -18.3036
  53   2.0000      -0.649609       -17.6768
  54   2.0000      -0.638418       -17.3722
  55   2.0000      -0.601433       -16.3658
  56   2.0000      -0.588626       -16.0173
  57   2.0000      -0.571562       -15.5530
  58   2.0000      -0.568164       -15.4605
  59   2.0000      -0.559351       -15.2207
  60   2.0000      -0.499662       -13.5965
  61   2.0000      -0.488757       -13.2997
  62   2.0000      -0.473347       -12.8804
  63   2.0000      -0.468637       -12.7523
  64   2.0000      -0.450728       -12.2649
  65   2.0000      -0.447732       -12.1834
  66   2.0000      -0.436860       -11.8876
  67   2.0000      -0.434497       -11.8233
  68   2.0000      -0.423246       -11.5171
  69   2.0000      -0.419071       -11.4035
  70   2.0000      -0.411228       -11.1901
  71   2.0000      -0.391020       -10.6402
  72   2.0000      -0.387989       -10.5577
  73   2.0000      -0.386240       -10.5101
  74   2.0000      -0.382565       -10.4101
  75   2.0000      -0.378453       -10.2982
  76   2.0000      -0.361583        -9.8392
  77   2.0000      -0.356175        -9.6920
  78   2.0000      -0.354679        -9.6513
  79   2.0000      -0.350982        -9.5507
  80   2.0000      -0.346524        -9.4294
  81   2.0000      -0.341144        -9.2830
  82   2.0000      -0.339007        -9.2248
  83   2.0000      -0.335475        -9.1287
  84   2.0000      -0.330928        -9.0050
  85   2.0000      -0.317263        -8.6332
  86   2.0000      -0.308979        -8.4078
  87   2.0000      -0.297902        -8.1063
  88   2.0000      -0.293337        -7.9821
  89   2.0000      -0.291577        -7.9342
  90   2.0000      -0.277563        -7.5529
  91   2.0000      -0.267968        -7.2918
  92   2.0000      -0.265159        -7.2153
  93   2.0000      -0.263292        -7.1645
  94   2.0000      -0.257304        -7.0016
  95   2.0000      -0.237644        -6.4666
  96   2.0000      -0.221912        -6.0385
  97   2.0000      -0.209629        -5.7043
  98   2.0000      -0.205606        -5.5948
  99   2.0000      -0.192929        -5.2499
 100   2.0000      -0.187007        -5.0887
 101   0.0000      -0.044831        -1.2199
 102   0.0000      -0.031259        -0.8506
 103   0.0000      -0.012372        -0.3367
 104   0.0000       0.007551         0.2055
 105   0.0000       0.020345         0.5536

MULLIKEN ATOMIC CHARGES
-----------------------
   0 C :   -0.287487
   1 C :   -0.022994
   2 O :   -0.365760
   3 P :    0.593382
   4 S :   -0.283515
   5 O :   -0.381497
   6 C :    0.000193
   7 C :   -0.328202
   8 S :   -0.109866
   9 C :   -0.352662
  10 S :   -0.066254
  11 P :    0.628718
  12 S :   -0.345413
  13 O :   -0.343707
  14 C :   -0.007018
  15 C :   -0.303775
  16 O :   -0.371743
  17 C :   -0.003458
  18 C :   -0.308793
  19 H :    0.118303
  20 H :    0.108339
  21 H :    0.118162
  22 H :    0.100911
  23 H :    0.120771
  24 H :    0.102980
  25 H :    0.111832
  26 H :    0.133810
  27 H :    0.120065
  28 H :    0.116603
  29 H :    0.180902
  30 H :    0.197237
  31 H :    0.106951
  32 H :    0.114224
  33 H :    0.108530
  34 H :    0.117369
  35 H :    0.118671
  36 H :    0.105592
  37 H :    0.109160
  38 H :    0.120751
  39 H :    0.111404
  40 H :    0.117287
Sum of atomic charges:   -0.0000000

LOEWDIN ATOMIC CHARGES
----------------------
   0 C :   -0.356707
   1 C :   -0.125344
   2 O :   -0.237058
   3 P :    0.564693
   4 S :   -0.293557
   5 O :   -0.246768
   6 C :   -0.120424
   7 C :   -0.373076
   8 S :    0.061165
   9 C :   -0.482234
  10 S :    0.109738
  11 P :    0.577079
  12 S :   -0.309037
  13 O :   -0.222728
  14 C :   -0.116269
  15 C :   -0.364751
  16 O :   -0.244090
  17 C :   -0.119063
  18 C :   -0.369326
  19 H :    0.124632
  20 H :    0.129810
  21 H :    0.125664
  22 H :    0.105569
  23 H :    0.110448
  24 H :    0.117402
  25 H :    0.111016
  26 H :    0.123185
  27 H :    0.124074
  28 H :    0.133149
  29 H :    0.137940
  30 H :    0.120381
  31 H :    0.119416
  32 H :    0.107443
  33 H :    0.128740
  34 H :    0.120206
  35 H :    0.127356
  36 H :    0.119006
  37 H :    0.108880
  38 H :    0.125353
  39 H :    0.129928
  40 H :    0.118157

  Mayer bond orders larger than 0.100000
B(  0-C ,  1-C ) :   1.1698 B(  0-C , 19-H ) :   0.9424 B(  0-C , 20-H ) :   0.9397
B(  0-C , 21-H ) :   0.9482 B(  1-C ,  2-O ) :   0.8820 B(  1-C , 22-H ) :   0.9112
B(  1-C , 23-H ) :   0.9078 B(  2-O ,  3-P ) :   1.1049 B(  3-P ,  4-S ) :   1.6783
B(  3-P ,  5-O ) :   1.0631 B(  3-P ,  8-S ) :   0.9520 B(  4-S ,  8-S ) :   0.1101
B(  5-O ,  6-C ) :   0.9087 B(  6-C ,  7-C ) :   1.1658 B(  6-C , 24-H ) :   0.9324
B(  6-C , 25-H ) :   0.9128 B(  7-C , 26-H ) :   0.9310 B(  7-C , 27-H ) :   0.9429
B(  7-C , 28-H ) :   0.9377 B(  8-S ,  9-C ) :   0.9887 B(  9-C , 10-S ) :   1.0107
B(  9-C , 29-H ) :   0.9124 B(  9-C , 30-H ) :   0.8555 B( 10-S , 11-P ) :   0.9752
B( 10-S , 12-S ) :   0.1151 B( 11-P , 12-S ) :   1.5501 B( 11-P , 13-O ) :   1.1609
B( 11-P , 16-O ) :   1.1022 B( 12-S , 30-H ) :   0.1048 B( 13-O , 14-C ) :   0.9030
B( 14-C , 15-C ) :   1.1594 B( 14-C , 31-H ) :   0.9303 B( 14-C , 32-H ) :   0.9164
B( 15-C , 33-H ) :   0.9398 B( 15-C , 34-H ) :   0.9388 B( 15-C , 35-H ) :   0.9451
B( 16-O , 17-C ) :   0.9138 B( 17-C , 18-C ) :   1.1674 B( 17-C , 36-H ) :   0.9341
B( 17-C , 37-H ) :   0.9162 B( 18-C , 38-H ) :   0.9432 B( 18-C , 39-H ) :   0.9375
B( 18-C , 40-H ) :   0.9387

Dispersion correction           -0.069562605
FINAL SINGLE POINT ENERGY     -2929.516793189111

DIPOLE MOMENT
-------------

Method             : SCF
Type of density    : Electron Density
Multiplicity       :   1
Irrep              :   0
Energy             : -2929.6352554912855339 Eh
Relativity type    :
Basis              : AO
                                X                 Y                 Z
Electronic contribution:     -2.014404721      -8.160423227       6.349552091
Nuclear contribution   :      2.340325317       8.198955396      -7.041765240
                        -----------------------------------------
Total Dipole Moment    :      0.325920596       0.038532169      -0.692213149
                        -----------------------------------------
Magnitude (a.u.)       :      0.766073108
Magnitude (Debye)      :      1.947203093

Rotational constants in cm-1:             0.012826             0.005683             0.005188
Rotational constants in MHz :           384.513396           170.363170           155.531863

                             ****ORCA TERMINATED NORMALLY****
TOTAL RUN TIME: 0 days 0 hours 0 minutes 22 seconds 338 msec
