                         Program Version 6.0.0  -   RELEASE  -
|  1> ! r2scan-3c def2/J RI DEFGRID2 scfconv6 printgap
|  2> %output
|  3>     printlevel normal
|  4> end
|  5> * xyz 0 1
|  6> C 5.6699639029 0.9817571929 -1.5644577687
|  7> C 4.2555588041 0.4434725591 -1.6382353522
|  8> O 3.7119866996 0.4502894408 -0.3019657937
|  9> P 2.1519756125 0.3020174231 -0.0375606237
| 10> S 1.0151983527 1.5989102767 -0.9618524053
| 11> O 2.0748564939 0.4503660368 1.5251129542
| 12> C 2.8389762998 -0.3798659109 2.4427260197
| 13> C 1.9141793506 -1.322375081 3.1851191497
| 14> S 1.8222414526 -1.7508701575 -0.5199899785
| 15> C 0.0344448037 -1.6853385026 -0.7239492035
| 16> S -0.7984327229 -1.1316407798 0.8098156757
| 17> P -2.3923340328 -0.0657453726 -0.0435877124
| 18> S -2.286910359 0.4343660795 -1.942123768
| 19> O -2.7174352349 1.1424657074 0.941192102
| 20> C -2.0387539978 2.4095771931 0.9281547883
| 21> C -0.9990929173 2.4695838656 2.0296515325
| 22> O -3.5556780614 -1.0665682689 0.3445269547
| 23> C -4.9130081969 -0.8753806822 -0.1170992132
| 24> C -5.1967504282 -1.7783487616 -1.30110111
| 25> H 6.2695013615 0.3608019432 -0.9055373981
| 26> H 6.1046979665 0.9767944586 -2.5585196434
| 27> H 5.6625095299 1.9982029179 -1.1811020757
| 28> H 4.2361749034 -0.5850049915 -2.0085768429
| 29> H 3.6208630338 1.0669977883 -2.276565195
| 30> H 3.598646974 -0.9265217084 1.8808184217
| 31> H 3.3191536549 0.3265204884 3.1211462849
| 32> H 1.1331215789 -0.7614186102 3.6901160452
| 33> H 1.4437167812 -2.0204324602 2.4965397179
| 34> H 2.4904906141 -1.8772205745 3.9183605025
| 35> H -0.2838957223 -2.69659844 -0.9643257063
| 36> H -0.2234605229 -0.9856844204 -1.5244277243
| 37> H -1.5838486072 2.5686024577 -0.0555270531
| 38> H -2.8251805058 3.1500012391 1.0873411051
| 39> H -0.5858950783 3.472246951 2.0716525732
| 40> H -1.4551481363 2.2219940109 2.984015698
| 41> H -0.1898592429 1.7690584509 1.8306498082
| 42> H -5.536474501 -1.1309931599 0.7411593107
| 43> H -5.061516291 0.1757513716 -0.3783979191
| 44> H -4.9970082644 -2.8125338951 -1.0357658361
| 45> H -6.2374679963 -1.6739316837 -1.5905825257
| 46> H -4.5641867059 -1.5013530528 -2.1419316238
| 47> *
| 48>
| 49>                          ****END OF INPUT****

CARTESIAN COORDINATES (ANGSTROEM)
---------------------------------
  C      5.669964    0.981757   -1.564458
  C      4.255559    0.443473   -1.638235
  O      3.711987    0.450289   -0.301966
  P      2.151976    0.302017   -0.037561
  S      1.015198    1.598910   -0.961852
  O      2.074856    0.450366    1.525113
  C      2.838976   -0.379866    2.442726
  C      1.914179   -1.322375    3.185119
  S      1.822241   -1.750870   -0.519990
  C      0.034445   -1.685339   -0.723949
  S     -0.798433   -1.131641    0.809816
  P     -2.392334   -0.065745   -0.043588
  S     -2.286910    0.434366   -1.942124
  O     -2.717435    1.142466    0.941192
  C     -2.038754    2.409577    0.928155
  C     -0.999093    2.469584    2.029652
  O     -3.555678   -1.066568    0.344527
  C     -4.913008   -0.875381   -0.117099
  C     -5.196750   -1.778349   -1.301101
  H      6.269501    0.360802   -0.905537
  H      6.104698    0.976794   -2.558520
  H      5.662510    1.998203   -1.181102
  H      4.236175   -0.585005   -2.008577
  H      3.620863    1.066998   -2.276565
  H      3.598647   -0.926522    1.880818
  H      3.319154    0.326520    3.121146
  H      1.133122   -0.761419    3.690116
  H      1.443717   -2.020432    2.496540
  H      2.490491   -1.877221    3.918361
  H     -0.283896   -2.696598   -0.964326
  H     -0.223461   -0.985684   -1.524428
  H     -1.583849    2.568602   -0.055527
  H     -2.825181    3.150001    1.087341
  H     -0.585895    3.472247    2.071653
  H     -1.455148    2.221994    2.984016
  H     -0.189859    1.769058    1.830650
  H     -5.536475   -1.130993    0.741159
  H     -5.061516    0.175751   -0.378398
  H     -4.997008   -2.812534   -1.035766
  H     -6.237468   -1.673932   -1.590583
  H     -4.564187   -1.501353   -2.141932

 Total Charge           Charge          ....    0
 Multiplicity           Mult            ....    1
 Number of Electrons    NEL             ....  202
 Basis Dimension        Dim             ....  539

ORBITAL ENERGIES
----------------

  NO   OCC          E(Eh)            E(eV)
   0   2.0000     -88.579999     -2410.3843
   1   2.0000     -88.572528     -2410.1810
   2   2.0000     -88.515967     -2408.6419
   3   2.0000     -88.513482     -2408.5743
   4   2.0000     -76.914128     -2092.9398
   5   2.0000     -76.907617     -2092.7627
   6   2.0000     -18.994194      -516.8583
   7   2.0000     -18.994151      -516.8571
   8   2.0000     -18.983895      -516.5780
   9   2.0000     -18.980446      -516.4842
  10   2.0000     -10.106076      -275.0003
  11   2.0000     -10.104368      -274.9538
  12   2.0000     -10.100846      -274.8580
  13   2.0000     -10.093258      -274.6515
  14   2.0000     -10.085563      -274.4421
  15   2.0000     -10.035015      -273.0666
  16   2.0000     -10.032436      -272.9965
  17   2.0000     -10.021039      -272.6863
  18   2.0000     -10.013695      -272.4865
  19   2.0000      -7.874285      -214.2702
  20   2.0000      -7.867010      -214.0722
  21   2.0000      -7.810679      -212.5394
  22   2.0000      -7.808208      -212.4721
  23   2.0000      -6.592578      -179.3932
  24   2.0000      -6.585986      -179.2138
  25   2.0000      -5.821148      -158.4015
  26   2.0000      -5.817948      -158.3144
  27   2.0000      -5.813799      -158.2015
  28   2.0000      -5.811624      -158.1423
  29   2.0000      -5.811014      -158.1257
  30   2.0000      -5.803997      -157.9348
  31   2.0000      -5.758485      -156.6963
  32   2.0000      -5.755868      -156.6251
  33   2.0000      -5.750775      -156.4865
  34   2.0000      -5.750710      -156.4848
  35   2.0000      -5.748665      -156.4291
  36   2.0000      -5.748029      -156.4118
  37   2.0000      -4.738329      -128.9365
  38   2.0000      -4.737677      -128.9187
  39   2.0000      -4.735903      -128.8705
  40   2.0000      -4.731419      -128.7485
  41   2.0000      -4.730906      -128.7345
  42   2.0000      -4.729802      -128.7045
  43   2.0000      -1.053870       -28.6773
  44   2.0000      -1.041484       -28.3402
  45   2.0000      -1.012455       -27.5503
  46   2.0000      -1.000559       -27.2266
  47   2.0000      -0.800221       -21.7751
  48   2.0000      -0.760163       -20.6851
  49   2.0000      -0.747378       -20.3372
  50   2.0000      -0.737982       -20.0815
  51   2.0000      -0.721005       -19.6195
  52   2.0000      -0.707988       -19.2653
  53   2.0000      -0.682633       -18.5754
  54   2.0000      -0.662200       -18.0194
  55   2.0000      -0.622523       -16.9397
  56   2.0000      -0.615838       -16.7578
  57   2.0000      -0.608661       -16.5625
  58   2.0000      -0.597083       -16.2474
  59   2.0000      -0.591285       -16.0897
  60   2.0000      -0.536575       -14.6010
  61   2.0000      -0.520339       -14.1591
  62   2.0000      -0.500922       -13.6308
  63   2.0000      -0.485586       -13.2135
  64   2.0000      -0.469263       -12.7693
  65   2.0000      -0.465373       -12.6634
  66   2.0000      -0.456204       -12.4140
  67   2.0000      -0.454635       -12.3712
  68   2.0000      -0.446355       -12.1459
  69   2.0000      -0.429741       -11.6938
  70   2.0000      -0.422512       -11.4971
  71   2.0000      -0.408079       -11.1044
  72   2.0000      -0.403650       -10.9839
  73   2.0000      -0.400140       -10.8884
  74   2.0000      -0.390452       -10.6247
  75   2.0000      -0.386844       -10.5266
  76   2.0000      -0.382555       -10.4098
  77   2.0000      -0.371076       -10.0975
  78   2.0000      -0.368117       -10.0170
  79   2.0000      -0.367435        -9.9984
  80   2.0000      -0.361002        -9.8234
  81   2.0000      -0.357255        -9.7214
  82   2.0000      -0.350272        -9.5314
  83   2.0000      -0.348804        -9.4915
  84   2.0000      -0.338561        -9.2127
  85   2.0000      -0.329493        -8.9660
  86   2.0000      -0.319803        -8.7023
  87   2.0000      -0.316607        -8.6153
  88   2.0000      -0.315158        -8.5759
  89   2.0000      -0.301257        -8.1976
  90   2.0000      -0.295857        -8.0507
  91   2.0000      -0.292626        -7.9628
  92   2.0000      -0.283501        -7.7145
  93   2.0000      -0.276954        -7.5363
  94   2.0000      -0.271238        -7.3808
  95   2.0000      -0.246438        -6.7059
  96   2.0000      -0.235800        -6.4164
  97   2.0000      -0.223223        -6.0742
  98   2.0000      -0.212891        -5.7931
  99   2.0000      -0.207833        -5.6554
 100   2.0000      -0.198593        -5.4040
 101   0.0000      -0.047528        -1.2933
 102   0.0000      -0.033905        -0.9226
 103   0.0000      -0.006362        -0.1731
 104   0.0000       0.010094         0.2747
 105   0.0000       0.017522         0.4768

MULLIKEN ATOMIC CHARGES
-----------------------
   0 C :   -0.438728
   1 C :   -0.157797
   2 O :   -0.292123
   3 P :    0.679157
   4 S :   -0.413925
   5 O :   -0.276303
   6 C :   -0.118359
   7 C :   -0.446055
   8 S :   -0.177609
   9 C :   -0.228286
  10 S :   -0.125614
  11 P :    0.672095
  12 S :   -0.459206
  13 O :   -0.278069
  14 C :   -0.154157
  15 C :   -0.441324
  16 O :   -0.297126
  17 C :   -0.129093
  18 C :   -0.449217
  19 H :    0.150253
  20 H :    0.147632
  21 H :    0.159525
  22 H :    0.149996
  23 H :    0.171889
  24 H :    0.155680
  25 H :    0.154764
  26 H :    0.161111
  27 H :    0.162447
  28 H :    0.145925
  29 H :    0.189952
  30 H :    0.222841
  31 H :    0.173261
  32 H :    0.143966
  33 H :    0.143933
  34 H :    0.144517
  35 H :    0.181712
  36 H :    0.147940
  37 H :    0.152013
  38 H :    0.150202
  39 H :    0.143159
  40 H :    0.179023
Sum of atomic charges:    0.0000000

LOEWDIN ATOMIC CHARGES
----------------------
   0 C :   -0.385276
   1 C :    0.019938
   2 O :   -0.676133
   3 P :    0.371626
   4 S :   -0.080693
   5 O :   -0.660420
   6 C :    0.026309
   7 C :   -0.400115
   8 S :    0.126510
   9 C :   -0.410666
  10 S :    0.173239
  11 P :    0.375262
  12 S :   -0.125920
  13 O :   -0.659533
  14 C :    0.019413
  15 C :   -0.405979
  16 O :   -0.672093
  17 C :    0.024601
  18 C :   -0.400173
  19 H :    0.158419
  20 H :    0.160528
  21 H :    0.162357
  22 H :    0.171430
  23 H :    0.181495
  24 H :    0.176758
  25 H :    0.181299
  26 H :    0.162901
  27 H :    0.162954
  28 H :    0.158814
  29 H :    0.178302
  30 H :    0.200565
  31 H :    0.183658
  32 H :    0.174887
  33 H :    0.160919
  34 H :    0.155028
  35 H :    0.173667
  36 H :    0.177362
  37 H :    0.175613
  38 H :    0.157929
  39 H :    0.157345
  40 H :    0.167871

  Mayer bond orders larger than 0.100000
B(  0-C ,  1-C ) :   0.9574 B(  0-C , 19-H ) :   0.9719 B(  0-C , 20-H ) :   0.9639
B(  0-C , 21-H ) :   0.9711 B(  1-C ,  2-O ) :   0.7863 B(  1-C , 22-H ) :   0.9417
B(  1-C , 23-H ) :   0.9502 B(  2-O ,  3-P ) :   1.0696 B(  3-P ,  4-S ) :   1.8432
B(  3-P ,  5-O ) :   1.1461 B(  3-P ,  8-S ) :   0.9607 B(  5-O ,  6-C ) :   0.7426
B(  6-C ,  7-C ) :   0.9493 B(  6-C , 24-H ) :   0.9724 B(  6-C , 25-H ) :   0.9574
B(  7-C , 26-H ) :   0.9667 B(  7-C , 27-H ) :   0.9632 B(  7-C , 28-H ) :   0.9632
B(  8-S ,  9-C ) :   0.9294 B(  9-C , 10-S ) :   0.8989 B(  9-C , 29-H ) :   0.9146
B(  9-C , 30-H ) :   0.9020 B( 10-S , 11-P ) :   1.0835 B( 11-P , 12-S ) :   1.7542
B( 11-P , 13-O ) :   1.0878 B( 11-P , 16-O ) :   1.1833 B( 13-O , 14-C ) :   0.7711
B( 14-C , 15-C ) :   0.9487 B( 14-C , 31-H ) :   0.9548 B( 14-C , 32-H ) :   0.9659
B( 15-C , 33-H ) :   0.9642 B( 15-C , 34-H ) :   0.9752 B( 15-C , 35-H ) :   0.9509
B( 16-O , 17-C ) :   0.7672 B( 17-C , 18-C ) :   0.9556 B( 17-C , 36-H ) :   0.9630
B( 17-C , 37-H ) :   0.9646 B( 18-C , 38-H ) :   0.9737 B( 18-C , 39-H ) :   0.9662
B( 18-C , 40-H ) :   0.9598

Dispersion correction           -0.021461185
FINAL SINGLE POINT ENERGY     -2932.459454531618

DIPOLE MOMENT
-------------

Method             : SCF
Type of density    : Electron Density
Multiplicity       :   1
Irrep              :   0
Energy             : -2932.4844200955712950 Eh
Relativity type    :
Basis              : AO
                                X                 Y                 Z
Electronic contribution:     -3.456152194      -1.509076463      -6.092248894
Nuclear contribution   :      4.281649531       0.874259026       6.940679195
                        -----------------------------------------
Total Dipole Moment    :      0.825497337      -0.634817437       0.848430302
                        -----------------------------------------
Magnitude (a.u.)       :      1.343232299
Magnitude (Debye)      :      3.414225170

Rotational constants in cm-1:             0.013243             0.004656             0.004561
Rotational constants in MHz :           397.004076           139.569902           136.734491

                             ****ORCA TERMINATED NORMALLY****
TOTAL RUN TIME: 0 days 0 hours 1 minutes 21 seconds 750 msec
