                         Program Version 6.0.0  -   RELEASE  -
|  1> ! r2scan-3c def2/J RI DEFGRID2 scfconv6 printgap
|  2> %output
|  3>     printlevel normal
|  4> end
|  5> %cpcm
|  6>     smd true
|  7>     smdsolvent "water"
|  8> end
|  9> * xyz 0 1
| 10> C 5.6699639029 0.9817571929 -1.5644577687
| 11> C 4.2555588041 0.4434725591 -1.6382353522
| 12> O 3.7119866996 0.4502894408 -0.3019657937
| 13> P 2.1519756125 0.3020174231 -0.0375606237
| 14> S 1.0151983527 1.5989102767 -0.9618524053
| 15> O 2.0748564939 0.4503660368 1.5251129542
| 16> C 2.8389762998 -0.3798659109 2.4427260197
| 17> C 1.9141793506 -1.322375081 3.1851191497
| 18> S 1.8222414526 -1.7508701575 -0.5199899785
| 19> C 0.0344448037 -1.6853385026 -0.7239492035
| 20> S -0.7984327229 -1.1316407798 0.8098156757
| 21> P -2.3923340328 -0.0657453726 -0.0435877124
| 22> S -2.286910359 0.4343660795 -1.942123768
| 23> O -2.7174352349 1.1424657074 0.941192102
| 24> C -2.0387539978 2.4095771931 0.9281547883
| 25> C -0.9990929173 2.4695838656 2.0296515325
| 26> O -3.5556780614 -1.0665682689 0.3445269547
| 27> C -4.9130081969 -0.8753806822 -0.1170992132
| 28> C -5.1967504282 -1.7783487616 -1.30110111
| 29> H 6.2695013615 0.3608019432 -0.9055373981
| 30> H 6.1046979665 0.9767944586 -2.5585196434
| 31> H 5.6625095299 1.9982029179 -1.1811020757
| 32> H 4.2361749034 -0.5850049915 -2.0085768429
| 33> H 3.6208630338 1.0669977883 -2.276565195
| 34> H 3.598646974 -0.9265217084 1.8808184217
| 35> H 3.3191536549 0.3265204884 3.1211462849
| 36> H 1.1331215789 -0.7614186102 3.6901160452
| 37> H 1.4437167812 -2.0204324602 2.4965397179
| 38> H 2.4904906141 -1.8772205745 3.9183605025
| 39> H -0.2838957223 -2.69659844 -0.9643257063
| 40> H -0.2234605229 -0.9856844204 -1.5244277243
| 41> H -1.5838486072 2.5686024577 -0.0555270531
| 42> H -2.8251805058 3.1500012391 1.0873411051
| 43> H -0.5858950783 3.472246951 2.0716525732
| 44> H -1.4551481363 2.2219940109 2.984015698
| 45> H -0.1898592429 1.7690584509 1.8306498082
| 46> H -5.536474501 -1.1309931599 0.7411593107
| 47> H -5.061516291 0.1757513716 -0.3783979191
| 48> H -4.9970082644 -2.8125338951 -1.0357658361
| 49> H -6.2374679963 -1.6739316837 -1.5905825257
| 50> H -4.5641867059 -1.5013530528 -2.1419316238
| 51> *
| 52>
| 53>                          ****END OF INPUT****

CARTESIAN COORDINATES (ANGSTROEM)
---------------------------------
  C      5.669964    0.981757   -1.564458
  C      4.255559    0.443473   -1.638235
  O      3.711987    0.450289   -0.301966
  P      2.151976    0.302017   -0.037561
  S      1.015198    1.598910   -0.961852
  O      2.074856    0.450366    1.525113
  C      2.838976   -0.379866    2.442726
  C      1.914179   -1.322375    3.185119
  S      1.822241   -1.750870   -0.519990
  C      0.034445   -1.685339   -0.723949
  S     -0.798433   -1.131641    0.809816
  P     -2.392334   -0.065745   -0.043588
  S     -2.286910    0.434366   -1.942124
  O     -2.717435    1.142466    0.941192
  C     -2.038754    2.409577    0.928155
  C     -0.999093    2.469584    2.029652
  O     -3.555678   -1.066568    0.344527
  C     -4.913008   -0.875381   -0.117099
  C     -5.196750   -1.778349   -1.301101
  H      6.269501    0.360802   -0.905537
  H      6.104698    0.976794   -2.558520
  H      5.662510    1.998203   -1.181102
  H      4.236175   -0.585005   -2.008577
  H      3.620863    1.066998   -2.276565
  H      3.598647   -0.926522    1.880818
  H      3.319154    0.326520    3.121146
  H      1.133122   -0.761419    3.690116
  H      1.443717   -2.020432    2.496540
  H      2.490491   -1.877221    3.918361
  H     -0.283896   -2.696598   -0.964326
  H     -0.223461   -0.985684   -1.524428
  H     -1.583849    2.568602   -0.055527
  H     -2.825181    3.150001    1.087341
  H     -0.585895    3.472247    2.071653
  H     -1.455148    2.221994    2.984016
  H     -0.189859    1.769058    1.830650
  H     -5.536475   -1.130993    0.741159
  H     -5.061516    0.175751   -0.378398
  H     -4.997008   -2.812534   -1.035766
  H     -6.237468   -1.673932   -1.590583
  H     -4.564187   -1.501353   -2.141932

 Total Charge           Charge          ....    0
 Multiplicity           Mult            ....    1
 Number of Electrons    NEL             ....  202
 Basis Dimension        Dim             ....  539

ORBITAL ENERGIES
----------------

  NO   OCC          E(Eh)            E(eV)
   0   2.0000     -88.582146     -2410.4427
   1   2.0000     -88.579240     -2410.3636
   2   2.0000     -88.525590     -2408.9038
   3   2.0000     -88.525048     -2408.8890
   4   2.0000     -76.918853     -2093.0684
   5   2.0000     -76.917740     -2093.0381
   6   2.0000     -18.995666      -516.8983
   7   2.0000     -18.994711      -516.8724
   8   2.0000     -18.993307      -516.8341
   9   2.0000     -18.989290      -516.7248
  10   2.0000     -10.104512      -274.9578
  11   2.0000     -10.093616      -274.6613
  12   2.0000     -10.090780      -274.5841
  13   2.0000     -10.089063      -274.5374
  14   2.0000     -10.086963      -274.4802
  15   2.0000     -10.019831      -272.6535
  16   2.0000     -10.019327      -272.6398
  17   2.0000     -10.016350      -272.5587
  18   2.0000     -10.014461      -272.5073
  19   2.0000      -7.876345      -214.3262
  20   2.0000      -7.873682      -214.2538
  21   2.0000      -7.820621      -212.8099
  22   2.0000      -7.820105      -212.7959
  23   2.0000      -6.597351      -179.5230
  24   2.0000      -6.596178      -179.4911
  25   2.0000      -5.823237      -158.4583
  26   2.0000      -5.820461      -158.3828
  27   2.0000      -5.820045      -158.3715
  28   2.0000      -5.817648      -158.3063
  29   2.0000      -5.813629      -158.1969
  30   2.0000      -5.810733      -158.1181
  31   2.0000      -5.768214      -156.9611
  32   2.0000      -5.767787      -156.9495
  33   2.0000      -5.761058      -156.7664
  34   2.0000      -5.760473      -156.7504
  35   2.0000      -5.760238      -156.7440
  36   2.0000      -5.760154      -156.7418
  37   2.0000      -4.743045      -129.0648
  38   2.0000      -4.742423      -129.0479
  39   2.0000      -4.741602      -129.0255
  40   2.0000      -4.741070      -129.0111
  41   2.0000      -4.740802      -129.0038
  42   2.0000      -4.740052      -128.9834
  43   2.0000      -1.054703       -28.6999
  44   2.0000      -1.050367       -28.5819
  45   2.0000      -1.012536       -27.5525
  46   2.0000      -1.008953       -27.4550
  47   2.0000      -0.802861       -21.8470
  48   2.0000      -0.757266       -20.6063
  49   2.0000      -0.746077       -20.3018
  50   2.0000      -0.726861       -19.7789
  51   2.0000      -0.721210       -19.6251
  52   2.0000      -0.709694       -19.3118
  53   2.0000      -0.687402       -18.7052
  54   2.0000      -0.670838       -18.2544
  55   2.0000      -0.625306       -17.0154
  56   2.0000      -0.612285       -16.6611
  57   2.0000      -0.599744       -16.3199
  58   2.0000      -0.598123       -16.2757
  59   2.0000      -0.590749       -16.0751
  60   2.0000      -0.532230       -14.4827
  61   2.0000      -0.523102       -14.2343
  62   2.0000      -0.495384       -13.4801
  63   2.0000      -0.489536       -13.3209
  64   2.0000      -0.469090       -12.7646
  65   2.0000      -0.466228       -12.6867
  66   2.0000      -0.453457       -12.3392
  67   2.0000      -0.449397       -12.2287
  68   2.0000      -0.446105       -12.1391
  69   2.0000      -0.430635       -11.7182
  70   2.0000      -0.421912       -11.4808
  71   2.0000      -0.412640       -11.2285
  72   2.0000      -0.397928       -10.8282
  73   2.0000      -0.394013       -10.7216
  74   2.0000      -0.390399       -10.6233
  75   2.0000      -0.389658       -10.6031
  76   2.0000      -0.380132       -10.3439
  77   2.0000      -0.368837       -10.0366
  78   2.0000      -0.363177        -9.8825
  79   2.0000      -0.358131        -9.7452
  80   2.0000      -0.354839        -9.6557
  81   2.0000      -0.354390        -9.6434
  82   2.0000      -0.347355        -9.4520
  83   2.0000      -0.345663        -9.4060
  84   2.0000      -0.341641        -9.2965
  85   2.0000      -0.325191        -8.8489
  86   2.0000      -0.319920        -8.7055
  87   2.0000      -0.315839        -8.5944
  88   2.0000      -0.309332        -8.4174
  89   2.0000      -0.303833        -8.2677
  90   2.0000      -0.300088        -8.1658
  91   2.0000      -0.290681        -7.9098
  92   2.0000      -0.288640        -7.8543
  93   2.0000      -0.278979        -7.5914
  94   2.0000      -0.275406        -7.4942
  95   2.0000      -0.250308        -6.8112
  96   2.0000      -0.243567        -6.6278
  97   2.0000      -0.234191        -6.3727
  98   2.0000      -0.222258        -6.0480
  99   2.0000      -0.218902        -5.9566
 100   2.0000      -0.209874        -5.7110
 101   0.0000      -0.051724        -1.4075
 102   0.0000      -0.041532        -1.1302
 103   0.0000      -0.011406        -0.3104
 104   0.0000       0.008295         0.2257
 105   0.0000       0.012775         0.3476

MULLIKEN ATOMIC CHARGES
-----------------------
   0 C :   -0.481048
   1 C :   -0.146913
   2 O :   -0.312221
   3 P :    0.690978
   4 S :   -0.469189
   5 O :   -0.302992
   6 C :   -0.113031
   7 C :   -0.486297
   8 S :   -0.170014
   9 C :   -0.227166
  10 S :   -0.138385
  11 P :    0.703142
  12 S :   -0.508854
  13 O :   -0.302048
  14 C :   -0.141430
  15 C :   -0.485459
  16 O :   -0.330872
  17 C :   -0.128438
  18 C :   -0.485704
  19 H :    0.166001
  20 H :    0.169585
  21 H :    0.166330
  22 H :    0.168975
  23 H :    0.172259
  24 H :    0.174823
  25 H :    0.179722
  26 H :    0.171640
  27 H :    0.160248
  28 H :    0.171774
  29 H :    0.231575
  30 H :    0.217182
  31 H :    0.167373
  32 H :    0.172142
  33 H :    0.168185
  34 H :    0.163265
  35 H :    0.169822
  36 H :    0.173649
  37 H :    0.166880
  38 H :    0.165116
  39 H :    0.169232
  40 H :    0.170164
Sum of atomic charges:    0.0000000

LOEWDIN ATOMIC CHARGES
----------------------
   0 C :   -0.388898
   1 C :    0.024131
   2 O :   -0.685374
   3 P :    0.373302
   4 S :   -0.122065
   5 O :   -0.676610
   6 C :    0.033244
   7 C :   -0.402181
   8 S :    0.139705
   9 C :   -0.404949
  10 S :    0.170552
  11 P :    0.378963
  12 S :   -0.158887
  13 O :   -0.671227
  14 C :    0.022357
  15 C :   -0.410526
  16 O :   -0.689715
  17 C :    0.028750
  18 C :   -0.404125
  19 H :    0.163172
  20 H :    0.169078
  21 H :    0.163225
  22 H :    0.179391
  23 H :    0.181182
  24 H :    0.184197
  25 H :    0.191955
  26 H :    0.164232
  27 H :    0.160157
  28 H :    0.168889
  29 H :    0.194223
  30 H :    0.198034
  31 H :    0.181858
  32 H :    0.186262
  33 H :    0.168278
  34 H :    0.161561
  35 H :    0.167231
  36 H :    0.188385
  37 H :    0.180514
  38 H :    0.162194
  39 H :    0.167289
  40 H :    0.162247

  Mayer bond orders larger than 0.100000
B(  0-C ,  1-C ) :   0.9545 B(  0-C , 19-H ) :   0.9687 B(  0-C , 20-H ) :   0.9581
B(  0-C , 21-H ) :   0.9693 B(  1-C ,  2-O ) :   0.7789 B(  1-C , 22-H ) :   0.9328
B(  1-C , 23-H ) :   0.9474 B(  2-O ,  3-P ) :   1.0764 B(  3-P ,  4-S ) :   1.8125
B(  3-P ,  5-O ) :   1.1528 B(  3-P ,  8-S ) :   0.9809 B(  5-O ,  6-C ) :   0.7302
B(  6-C ,  7-C ) :   0.9378 B(  6-C , 24-H ) :   0.9633 B(  6-C , 25-H ) :   0.9465
B(  7-C , 26-H ) :   0.9661 B(  7-C , 27-H ) :   0.9633 B(  7-C , 28-H ) :   0.9575
B(  8-S ,  9-C ) :   0.9246 B(  9-C , 10-S ) :   0.8892 B(  9-C , 29-H ) :   0.9002
B(  9-C , 30-H ) :   0.9056 B( 10-S , 11-P ) :   1.1004 B( 11-P , 12-S ) :   1.7163
B( 11-P , 13-O ) :   1.0885 B( 11-P , 16-O ) :   1.1810 B( 13-O , 14-C ) :   0.7627
B( 14-C , 15-C ) :   0.9362 B( 14-C , 31-H ) :   0.9534 B( 14-C , 32-H ) :   0.9562
B( 15-C , 33-H ) :   0.9618 B( 15-C , 34-H ) :   0.9708 B( 15-C , 35-H ) :   0.9568
B( 16-O , 17-C ) :   0.7544 B( 17-C , 18-C ) :   0.9443 B( 17-C , 36-H ) :   0.9519
B( 17-C , 37-H ) :   0.9582 B( 18-C , 38-H ) :   0.9702 B( 18-C , 39-H ) :   0.9607
B( 18-C , 40-H ) :   0.9641

Dispersion correction           -0.021461185
FINAL SINGLE POINT ENERGY     -2932.468026810074

DIPOLE MOMENT
-------------

Method             : SCF
Type of density    : Electron Density
Multiplicity       :   1
Irrep              :   0
Energy             : -2932.4929923740278355 Eh
Relativity type    :
Basis              : AO
                                X                 Y                 Z
Electronic contribution:     -3.223843401      -1.942733331      -5.789932741
Nuclear contribution   :      4.281649531       0.874259026       6.940679195
                        -----------------------------------------
Total Dipole Moment    :      1.057806130      -1.068474305       1.150746454
                        -----------------------------------------
Magnitude (a.u.)       :      1.893359065
Magnitude (Debye)      :      4.812536285

Rotational constants in cm-1:             0.013243             0.004656             0.004561
Rotational constants in MHz :           397.004076           139.569902           136.734491

                             ****ORCA TERMINATED NORMALLY****
TOTAL RUN TIME: 0 days 0 hours 1 minutes 46 seconds 773 msec
