                         Program Version 6.0.0  -   RELEASE  -
|  1> ! wb97x-v def2-tzvp def2/J RIJCOSX DEFGRID2 scfconv7 GCP(DFT/TZ) printgap
|  2> %output
|  3>     printlevel normal
|  4> end
|  5> * xyz 0 1
|  6> C 1.4036353606296554 -2.6719104609810715e-05 -0.0002557762945214606
|  7> C 0.6930154783922077 -1.1953787191867402 -0.00012867304020104493
|  8> C -0.6961763891952655 -1.143899219360933 -8.596414007910442e-05
|  9> N -1.3983209225553093 2.7388952892557682e-05 -9.119410413942855e-05
| 10> C -0.696132434773632 1.1439269650354746 -0.0001688999042613505
| 11> C 0.6930616387389664 1.1953529558538984 -0.0002785462239362721
| 12> H 2.4890653863982517 -4.7646911638153866e-05 -0.0003252636808104059
| 13> H 1.2030620412063227 -2.152899116586639 -0.00011840465305827902
| 14> H -1.2754396093345155 -2.0648907356317916 2.2935273432545462e-05
| 15> H -1.2753602334003526 2.0649406248932354 -0.00021306870273196394
| 16> H 1.2031454274112585 2.1528536336497877 -0.00036081994051641027
| 17> *
| 18>
| 19>                          ****END OF INPUT****

CARTESIAN COORDINATES (ANGSTROEM)
---------------------------------
  C      1.403635   -0.000027   -0.000256
  C      0.693015   -1.195379   -0.000129
  C     -0.696176   -1.143899   -0.000086
  N     -1.398321    0.000027   -0.000091
  C     -0.696132    1.143927   -0.000169
  C      0.693062    1.195353   -0.000279
  H      2.489065   -0.000048   -0.000325
  H      1.203062   -2.152899   -0.000118
  H     -1.275440   -2.064891    0.000023
  H     -1.275360    2.064941   -0.000213
  H      1.203145    2.152854   -0.000361

 Total Charge           Charge          ....    0
 Multiplicity           Mult            ....    1
 Number of Electrons    NEL             ....   42
 Basis Dimension        Dim             ....  216

ORBITAL ENERGIES
----------------

  NO   OCC          E(Eh)            E(eV)
   0   2.0000     -16.528376      -449.7600
   1   2.0000     -12.087482      -328.9171
   2   2.0000     -12.087136      -328.9077
   3   2.0000     -12.075108      -328.5804
   4   2.0000     -12.062770      -328.2447
   5   2.0000     -12.062365      -328.2336
   6   2.0000      -1.519140       -41.3379
   7   2.0000      -1.348111       -36.6840
   8   2.0000      -1.299568       -35.3631
   9   2.0000      -1.155220       -31.4351
  10   2.0000      -1.145209       -31.1627
  11   2.0000      -0.997952       -27.1556
  12   2.0000      -0.984237       -26.7825
  13   2.0000      -0.932240       -25.3675
  14   2.0000      -0.888438       -24.1756
  15   2.0000      -0.877728       -23.8842
  16   2.0000      -0.835994       -22.7485
  17   2.0000      -0.831169       -22.6173
  18   2.0000      -0.765976       -20.8433
  19   2.0000      -0.701171       -19.0798
  20   2.0000      -0.653564       -17.7844
  21   0.0000      -0.293931        -7.9983
  22   0.0000      -0.247025        -6.7219
  23   0.0000      -0.095543        -2.5999
  24   0.0000      -0.040436        -1.1003
  25   0.0000      -0.026239        -0.7140

MULLIKEN ATOMIC CHARGES
-----------------------
   0 C :   -0.131664
   1 C :   -0.090368
   2 C :   -0.046776
   3 N :   -0.221931
   4 C :   -0.046775
   5 C :   -0.090367
   6 H :    0.130579
   7 H :    0.125019
   8 H :    0.123630
   9 H :    0.123633
  10 H :    0.125020
Sum of atomic charges:    0.0000000

LOEWDIN ATOMIC CHARGES
----------------------
   0 C :   -0.118356
   1 C :   -0.152874
   2 C :   -0.198607
   3 N :    0.118875
   4 C :   -0.198606
   5 C :   -0.152874
   6 H :    0.144524
   7 H :    0.143722
   8 H :    0.135236
   9 H :    0.135236
  10 H :    0.143722

  Mayer bond orders larger than 0.100000
B(  0-C ,  1-C ) :   1.4477 B(  0-C ,  5-C ) :   1.4477 B(  0-C ,  6-H ) :   0.9634
B(  1-C ,  2-C ) :   1.4166 B(  1-C ,  7-H ) :   0.9631 B(  2-C ,  3-N ) :   1.4999
B(  2-C ,  8-H ) :   0.9815 B(  3-N ,  4-C ) :   1.4998 B(  4-C ,  5-C ) :   1.4165
B(  4-C ,  9-H ) :   0.9815 B(  5-C , 10-H ) :   0.9631

FINAL SINGLE POINT ENERGY      -248.291912658968

DIPOLE MOMENT
-------------

Method             : SCF
Type of density    : Electron Density
Multiplicity       :   1
Irrep              :   0
Energy             :  -248.2971725697678380 Eh
Relativity type    :
Basis              : AO
                                X                 Y                 Z
Electronic contribution:     -1.323462732       0.000026055       0.000089663
Nuclear contribution   :      2.217883549      -0.000042966      -0.000143736
                        -----------------------------------------
Total Dipole Moment    :      0.894420817      -0.000016910      -0.000054074
                        -----------------------------------------
Magnitude (a.u.)       :      0.894420818
Magnitude (Debye)      :      2.273437047

Rotational constants in cm-1:             0.201409             0.194500             0.098947
Rotational constants in MHz :          6038.088304          5830.977540          2966.362960

                             ****ORCA TERMINATED NORMALLY****
TOTAL RUN TIME: 0 days 0 hours 1 minutes 19 seconds 678 msec
