                         Program Version 6.0.0  -   RELEASE  -
|  1> ! wb97x-v def2-tzvp def2/J RIJCOSX DEFGRID2 scfconv7 GCP(DFT/TZ) printgap
|  2> %output
|  3>     printlevel normal
|  4> end
|  5> %cpcm
|  6>     smd true
|  7>     smdsolvent "water"
|  8> end
|  9> * xyz 0 1
| 10> C 1.4036353606296554 -2.6719104609810715e-05 -0.0002557762945214606
| 11> C 0.6930154783922077 -1.1953787191867402 -0.00012867304020104493
| 12> C -0.6961763891952655 -1.143899219360933 -8.596414007910442e-05
| 13> N -1.3983209225553093 2.7388952892557682e-05 -9.119410413942855e-05
| 14> C -0.696132434773632 1.1439269650354746 -0.0001688999042613505
| 15> C 0.6930616387389664 1.1953529558538984 -0.0002785462239362721
| 16> H 2.4890653863982517 -4.7646911638153866e-05 -0.0003252636808104059
| 17> H 1.2030620412063227 -2.152899116586639 -0.00011840465305827902
| 18> H -1.2754396093345155 -2.0648907356317916 2.2935273432545462e-05
| 19> H -1.2753602334003526 2.0649406248932354 -0.00021306870273196394
| 20> H 1.2031454274112585 2.1528536336497877 -0.00036081994051641027
| 21> *
| 22>
| 23>                          ****END OF INPUT****

CARTESIAN COORDINATES (ANGSTROEM)
---------------------------------
  C      1.403635   -0.000027   -0.000256
  C      0.693015   -1.195379   -0.000129
  C     -0.696176   -1.143899   -0.000086
  N     -1.398321    0.000027   -0.000091
  C     -0.696132    1.143927   -0.000169
  C      0.693062    1.195353   -0.000279
  H      2.489065   -0.000048   -0.000325
  H      1.203062   -2.152899   -0.000118
  H     -1.275440   -2.064891    0.000023
  H     -1.275360    2.064941   -0.000213
  H      1.203145    2.152854   -0.000361

 Total Charge           Charge          ....    0
 Multiplicity           Mult            ....    1
 Number of Electrons    NEL             ....   42
 Basis Dimension        Dim             ....  216

ORBITAL ENERGIES
----------------

  NO   OCC          E(Eh)            E(eV)
   0   2.0000     -16.530508      -449.8180
   1   2.0000     -12.083479      -328.8082
   2   2.0000     -12.083150      -328.7992
   3   2.0000     -12.066770      -328.3535
   4   2.0000     -12.054967      -328.0323
   5   2.0000     -12.054557      -328.0212
   6   2.0000      -1.520339       -41.3705
   7   2.0000      -1.342212       -36.5234
   8   2.0000      -1.295471       -35.2515
   9   2.0000      -1.151787       -31.3417
  10   2.0000      -1.138815       -30.9887
  11   2.0000      -0.992764       -27.0145
  12   2.0000      -0.977727       -26.6053
  13   2.0000      -0.922776       -25.1100
  14   2.0000      -0.881124       -23.9766
  15   2.0000      -0.871155       -23.7053
  16   2.0000      -0.832917       -22.6648
  17   2.0000      -0.828003       -22.5311
  18   2.0000      -0.767433       -20.8829
  19   2.0000      -0.697590       -18.9824
  20   2.0000      -0.649445       -17.6723
  21   0.0000      -0.291158        -7.9228
  22   0.0000      -0.242751        -6.6056
  23   0.0000      -0.090347        -2.4585
  24   0.0000      -0.030561        -0.8316
  25   0.0000      -0.013546        -0.3686

MULLIKEN ATOMIC CHARGES
-----------------------
   0 C :   -0.154779
   1 C :   -0.135155
   2 C :   -0.056608
   3 N :   -0.300235
   4 C :   -0.056611
   5 C :   -0.135149
   6 H :    0.174258
   7 H :    0.170060
   8 H :    0.162078
   9 H :    0.162080
  10 H :    0.170061
Sum of atomic charges:    0.0000000

LOEWDIN ATOMIC CHARGES
----------------------
   0 C :   -0.111033
   1 C :   -0.150775
   2 C :   -0.207749
   3 N :    0.074041
   4 C :   -0.207749
   5 C :   -0.150775
   6 H :    0.156805
   7 H :    0.155371
   8 H :    0.143246
   9 H :    0.143246
  10 H :    0.155371

  Mayer bond orders larger than 0.100000
B(  0-C ,  1-C ) :   1.4339 B(  0-C ,  5-C ) :   1.4339 B(  0-C ,  6-H ) :   0.9609
B(  1-C ,  2-C ) :   1.4337 B(  1-C ,  7-H ) :   0.9589 B(  2-C ,  3-N ) :   1.4845
B(  2-C ,  8-H ) :   0.9639 B(  3-N ,  4-C ) :   1.4845 B(  4-C ,  5-C ) :   1.4337
B(  4-C ,  9-H ) :   0.9639 B(  5-C , 10-H ) :   0.9589

FINAL SINGLE POINT ENERGY      -248.299487676547

DIPOLE MOMENT
-------------

Method             : SCF
Type of density    : Electron Density
Multiplicity       :   1
Irrep              :   0
Energy             :  -248.3047475873467533 Eh
Relativity type    :
Basis              : AO
                                X                 Y                 Z
Electronic contribution:     -0.925143401       0.000018718       0.000065272
Nuclear contribution   :      2.217883549      -0.000042966      -0.000143736
                        -----------------------------------------
Total Dipole Moment    :      1.292740148      -0.000024247      -0.000078464
                        -----------------------------------------
Magnitude (a.u.)       :      1.292740151
Magnitude (Debye)      :      3.285884330

Rotational constants in cm-1:             0.201409             0.194500             0.098947
Rotational constants in MHz :          6038.088304          5830.977540          2966.362960

                             ****ORCA TERMINATED NORMALLY****
TOTAL RUN TIME: 0 days 0 hours 1 minutes 21 seconds 449 msec
