                         Program Version 6.0.0  -   RELEASE  -
|  1> ! r2scan-3c def2/J RI DEFGRID2 scfconv6 printgap
|  2> %output
|  3>     printlevel normal
|  4> end
|  5> * xyz 0 1
|  6> C 5.3808352718 -0.1182043757 -1.4565331474
|  7> C 4.5796789325 -0.6312623042 -0.2762463651
|  8> O 3.5983283345 0.3308752361 0.157434137
|  9> P 2.1300143106 0.4393611788 -0.450979116
| 10> S 1.9800604014 0.8389634123 -2.3586536687
| 11> O 1.5293531998 1.5656684389 0.4681928217
| 12> C 1.6646740532 1.5465929283 1.9131789492
| 13> C 0.6900309023 2.5558732092 2.4807143644
| 14> S 1.3094500518 -1.4347538653 0.1492020956
| 15> C 0.1806272044 -1.773286612 -1.2368957603
| 16> S -1.5205614199 -2.0469891706 -0.6995145229
| 17> P -1.8999022373 -0.0964716916 0.0688976785
| 18> S -1.3369695315 1.3901076492 -1.0742538371
| 19> O -1.2481575721 -0.0410988207 1.4999357065
| 20> C -1.5624564918 -0.9944280937 2.5511383678
| 21> C -2.5620279704 -0.4003790787 3.5205794372
| 22> O -3.4516727485 -0.1660188614 0.3925102903
| 23> C -4.4335323396 -0.1799835792 -0.6641470905
| 24> C -5.7826643013 0.1283283397 -0.0474535393
| 25> H 6.1468589187 -0.8437672353 -1.7101623251
| 26> H 4.73305278 0.0322983957 -2.3173201851
| 27> H 5.8504738606 0.8292431459 -1.206738593
| 28> H 5.2141953263 -0.7754952466 0.6004345739
| 29> H 4.0753456809 -1.570127929 -0.5206762592
| 30> H 1.447000444 0.533893775 2.265381831
| 31> H 2.6984813569 1.8006724024 2.1542171999
| 32> H 0.9108719747 3.545595696 2.0911225114
| 33> H -0.3247449986 2.2911126194 2.1940027402
| 34> H 0.7731993306 2.5636148215 3.5626840551
| 35> H 0.4980525482 -2.6950838126 -1.7177609628
| 36> H 0.2265056111 -0.9294650982 -1.932158793
| 37> H -1.9464150146 -1.9106467356 2.0948525069
| 38> H -0.6049729352 -1.1997708972 3.0337033716
| 39> H -2.1727553248 0.5211527365 3.944338422
| 40> H -3.4962839756 -0.184354787 3.0093672799
| 41> H -2.7456386736 -1.112554776 4.3188474229
| 42> H -4.1501469517 0.5683689394 -1.4115282515
| 43> H -4.4211014563 -1.1703588453 -1.1269531921
| 44> H -5.7652068019 1.1098241499 0.417954288
| 45> H -6.5394140781 0.1151378042 -0.8248066469
| 46> H -6.0267163085 -0.6166066864 0.7042003749
| 47> *
| 48>
| 49>                          ****END OF INPUT****

CARTESIAN COORDINATES (ANGSTROEM)
---------------------------------
  C      5.380835   -0.118204   -1.456533
  C      4.579679   -0.631262   -0.276246
  O      3.598328    0.330875    0.157434
  P      2.130014    0.439361   -0.450979
  S      1.980060    0.838963   -2.358654
  O      1.529353    1.565668    0.468193
  C      1.664674    1.546593    1.913179
  C      0.690031    2.555873    2.480714
  S      1.309450   -1.434754    0.149202
  C      0.180627   -1.773287   -1.236896
  S     -1.520561   -2.046989   -0.699515
  P     -1.899902   -0.096472    0.068898
  S     -1.336970    1.390108   -1.074254
  O     -1.248158   -0.041099    1.499936
  C     -1.562456   -0.994428    2.551138
  C     -2.562028   -0.400379    3.520579
  O     -3.451673   -0.166019    0.392510
  C     -4.433532   -0.179984   -0.664147
  C     -5.782664    0.128328   -0.047454
  H      6.146859   -0.843767   -1.710162
  H      4.733053    0.032298   -2.317320
  H      5.850474    0.829243   -1.206739
  H      5.214195   -0.775495    0.600435
  H      4.075346   -1.570128   -0.520676
  H      1.447000    0.533894    2.265382
  H      2.698481    1.800672    2.154217
  H      0.910872    3.545596    2.091123
  H     -0.324745    2.291113    2.194003
  H      0.773199    2.563615    3.562684
  H      0.498053   -2.695084   -1.717761
  H      0.226506   -0.929465   -1.932159
  H     -1.946415   -1.910647    2.094853
  H     -0.604973   -1.199771    3.033703
  H     -2.172755    0.521153    3.944338
  H     -3.496284   -0.184355    3.009367
  H     -2.745639   -1.112555    4.318847
  H     -4.150147    0.568369   -1.411528
  H     -4.421101   -1.170359   -1.126953
  H     -5.765207    1.109824    0.417954
  H     -6.539414    0.115138   -0.824807
  H     -6.026716   -0.616607    0.704200

 Total Charge           Charge          ....    0
 Multiplicity           Mult            ....    1
 Number of Electrons    NEL             ....  202
 Basis Dimension        Dim             ....  539

ORBITAL ENERGIES
----------------

  NO   OCC          E(Eh)            E(eV)
   0   2.0000     -88.574554     -2410.2361
   1   2.0000     -88.571708     -2410.1587
   2   2.0000     -88.511452     -2408.5191
   3   2.0000     -88.511130     -2408.5103
   4   2.0000     -76.910730     -2092.8474
   5   2.0000     -76.907664     -2092.7639
   6   2.0000     -18.994285      -516.8608
   7   2.0000     -18.994184      -516.8580
   8   2.0000     -18.987180      -516.6674
   9   2.0000     -18.982125      -516.5299
  10   2.0000     -10.105381      -274.9814
  11   2.0000     -10.103023      -274.9172
  12   2.0000     -10.100734      -274.8549
  13   2.0000     -10.096510      -274.7400
  14   2.0000     -10.095322      -274.7077
  15   2.0000     -10.035679      -273.0847
  16   2.0000     -10.035401      -273.0771
  17   2.0000     -10.023200      -272.7451
  18   2.0000     -10.020669      -272.6763
  19   2.0000      -7.869045      -214.1276
  20   2.0000      -7.866180      -214.0496
  21   2.0000      -7.805989      -212.4118
  22   2.0000      -7.805905      -212.4095
  23   2.0000      -6.589261      -179.3029
  24   2.0000      -6.585867      -179.2106
  25   2.0000      -5.815872      -158.2579
  26   2.0000      -5.812942      -158.1782
  27   2.0000      -5.812673      -158.1709
  28   2.0000      -5.809893      -158.0952
  29   2.0000      -5.806407      -158.0004
  30   2.0000      -5.803511      -157.9216
  31   2.0000      -5.753783      -156.5684
  32   2.0000      -5.753755      -156.5676
  33   2.0000      -5.746258      -156.3636
  34   2.0000      -5.746112      -156.3597
  35   2.0000      -5.745848      -156.3525
  36   2.0000      -5.745838      -156.3522
  37   2.0000      -4.735132      -128.8495
  38   2.0000      -4.734381      -128.8291
  39   2.0000      -4.732419      -128.7757
  40   2.0000      -4.731586      -128.7530
  41   2.0000      -4.730957      -128.7359
  42   2.0000      -4.729304      -128.6909
  43   2.0000      -1.053789       -28.6751
  44   2.0000      -1.045134       -28.4395
  45   2.0000      -1.013176       -27.5699
  46   2.0000      -1.001681       -27.2571
  47   2.0000      -0.797516       -21.7015
  48   2.0000      -0.759027       -20.6542
  49   2.0000      -0.749578       -20.3971
  50   2.0000      -0.739735       -20.1292
  51   2.0000      -0.727802       -19.8045
  52   2.0000      -0.707885       -19.2625
  53   2.0000      -0.680703       -18.5229
  54   2.0000      -0.661823       -18.0091
  55   2.0000      -0.620114       -16.8742
  56   2.0000      -0.612776       -16.6745
  57   2.0000      -0.606968       -16.5164
  58   2.0000      -0.598526       -16.2867
  59   2.0000      -0.596967       -16.2443
  60   2.0000      -0.536663       -14.6033
  61   2.0000      -0.525287       -14.2938
  62   2.0000      -0.503728       -13.7071
  63   2.0000      -0.494119       -13.4457
  64   2.0000      -0.468211       -12.7407
  65   2.0000      -0.465046       -12.6545
  66   2.0000      -0.459858       -12.5134
  67   2.0000      -0.451301       -12.2805
  68   2.0000      -0.447631       -12.1806
  69   2.0000      -0.432322       -11.7641
  70   2.0000      -0.420652       -11.4465
  71   2.0000      -0.413086       -11.2406
  72   2.0000      -0.410155       -11.1609
  73   2.0000      -0.399196       -10.8627
  74   2.0000      -0.397837       -10.8257
  75   2.0000      -0.381913       -10.3924
  76   2.0000      -0.375494       -10.2177
  77   2.0000      -0.370929       -10.0935
  78   2.0000      -0.367315        -9.9951
  79   2.0000      -0.366159        -9.9637
  80   2.0000      -0.361610        -9.8399
  81   2.0000      -0.358976        -9.7682
  82   2.0000      -0.356382        -9.6976
  83   2.0000      -0.345297        -9.3960
  84   2.0000      -0.344431        -9.3725
  85   2.0000      -0.331109        -9.0099
  86   2.0000      -0.325430        -8.8554
  87   2.0000      -0.317543        -8.6408
  88   2.0000      -0.311976        -8.4893
  89   2.0000      -0.308587        -8.3971
  90   2.0000      -0.304927        -8.2975
  91   2.0000      -0.291757        -7.9391
  92   2.0000      -0.281204        -7.6519
  93   2.0000      -0.276106        -7.5132
  94   2.0000      -0.269548        -7.3348
  95   2.0000      -0.247584        -6.7371
  96   2.0000      -0.233637        -6.3576
  97   2.0000      -0.222766        -6.0618
  98   2.0000      -0.211789        -5.7631
  99   2.0000      -0.201195        -5.4748
 100   2.0000      -0.193092        -5.2543
 101   0.0000      -0.040180        -1.0934
 102   0.0000      -0.030154        -0.8205
 103   0.0000      -0.004258        -0.1159
 104   0.0000       0.014576         0.3966
 105   0.0000       0.018383         0.5002

MULLIKEN ATOMIC CHARGES
-----------------------
   0 C :   -0.437073
   1 C :   -0.155701
   2 O :   -0.294802
   3 P :    0.688650
   4 S :   -0.431553
   5 O :   -0.259718
   6 C :   -0.094839
   7 C :   -0.485337
   8 S :   -0.214435
   9 C :   -0.217607
  10 S :   -0.175086
  11 P :    0.620303
  12 S :   -0.386583
  13 O :   -0.249211
  14 C :   -0.104917
  15 C :   -0.463760
  16 O :   -0.290443
  17 C :   -0.154267
  18 C :   -0.442298
  19 H :    0.141837
  20 H :    0.180370
  21 H :    0.150705
  22 H :    0.146659
  23 H :    0.153239
  24 H :    0.148180
  25 H :    0.157855
  26 H :    0.155123
  27 H :    0.183630
  28 H :    0.139814
  29 H :    0.191960
  30 H :    0.223822
  31 H :    0.163065
  32 H :    0.158422
  33 H :    0.154093
  34 H :    0.169341
  35 H :    0.148241
  36 H :    0.174433
  37 H :    0.149224
  38 H :    0.160059
  39 H :    0.148453
  40 H :    0.150155
Sum of atomic charges:    0.0000000

LOEWDIN ATOMIC CHARGES
----------------------
   0 C :   -0.403086
   1 C :    0.019526
   2 O :   -0.673746
   3 P :    0.376250
   4 S :   -0.097463
   5 O :   -0.648133
   6 C :    0.024987
   7 C :   -0.389797
   8 S :    0.129951
   9 C :   -0.417724
  10 S :    0.115999
  11 P :    0.367490
  12 S :   -0.053469
  13 O :   -0.671180
  14 C :    0.015998
  15 C :   -0.392150
  16 O :   -0.677985
  17 C :    0.020097
  18 C :   -0.386312
  19 H :    0.156411
  20 H :    0.169840
  21 H :    0.159201
  22 H :    0.177416
  23 H :    0.174842
  24 H :    0.173217
  25 H :    0.175035
  26 H :    0.162550
  27 H :    0.173607
  28 H :    0.156868
  29 H :    0.179433
  30 H :    0.202973
  31 H :    0.178718
  32 H :    0.179267
  33 H :    0.159697
  34 H :    0.167143
  35 H :    0.159112
  36 H :    0.182849
  37 H :    0.171570
  38 H :    0.162103
  39 H :    0.160949
  40 H :    0.157945

  Mayer bond orders larger than 0.100000
B(  0-C ,  1-C ) :   0.9556 B(  0-C , 19-H ) :   0.9656 B(  0-C , 20-H ) :   0.9527
B(  0-C , 21-H ) :   0.9729 B(  1-C ,  2-O ) :   0.7948 B(  1-C , 22-H ) :   0.9656
B(  1-C , 23-H ) :   0.9580 B(  2-O ,  3-P ) :   1.0428 B(  3-P ,  4-S ) :   1.8306
B(  3-P ,  5-O ) :   1.1885 B(  3-P ,  8-S ) :   0.9886 B(  5-O ,  6-C ) :   0.7259
B(  6-C ,  7-C ) :   0.9316 B(  6-C , 24-H ) :   0.9612 B(  6-C , 25-H ) :   0.9401
B(  7-C , 26-H ) :   0.9677 B(  7-C , 27-H ) :   0.9686 B(  7-C , 28-H ) :   0.9678
B(  8-S ,  9-C ) :   0.8998 B(  9-C , 10-S ) :   0.9256 B(  9-C , 29-H ) :   0.9162
B(  9-C , 30-H ) :   0.9033 B( 10-S , 11-P ) :   0.9923 B( 11-P , 12-S ) :   1.9030
B( 11-P , 13-O ) :   1.1070 B( 11-P , 16-O ) :   1.0523 B( 13-O , 14-C ) :   0.7180
B( 14-C , 15-C ) :   0.9322 B( 14-C , 31-H ) :   0.9597 B( 14-C , 32-H ) :   0.9623
B( 15-C , 33-H ) :   0.9719 B( 15-C , 34-H ) :   0.9681 B( 15-C , 35-H ) :   0.9673
B( 16-O , 17-C ) :   0.7889 B( 17-C , 18-C ) :   0.9556 B( 17-C , 36-H ) :   0.9492
B( 17-C , 37-H ) :   0.9421 B( 18-C , 38-H ) :   0.9713 B( 18-C , 39-H ) :   0.9632
B( 18-C , 40-H ) :   0.9720

Dispersion correction           -0.021885789
FINAL SINGLE POINT ENERGY     -2932.457685159043

DIPOLE MOMENT
-------------

Method             : SCF
Type of density    : Electron Density
Multiplicity       :   1
Irrep              :   0
Energy             : -2932.4823337558918865 Eh
Relativity type    :
Basis              : AO
                                X                 Y                 Z
Electronic contribution:      5.063204792      -1.893753928     -15.262469766
Nuclear contribution   :     -5.483698248       0.601779681      17.027391070
                        -----------------------------------------
Total Dipole Moment    :     -0.420493457      -1.291974247       1.764921304
                        -----------------------------------------
Magnitude (a.u.)       :      2.227321129
Magnitude (Debye)      :      5.661400392

Rotational constants in cm-1:             0.013338             0.005083             0.004726
Rotational constants in MHz :           399.859520           152.396592           141.673695

                             ****ORCA TERMINATED NORMALLY****
TOTAL RUN TIME: 0 days 0 hours 1 minutes 21 seconds 316 msec
