                         Program Version 6.0.0  -   RELEASE  -
|  1> ! r2scan-3c def2/J RI DEFGRID2 scfconv6 printgap
|  2> %output
|  3>     printlevel normal
|  4> end
|  5> %cpcm
|  6>     smd true
|  7>     smdsolvent "water"
|  8> end
|  9> * xyz 0 1
| 10> C 5.3808352718 -0.1182043757 -1.4565331474
| 11> C 4.5796789325 -0.6312623042 -0.2762463651
| 12> O 3.5983283345 0.3308752361 0.157434137
| 13> P 2.1300143106 0.4393611788 -0.450979116
| 14> S 1.9800604014 0.8389634123 -2.3586536687
| 15> O 1.5293531998 1.5656684389 0.4681928217
| 16> C 1.6646740532 1.5465929283 1.9131789492
| 17> C 0.6900309023 2.5558732092 2.4807143644
| 18> S 1.3094500518 -1.4347538653 0.1492020956
| 19> C 0.1806272044 -1.773286612 -1.2368957603
| 20> S -1.5205614199 -2.0469891706 -0.6995145229
| 21> P -1.8999022373 -0.0964716916 0.0688976785
| 22> S -1.3369695315 1.3901076492 -1.0742538371
| 23> O -1.2481575721 -0.0410988207 1.4999357065
| 24> C -1.5624564918 -0.9944280937 2.5511383678
| 25> C -2.5620279704 -0.4003790787 3.5205794372
| 26> O -3.4516727485 -0.1660188614 0.3925102903
| 27> C -4.4335323396 -0.1799835792 -0.6641470905
| 28> C -5.7826643013 0.1283283397 -0.0474535393
| 29> H 6.1468589187 -0.8437672353 -1.7101623251
| 30> H 4.73305278 0.0322983957 -2.3173201851
| 31> H 5.8504738606 0.8292431459 -1.206738593
| 32> H 5.2141953263 -0.7754952466 0.6004345739
| 33> H 4.0753456809 -1.570127929 -0.5206762592
| 34> H 1.447000444 0.533893775 2.265381831
| 35> H 2.6984813569 1.8006724024 2.1542171999
| 36> H 0.9108719747 3.545595696 2.0911225114
| 37> H -0.3247449986 2.2911126194 2.1940027402
| 38> H 0.7731993306 2.5636148215 3.5626840551
| 39> H 0.4980525482 -2.6950838126 -1.7177609628
| 40> H 0.2265056111 -0.9294650982 -1.932158793
| 41> H -1.9464150146 -1.9106467356 2.0948525069
| 42> H -0.6049729352 -1.1997708972 3.0337033716
| 43> H -2.1727553248 0.5211527365 3.944338422
| 44> H -3.4962839756 -0.184354787 3.0093672799
| 45> H -2.7456386736 -1.112554776 4.3188474229
| 46> H -4.1501469517 0.5683689394 -1.4115282515
| 47> H -4.4211014563 -1.1703588453 -1.1269531921
| 48> H -5.7652068019 1.1098241499 0.417954288
| 49> H -6.5394140781 0.1151378042 -0.8248066469
| 50> H -6.0267163085 -0.6166066864 0.7042003749
| 51> *
| 52>
| 53>                          ****END OF INPUT****

CARTESIAN COORDINATES (ANGSTROEM)
---------------------------------
  C      5.380835   -0.118204   -1.456533
  C      4.579679   -0.631262   -0.276246
  O      3.598328    0.330875    0.157434
  P      2.130014    0.439361   -0.450979
  S      1.980060    0.838963   -2.358654
  O      1.529353    1.565668    0.468193
  C      1.664674    1.546593    1.913179
  C      0.690031    2.555873    2.480714
  S      1.309450   -1.434754    0.149202
  C      0.180627   -1.773287   -1.236896
  S     -1.520561   -2.046989   -0.699515
  P     -1.899902   -0.096472    0.068898
  S     -1.336970    1.390108   -1.074254
  O     -1.248158   -0.041099    1.499936
  C     -1.562456   -0.994428    2.551138
  C     -2.562028   -0.400379    3.520579
  O     -3.451673   -0.166019    0.392510
  C     -4.433532   -0.179984   -0.664147
  C     -5.782664    0.128328   -0.047454
  H      6.146859   -0.843767   -1.710162
  H      4.733053    0.032298   -2.317320
  H      5.850474    0.829243   -1.206739
  H      5.214195   -0.775495    0.600435
  H      4.075346   -1.570128   -0.520676
  H      1.447000    0.533894    2.265382
  H      2.698481    1.800672    2.154217
  H      0.910872    3.545596    2.091123
  H     -0.324745    2.291113    2.194003
  H      0.773199    2.563615    3.562684
  H      0.498053   -2.695084   -1.717761
  H      0.226506   -0.929465   -1.932159
  H     -1.946415   -1.910647    2.094853
  H     -0.604973   -1.199771    3.033703
  H     -2.172755    0.521153    3.944338
  H     -3.496284   -0.184355    3.009367
  H     -2.745639   -1.112555    4.318847
  H     -4.150147    0.568369   -1.411528
  H     -4.421101   -1.170359   -1.126953
  H     -5.765207    1.109824    0.417954
  H     -6.539414    0.115138   -0.824807
  H     -6.026716   -0.616607    0.704200

 Total Charge           Charge          ....    0
 Multiplicity           Mult            ....    1
 Number of Electrons    NEL             ....  202
 Basis Dimension        Dim             ....  539

ORBITAL ENERGIES
----------------

  NO   OCC          E(Eh)            E(eV)
   0   2.0000     -88.577855     -2410.3260
   1   2.0000     -88.576029     -2410.2763
   2   2.0000     -88.525569     -2408.9032
   3   2.0000     -88.523417     -2408.8447
   4   2.0000     -76.917861     -2093.0414
   5   2.0000     -76.916891     -2093.0150
   6   2.0000     -18.994869      -516.8767
   7   2.0000     -18.994416      -516.8643
   8   2.0000     -18.992588      -516.8146
   9   2.0000     -18.991094      -516.7739
  10   2.0000     -10.102789      -274.9109
  11   2.0000     -10.091951      -274.6159
  12   2.0000     -10.091031      -274.5909
  13   2.0000     -10.090844      -274.5858
  14   2.0000     -10.089428      -274.5473
  15   2.0000     -10.019881      -272.6548
  16   2.0000     -10.018811      -272.6257
  17   2.0000     -10.018474      -272.6165
  18   2.0000     -10.015519      -272.5361
  19   2.0000      -7.872281      -214.2157
  20   2.0000      -7.870398      -214.1644
  21   2.0000      -7.820835      -212.8157
  22   2.0000      -7.818373      -212.7488
  23   2.0000      -6.596103      -179.4891
  24   2.0000      -6.595434      -179.4709
  25   2.0000      -5.819118      -158.3463
  26   2.0000      -5.817203      -158.2941
  27   2.0000      -5.815927      -158.2594
  28   2.0000      -5.814165      -158.2115
  29   2.0000      -5.809629      -158.0880
  30   2.0000      -5.807647      -158.0341
  31   2.0000      -5.768494      -156.9687
  32   2.0000      -5.766071      -156.9028
  33   2.0000      -5.761185      -156.7698
  34   2.0000      -5.760658      -156.7555
  35   2.0000      -5.758584      -156.6990
  36   2.0000      -5.758371      -156.6932
  37   2.0000      -4.741779      -129.0304
  38   2.0000      -4.741231      -129.0154
  39   2.0000      -4.741111      -129.0122
  40   2.0000      -4.740522      -128.9962
  41   2.0000      -4.739702      -128.9739
  42   2.0000      -4.738772      -128.9485
  43   2.0000      -1.054047       -28.6821
  44   2.0000      -1.052062       -28.6281
  45   2.0000      -1.012567       -27.5533
  46   2.0000      -1.008057       -27.4306
  47   2.0000      -0.799730       -21.7618
  48   2.0000      -0.755297       -20.5527
  49   2.0000      -0.746905       -20.3243
  50   2.0000      -0.727422       -19.7941
  51   2.0000      -0.723952       -19.6997
  52   2.0000      -0.709103       -19.2957
  53   2.0000      -0.686796       -18.6887
  54   2.0000      -0.669756       -18.2250
  55   2.0000      -0.617488       -16.8027
  56   2.0000      -0.612161       -16.6578
  57   2.0000      -0.599918       -16.3246
  58   2.0000      -0.597608       -16.2617
  59   2.0000      -0.593400       -16.1472
  60   2.0000      -0.533845       -14.5267
  61   2.0000      -0.524026       -14.2595
  62   2.0000      -0.497993       -13.5511
  63   2.0000      -0.494338       -13.4516
  64   2.0000      -0.468150       -12.7390
  65   2.0000      -0.461250       -12.5513
  66   2.0000      -0.456624       -12.4254
  67   2.0000      -0.446654       -12.1541
  68   2.0000      -0.445300       -12.1172
  69   2.0000      -0.429675       -11.6921
  70   2.0000      -0.418192       -11.3796
  71   2.0000      -0.413585       -11.2542
  72   2.0000      -0.403794       -10.9878
  73   2.0000      -0.398842       -10.8530
  74   2.0000      -0.390672       -10.6307
  75   2.0000      -0.380947       -10.3661
  76   2.0000      -0.369652       -10.0587
  77   2.0000      -0.365147        -9.9362
  78   2.0000      -0.362609        -9.8671
  79   2.0000      -0.359965        -9.7952
  80   2.0000      -0.355510        -9.6739
  81   2.0000      -0.353171        -9.6103
  82   2.0000      -0.349138        -9.5005
  83   2.0000      -0.344744        -9.3810
  84   2.0000      -0.343119        -9.3367
  85   2.0000      -0.327342        -8.9074
  86   2.0000      -0.324713        -8.8359
  87   2.0000      -0.314799        -8.5661
  88   2.0000      -0.312103        -8.4928
  89   2.0000      -0.304256        -8.2792
  90   2.0000      -0.303061        -8.2467
  91   2.0000      -0.288346        -7.8463
  92   2.0000      -0.283519        -7.7149
  93   2.0000      -0.278028        -7.5655
  94   2.0000      -0.273531        -7.4432
  95   2.0000      -0.251143        -6.8339
  96   2.0000      -0.243122        -6.6157
  97   2.0000      -0.235387        -6.4052
  98   2.0000      -0.224927        -6.1206
  99   2.0000      -0.212996        -5.7959
 100   2.0000      -0.207037        -5.6338
 101   0.0000      -0.044428        -1.2089
 102   0.0000      -0.037832        -1.0295
 103   0.0000      -0.009179        -0.2498
 104   0.0000       0.006057         0.1648
 105   0.0000       0.014343         0.3903

MULLIKEN ATOMIC CHARGES
-----------------------
   0 C :   -0.484513
   1 C :   -0.138703
   2 O :   -0.318651
   3 P :    0.696262
   4 S :   -0.494236
   5 O :   -0.293214
   6 C :   -0.093377
   7 C :   -0.524255
   8 S :   -0.200374
   9 C :   -0.219105
  10 S :   -0.173314
  11 P :    0.651094
  12 S :   -0.467163
  13 O :   -0.271618
  14 C :   -0.091886
  15 C :   -0.505834
  16 O :   -0.308994
  17 C :   -0.145792
  18 C :   -0.481301
  19 H :    0.168541
  20 H :    0.169631
  21 H :    0.165619
  22 H :    0.174983
  23 H :    0.164183
  24 H :    0.174203
  25 H :    0.176136
  26 H :    0.167384
  27 H :    0.173205
  28 H :    0.171940
  29 H :    0.233389
  30 H :    0.215060
  31 H :    0.173379
  32 H :    0.182771
  33 H :    0.167559
  34 H :    0.170136
  35 H :    0.172305
  36 H :    0.173245
  37 H :    0.168590
  38 H :    0.166934
  39 H :    0.169590
  40 H :    0.166190
Sum of atomic charges:   -0.0000000

LOEWDIN ATOMIC CHARGES
----------------------
   0 C :   -0.408214
   1 C :    0.026494
   2 O :   -0.682177
   3 P :    0.377325
   4 S :   -0.146228
   5 O :   -0.674259
   6 C :    0.030501
   7 C :   -0.393334
   8 S :    0.145277
   9 C :   -0.413614
  10 S :    0.125350
  11 P :    0.373614
  12 S :   -0.112536
  13 O :   -0.680810
  14 C :    0.024769
  15 C :   -0.394481
  16 O :   -0.683295
  17 C :    0.024159
  18 C :   -0.389133
  19 H :    0.166809
  20 H :    0.162711
  21 H :    0.161858
  22 H :    0.189734
  23 H :    0.179767
  24 H :    0.182663
  25 H :    0.183708
  26 H :    0.163618
  27 H :    0.167394
  28 H :    0.170457
  29 H :    0.195531
  30 H :    0.199198
  31 H :    0.183106
  32 H :    0.189691
  33 H :    0.163089
  34 H :    0.165409
  35 H :    0.169052
  36 H :    0.181754
  37 H :    0.179347
  38 H :    0.163382
  39 H :    0.169058
  40 H :    0.163257

  Mayer bond orders larger than 0.100000
B(  0-C ,  1-C ) :   0.9400 B(  0-C , 19-H ) :   0.9595 B(  0-C , 20-H ) :   0.9586
B(  0-C , 21-H ) :   0.9730 B(  1-C ,  2-O ) :   0.7844 B(  1-C , 22-H ) :   0.9553
B(  1-C , 23-H ) :   0.9521 B(  2-O ,  3-P ) :   1.0532 B(  3-P ,  4-S ) :   1.7947
B(  3-P ,  5-O ) :   1.1921 B(  3-P ,  8-S ) :   1.0182 B(  5-O ,  6-C ) :   0.7172
B(  6-C ,  7-C ) :   0.9206 B(  6-C , 24-H ) :   0.9495 B(  6-C , 25-H ) :   0.9311
B(  7-C , 26-H ) :   0.9686 B(  7-C , 27-H ) :   0.9696 B(  7-C , 28-H ) :   0.9595
B(  8-S ,  9-C ) :   0.8914 B(  9-C , 10-S ) :   0.9177 B(  9-C , 29-H ) :   0.9003
B(  9-C , 30-H ) :   0.9081 B( 10-S , 11-P ) :   1.0157 B( 11-P , 12-S ) :   1.8417
B( 11-P , 13-O ) :   1.1230 B( 11-P , 16-O ) :   1.0659 B( 13-O , 14-C ) :   0.7067
B( 14-C , 15-C ) :   0.9248 B( 14-C , 31-H ) :   0.9526 B( 14-C , 32-H ) :   0.9510
B( 15-C , 33-H ) :   0.9702 B( 15-C , 34-H ) :   0.9683 B( 15-C , 35-H ) :   0.9603
B( 16-O , 17-C ) :   0.7798 B( 17-C , 18-C ) :   0.9557 B( 17-C , 36-H ) :   0.9470
B( 17-C , 37-H ) :   0.9332 B( 18-C , 38-H ) :   0.9690 B( 18-C , 39-H ) :   0.9578
B( 18-C , 40-H ) :   0.9683

Dispersion correction           -0.021885789
FINAL SINGLE POINT ENERGY     -2932.469348725504

DIPOLE MOMENT
-------------

Method             : SCF
Type of density    : Electron Density
Multiplicity       :   1
Irrep              :   0
Energy             : -2932.4939973223522429 Eh
Relativity type    :
Basis              : AO
                                X                 Y                 Z
Electronic contribution:      5.070761687      -2.901014456     -14.443814612
Nuclear contribution   :     -5.483698248       0.601779681      17.027391070
                        -----------------------------------------
Total Dipole Moment    :     -0.412936562      -2.299234776       2.583576458
                        -----------------------------------------
Magnitude (a.u.)       :      3.483082611
Magnitude (Debye)      :      8.853292414

Rotational constants in cm-1:             0.013338             0.005083             0.004726
Rotational constants in MHz :           399.859520           152.396592           141.673695

                             ****ORCA TERMINATED NORMALLY****
TOTAL RUN TIME: 0 days 0 hours 1 minutes 51 seconds 663 msec
