                         Program Version 6.0.0  -   RELEASE  -
|  1> ! r2scan-3c def2/J RI DEFGRID2 scfconv6 printgap
|  2> %output
|  3>     printlevel normal
|  4> end
|  5> * xyz 0 1
|  6> C 4.1023560299 -1.1912738277 -2.4212110856
|  7> C 4.3530417279 -1.4587721177 -0.9511173373
|  8> O 3.1303128594 -1.544698892 -0.1981062099
|  9> P 2.2020621972 -0.2826552093 0.0686468727
| 10> S 3.1586267375 1.3940694408 0.425748144
| 11> O 1.2693874395 -0.8249261329 1.2278362535
| 12> C 1.5210867434 -0.5321214544 2.616335942
| 13> C 2.7362625231 -1.274808113 3.1309186872
| 14> S 0.83957153 -0.2882076785 -1.5449432545
| 15> C 0.2250958928 1.40049082 -1.2960353317
| 16> S -0.6141459379 1.6265627643 0.2936845322
| 17> P -2.2059112931 0.2832473803 -0.0796766286
| 18> S -2.8780236869 0.2856634931 -1.9265257791
| 19> O -3.3058598202 0.6013500235 1.0230684102
| 20> C -4.3624629062 1.5512897345 0.7973166584
| 21> C -3.84720597 2.9754835271 0.7799014911
| 22> O -1.5554152499 -1.0401117373 0.4968934702
| 23> C -2.2804349511 -2.2201102313 0.9039448585
| 24> C -3.057943287 -2.8462431893 -0.2350078853
| 25> H 3.3996429128 -1.9168840862 -2.8232467001
| 26> H 3.6866365471 -0.1932585077 -2.5535968861
| 27> H 5.0400974537 -1.2570898006 -2.9635879288
| 28> H 4.9703389744 -0.6656158814 -0.5169772474
| 29> H 4.8265681758 -2.4285966244 -0.7926128917
| 30> H 1.650576813 0.549966075 2.7251056586
| 31> H 0.6058970648 -0.844621909 3.1212472814
| 32> H 3.6302681044 -0.9116737741 2.6251644932
| 33> H 2.8394231911 -1.1027294435 4.1976773786
| 34> H 2.6341254894 -2.3401127172 2.9415384082
| 35> H -0.4721014689 1.5963955176 -2.1103397369
| 36> H 1.0590071175 2.1014916971 -1.3056136979
| 37> H -4.849632138 1.3070495278 -0.1521896165
| 38> H -5.0511668384 1.3804137353 1.6257421292
| 39> H -3.2090162984 3.1294700511 -0.0890969427
| 40> H -4.686633768 3.6611476337 0.7263749458
| 41> H -3.2687841443 3.1798393285 1.6772917008
| 42> H -1.4924083639 -2.8858960204 1.2612606362
| 43> H -2.9428015501 -1.9474773438 1.7289472651
| 44> H -2.3988671172 -3.0434345797 -1.0776695037
| 45> H -3.5010621324 -3.7784523968 0.1012163763
| 46> H -3.8491885925 -2.1755103455 -0.566845274
| 47> *
| 48>
| 49>                          ****END OF INPUT****

CARTESIAN COORDINATES (ANGSTROEM)
---------------------------------
  C      4.102356   -1.191274   -2.421211
  C      4.353042   -1.458772   -0.951117
  O      3.130313   -1.544699   -0.198106
  P      2.202062   -0.282655    0.068647
  S      3.158627    1.394069    0.425748
  O      1.269387   -0.824926    1.227836
  C      1.521087   -0.532121    2.616336
  C      2.736263   -1.274808    3.130919
  S      0.839572   -0.288208   -1.544943
  C      0.225096    1.400491   -1.296035
  S     -0.614146    1.626563    0.293685
  P     -2.205911    0.283247   -0.079677
  S     -2.878024    0.285663   -1.926526
  O     -3.305860    0.601350    1.023068
  C     -4.362463    1.551290    0.797317
  C     -3.847206    2.975484    0.779901
  O     -1.555415   -1.040112    0.496893
  C     -2.280435   -2.220110    0.903945
  C     -3.057943   -2.846243   -0.235008
  H      3.399643   -1.916884   -2.823247
  H      3.686637   -0.193259   -2.553597
  H      5.040097   -1.257090   -2.963588
  H      4.970339   -0.665616   -0.516977
  H      4.826568   -2.428597   -0.792613
  H      1.650577    0.549966    2.725106
  H      0.605897   -0.844622    3.121247
  H      3.630268   -0.911674    2.625164
  H      2.839423   -1.102729    4.197677
  H      2.634125   -2.340113    2.941538
  H     -0.472101    1.596396   -2.110340
  H      1.059007    2.101492   -1.305614
  H     -4.849632    1.307050   -0.152190
  H     -5.051167    1.380414    1.625742
  H     -3.209016    3.129470   -0.089097
  H     -4.686634    3.661148    0.726375
  H     -3.268784    3.179839    1.677292
  H     -1.492408   -2.885896    1.261261
  H     -2.942802   -1.947477    1.728947
  H     -2.398867   -3.043435   -1.077670
  H     -3.501062   -3.778452    0.101216
  H     -3.849189   -2.175510   -0.566845

 Total Charge           Charge          ....    0
 Multiplicity           Mult            ....    1
 Number of Electrons    NEL             ....  202
 Basis Dimension        Dim             ....  539

ORBITAL ENERGIES
----------------

  NO   OCC          E(Eh)            E(eV)
   0   2.0000     -88.570958     -2410.1383
   1   2.0000     -88.570294     -2410.1202
   2   2.0000     -88.519221     -2408.7305
   3   2.0000     -88.517871     -2408.6937
   4   2.0000     -76.913035     -2092.9101
   5   2.0000     -76.910384     -2092.8379
   6   2.0000     -18.995810      -516.9023
   7   2.0000     -18.990729      -516.7640
   8   2.0000     -18.984030      -516.5817
   9   2.0000     -18.983013      -516.5540
  10   2.0000     -10.101908      -274.8869
  11   2.0000     -10.099327      -274.8167
  12   2.0000     -10.099163      -274.8122
  13   2.0000     -10.097197      -274.7587
  14   2.0000     -10.093106      -274.6474
  15   2.0000     -10.028694      -272.8946
  16   2.0000     -10.026888      -272.8455
  17   2.0000     -10.026180      -272.8262
  18   2.0000     -10.025406      -272.8052
  19   2.0000      -7.865404      -214.0285
  20   2.0000      -7.864675      -214.0087
  21   2.0000      -7.814050      -212.6311
  22   2.0000      -7.812721      -212.5950
  23   2.0000      -6.591292      -179.3582
  24   2.0000      -6.589008      -179.2960
  25   2.0000      -5.812359      -158.1623
  26   2.0000      -5.811588      -158.1414
  27   2.0000      -5.809324      -158.0798
  28   2.0000      -5.808633      -158.0609
  29   2.0000      -5.802354      -157.8901
  30   2.0000      -5.801637      -157.8706
  31   2.0000      -5.761592      -156.7809
  32   2.0000      -5.760332      -156.7466
  33   2.0000      -5.754355      -156.5840
  34   2.0000      -5.754125      -156.5777
  35   2.0000      -5.753022      -156.5477
  36   2.0000      -5.752742      -156.5401
  37   2.0000      -4.737247      -128.9071
  38   2.0000      -4.735977      -128.8725
  39   2.0000      -4.734877      -128.8426
  40   2.0000      -4.734347      -128.8281
  41   2.0000      -4.733877      -128.8153
  42   2.0000      -4.732936      -128.7897
  43   2.0000      -1.050042       -28.5731
  44   2.0000      -1.046308       -28.4715
  45   2.0000      -1.008469       -27.4418
  46   2.0000      -1.006786       -27.3961
  47   2.0000      -0.799852       -21.7651
  48   2.0000      -0.755963       -20.5708
  49   2.0000      -0.745755       -20.2930
  50   2.0000      -0.731720       -19.9111
  51   2.0000      -0.728539       -19.8245
  52   2.0000      -0.708977       -19.2922
  53   2.0000      -0.685410       -18.6510
  54   2.0000      -0.666442       -18.1348
  55   2.0000      -0.631953       -17.1963
  56   2.0000      -0.623542       -16.9674
  57   2.0000      -0.609761       -16.5924
  58   2.0000      -0.602255       -16.3882
  59   2.0000      -0.587371       -15.9832
  60   2.0000      -0.521941       -14.2027
  61   2.0000      -0.514918       -14.0116
  62   2.0000      -0.490804       -13.3555
  63   2.0000      -0.487894       -13.2763
  64   2.0000      -0.474379       -12.9085
  65   2.0000      -0.460917       -12.5422
  66   2.0000      -0.455670       -12.3994
  67   2.0000      -0.449933       -12.2433
  68   2.0000      -0.441373       -12.0104
  69   2.0000      -0.431347       -11.7376
  70   2.0000      -0.428207       -11.6521
  71   2.0000      -0.422701       -11.5023
  72   2.0000      -0.406784       -11.0691
  73   2.0000      -0.402283       -10.9467
  74   2.0000      -0.390789       -10.6339
  75   2.0000      -0.387583       -10.5467
  76   2.0000      -0.382308       -10.4031
  77   2.0000      -0.372888       -10.1468
  78   2.0000      -0.368905       -10.0384
  79   2.0000      -0.363729        -9.8976
  80   2.0000      -0.360796        -9.8178
  81   2.0000      -0.357788        -9.7359
  82   2.0000      -0.354660        -9.6508
  83   2.0000      -0.351492        -9.5646
  84   2.0000      -0.347471        -9.4552
  85   2.0000      -0.335737        -9.1359
  86   2.0000      -0.319289        -8.6883
  87   2.0000      -0.310182        -8.4405
  88   2.0000      -0.308011        -8.3814
  89   2.0000      -0.303826        -8.2675
  90   2.0000      -0.293063        -7.9746
  91   2.0000      -0.290100        -7.8940
  92   2.0000      -0.281235        -7.6528
  93   2.0000      -0.276688        -7.5291
  94   2.0000      -0.274457        -7.4683
  95   2.0000      -0.243260        -6.6194
  96   2.0000      -0.226766        -6.1706
  97   2.0000      -0.224821        -6.1177
  98   2.0000      -0.217319        -5.9135
  99   2.0000      -0.211188        -5.7467
 100   2.0000      -0.208373        -5.6701
 101   0.0000      -0.045221        -1.2305
 102   0.0000      -0.022777        -0.6198
 103   0.0000       0.000358         0.0097
 104   0.0000       0.003561         0.0969
 105   0.0000       0.016513         0.4493

MULLIKEN ATOMIC CHARGES
-----------------------
   0 C :   -0.450497
   1 C :   -0.153391
   2 O :   -0.305870
   3 P :    0.698621
   4 S :   -0.492410
   5 O :   -0.267738
   6 C :   -0.154708
   7 C :   -0.442670
   8 S :   -0.118601
   9 C :   -0.245265
  10 S :   -0.123612
  11 P :    0.690119
  12 S :   -0.469234
  13 O :   -0.318681
  14 C :   -0.153299
  15 C :   -0.449550
  16 O :   -0.245128
  17 C :   -0.165166
  18 C :   -0.431735
  19 H :    0.156158
  20 H :    0.176825
  21 H :    0.147508
  22 H :    0.171874
  23 H :    0.147791
  24 H :    0.174537
  25 H :    0.151676
  26 H :    0.167144
  27 H :    0.145889
  28 H :    0.153829
  29 H :    0.211415
  30 H :    0.209862
  31 H :    0.173717
  32 H :    0.146433
  33 H :    0.177578
  34 H :    0.147460
  35 H :    0.155007
  36 H :    0.153602
  37 H :    0.155416
  38 H :    0.164837
  39 H :    0.143685
  40 H :    0.166575
Sum of atomic charges:   -0.0000000

LOEWDIN ATOMIC CHARGES
----------------------
   0 C :   -0.407183
   1 C :    0.019124
   2 O :   -0.660080
   3 P :    0.379982
   4 S :   -0.135797
   5 O :   -0.669957
   6 C :    0.017614
   7 C :   -0.399756
   8 S :    0.182230
   9 C :   -0.420910
  10 S :    0.178867
  11 P :    0.387008
  12 S :   -0.132627
  13 O :   -0.667040
  14 C :    0.019015
  15 C :   -0.405781
  16 O :   -0.667756
  17 C :    0.031366
  18 C :   -0.403421
  19 H :    0.160596
  20 H :    0.165579
  21 H :    0.158993
  22 H :    0.179346
  23 H :    0.179164
  24 H :    0.181544
  25 H :    0.179512
  26 H :    0.164436
  27 H :    0.158688
  28 H :    0.159717
  29 H :    0.190553
  30 H :    0.189549
  31 H :    0.180752
  32 H :    0.178277
  33 H :    0.166475
  34 H :    0.159556
  35 H :    0.160162
  36 H :    0.182215
  37 H :    0.173236
  38 H :    0.165797
  39 H :    0.156677
  40 H :    0.164279

  Mayer bond orders larger than 0.100000
B(  0-C ,  1-C ) :   0.9236 B(  0-C , 19-H ) :   0.9684 B(  0-C , 20-H ) :   0.9626
B(  0-C , 21-H ) :   0.9591 B(  1-C ,  2-O ) :   0.8130 B(  1-C , 22-H ) :   0.9676
B(  1-C , 23-H ) :   0.9584 B(  2-O ,  3-P ) :   1.0656 B(  3-P ,  4-S ) :   1.7320
B(  3-P ,  5-O ) :   1.1529 B(  3-P ,  8-S ) :   1.0958 B(  5-O ,  6-C ) :   0.7902
B(  6-C ,  7-C ) :   0.9220 B(  6-C , 24-H ) :   0.9646 B(  6-C , 25-H ) :   0.9635
B(  7-C , 26-H ) :   0.9611 B(  7-C , 27-H ) :   0.9635 B(  7-C , 28-H ) :   0.9725
B(  8-S ,  9-C ) :   0.9084 B(  9-C , 10-S ) :   0.9034 B(  9-C , 29-H ) :   0.9075
B(  9-C , 30-H ) :   0.9090 B( 10-S , 11-P ) :   1.0776 B( 11-P , 12-S ) :   1.7572
B( 11-P , 13-O ) :   1.0540 B( 11-P , 16-O ) :   1.1396 B( 13-O , 14-C ) :   0.8121
B( 14-C , 15-C ) :   0.9273 B( 14-C , 31-H ) :   0.9641 B( 14-C , 32-H ) :   0.9589
B( 15-C , 33-H ) :   0.9614 B( 15-C , 34-H ) :   0.9592 B( 15-C , 35-H ) :   0.9690
B( 16-O , 17-C ) :   0.7811 B( 17-C , 18-C ) :   0.9357 B( 17-C , 36-H ) :   0.9630
B( 17-C , 37-H ) :   0.9690 B( 18-C , 38-H ) :   0.9687 B( 18-C , 39-H ) :   0.9634
B( 18-C , 40-H ) :   0.9549

Dispersion correction           -0.021709875
FINAL SINGLE POINT ENERGY     -2932.459437440330

DIPOLE MOMENT
-------------

Method             : SCF
Type of density    : Electron Density
Multiplicity       :   1
Irrep              :   0
Energy             : -2932.4841496904696214 Eh
Relativity type    :
Basis              : AO
                                X                 Y                 Z
Electronic contribution:      1.004080512       7.412824689      -6.487969687
Nuclear contribution   :     -1.311859484      -8.184236098       7.426059914
                        -----------------------------------------
Total Dipole Moment    :     -0.307778973      -0.771411409       0.938090227
                        -----------------------------------------
Magnitude (a.u.)       :      1.252923275
Magnitude (Debye)      :      3.184677874

Rotational constants in cm-1:             0.012715             0.004918             0.004888
Rotational constants in MHz :           381.192130           147.439152           146.537309

                             ****ORCA TERMINATED NORMALLY****
TOTAL RUN TIME: 0 days 0 hours 1 minutes 20 seconds 540 msec
