                         Program Version 6.0.0  -   RELEASE  -
|  1> ! r2scan-3c def2/J RI DEFGRID2 scfconv6 printgap
|  2> %output
|  3>     printlevel normal
|  4> end
|  5> %cpcm
|  6>     smd true
|  7>     smdsolvent "water"
|  8> end
|  9> * xyz 0 1
| 10> C 4.1023560299 -1.1912738277 -2.4212110856
| 11> C 4.3530417279 -1.4587721177 -0.9511173373
| 12> O 3.1303128594 -1.544698892 -0.1981062099
| 13> P 2.2020621972 -0.2826552093 0.0686468727
| 14> S 3.1586267375 1.3940694408 0.425748144
| 15> O 1.2693874395 -0.8249261329 1.2278362535
| 16> C 1.5210867434 -0.5321214544 2.616335942
| 17> C 2.7362625231 -1.274808113 3.1309186872
| 18> S 0.83957153 -0.2882076785 -1.5449432545
| 19> C 0.2250958928 1.40049082 -1.2960353317
| 20> S -0.6141459379 1.6265627643 0.2936845322
| 21> P -2.2059112931 0.2832473803 -0.0796766286
| 22> S -2.8780236869 0.2856634931 -1.9265257791
| 23> O -3.3058598202 0.6013500235 1.0230684102
| 24> C -4.3624629062 1.5512897345 0.7973166584
| 25> C -3.84720597 2.9754835271 0.7799014911
| 26> O -1.5554152499 -1.0401117373 0.4968934702
| 27> C -2.2804349511 -2.2201102313 0.9039448585
| 28> C -3.057943287 -2.8462431893 -0.2350078853
| 29> H 3.3996429128 -1.9168840862 -2.8232467001
| 30> H 3.6866365471 -0.1932585077 -2.5535968861
| 31> H 5.0400974537 -1.2570898006 -2.9635879288
| 32> H 4.9703389744 -0.6656158814 -0.5169772474
| 33> H 4.8265681758 -2.4285966244 -0.7926128917
| 34> H 1.650576813 0.549966075 2.7251056586
| 35> H 0.6058970648 -0.844621909 3.1212472814
| 36> H 3.6302681044 -0.9116737741 2.6251644932
| 37> H 2.8394231911 -1.1027294435 4.1976773786
| 38> H 2.6341254894 -2.3401127172 2.9415384082
| 39> H -0.4721014689 1.5963955176 -2.1103397369
| 40> H 1.0590071175 2.1014916971 -1.3056136979
| 41> H -4.849632138 1.3070495278 -0.1521896165
| 42> H -5.0511668384 1.3804137353 1.6257421292
| 43> H -3.2090162984 3.1294700511 -0.0890969427
| 44> H -4.686633768 3.6611476337 0.7263749458
| 45> H -3.2687841443 3.1798393285 1.6772917008
| 46> H -1.4924083639 -2.8858960204 1.2612606362
| 47> H -2.9428015501 -1.9474773438 1.7289472651
| 48> H -2.3988671172 -3.0434345797 -1.0776695037
| 49> H -3.5010621324 -3.7784523968 0.1012163763
| 50> H -3.8491885925 -2.1755103455 -0.566845274
| 51> *
| 52>
| 53>                          ****END OF INPUT****

CARTESIAN COORDINATES (ANGSTROEM)
---------------------------------
  C      4.102356   -1.191274   -2.421211
  C      4.353042   -1.458772   -0.951117
  O      3.130313   -1.544699   -0.198106
  P      2.202062   -0.282655    0.068647
  S      3.158627    1.394069    0.425748
  O      1.269387   -0.824926    1.227836
  C      1.521087   -0.532121    2.616336
  C      2.736263   -1.274808    3.130919
  S      0.839572   -0.288208   -1.544943
  C      0.225096    1.400491   -1.296035
  S     -0.614146    1.626563    0.293685
  P     -2.205911    0.283247   -0.079677
  S     -2.878024    0.285663   -1.926526
  O     -3.305860    0.601350    1.023068
  C     -4.362463    1.551290    0.797317
  C     -3.847206    2.975484    0.779901
  O     -1.555415   -1.040112    0.496893
  C     -2.280435   -2.220110    0.903945
  C     -3.057943   -2.846243   -0.235008
  H      3.399643   -1.916884   -2.823247
  H      3.686637   -0.193259   -2.553597
  H      5.040097   -1.257090   -2.963588
  H      4.970339   -0.665616   -0.516977
  H      4.826568   -2.428597   -0.792613
  H      1.650577    0.549966    2.725106
  H      0.605897   -0.844622    3.121247
  H      3.630268   -0.911674    2.625164
  H      2.839423   -1.102729    4.197677
  H      2.634125   -2.340113    2.941538
  H     -0.472101    1.596396   -2.110340
  H      1.059007    2.101492   -1.305614
  H     -4.849632    1.307050   -0.152190
  H     -5.051167    1.380414    1.625742
  H     -3.209016    3.129470   -0.089097
  H     -4.686634    3.661148    0.726375
  H     -3.268784    3.179839    1.677292
  H     -1.492408   -2.885896    1.261261
  H     -2.942802   -1.947477    1.728947
  H     -2.398867   -3.043435   -1.077670
  H     -3.501062   -3.778452    0.101216
  H     -3.849189   -2.175510   -0.566845

 Total Charge           Charge          ....    0
 Multiplicity           Mult            ....    1
 Number of Electrons    NEL             ....  202
 Basis Dimension        Dim             ....  539

ORBITAL ENERGIES
----------------

  NO   OCC          E(Eh)            E(eV)
   0   2.0000     -88.576890     -2410.2997
   1   2.0000     -88.576018     -2410.2760
   2   2.0000     -88.527823     -2408.9645
   3   2.0000     -88.525588     -2408.9037
   4   2.0000     -76.918465     -2093.0578
   5   2.0000     -76.917704     -2093.0371
   6   2.0000     -18.996603      -516.9238
   7   2.0000     -18.995205      -516.8858
   8   2.0000     -18.989531      -516.7314
   9   2.0000     -18.987777      -516.6837
  10   2.0000     -10.103722      -274.9362
  11   2.0000     -10.089778      -274.5568
  12   2.0000     -10.089510      -274.5495
  13   2.0000     -10.089192      -274.5409
  14   2.0000     -10.088101      -274.5112
  15   2.0000     -10.018351      -272.6132
  16   2.0000     -10.018275      -272.6111
  17   2.0000     -10.018090      -272.6061
  18   2.0000     -10.017128      -272.5799
  19   2.0000      -7.871335      -214.1899
  20   2.0000      -7.870517      -214.1677
  21   2.0000      -7.822909      -212.8722
  22   2.0000      -7.820738      -212.8131
  23   2.0000      -6.596740      -179.5064
  24   2.0000      -6.596375      -179.4965
  25   2.0000      -5.818218      -158.3218
  26   2.0000      -5.817455      -158.3010
  27   2.0000      -5.815271      -158.2416
  28   2.0000      -5.814430      -158.2187
  29   2.0000      -5.808353      -158.0533
  30   2.0000      -5.807492      -158.0299
  31   2.0000      -5.770416      -157.0210
  32   2.0000      -5.768287      -156.9631
  33   2.0000      -5.763198      -156.8246
  34   2.0000      -5.762987      -156.8189
  35   2.0000      -5.760993      -156.7646
  36   2.0000      -5.760809      -156.7596
  37   2.0000      -4.742614      -129.0531
  38   2.0000      -4.741670      -129.0274
  39   2.0000      -4.741440      -129.0211
  40   2.0000      -4.741257      -129.0162
  41   2.0000      -4.740421      -128.9934
  42   2.0000      -4.740352      -128.9915
  43   2.0000      -1.052029       -28.6272
  44   2.0000      -1.050942       -28.5976
  45   2.0000      -1.011996       -27.5378
  46   2.0000      -1.009422       -27.4678
  47   2.0000      -0.804038       -21.8790
  48   2.0000      -0.754572       -20.5329
  49   2.0000      -0.741288       -20.1715
  50   2.0000      -0.723660       -19.6918
  51   2.0000      -0.722545       -19.6614
  52   2.0000      -0.709474       -19.3058
  53   2.0000      -0.689723       -18.7683
  54   2.0000      -0.673633       -18.3305
  55   2.0000      -0.632604       -17.2140
  56   2.0000      -0.621223       -16.9043
  57   2.0000      -0.604012       -16.4360
  58   2.0000      -0.598109       -16.2754
  59   2.0000      -0.587976       -15.9996
  60   2.0000      -0.518084       -14.0978
  61   2.0000      -0.513114       -13.9625
  62   2.0000      -0.489933       -13.3317
  63   2.0000      -0.484657       -13.1882
  64   2.0000      -0.474595       -12.9144
  65   2.0000      -0.459491       -12.5034
  66   2.0000      -0.453659       -12.3447
  67   2.0000      -0.445474       -12.1220
  68   2.0000      -0.438333       -11.9276
  69   2.0000      -0.428974       -11.6730
  70   2.0000      -0.426369       -11.6021
  71   2.0000      -0.419859       -11.4249
  72   2.0000      -0.405821       -11.0429
  73   2.0000      -0.403370       -10.9763
  74   2.0000      -0.389283       -10.5929
  75   2.0000      -0.387697       -10.5498
  76   2.0000      -0.382024       -10.3954
  77   2.0000      -0.369501       -10.0546
  78   2.0000      -0.364870        -9.9286
  79   2.0000      -0.358307        -9.7500
  80   2.0000      -0.353981        -9.6323
  81   2.0000      -0.353319        -9.6143
  82   2.0000      -0.348280        -9.4772
  83   2.0000      -0.347484        -9.4555
  84   2.0000      -0.342867        -9.3299
  85   2.0000      -0.334891        -9.1129
  86   2.0000      -0.319298        -8.6885
  87   2.0000      -0.305072        -8.3014
  88   2.0000      -0.304231        -8.2785
  89   2.0000      -0.302614        -8.2345
  90   2.0000      -0.294309        -8.0086
  91   2.0000      -0.288505        -7.8506
  92   2.0000      -0.283183        -7.7058
  93   2.0000      -0.279054        -7.5934
  94   2.0000      -0.277292        -7.5455
  95   2.0000      -0.249219        -6.7816
  96   2.0000      -0.235066        -6.3965
  97   2.0000      -0.232776        -6.3341
  98   2.0000      -0.225512        -6.1365
  99   2.0000      -0.219837        -5.9821
 100   2.0000      -0.215951        -5.8763
 101   0.0000      -0.051752        -1.4083
 102   0.0000      -0.030557        -0.8315
 103   0.0000      -0.005130        -0.1396
 104   0.0000      -0.002347        -0.0639
 105   0.0000       0.013781         0.3750

MULLIKEN ATOMIC CHARGES
-----------------------
   0 C :   -0.486032
   1 C :   -0.153499
   2 O :   -0.332600
   3 P :    0.733244
   4 S :   -0.532329
   5 O :   -0.299784
   6 C :   -0.147690
   7 C :   -0.485103
   8 S :   -0.139323
   9 C :   -0.255872
  10 S :   -0.135821
  11 P :    0.727322
  12 S :   -0.519489
  13 O :   -0.338476
  14 C :   -0.150737
  15 C :   -0.485696
  16 O :   -0.280746
  17 C :   -0.153756
  18 C :   -0.477999
  19 H :    0.169091
  20 H :    0.172549
  21 H :    0.172752
  22 H :    0.178017
  23 H :    0.175177
  24 H :    0.176296
  25 H :    0.177575
  26 H :    0.167158
  27 H :    0.171517
  28 H :    0.169113
  29 H :    0.231251
  30 H :    0.232249
  31 H :    0.177572
  32 H :    0.174604
  33 H :    0.170831
  34 H :    0.172203
  35 H :    0.169422
  36 H :    0.175595
  37 H :    0.174010
  38 H :    0.169037
  39 H :    0.169978
  40 H :    0.168388
Sum of atomic charges:    0.0000000

LOEWDIN ATOMIC CHARGES
----------------------
   0 C :   -0.410199
   1 C :    0.025050
   2 O :   -0.672401
   3 P :    0.384242
   4 S :   -0.159341
   5 O :   -0.688192
   6 C :    0.021591
   7 C :   -0.402562
   8 S :    0.170215
   9 C :   -0.414697
  10 S :    0.172513
  11 P :    0.392832
  12 S :   -0.163776
  13 O :   -0.671711
  14 C :    0.025281
  15 C :   -0.409308
  16 O :   -0.686007
  17 C :    0.037491
  18 C :   -0.407434
  19 H :    0.163547
  20 H :    0.161483
  21 H :    0.168310
  22 H :    0.181477
  23 H :    0.190828
  24 H :    0.182137
  25 H :    0.190056
  26 H :    0.162137
  27 H :    0.168435
  28 H :    0.163821
  29 H :    0.196630
  30 H :    0.196379
  31 H :    0.181854
  32 H :    0.190306
  33 H :    0.161502
  34 H :    0.168478
  35 H :    0.163640
  36 H :    0.190972
  37 H :    0.181920
  38 H :    0.163290
  39 H :    0.166924
  40 H :    0.162290

  Mayer bond orders larger than 0.100000
B(  0-C ,  1-C ) :   0.9105 B(  0-C , 19-H ) :   0.9658 B(  0-C , 20-H ) :   0.9638
B(  0-C , 21-H ) :   0.9536 B(  1-C ,  2-O ) :   0.8008 B(  1-C , 22-H ) :   0.9659
B(  1-C , 23-H ) :   0.9485 B(  2-O ,  3-P ) :   1.0741 B(  3-P ,  4-S ) :   1.6980
B(  3-P ,  5-O ) :   1.1561 B(  3-P ,  8-S ) :   1.1047 B(  5-O ,  6-C ) :   0.7772
B(  6-C ,  7-C ) :   0.9143 B(  6-C , 24-H ) :   0.9597 B(  6-C , 25-H ) :   0.9524
B(  7-C , 26-H ) :   0.9605 B(  7-C , 27-H ) :   0.9571 B(  7-C , 28-H ) :   0.9710
B(  8-S ,  9-C ) :   0.8975 B(  9-C , 10-S ) :   0.8959 B(  9-C , 29-H ) :   0.9027
B(  9-C , 30-H ) :   0.9043 B( 10-S , 11-P ) :   1.0854 B( 11-P , 12-S ) :   1.7095
B( 11-P , 13-O ) :   1.0694 B( 11-P , 16-O ) :   1.1517 B( 13-O , 14-C ) :   0.7997
B( 14-C , 15-C ) :   0.9143 B( 14-C , 31-H ) :   0.9637 B( 14-C , 32-H ) :   0.9492
B( 15-C , 33-H ) :   0.9630 B( 15-C , 34-H ) :   0.9540 B( 15-C , 35-H ) :   0.9665
B( 16-O , 17-C ) :   0.7742 B( 17-C , 18-C ) :   0.9157 B( 17-C , 36-H ) :   0.9557
B( 17-C , 37-H ) :   0.9603 B( 18-C , 38-H ) :   0.9711 B( 18-C , 39-H ) :   0.9570
B( 18-C , 40-H ) :   0.9571

Dispersion correction           -0.021709875
FINAL SINGLE POINT ENERGY     -2932.467502632264

DIPOLE MOMENT
-------------

Method             : SCF
Type of density    : Electron Density
Multiplicity       :   1
Irrep              :   0
Energy             : -2932.4922148824034593 Eh
Relativity type    :
Basis              : AO
                                X                 Y                 Z
Electronic contribution:      0.906098150       7.273452636      -6.120197554
Nuclear contribution   :     -1.311859484      -8.184236098       7.426059914
                        -----------------------------------------
Total Dipole Moment    :     -0.405761334      -0.910783462       1.305862360
                        -----------------------------------------
Magnitude (a.u.)       :      1.642998868
Magnitude (Debye)      :      4.176171236

Rotational constants in cm-1:             0.012715             0.004918             0.004888
Rotational constants in MHz :           381.192130           147.439152           146.537309

                             ****ORCA TERMINATED NORMALLY****
TOTAL RUN TIME: 0 days 0 hours 1 minutes 49 seconds 795 msec
