                         Program Version 6.0.0  -   RELEASE  -
|  1> ! pbe def2-sv(p) def2/J RI DEFGRID1 loosescf d4 GCP(DFT/SV(P)) printgap
|  2> %output
|  3>     printlevel normal
|  4> end
|  5> * xyz 0 1
|  6> C 3.188009105 2.3197105226 -0.8586087207
|  7> C 1.795200335 1.7987950894 -0.5766550767
|  8> O 1.7318986287 1.0857827865 0.6837702429
|  9> P 2.0928259646 -0.4292719933 0.908858782
| 10> S 1.7769974031 -0.9960483037 2.7518023832
| 11> O 3.6009001228 -0.5224296211 0.4205672882
| 12> C 4.3659545523 -1.7337499893 0.5906496086
| 13> C 5.8358426309 -1.3703322678 0.5331465966
| 14> S 1.0684673118 -1.5496535381 -0.5915646445
| 15> C -0.45128758 -1.8368840799 0.3581514765
| 16> S -1.2264413966 -0.3239486165 0.979366353
| 17> P -2.2368990985 0.2470504985 -0.8274965384
| 18> S -1.1774637904 0.3157769364 -2.4672384806
| 19> O -2.9708626943 1.5748658747 -0.3567358669
| 20> C -2.272492987 2.7650365181 0.0578370208
| 21> C -1.8888574327 3.6285552558 -1.1281486759
| 22> O -3.4189006627 -0.780095965 -0.9842657199
| 23> C -4.4570009463 -0.9756058264 0.0091169459
| 24> C -5.6878308231 -0.1650208685 -0.3408171432
| 25> H 3.1552566681 2.9376454582 -1.7505974876
| 26> H 3.5390958376 2.9145022261 -0.0197341897
| 27> H 3.8773036618 1.4959202315 -1.0194136921
| 28> H 1.4455524191 1.1416280351 -1.379204871
| 29> H 1.0868482873 2.6193096335 -0.4440260123
| 30> H 4.1017891002 -2.1798503663 1.5553223781
| 31> H 4.0907790883 -2.4233377224 -0.2117371962
| 32> H 6.0712975782 -0.9150552345 -0.4244307
| 33> H 6.0769766865 -0.6687584948 1.3267668227
| 34> H 6.4290205358 -2.2701968169 0.6580268038
| 35> H -0.2107064391 -2.4302229956 1.2394870157
| 36> H -1.1349605531 -2.3630364211 -0.3051077368
| 37> H -2.9838198331 3.279000639 0.7075136341
| 38> H -1.3944651302 2.4768325142 0.6438311134
| 39> H -1.4092427495 4.5345382829 -0.7713351143
| 40> H -1.2048896625 3.0935535091 -1.7834126703
| 41> H -2.7752413175 3.893141636 -1.6979862725
| 42> H -4.6659367909 -2.0465205928 -0.0206466569
| 43> H -4.0649972956 -0.7005305407 0.9920507109
| 44> H -6.0349797011 -0.4275058624 -1.3363609531
| 45> H -6.470446328 -0.3791760744 0.3803561022
| 46> H -5.4588083661 0.896864699 -0.3187329719
| 47> *
| 48>
| 49>                          ****END OF INPUT****

CARTESIAN COORDINATES (ANGSTROEM)
---------------------------------
  C      3.188009    2.319711   -0.858609
  C      1.795200    1.798795   -0.576655
  O      1.731899    1.085783    0.683770
  P      2.092826   -0.429272    0.908859
  S      1.776997   -0.996048    2.751802
  O      3.600900   -0.522430    0.420567
  C      4.365955   -1.733750    0.590650
  C      5.835843   -1.370332    0.533147
  S      1.068467   -1.549654   -0.591565
  C     -0.451288   -1.836884    0.358151
  S     -1.226441   -0.323949    0.979366
  P     -2.236899    0.247050   -0.827497
  S     -1.177464    0.315777   -2.467238
  O     -2.970863    1.574866   -0.356736
  C     -2.272493    2.765037    0.057837
  C     -1.888857    3.628555   -1.128149
  O     -3.418901   -0.780096   -0.984266
  C     -4.457001   -0.975606    0.009117
  C     -5.687831   -0.165021   -0.340817
  H      3.155257    2.937645   -1.750597
  H      3.539096    2.914502   -0.019734
  H      3.877304    1.495920   -1.019414
  H      1.445552    1.141628   -1.379205
  H      1.086848    2.619310   -0.444026
  H      4.101789   -2.179850    1.555322
  H      4.090779   -2.423338   -0.211737
  H      6.071298   -0.915055   -0.424431
  H      6.076977   -0.668758    1.326767
  H      6.429021   -2.270197    0.658027
  H     -0.210706   -2.430223    1.239487
  H     -1.134961   -2.363036   -0.305108
  H     -2.983820    3.279001    0.707514
  H     -1.394465    2.476833    0.643831
  H     -1.409243    4.534538   -0.771335
  H     -1.204890    3.093554   -1.783413
  H     -2.775241    3.893142   -1.697986
  H     -4.665937   -2.046521   -0.020647
  H     -4.064997   -0.700531    0.992051
  H     -6.034980   -0.427506   -1.336361
  H     -6.470446   -0.379176    0.380356
  H     -5.458808    0.896865   -0.318733

 Total Charge           Charge          ....    0
 Multiplicity           Mult            ....    1
 Number of Electrons    NEL             ....  202
 Basis Dimension        Dim             ....  334

ORBITAL ENERGIES
----------------

  NO   OCC          E(Eh)            E(eV)
   0   2.0000     -88.042549     -2395.7596
   1   2.0000     -88.036387     -2395.5919
   2   2.0000     -87.984841     -2394.1892
   3   2.0000     -87.980817     -2394.0797
   4   2.0000     -76.427769     -2079.7053
   5   2.0000     -76.422932     -2079.5737
   6   2.0000     -18.799493      -511.5602
   7   2.0000     -18.796132      -511.4688
   8   2.0000     -18.792714      -511.3758
   9   2.0000     -18.788661      -511.2654
  10   2.0000      -9.961945      -271.0783
  11   2.0000      -9.958495      -270.9844
  12   2.0000      -9.956765      -270.9374
  13   2.0000      -9.952124      -270.8111
  14   2.0000      -9.948834      -270.7215
  15   2.0000      -9.888468      -269.0789
  16   2.0000      -9.888162      -269.0706
  17   2.0000      -9.886207      -269.0174
  18   2.0000      -9.881715      -268.8951
  19   2.0000      -7.686798      -209.1684
  20   2.0000      -7.681351      -209.0202
  21   2.0000      -7.629955      -207.6216
  22   2.0000      -7.626201      -207.5195
  23   2.0000      -6.425202      -174.8386
  24   2.0000      -6.420256      -174.7040
  25   2.0000      -5.714487      -155.4991
  26   2.0000      -5.711374      -155.4144
  27   2.0000      -5.709125      -155.3532
  28   2.0000      -5.705925      -155.2661
  29   2.0000      -5.704012      -155.2140
  30   2.0000      -5.698396      -155.0612
  31   2.0000      -5.658926      -153.9872
  32   2.0000      -5.655148      -153.8844
  33   2.0000      -5.650517      -153.7584
  34   2.0000      -5.650085      -153.7466
  35   2.0000      -5.646765      -153.6563
  36   2.0000      -5.646340      -153.6447
  37   2.0000      -4.648289      -126.4864
  38   2.0000      -4.647102      -126.4541
  39   2.0000      -4.645063      -126.3986
  40   2.0000      -4.643123      -126.3458
  41   2.0000      -4.642107      -126.3182
  42   2.0000      -4.640407      -126.2719
  43   2.0000      -0.993511       -27.0348
  44   2.0000      -0.985553       -26.8182
  45   2.0000      -0.950993       -25.8778
  46   2.0000      -0.943464       -25.6730
  47   2.0000      -0.761694       -20.7267
  48   2.0000      -0.722017       -19.6471
  49   2.0000      -0.712122       -19.3778
  50   2.0000      -0.695176       -18.9167
  51   2.0000      -0.690096       -18.7785
  52   2.0000      -0.671034       -18.2598
  53   2.0000      -0.649413       -17.6714
  54   2.0000      -0.637913       -17.3585
  55   2.0000      -0.590991       -16.0817
  56   2.0000      -0.588613       -16.0170
  57   2.0000      -0.578462       -15.7407
  58   2.0000      -0.570368       -15.5205
  59   2.0000      -0.564884       -15.3713
  60   2.0000      -0.512125       -13.9356
  61   2.0000      -0.502240       -13.6667
  62   2.0000      -0.483638       -13.1605
  63   2.0000      -0.476615       -12.9694
  64   2.0000      -0.458384       -12.4733
  65   2.0000      -0.449102       -12.2207
  66   2.0000      -0.442688       -12.0461
  67   2.0000      -0.434080       -11.8119
  68   2.0000      -0.430524       -11.7152
  69   2.0000      -0.414674       -11.2838
  70   2.0000      -0.408151       -11.1063
  71   2.0000      -0.398621       -10.8470
  72   2.0000      -0.390836       -10.6352
  73   2.0000      -0.387042       -10.5320
  74   2.0000      -0.379943       -10.3388
  75   2.0000      -0.373004       -10.1499
  76   2.0000      -0.362355        -9.8602
  77   2.0000      -0.361529        -9.8377
  78   2.0000      -0.357137        -9.7182
  79   2.0000      -0.351874        -9.5750
  80   2.0000      -0.349007        -9.4970
  81   2.0000      -0.347489        -9.4557
  82   2.0000      -0.343832        -9.3561
  83   2.0000      -0.340925        -9.2770
  84   2.0000      -0.335670        -9.1341
  85   2.0000      -0.324117        -8.8197
  86   2.0000      -0.314256        -8.5513
  87   2.0000      -0.301289        -8.1985
  88   2.0000      -0.297710        -8.1011
  89   2.0000      -0.295634        -8.0446
  90   2.0000      -0.287001        -7.8097
  91   2.0000      -0.279908        -7.6167
  92   2.0000      -0.272707        -7.4207
  93   2.0000      -0.264113        -7.1869
  94   2.0000      -0.257134        -6.9970
  95   2.0000      -0.240694        -6.5496
  96   2.0000      -0.215430        -5.8621
  97   2.0000      -0.206654        -5.6234
  98   2.0000      -0.201324        -5.4783
  99   2.0000      -0.199404        -5.4261
 100   2.0000      -0.186562        -5.0766
 101   0.0000      -0.040913        -1.1133
 102   0.0000      -0.025671        -0.6985
 103   0.0000      -0.006312        -0.1718
 104   0.0000       0.006471         0.1761
 105   0.0000       0.016531         0.4498

MULLIKEN ATOMIC CHARGES
-----------------------
   0 C :   -0.293651
   1 C :   -0.040870
   2 O :   -0.351797
   3 P :    0.605418
   4 S :   -0.325124
   5 O :   -0.382503
   6 C :   -0.009488
   7 C :   -0.283595
   8 S :   -0.087271
   9 C :   -0.343539
  10 S :   -0.085936
  11 P :    0.587757
  12 S :   -0.302433
  13 O :   -0.380506
  14 C :   -0.032283
  15 C :   -0.300434
  16 O :   -0.359404
  17 C :   -0.010878
  18 C :   -0.290745
  19 H :    0.109797
  20 H :    0.114356
  21 H :    0.123736
  22 H :    0.131004
  23 H :    0.108363
  24 H :    0.105875
  25 H :    0.103869
  26 H :    0.117132
  27 H :    0.121872
  28 H :    0.112711
  29 H :    0.193976
  30 H :    0.181765
  31 H :    0.109718
  32 H :    0.126732
  33 H :    0.108804
  34 H :    0.135508
  35 H :    0.116892
  36 H :    0.108349
  37 H :    0.103100
  38 H :    0.120694
  39 H :    0.110687
  40 H :    0.122341
Sum of atomic charges:    0.0000000

LOEWDIN ATOMIC CHARGES
----------------------
   0 C :   -0.362244
   1 C :   -0.119802
   2 O :   -0.231146
   3 P :    0.564947
   4 S :   -0.322575
   5 O :   -0.247851
   6 C :   -0.121034
   7 C :   -0.350570
   8 S :    0.071865
   9 C :   -0.476837
  10 S :    0.080515
  11 P :    0.557912
  12 S :   -0.300612
  13 O :   -0.245849
  14 C :   -0.115860
  15 C :   -0.366837
  16 O :   -0.237242
  17 C :   -0.115889
  18 C :   -0.358687
  19 H :    0.129838
  20 H :    0.126277
  21 H :    0.124084
  22 H :    0.107764
  23 H :    0.115992
  24 H :    0.109014
  25 H :    0.109950
  26 H :    0.125751
  27 H :    0.129679
  28 H :    0.131268
  29 H :    0.133341
  30 H :    0.132761
  31 H :    0.120341
  32 H :    0.110512
  33 H :    0.128868
  34 H :    0.122977
  35 H :    0.128530
  36 H :    0.120282
  37 H :    0.105014
  38 H :    0.129059
  39 H :    0.129999
  40 H :    0.126492

  Mayer bond orders larger than 0.100000
B(  0-C ,  1-C ) :   1.1635 B(  0-C , 19-H ) :   0.9391 B(  0-C , 20-H ) :   0.9466
B(  0-C , 21-H ) :   0.9388 B(  1-C ,  2-O ) :   0.8924 B(  1-C , 22-H ) :   0.9050
B(  1-C , 23-H ) :   0.9285 B(  2-O ,  3-P ) :   1.1467 B(  3-P ,  4-S ) :   1.6287
B(  3-P ,  5-O ) :   1.0865 B(  3-P ,  8-S ) :   0.9591 B(  4-S ,  8-S ) :   0.1100
B(  5-O ,  6-C ) :   0.9009 B(  6-C ,  7-C ) :   1.1598 B(  6-C , 24-H ) :   0.9072
B(  6-C , 25-H ) :   0.9292 B(  7-C , 26-H ) :   0.9512 B(  7-C , 27-H ) :   0.9506
B(  7-C , 28-H ) :   0.9418 B(  8-S ,  9-C ) :   1.0018 B(  9-C , 10-S ) :   0.9998
B(  9-C , 29-H ) :   0.8881 B(  9-C , 30-H ) :   0.8981 B( 10-S , 11-P ) :   0.9484
B( 10-S , 12-S ) :   0.1155 B( 11-P , 12-S ) :   1.6714 B( 11-P , 13-O ) :   1.0730
B( 11-P , 16-O ) :   1.1240 B( 13-O , 14-C ) :   0.9054 B( 14-C , 15-C ) :   1.1689
B( 14-C , 31-H ) :   0.9346 B( 14-C , 32-H ) :   0.9163 B( 15-C , 33-H ) :   0.9375
B( 15-C , 34-H ) :   0.9243 B( 15-C , 35-H ) :   0.9449 B( 16-O , 17-C ) :   0.8908
B( 17-C , 18-C ) :   1.1668 B( 17-C , 36-H ) :   0.9355 B( 17-C , 37-H ) :   0.9107
B( 18-C , 38-H ) :   0.9470 B( 18-C , 39-H ) :   0.9399 B( 18-C , 40-H ) :   0.9426

Dispersion correction           -0.064438526
FINAL SINGLE POINT ENERGY     -2929.519779131309

DIPOLE MOMENT
-------------

Method             : SCF
Type of density    : Electron Density
Multiplicity       :   1
Irrep              :   0
Energy             : -2929.6393565816179034 Eh
Relativity type    :
Basis              : AO
                                X                 Y                 Z
Electronic contribution:     -2.402101401     -11.599919564       3.745848866
Nuclear contribution   :      2.038018473      11.964064882      -3.829000287
                        -----------------------------------------
Total Dipole Moment    :     -0.364082928       0.364145317      -0.083151421
                        -----------------------------------------
Magnitude (a.u.)       :      0.521605550
Magnitude (Debye)      :      1.325815943

Rotational constants in cm-1:             0.013677             0.004691             0.004239
Rotational constants in MHz :           410.022217           140.617676           127.067156

                             ****ORCA TERMINATED NORMALLY****
TOTAL RUN TIME: 0 days 0 hours 0 minutes 20 seconds 711 msec
