                         Program Version 6.0.0  -   RELEASE  -
|  1> ! r2scan-3c def2/J RI DEFGRID2 scfconv6 printgap
|  2> %output
|  3>     printlevel normal
|  4> end
|  5> * xyz 0 1
|  6> C 3.4391064094 -2.3804553854 1.8893723824
|  7> C 3.5237806906 -0.8740738624 1.7503110144
|  8> O 3.5984438595 -0.4881124839 0.3530318292
|  9> P 2.3517893506 0.0120157482 -0.4834443644
| 10> S 2.8663969275 0.5704653604 -2.2825688004
| 11> O 1.6332275645 1.1310219866 0.4219544096
| 12> C 1.8178858986 2.5351065362 0.177911072
| 13> C 3.1858128606 2.9961945084 0.6373349887
| 14> S 0.9230155108 -1.5320715449 -0.3244382773
| 15> C -0.1454979237 -0.9898793909 -1.6808422144
| 16> S -0.8229407625 0.6888728495 -1.478994889
| 17> P -2.3821661934 0.2616815061 -0.1156310915
| 18> S -3.3472010253 1.8197467659 0.5728301608
| 19> O -1.7474588919 -0.6804862232 0.9977357306
| 20> C -1.093955738 -0.1578012707 2.1691101192
| 21> C -0.7898264043 -1.3296422275 3.0798353672
| 22> O -3.2032860681 -0.779778489 -0.9816022338
| 23> C -4.5898298527 -1.0689903166 -0.7002656693
| 24> C -4.7587257643 -1.7813888506 0.624615154
| 25> H 3.4620896085 -2.640062766 2.9430336046
| 26> H 2.517880042 -2.754648076 1.4480671735
| 27> H 4.2810474879 -2.8473599593 1.386130867
| 28> H 4.4480369753 -0.4894303807 2.1848463743
| 29> H 2.6643461901 -0.3816338136 2.2112389592
| 30> H 1.680916693 2.7235923897 -0.8918990452
| 31> H 1.0127638393 3.0167574483 0.7361080078
| 32> H 3.9561228534 2.4748195698 0.069239671
| 33> H 3.2820567186 4.0634267413 0.4651594907
| 34> H 3.3218084478 2.7877088074 1.6953194017
| 35> H -0.959576844 -1.7058507409 -1.7519600907
| 36> H 0.4398248225 -0.9554484194 -2.599139256
| 37> H -0.1778484639 0.3545614766 1.8611719399
| 38> H -1.7608811391 0.5707056462 2.6415675623
| 39> H -0.1577197471 -2.0428963107 2.5579206042
| 40> H -0.2781953391 -0.9697168861 3.9662110977
| 41> H -1.7113140344 -1.8234720062 3.3731827756
| 42> H -5.1466373103 -0.1268792408 -0.7071510084
| 43> H -4.90047405 -1.690550269 -1.5410524411
| 44> H -5.7974631627 -2.0723407562 0.7461399679
| 45> H -4.1271521613 -2.6650661964 0.6605842737
| 46> H -4.48108817 -1.1135139802 1.4388792519
| 47> *
| 48>
| 49>                          ****END OF INPUT****

CARTESIAN COORDINATES (ANGSTROEM)
---------------------------------
  C      3.439106   -2.380455    1.889372
  C      3.523781   -0.874074    1.750311
  O      3.598444   -0.488112    0.353032
  P      2.351789    0.012016   -0.483444
  S      2.866397    0.570465   -2.282569
  O      1.633228    1.131022    0.421954
  C      1.817886    2.535107    0.177911
  C      3.185813    2.996195    0.637335
  S      0.923016   -1.532072   -0.324438
  C     -0.145498   -0.989879   -1.680842
  S     -0.822941    0.688873   -1.478995
  P     -2.382166    0.261682   -0.115631
  S     -3.347201    1.819747    0.572830
  O     -1.747459   -0.680486    0.997736
  C     -1.093956   -0.157801    2.169110
  C     -0.789826   -1.329642    3.079835
  O     -3.203286   -0.779778   -0.981602
  C     -4.589830   -1.068990   -0.700266
  C     -4.758726   -1.781389    0.624615
  H      3.462090   -2.640063    2.943034
  H      2.517880   -2.754648    1.448067
  H      4.281047   -2.847360    1.386131
  H      4.448037   -0.489430    2.184846
  H      2.664346   -0.381634    2.211239
  H      1.680917    2.723592   -0.891899
  H      1.012764    3.016757    0.736108
  H      3.956123    2.474820    0.069240
  H      3.282057    4.063427    0.465159
  H      3.321808    2.787709    1.695319
  H     -0.959577   -1.705851   -1.751960
  H      0.439825   -0.955448   -2.599139
  H     -0.177848    0.354561    1.861172
  H     -1.760881    0.570706    2.641568
  H     -0.157720   -2.042896    2.557921
  H     -0.278195   -0.969717    3.966211
  H     -1.711314   -1.823472    3.373183
  H     -5.146637   -0.126879   -0.707151
  H     -4.900474   -1.690550   -1.541052
  H     -5.797463   -2.072341    0.746140
  H     -4.127152   -2.665066    0.660584
  H     -4.481088   -1.113514    1.438879

 Total Charge           Charge          ....    0
 Multiplicity           Mult            ....    1
 Number of Electrons    NEL             ....  202
 Basis Dimension        Dim             ....  539

ORBITAL ENERGIES
----------------

  NO   OCC          E(Eh)            E(eV)
   0   2.0000     -88.578969     -2410.3563
   1   2.0000     -88.574312     -2410.2296
   2   2.0000     -88.524046     -2408.8617
   3   2.0000     -88.521587     -2408.7948
   4   2.0000     -76.918384     -2093.0556
   5   2.0000     -76.914376     -2092.9466
   6   2.0000     -18.999134      -516.9927
   7   2.0000     -18.992802      -516.8204
   8   2.0000     -18.991822      -516.7937
   9   2.0000     -18.990537      -516.7588
  10   2.0000     -10.112357      -275.1712
  11   2.0000     -10.111158      -275.1386
  12   2.0000     -10.100927      -274.8602
  13   2.0000     -10.095919      -274.7239
  14   2.0000     -10.094989      -274.6986
  15   2.0000     -10.041025      -273.2302
  16   2.0000     -10.034894      -273.0634
  17   2.0000     -10.031802      -272.9792
  18   2.0000     -10.029945      -272.9287
  19   2.0000      -7.873808      -214.2572
  20   2.0000      -7.868296      -214.1072
  21   2.0000      -7.818711      -212.7579
  22   2.0000      -7.816194      -212.6894
  23   2.0000      -6.596653      -179.5040
  24   2.0000      -6.592784      -179.3988
  25   2.0000      -5.820637      -158.3876
  26   2.0000      -5.817612      -158.3053
  27   2.0000      -5.815651      -158.2519
  28   2.0000      -5.811861      -158.1488
  29   2.0000      -5.810908      -158.1228
  30   2.0000      -5.805274      -157.9695
  31   2.0000      -5.766520      -156.9150
  32   2.0000      -5.763814      -156.8414
  33   2.0000      -5.758983      -156.7099
  34   2.0000      -5.758572      -156.6987
  35   2.0000      -5.756565      -156.6441
  36   2.0000      -5.756157      -156.6330
  37   2.0000      -4.742544      -129.0512
  38   2.0000      -4.741275      -129.0167
  39   2.0000      -4.740348      -128.9914
  40   2.0000      -4.738113      -128.9306
  41   2.0000      -4.737891      -128.9246
  42   2.0000      -4.736524      -128.8874
  43   2.0000      -1.051807       -28.6211
  44   2.0000      -1.051335       -28.6083
  45   2.0000      -1.012486       -27.5511
  46   2.0000      -1.012055       -27.5394
  47   2.0000      -0.804076       -21.8800
  48   2.0000      -0.763859       -20.7857
  49   2.0000      -0.755041       -20.5457
  50   2.0000      -0.736798       -20.0493
  51   2.0000      -0.735280       -20.0080
  52   2.0000      -0.712335       -19.3836
  53   2.0000      -0.691303       -18.8113
  54   2.0000      -0.671160       -18.2632
  55   2.0000      -0.631353       -17.1800
  56   2.0000      -0.624012       -16.9802
  57   2.0000      -0.616967       -16.7885
  58   2.0000      -0.601119       -16.3573
  59   2.0000      -0.596603       -16.2344
  60   2.0000      -0.532679       -14.4949
  61   2.0000      -0.526920       -14.3382
  62   2.0000      -0.501463       -13.6455
  63   2.0000      -0.497684       -13.5427
  64   2.0000      -0.480650       -13.0792
  65   2.0000      -0.472671       -12.8620
  66   2.0000      -0.458325       -12.4717
  67   2.0000      -0.455138       -12.3849
  68   2.0000      -0.445311       -12.1175
  69   2.0000      -0.435401       -11.8479
  70   2.0000      -0.430288       -11.7087
  71   2.0000      -0.419149       -11.4056
  72   2.0000      -0.418023       -11.3750
  73   2.0000      -0.398218       -10.8361
  74   2.0000      -0.395615       -10.7652
  75   2.0000      -0.394176       -10.7261
  76   2.0000      -0.382129       -10.3983
  77   2.0000      -0.381319       -10.3762
  78   2.0000      -0.378793       -10.3075
  79   2.0000      -0.375634       -10.2215
  80   2.0000      -0.368574       -10.0294
  81   2.0000      -0.363006        -9.8779
  82   2.0000      -0.362744        -9.8708
  83   2.0000      -0.358706        -9.7609
  84   2.0000      -0.349502        -9.5104
  85   2.0000      -0.334279        -9.0962
  86   2.0000      -0.331789        -9.0284
  87   2.0000      -0.322055        -8.7636
  88   2.0000      -0.315497        -8.5851
  89   2.0000      -0.305666        -8.3176
  90   2.0000      -0.298088        -8.1114
  91   2.0000      -0.293426        -7.9845
  92   2.0000      -0.291772        -7.9395
  93   2.0000      -0.285746        -7.7756
  94   2.0000      -0.272567        -7.4169
  95   2.0000      -0.244679        -6.6580
  96   2.0000      -0.231298        -6.2939
  97   2.0000      -0.224359        -6.1051
  98   2.0000      -0.221650        -6.0314
  99   2.0000      -0.217809        -5.9269
 100   2.0000      -0.216277        -5.8852
 101   0.0000      -0.046265        -1.2589
 102   0.0000      -0.018756        -0.5104
 103   0.0000      -0.011839        -0.3222
 104   0.0000       0.000105         0.0029
 105   0.0000       0.005310         0.1445

MULLIKEN ATOMIC CHARGES
-----------------------
   0 C :   -0.423605
   1 C :   -0.164119
   2 O :   -0.286234
   3 P :    0.650159
   4 S :   -0.436268
   5 O :   -0.273774
   6 C :   -0.159193
   7 C :   -0.444226
   8 S :   -0.129789
   9 C :   -0.263369
  10 S :   -0.118815
  11 P :    0.659792
  12 S :   -0.468758
  13 O :   -0.256322
  14 C :   -0.131378
  15 C :   -0.473605
  16 O :   -0.300643
  17 C :   -0.151780
  18 C :   -0.438335
  19 H :    0.149579
  20 H :    0.155079
  21 H :    0.162962
  22 H :    0.157251
  23 H :    0.162666
  24 H :    0.179578
  25 H :    0.159828
  26 H :    0.175518
  27 H :    0.150078
  28 H :    0.145492
  29 H :    0.202549
  30 H :    0.216071
  31 H :    0.170957
  32 H :    0.167225
  33 H :    0.161332
  34 H :    0.148205
  35 H :    0.151837
  36 H :    0.173429
  37 H :    0.149330
  38 H :    0.148231
  39 H :    0.154085
  40 H :    0.168982
Sum of atomic charges:    0.0000000

LOEWDIN ATOMIC CHARGES
----------------------
   0 C :   -0.396883
   1 C :    0.022039
   2 O :   -0.653120
   3 P :    0.374099
   4 S :   -0.091072
   5 O :   -0.724831
   6 C :    0.009075
   7 C :   -0.398676
   8 S :    0.167984
   9 C :   -0.407378
  10 S :    0.198901
  11 P :    0.366997
  12 S :   -0.114845
  13 O :   -0.687311
  14 C :    0.009196
  15 C :   -0.391657
  16 O :   -0.679171
  17 C :    0.024680
  18 C :   -0.400366
  19 H :    0.160473
  20 H :    0.162503
  21 H :    0.164403
  22 H :    0.182115
  23 H :    0.176607
  24 H :    0.183526
  25 H :    0.181836
  26 H :    0.166836
  27 H :    0.161247
  28 H :    0.154915
  29 H :    0.191265
  30 H :    0.193841
  31 H :    0.187779
  32 H :    0.179479
  33 H :    0.160505
  34 H :    0.158743
  35 H :    0.159503
  36 H :    0.180870
  37 H :    0.179955
  38 H :    0.159882
  39 H :    0.160467
  40 H :    0.165587

  Mayer bond orders larger than 0.100000
B(  0-C ,  1-C ) :   0.9579 B(  0-C , 19-H ) :   0.9660 B(  0-C , 20-H ) :   0.9535
B(  0-C , 21-H ) :   0.9702 B(  1-C ,  2-O ) :   0.7482 B(  1-C , 22-H ) :   0.9594
B(  1-C , 23-H ) :   0.9682 B(  2-O ,  3-P ) :   1.1217 B(  3-P ,  4-S ) :   1.8478
B(  3-P ,  5-O ) :   1.0180 B(  3-P ,  8-S ) :   1.0565 B(  5-O ,  6-C ) :   0.7913
B(  6-C ,  7-C ) :   0.9169 B(  6-C , 24-H ) :   0.9591 B(  6-C , 25-H ) :   0.9618
B(  7-C , 26-H ) :   0.9610 B(  7-C , 27-H ) :   0.9622 B(  7-C , 28-H ) :   0.9732
B(  8-S ,  9-C ) :   0.9114 B(  9-C , 10-S ) :   0.9012 B(  9-C , 29-H ) :   0.9185
B(  9-C , 30-H ) :   0.9154 B( 10-S , 11-P ) :   1.0839 B( 11-P , 12-S ) :   1.7947
B( 11-P , 13-O ) :   1.0645 B( 11-P , 16-O ) :   1.1480 B( 13-O , 14-C ) :   0.7514
B( 14-C , 15-C ) :   0.9190 B( 14-C , 31-H ) :   0.9397 B( 14-C , 32-H ) :   0.9380
B( 15-C , 33-H ) :   0.9754 B( 15-C , 34-H ) :   0.9702 B( 15-C , 35-H ) :   0.9703
B( 16-O , 17-C ) :   0.8064 B( 17-C , 18-C ) :   0.9277 B( 17-C , 36-H ) :   0.9660
B( 17-C , 37-H ) :   0.9616 B( 18-C , 38-H ) :   0.9607 B( 18-C , 39-H ) :   0.9708
B( 18-C , 40-H ) :   0.9592

Dispersion correction           -0.021988771
FINAL SINGLE POINT ENERGY     -2932.461933665556

DIPOLE MOMENT
-------------

Method             : SCF
Type of density    : Electron Density
Multiplicity       :   1
Irrep              :   0
Energy             : -2932.4865628293018744 Eh
Relativity type    :
Basis              : AO
                                X                 Y                 Z
Electronic contribution:     -1.479222783       6.984693577     -20.496987528
Nuclear contribution   :      1.513886535      -8.076345782      22.126819493
                        -----------------------------------------
Total Dipole Moment    :      0.034663752      -1.091652205       1.629831966
                        -----------------------------------------
Magnitude (a.u.)       :      1.961952687
Magnitude (Debye)      :      4.986887417

Rotational constants in cm-1:             0.012283             0.005124             0.004776
Rotational constants in MHz :           368.237943           153.619825           143.189713

                             ****ORCA TERMINATED NORMALLY****
TOTAL RUN TIME: 0 days 0 hours 1 minutes 22 seconds 111 msec
