                         Program Version 6.0.0  -   RELEASE  -
|  1> ! r2scan-3c def2/J RI DEFGRID2 scfconv6 printgap
|  2> %output
|  3>     printlevel normal
|  4> end
|  5> %cpcm
|  6>     smd true
|  7>     smdsolvent "water"
|  8> end
|  9> * xyz 0 1
| 10> C 3.4391064094 -2.3804553854 1.8893723824
| 11> C 3.5237806906 -0.8740738624 1.7503110144
| 12> O 3.5984438595 -0.4881124839 0.3530318292
| 13> P 2.3517893506 0.0120157482 -0.4834443644
| 14> S 2.8663969275 0.5704653604 -2.2825688004
| 15> O 1.6332275645 1.1310219866 0.4219544096
| 16> C 1.8178858986 2.5351065362 0.177911072
| 17> C 3.1858128606 2.9961945084 0.6373349887
| 18> S 0.9230155108 -1.5320715449 -0.3244382773
| 19> C -0.1454979237 -0.9898793909 -1.6808422144
| 20> S -0.8229407625 0.6888728495 -1.478994889
| 21> P -2.3821661934 0.2616815061 -0.1156310915
| 22> S -3.3472010253 1.8197467659 0.5728301608
| 23> O -1.7474588919 -0.6804862232 0.9977357306
| 24> C -1.093955738 -0.1578012707 2.1691101192
| 25> C -0.7898264043 -1.3296422275 3.0798353672
| 26> O -3.2032860681 -0.779778489 -0.9816022338
| 27> C -4.5898298527 -1.0689903166 -0.7002656693
| 28> C -4.7587257643 -1.7813888506 0.624615154
| 29> H 3.4620896085 -2.640062766 2.9430336046
| 30> H 2.517880042 -2.754648076 1.4480671735
| 31> H 4.2810474879 -2.8473599593 1.386130867
| 32> H 4.4480369753 -0.4894303807 2.1848463743
| 33> H 2.6643461901 -0.3816338136 2.2112389592
| 34> H 1.680916693 2.7235923897 -0.8918990452
| 35> H 1.0127638393 3.0167574483 0.7361080078
| 36> H 3.9561228534 2.4748195698 0.069239671
| 37> H 3.2820567186 4.0634267413 0.4651594907
| 38> H 3.3218084478 2.7877088074 1.6953194017
| 39> H -0.959576844 -1.7058507409 -1.7519600907
| 40> H 0.4398248225 -0.9554484194 -2.599139256
| 41> H -0.1778484639 0.3545614766 1.8611719399
| 42> H -1.7608811391 0.5707056462 2.6415675623
| 43> H -0.1577197471 -2.0428963107 2.5579206042
| 44> H -0.2781953391 -0.9697168861 3.9662110977
| 45> H -1.7113140344 -1.8234720062 3.3731827756
| 46> H -5.1466373103 -0.1268792408 -0.7071510084
| 47> H -4.90047405 -1.690550269 -1.5410524411
| 48> H -5.7974631627 -2.0723407562 0.7461399679
| 49> H -4.1271521613 -2.6650661964 0.6605842737
| 50> H -4.48108817 -1.1135139802 1.4388792519
| 51> *
| 52>
| 53>                          ****END OF INPUT****

CARTESIAN COORDINATES (ANGSTROEM)
---------------------------------
  C      3.439106   -2.380455    1.889372
  C      3.523781   -0.874074    1.750311
  O      3.598444   -0.488112    0.353032
  P      2.351789    0.012016   -0.483444
  S      2.866397    0.570465   -2.282569
  O      1.633228    1.131022    0.421954
  C      1.817886    2.535107    0.177911
  C      3.185813    2.996195    0.637335
  S      0.923016   -1.532072   -0.324438
  C     -0.145498   -0.989879   -1.680842
  S     -0.822941    0.688873   -1.478995
  P     -2.382166    0.261682   -0.115631
  S     -3.347201    1.819747    0.572830
  O     -1.747459   -0.680486    0.997736
  C     -1.093956   -0.157801    2.169110
  C     -0.789826   -1.329642    3.079835
  O     -3.203286   -0.779778   -0.981602
  C     -4.589830   -1.068990   -0.700266
  C     -4.758726   -1.781389    0.624615
  H      3.462090   -2.640063    2.943034
  H      2.517880   -2.754648    1.448067
  H      4.281047   -2.847360    1.386131
  H      4.448037   -0.489430    2.184846
  H      2.664346   -0.381634    2.211239
  H      1.680917    2.723592   -0.891899
  H      1.012764    3.016757    0.736108
  H      3.956123    2.474820    0.069240
  H      3.282057    4.063427    0.465159
  H      3.321808    2.787709    1.695319
  H     -0.959577   -1.705851   -1.751960
  H      0.439825   -0.955448   -2.599139
  H     -0.177848    0.354561    1.861172
  H     -1.760881    0.570706    2.641568
  H     -0.157720   -2.042896    2.557921
  H     -0.278195   -0.969717    3.966211
  H     -1.711314   -1.823472    3.373183
  H     -5.146637   -0.126879   -0.707151
  H     -4.900474   -1.690550   -1.541052
  H     -5.797463   -2.072341    0.746140
  H     -4.127152   -2.665066    0.660584
  H     -4.481088   -1.113514    1.438879

 Total Charge           Charge          ....    0
 Multiplicity           Mult            ....    1
 Number of Electrons    NEL             ....  202
 Basis Dimension        Dim             ....  539

ORBITAL ENERGIES
----------------

  NO   OCC          E(Eh)            E(eV)
   0   2.0000     -88.578841     -2410.3528
   1   2.0000     -88.578158     -2410.3342
   2   2.0000     -88.531187     -2409.0561
   3   2.0000     -88.530073     -2409.0257
   4   2.0000     -76.920570     -2093.1151
   5   2.0000     -76.919241     -2093.0790
   6   2.0000     -18.997004      -516.9348
   7   2.0000     -18.993580      -516.8416
   8   2.0000     -18.992694      -516.8175
   9   2.0000     -18.988221      -516.6958
  10   2.0000     -10.107438      -275.0374
  11   2.0000     -10.093928      -274.6698
  12   2.0000     -10.090140      -274.5667
  13   2.0000     -10.086629      -274.4711
  14   2.0000     -10.086381      -274.4644
  15   2.0000     -10.021436      -272.6971
  16   2.0000     -10.018869      -272.6273
  17   2.0000     -10.018663      -272.6217
  18   2.0000     -10.017786      -272.5978
  19   2.0000      -7.873554      -214.2503
  20   2.0000      -7.872292      -214.2160
  21   2.0000      -7.826262      -212.9634
  22   2.0000      -7.825046      -212.9303
  23   2.0000      -6.598869      -179.5644
  24   2.0000      -6.597687      -179.5322
  25   2.0000      -5.820391      -158.3809
  26   2.0000      -5.819568      -158.3585
  27   2.0000      -5.817357      -158.2983
  28   2.0000      -5.815794      -158.2558
  29   2.0000      -5.810668      -158.1163
  30   2.0000      -5.809400      -158.0818
  31   2.0000      -5.773936      -157.1168
  32   2.0000      -5.772564      -157.0795
  33   2.0000      -5.766488      -156.9141
  34   2.0000      -5.766224      -156.9069
  35   2.0000      -5.765397      -156.8844
  36   2.0000      -5.765064      -156.8754
  37   2.0000      -4.744704      -129.1100
  38   2.0000      -4.743437      -129.0755
  39   2.0000      -4.742965      -129.0626
  40   2.0000      -4.742756      -129.0569
  41   2.0000      -4.742725      -129.0561
  42   2.0000      -4.741557      -129.0243
  43   2.0000      -1.052050       -28.6277
  44   2.0000      -1.048979       -28.5442
  45   2.0000      -1.012117       -27.5411
  46   2.0000      -1.009151       -27.4604
  47   2.0000      -0.803383       -21.8612
  48   2.0000      -0.758130       -20.6298
  49   2.0000      -0.744826       -20.2678
  50   2.0000      -0.725847       -19.7513
  51   2.0000      -0.724247       -19.7078
  52   2.0000      -0.708880       -19.2896
  53   2.0000      -0.692905       -18.8549
  54   2.0000      -0.675844       -18.3906
  55   2.0000      -0.627287       -17.0694
  56   2.0000      -0.618186       -16.8217
  57   2.0000      -0.604708       -16.4549
  58   2.0000      -0.593155       -16.1406
  59   2.0000      -0.590710       -16.0740
  60   2.0000      -0.527391       -14.3510
  61   2.0000      -0.519435       -14.1346
  62   2.0000      -0.495501       -13.4833
  63   2.0000      -0.491792       -13.3823
  64   2.0000      -0.477056       -12.9813
  65   2.0000      -0.463581       -12.6147
  66   2.0000      -0.449176       -12.2227
  67   2.0000      -0.447155       -12.1677
  68   2.0000      -0.438456       -11.9310
  69   2.0000      -0.434765       -11.8305
  70   2.0000      -0.422478       -11.4962
  71   2.0000      -0.412094       -11.2136
  72   2.0000      -0.409951       -11.1553
  73   2.0000      -0.394289       -10.7291
  74   2.0000      -0.390535       -10.6270
  75   2.0000      -0.386536       -10.5182
  76   2.0000      -0.378078       -10.2880
  77   2.0000      -0.373783       -10.1712
  78   2.0000      -0.364597        -9.9212
  79   2.0000      -0.360794        -9.8177
  80   2.0000      -0.357845        -9.7374
  81   2.0000      -0.352981        -9.6051
  82   2.0000      -0.351734        -9.5712
  83   2.0000      -0.349653        -9.5145
  84   2.0000      -0.345423        -9.3994
  85   2.0000      -0.328022        -8.9259
  86   2.0000      -0.322944        -8.7878
  87   2.0000      -0.311915        -8.4876
  88   2.0000      -0.310013        -8.4359
  89   2.0000      -0.301977        -8.2172
  90   2.0000      -0.293938        -7.9985
  91   2.0000      -0.289602        -7.8805
  92   2.0000      -0.287578        -7.8254
  93   2.0000      -0.281566        -7.6618
  94   2.0000      -0.271219        -7.3802
  95   2.0000      -0.246784        -6.7153
  96   2.0000      -0.237075        -6.4511
  97   2.0000      -0.233545        -6.3551
  98   2.0000      -0.231145        -6.2898
  99   2.0000      -0.224694        -6.1142
 100   2.0000      -0.222754        -6.0615
 101   0.0000      -0.047695        -1.2978
 102   0.0000      -0.024208        -0.6587
 103   0.0000      -0.015021        -0.4087
 104   0.0000       0.001349         0.0367
 105   0.0000       0.003796         0.1033

MULLIKEN ATOMIC CHARGES
-----------------------
   0 C :   -0.462007
   1 C :   -0.155971
   2 O :   -0.319221
   3 P :    0.664234
   4 S :   -0.501583
   5 O :   -0.278616
   6 C :   -0.149455
   7 C :   -0.481316
   8 S :   -0.126883
   9 C :   -0.269494
  10 S :   -0.153633
  11 P :    0.682905
  12 S :   -0.525347
  13 O :   -0.274631
  14 C :   -0.118011
  15 C :   -0.503977
  16 O :   -0.322313
  17 C :   -0.142800
  18 C :   -0.478291
  19 H :    0.175157
  20 H :    0.156139
  21 H :    0.171876
  22 H :    0.180954
  23 H :    0.183559
  24 H :    0.176191
  25 H :    0.178195
  26 H :    0.168780
  27 H :    0.170423
  28 H :    0.167798
  29 H :    0.236466
  30 H :    0.235343
  31 H :    0.178674
  32 H :    0.169241
  33 H :    0.168015
  34 H :    0.172646
  35 H :    0.164419
  36 H :    0.176048
  37 H :    0.175765
  38 H :    0.172698
  39 H :    0.169629
  40 H :    0.168393
Sum of atomic charges:    0.0000000

LOEWDIN ATOMIC CHARGES
----------------------
   0 C :   -0.399229
   1 C :    0.030746
   2 O :   -0.672510
   3 P :    0.376274
   4 S :   -0.139408
   5 O :   -0.722308
   6 C :    0.012004
   7 C :   -0.401375
   8 S :    0.176352
   9 C :   -0.400157
  10 S :    0.178023
  11 P :    0.370432
  12 S :   -0.155019
  13 O :   -0.693108
  14 C :    0.015302
  15 C :   -0.392489
  16 O :   -0.687489
  17 C :    0.029425
  18 C :   -0.403004
  19 H :    0.171150
  20 H :    0.160929
  21 H :    0.165341
  22 H :    0.192557
  23 H :    0.185592
  24 H :    0.181169
  25 H :    0.189057
  26 H :    0.162759
  27 H :    0.167912
  28 H :    0.162858
  29 H :    0.203517
  30 H :    0.199755
  31 H :    0.190324
  32 H :    0.181145
  33 H :    0.162637
  34 H :    0.168980
  35 H :    0.162601
  36 H :    0.181510
  37 H :    0.191172
  38 H :    0.169074
  39 H :    0.164522
  40 H :    0.162977

  Mayer bond orders larger than 0.100000
B(  0-C ,  1-C ) :   0.9457 B(  0-C , 19-H ) :   0.9593 B(  0-C , 20-H ) :   0.9530
B(  0-C , 21-H ) :   0.9699 B(  1-C ,  2-O ) :   0.7383 B(  1-C , 22-H ) :   0.9494
B(  1-C , 23-H ) :   0.9575 B(  2-O ,  3-P ) :   1.1297 B(  3-P ,  4-S ) :   1.8116
B(  3-P ,  5-O ) :   1.0298 B(  3-P ,  8-S ) :   1.0741 B(  5-O ,  6-C ) :   0.7764
B(  6-C ,  7-C ) :   0.9169 B(  6-C , 24-H ) :   0.9574 B(  6-C , 25-H ) :   0.9530
B(  7-C , 26-H ) :   0.9627 B(  7-C , 27-H ) :   0.9580 B(  7-C , 28-H ) :   0.9685
B(  8-S ,  9-C ) :   0.9027 B(  9-C , 10-S ) :   0.8937 B(  9-C , 29-H ) :   0.9074
B(  9-C , 30-H ) :   0.9078 B( 10-S , 11-P ) :   1.0983 B( 11-P , 12-S ) :   1.7611
B( 11-P , 13-O ) :   1.0743 B( 11-P , 16-O ) :   1.1550 B( 13-O , 14-C ) :   0.7461
B( 14-C , 15-C ) :   0.9224 B( 14-C , 31-H ) :   0.9328 B( 14-C , 32-H ) :   0.9347
B( 15-C , 33-H ) :   0.9709 B( 15-C , 34-H ) :   0.9620 B( 15-C , 35-H ) :   0.9692
B( 16-O , 17-C ) :   0.7946 B( 17-C , 18-C ) :   0.9166 B( 17-C , 36-H ) :   0.9620
B( 17-C , 37-H ) :   0.9510 B( 18-C , 38-H ) :   0.9548 B( 18-C , 39-H ) :   0.9696
B( 18-C , 40-H ) :   0.9583

Dispersion correction           -0.021988771
FINAL SINGLE POINT ENERGY     -2932.472772871452

DIPOLE MOMENT
-------------

Method             : SCF
Type of density    : Electron Density
Multiplicity       :   1
Irrep              :   0
Energy             : -2932.4974020351978652 Eh
Relativity type    :
Basis              : AO
                                X                 Y                 Z
Electronic contribution:     -1.583553859       6.533912473     -19.755063436
Nuclear contribution   :      1.513886535      -8.076345782      22.126819493
                        -----------------------------------------
Total Dipole Moment    :     -0.069667324      -1.542433309       2.371756057
                        -----------------------------------------
Magnitude (a.u.)       :      2.830049618
Magnitude (Debye)      :      7.193414460

Rotational constants in cm-1:             0.012283             0.005124             0.004776
Rotational constants in MHz :           368.237943           153.619825           143.189713

                             ****ORCA TERMINATED NORMALLY****
TOTAL RUN TIME: 0 days 0 hours 1 minutes 53 seconds 521 msec
