                         Program Version 6.0.0  -   RELEASE  -
|  1> ! pbe def2-sv(p) def2/J RI DEFGRID1 loosescf d4 GCP(DFT/SV(P)) printgap
|  2> %output
|  3>     printlevel normal
|  4> end
|  5> * xyz 0 1
|  6> C -3.0652789961 -0.3928264648 -6.44561e-05
|  7> C -1.6074526625 -0.0423741252 0.0001478052
|  8> C -1.1781055836 1.2755838998 4.85988e-05
|  9> C 0.1740117745 1.5711828477 -9.42371e-05
| 10> C 1.1318564337 0.5685114897 -0.0001128621
| 11> C 0.710450696 -0.7655186407 -3.99739e-05
| 12> C -0.6466714341 -1.0464986965 9.92972e-05
| 13> C 1.712176662 -1.8800322645 -3.87948e-05
| 14> C 2.590695969 0.9103999083 6.96805e-05
| 15> H -3.3129153323 -0.9810108329 -0.8824997482
| 16> H -3.3114319676 -0.9888446472 0.8774683904
| 17> H -3.679278535 0.5039253213 0.0043323054
| 18> H -1.9018711592 2.0782785956 9.22336e-05
| 19> H 0.4901242372 2.6051769912 -1.5219e-05
| 20> H -0.9707019884 -2.0785342515 9.10515e-05
| 21> H 2.3516013399 -1.8188587129 0.8795560291
| 22> H 1.2131201647 -2.8453190368 -0.0003455151
| 23> H 2.3520350379 -1.8185494111 -0.8792958264
| 24> H 2.7316584388 1.9880325787 -0.0008037304
| 25> H 3.0809919377 0.4962998877 0.880189997
| 26> H 3.081647667 0.4947660003 -0.8789494077
| 27> *
| 28>
| 29>                          ****END OF INPUT****

CARTESIAN COORDINATES (ANGSTROEM)
---------------------------------
  C     -3.065279   -0.392826   -0.000064
  C     -1.607453   -0.042374    0.000148
  C     -1.178106    1.275584    0.000049
  C      0.174012    1.571183   -0.000094
  C      1.131856    0.568511   -0.000113
  C      0.710451   -0.765519   -0.000040
  C     -0.646671   -1.046499    0.000099
  C      1.712177   -1.880032   -0.000039
  C      2.590696    0.910400    0.000070
  H     -3.312915   -0.981011   -0.882500
  H     -3.311432   -0.988845    0.877468
  H     -3.679279    0.503925    0.004332
  H     -1.901871    2.078279    0.000092
  H      0.490124    2.605177   -0.000015
  H     -0.970702   -2.078534    0.000091
  H      2.351601   -1.818859    0.879556
  H      1.213120   -2.845319   -0.000346
  H      2.352035   -1.818549   -0.879296
  H      2.731658    1.988033   -0.000804
  H      3.080992    0.496300    0.880190
  H      3.081648    0.494766   -0.878949

 Total Charge           Charge          ....    0
 Multiplicity           Mult            ....    1
 Number of Electrons    NEL             ....   66
 Basis Dimension        Dim             ....  150

ORBITAL ENERGIES
----------------

  NO   OCC          E(Eh)            E(eV)
   0   2.0000      -9.893602      -269.2186
   1   2.0000      -9.891515      -269.1618
   2   2.0000      -9.891468      -269.1605
   3   2.0000      -9.880606      -268.8649
   4   2.0000      -9.879956      -268.8473
   5   2.0000      -9.878823      -268.8164
   6   2.0000      -9.877872      -268.7906
   7   2.0000      -9.877809      -268.7888
   8   2.0000      -9.877183      -268.7718
   9   2.0000      -0.775519       -21.1029
  10   2.0000      -0.709499       -19.3065
  11   2.0000      -0.682216       -18.5640
  12   2.0000      -0.643563       -17.5122
  13   2.0000      -0.612523       -16.6676
  14   2.0000      -0.576253       -15.6806
  15   2.0000      -0.530050       -14.4234
  16   2.0000      -0.494839       -13.4653
  17   2.0000      -0.431624       -11.7451
  18   2.0000      -0.427946       -11.6450
  19   2.0000      -0.390581       -10.6282
  20   2.0000      -0.385870       -10.5001
  21   2.0000      -0.370481       -10.0813
  22   2.0000      -0.358750        -9.7621
  23   2.0000      -0.355158        -9.6643
  24   2.0000      -0.353396        -9.6164
  25   2.0000      -0.345306        -9.3963
  26   2.0000      -0.339925        -9.2498
  27   2.0000      -0.321798        -8.7566
  28   2.0000      -0.297785        -8.1032
  29   2.0000      -0.286324        -7.7913
  30   2.0000      -0.284528        -7.7424
  31   2.0000      -0.213978        -5.8226
  32   2.0000      -0.201702        -5.4886
  33   0.0000      -0.024247        -0.6598
  34   0.0000      -0.021273        -0.5789
  35   0.0000       0.042620         1.1598
  36   0.0000       0.054481         1.4825
  37   0.0000       0.066472         1.8088

MULLIKEN ATOMIC CHARGES
-----------------------
   0 C :   -0.222096
   1 C :    0.076694
   2 C :   -0.117219
   3 C :   -0.133593
   4 C :   -0.009766
   5 C :    0.003284
   6 C :   -0.212495
   7 C :   -0.205591
   8 C :   -0.205977
   9 H :    0.112251
  10 H :    0.112099
  11 H :    0.098021
  12 H :    0.028914
  13 H :    0.028865
  14 H :    0.015559
  15 H :    0.108149
  16 H :    0.100257
  17 H :    0.108154
  18 H :    0.099800
  19 H :    0.107366
  20 H :    0.107326
Sum of atomic charges:    0.0000000

LOEWDIN ATOMIC CHARGES
----------------------
   0 C :   -0.322990
   1 C :   -0.052123
   2 C :   -0.132266
   3 C :   -0.123816
   4 C :   -0.054130
   5 C :   -0.046218
   6 C :   -0.125767
   7 C :   -0.321048
   8 C :   -0.321448
   9 H :    0.130402
  10 H :    0.130324
  11 H :    0.122620
  12 H :    0.118485
  13 H :    0.118583
  14 H :    0.116125
  15 H :    0.129368
  16 H :    0.123680
  17 H :    0.129360
  18 H :    0.123854
  19 H :    0.128515
  20 H :    0.128491

  Mayer bond orders larger than 0.100000
B(  0-C ,  1-C ) :   1.0934 B(  0-C ,  9-H ) :   0.9368 B(  0-C , 10-H ) :   0.9369
B(  0-C , 11-H ) :   0.9455 B(  1-C ,  2-C ) :   1.4034 B(  1-C ,  6-C ) :   1.3460
B(  2-C ,  3-C ) :   1.3414 B(  2-C , 12-H ) :   0.9600 B(  3-C ,  4-C ) :   1.4051
B(  3-C , 13-H ) :   0.9573 B(  4-C ,  5-C ) :   1.3924 B(  4-C ,  8-C ) :   1.1446
B(  5-C ,  6-C ) :   1.3951 B(  5-C ,  7-C ) :   1.1429 B(  6-C , 14-H ) :   0.9610
B(  7-C , 15-H ) :   0.9228 B(  7-C , 16-H ) :   0.9370 B(  7-C , 17-H ) :   0.9228
B(  8-C , 18-H ) :   0.9371 B(  8-C , 19-H ) :   0.9235 B(  8-C , 20-H ) :   0.9235

Dispersion correction           -0.021224949
FINAL SINGLE POINT ENERGY      -349.377550748412

DIPOLE MOMENT
-------------

Method             : SCF
Type of density    : Electron Density
Multiplicity       :   1
Irrep              :   0
Energy             :  -349.4359740840768040 Eh
Relativity type    :
Basis              : AO
                                X                 Y                 Z
Electronic contribution:     -1.878051120       2.092554379      -0.000023050
Nuclear contribution   :      1.993586068      -2.218425004      -0.000168345
                        -----------------------------------------
Total Dipole Moment    :      0.115534949      -0.125870625      -0.000191395
                        -----------------------------------------
Magnitude (a.u.)       :      0.170856007
Magnitude (Debye)      :      0.434281458

Rotational constants in cm-1:             0.099572             0.043470             0.030777
Rotational constants in MHz :          2985.093152          1303.202228           922.664260

                             ****ORCA TERMINATED NORMALLY****
TOTAL RUN TIME: 0 days 0 hours 0 minutes 23 seconds 642 msec
