                         Program Version 6.0.0  -   RELEASE  -
|  1> ! pbe def2-sv(p) def2/J RI DEFGRID1 loosescf d4 GCP(DFT/SV(P)) printgap
|  2> %output
|  3>     printlevel normal
|  4> end
|  5> * xyz 0 1
|  6> C 5.4000494718 -1.2841158885 -1.1261644749
|  7> C 4.0036712821 -1.836198682 -1.3403093766
|  8> O 3.1762059516 -1.6201182449 -0.1804981212
|  9> P 2.2731600617 -0.3278204674 0.0058676904
| 10> S 3.1640320786 1.4245755537 -0.0506013517
| 11> O 1.5248403929 -0.6636193936 1.3568707779
| 12> C 1.9789968125 -0.157835028 2.6296830958
| 13> C 3.2830534 -0.8053944153 3.0431639885
| 14> S 0.7382603799 -0.6127111893 -1.4227700126
| 15> C 0.0482074591 1.0589295845 -1.2971042448
| 16> S -0.9080645422 1.317407617 0.2117532324
| 17> P -2.7953148485 0.546587992 -0.4496058817
| 18> S -2.9660205412 0.4121880973 -2.3958426743
| 19> O -3.8752320843 1.5045457822 0.172573773
| 20> C -4.3192497141 1.4975953595 1.5533419629
| 21> C -3.1939070932 1.7791586323 2.5249402204
| 22> O -3.0672090442 -0.8060424204 0.3465116086
| 23> C -2.4681738478 -2.0673848959 -0.0052765775
| 24> C -1.4474582942 -2.4749014998 1.0389941288
| 25> H 5.849368469 -1.7345930231 -0.2455485613
| 26> H 6.0105144869 -1.5086992122 -1.9948353051
| 27> H 5.3638704089 -0.205551076 -0.9891961783
| 28> H 4.0201896465 -2.9206306802 -1.4635585015
| 29> H 3.5291061429 -1.3791021901 -2.2135472076
| 30> H 2.0888309704 0.9285005693 2.5531135201
| 31> H 1.1664551839 -0.4005136228 3.3150999225
| 32> H 4.067970627 -0.5268163713 2.340792527
| 33> H 3.5591783277 -0.46412698 4.0357970947
| 34> H 3.1814938517 -1.8872540442 3.0441534703
| 35> H -0.600353504 1.1993862111 -2.1631177385
| 36> H 0.8655837034 1.7808057338 -1.2855563343
| 37> H -5.0754844126 2.283682235 1.5724160008
| 38> H -4.7808733741 0.5297039067 1.7565015803
| 39> H -3.5992202466 1.8413897321 3.5301144437
| 40> H -2.4563611541 0.9793794856 2.4885482997
| 41> H -2.7022732916 2.7166832679 2.2774608293
| 42> H -3.2973422365 -2.7771425679 -0.0423899429
| 43> H -2.0183931037 -1.9920254355 -1.000883297
| 44> H -0.6225616464 -1.7671286212 1.0699589228
| 45> H -1.9143227447 -2.5156869538 2.0190392662
| 46> H -1.0555273943 -3.4547042863 0.7861161286
| 47> *
| 48>
| 49>                          ****END OF INPUT****

CARTESIAN COORDINATES (ANGSTROEM)
---------------------------------
  C      5.400049   -1.284116   -1.126164
  C      4.003671   -1.836199   -1.340309
  O      3.176206   -1.620118   -0.180498
  P      2.273160   -0.327820    0.005868
  S      3.164032    1.424576   -0.050601
  O      1.524840   -0.663619    1.356871
  C      1.978997   -0.157835    2.629683
  C      3.283053   -0.805394    3.043164
  S      0.738260   -0.612711   -1.422770
  C      0.048207    1.058930   -1.297104
  S     -0.908065    1.317408    0.211753
  P     -2.795315    0.546588   -0.449606
  S     -2.966021    0.412188   -2.395843
  O     -3.875232    1.504546    0.172574
  C     -4.319250    1.497595    1.553342
  C     -3.193907    1.779159    2.524940
  O     -3.067209   -0.806042    0.346512
  C     -2.468174   -2.067385   -0.005277
  C     -1.447458   -2.474901    1.038994
  H      5.849368   -1.734593   -0.245549
  H      6.010514   -1.508699   -1.994835
  H      5.363870   -0.205551   -0.989196
  H      4.020190   -2.920631   -1.463559
  H      3.529106   -1.379102   -2.213547
  H      2.088831    0.928501    2.553114
  H      1.166455   -0.400514    3.315100
  H      4.067971   -0.526816    2.340793
  H      3.559178   -0.464127    4.035797
  H      3.181494   -1.887254    3.044153
  H     -0.600354    1.199386   -2.163118
  H      0.865584    1.780806   -1.285556
  H     -5.075484    2.283682    1.572416
  H     -4.780873    0.529704    1.756502
  H     -3.599220    1.841390    3.530114
  H     -2.456361    0.979379    2.488548
  H     -2.702273    2.716683    2.277461
  H     -3.297342   -2.777143   -0.042390
  H     -2.018393   -1.992025   -1.000883
  H     -0.622562   -1.767129    1.069959
  H     -1.914323   -2.515687    2.019039
  H     -1.055527   -3.454704    0.786116

 Total Charge           Charge          ....    0
 Multiplicity           Mult            ....    1
 Number of Electrons    NEL             ....  202
 Basis Dimension        Dim             ....  334

ORBITAL ENERGIES
----------------

  NO   OCC          E(Eh)            E(eV)
   0   2.0000     -88.045012     -2395.8266
   1   2.0000     -88.039840     -2395.6858
   2   2.0000     -87.993790     -2394.4328
   3   2.0000     -87.984248     -2394.1731
   4   2.0000     -76.431793     -2079.8148
   5   2.0000     -76.426339     -2079.6664
   6   2.0000     -18.799303      -511.5550
   7   2.0000     -18.796881      -511.4891
   8   2.0000     -18.793739      -511.4036
   9   2.0000     -18.791507      -511.3429
  10   2.0000      -9.960202      -271.0309
  11   2.0000      -9.960109      -271.0284
  12   2.0000      -9.955770      -270.9103
  13   2.0000      -9.949278      -270.7336
  14   2.0000      -9.948299      -270.7070
  15   2.0000      -9.893402      -269.2132
  16   2.0000      -9.887762      -269.0597
  17   2.0000      -9.885362      -268.9944
  18   2.0000      -9.877952      -268.7927
  19   2.0000      -7.690021      -209.2561
  20   2.0000      -7.684499      -209.1058
  21   2.0000      -7.638594      -207.8567
  22   2.0000      -7.629510      -207.6095
  23   2.0000      -6.429471      -174.9548
  24   2.0000      -6.423784      -174.8001
  25   2.0000      -5.717724      -155.5872
  26   2.0000      -5.714604      -155.5023
  27   2.0000      -5.712404      -155.4424
  28   2.0000      -5.708998      -155.3497
  29   2.0000      -5.707106      -155.2982
  30   2.0000      -5.701566      -155.1475
  31   2.0000      -5.667352      -154.2165
  32   2.0000      -5.659224      -153.9953
  33   2.0000      -5.658936      -153.9875
  34   2.0000      -5.658500      -153.9756
  35   2.0000      -5.649955      -153.7431
  36   2.0000      -5.649717      -153.7366
  37   2.0000      -4.651945      -126.5858
  38   2.0000      -4.651269      -126.5675
  39   2.0000      -4.649957      -126.5318
  40   2.0000      -4.646724      -126.4438
  41   2.0000      -4.645297      -126.4050
  42   2.0000      -4.644153      -126.3738
  43   2.0000      -0.993939       -27.0465
  44   2.0000      -0.988665       -26.9029
  45   2.0000      -0.952851       -25.9284
  46   2.0000      -0.943779       -25.6815
  47   2.0000      -0.763427       -20.7739
  48   2.0000      -0.724276       -19.7085
  49   2.0000      -0.712879       -19.3984
  50   2.0000      -0.691750       -18.8235
  51   2.0000      -0.690486       -18.7891
  52   2.0000      -0.676952       -18.4208
  53   2.0000      -0.652995       -17.7689
  54   2.0000      -0.637506       -17.3474
  55   2.0000      -0.603189       -16.4136
  56   2.0000      -0.596199       -16.2234
  57   2.0000      -0.575958       -15.6726
  58   2.0000      -0.574252       -15.6262
  59   2.0000      -0.559752       -15.2316
  60   2.0000      -0.505487       -13.7550
  61   2.0000      -0.498217       -13.5572
  62   2.0000      -0.481293       -13.0966
  63   2.0000      -0.476162       -12.9570
  64   2.0000      -0.459270       -12.4974
  65   2.0000      -0.449028       -12.2187
  66   2.0000      -0.444359       -12.0916
  67   2.0000      -0.440211       -11.9787
  68   2.0000      -0.426294       -11.6000
  69   2.0000      -0.423448       -11.5226
  70   2.0000      -0.408913       -11.1271
  71   2.0000      -0.400050       -10.8859
  72   2.0000      -0.395776       -10.7696
  73   2.0000      -0.389041       -10.5864
  74   2.0000      -0.383870       -10.4456
  75   2.0000      -0.377099       -10.2614
  76   2.0000      -0.367010        -9.9869
  77   2.0000      -0.360730        -9.8160
  78   2.0000      -0.356718        -9.7068
  79   2.0000      -0.351445        -9.5633
  80   2.0000      -0.350479        -9.5370
  81   2.0000      -0.349111        -9.4998
  82   2.0000      -0.344401        -9.3716
  83   2.0000      -0.338770        -9.2184
  84   2.0000      -0.331191        -9.0122
  85   2.0000      -0.326357        -8.8806
  86   2.0000      -0.311893        -8.4870
  87   2.0000      -0.302190        -8.2230
  88   2.0000      -0.299196        -8.1415
  89   2.0000      -0.293472        -7.9858
  90   2.0000      -0.289233        -7.8704
  91   2.0000      -0.280472        -7.6320
  92   2.0000      -0.276520        -7.5245
  93   2.0000      -0.269546        -7.3347
  94   2.0000      -0.255702        -6.9580
  95   2.0000      -0.236212        -6.4277
  96   2.0000      -0.220854        -6.0097
  97   2.0000      -0.213350        -5.8055
  98   2.0000      -0.206111        -5.6086
  99   2.0000      -0.201418        -5.4809
 100   2.0000      -0.199766        -5.4359
 101   0.0000      -0.044846        -1.2203
 102   0.0000      -0.027394        -0.7454
 103   0.0000      -0.006415        -0.1746
 104   0.0000      -0.002448        -0.0666
 105   0.0000       0.010082         0.2744

MULLIKEN ATOMIC CHARGES
-----------------------
   0 C :   -0.298089
   1 C :   -0.013453
   2 O :   -0.370662
   3 P :    0.612171
   4 S :   -0.331147
   5 O :   -0.354469
   6 C :   -0.000321
   7 C :   -0.310394
   8 S :   -0.081397
   9 C :   -0.362050
  10 S :   -0.111636
  11 P :    0.613249
  12 S :   -0.310227
  13 O :   -0.362923
  14 C :    0.008812
  15 C :   -0.340354
  16 O :   -0.386457
  17 C :   -0.003552
  18 C :   -0.321777
  19 H :    0.114922
  20 H :    0.110314
  21 H :    0.132103
  22 H :    0.110030
  23 H :    0.106756
  24 H :    0.114778
  25 H :    0.105140
  26 H :    0.125563
  27 H :    0.113628
  28 H :    0.117692
  29 H :    0.197606
  30 H :    0.194189
  31 H :    0.113151
  32 H :    0.112569
  33 H :    0.118689
  34 H :    0.132398
  35 H :    0.132961
  36 H :    0.104358
  37 H :    0.105107
  38 H :    0.154745
  39 H :    0.102806
  40 H :    0.105173
Sum of atomic charges:    0.0000000

LOEWDIN ATOMIC CHARGES
----------------------
   0 C :   -0.364228
   1 C :   -0.115395
   2 O :   -0.243119
   3 P :    0.571509
   4 S :   -0.315127
   5 O :   -0.230346
   6 C :   -0.116529
   7 C :   -0.364950
   8 S :    0.091015
   9 C :   -0.492888
  10 S :    0.073064
  11 P :    0.572639
  12 S :   -0.303257
  13 O :   -0.236475
  14 C :   -0.106461
  15 C :   -0.373647
  16 O :   -0.251578
  17 C :   -0.116386
  18 C :   -0.369108
  19 H :    0.125620
  20 H :    0.130187
  21 H :    0.125083
  22 H :    0.120246
  23 H :    0.108787
  24 H :    0.111501
  25 H :    0.118434
  26 H :    0.122956
  27 H :    0.131309
  28 H :    0.126854
  29 H :    0.128046
  30 H :    0.127970
  31 H :    0.124055
  32 H :    0.116197
  33 H :    0.134276
  34 H :    0.118898
  35 H :    0.129687
  36 H :    0.117240
  37 H :    0.103198
  38 H :    0.121820
  39 H :    0.120084
  40 H :    0.128821

  Mayer bond orders larger than 0.100000
B(  0-C ,  1-C ) :   1.1672 B(  0-C , 19-H ) :   0.9466 B(  0-C , 20-H ) :   0.9391
B(  0-C , 21-H ) :   0.9317 B(  1-C ,  2-O ) :   0.9035 B(  1-C , 22-H ) :   0.9356
B(  1-C , 23-H ) :   0.9164 B(  2-O ,  3-P ) :   1.1143 B(  3-P ,  4-S ) :   1.5956
B(  3-P ,  5-O ) :   1.1223 B(  3-P ,  8-S ) :   0.9666 B(  4-S ,  8-S ) :   0.1101
B(  5-O ,  6-C ) :   0.8983 B(  6-C ,  7-C ) :   1.1642 B(  6-C , 24-H ) :   0.9155
B(  6-C , 25-H ) :   0.9332 B(  7-C , 26-H ) :   0.9343 B(  7-C , 27-H ) :   0.9388
B(  7-C , 28-H ) :   0.9461 B(  8-S ,  9-C ) :   0.9991 B(  9-C , 10-S ) :   1.0165
B(  9-C , 29-H ) :   0.8561 B(  9-C , 30-H ) :   0.8662 B( 10-S , 11-P ) :   0.9344
B( 10-S , 12-S ) :   0.1160 B( 11-P , 12-S ) :   1.6476 B( 11-P , 13-O ) :   1.1482
B( 11-P , 16-O ) :   1.0729 B( 12-S , 29-H ) :   0.1053 B( 13-O , 14-C ) :   0.8972
B( 14-C , 15-C ) :   1.1704 B( 14-C , 31-H ) :   0.9337 B( 14-C , 32-H ) :   0.9275
B( 15-C , 33-H ) :   0.9350 B( 15-C , 34-H ) :   0.9312 B( 15-C , 35-H ) :   0.9405
B( 16-O , 17-C ) :   0.9004 B( 17-C , 18-C ) :   1.1653 B( 17-C , 36-H ) :   0.9355
B( 17-C , 37-H ) :   0.9025 B( 18-C , 38-H ) :   0.9194 B( 18-C , 39-H ) :   0.9460
B( 18-C , 40-H ) :   0.9402

Dispersion correction           -0.064693777
FINAL SINGLE POINT ENERGY     -2929.522104891794

DIPOLE MOMENT
-------------

Method             : SCF
Type of density    : Electron Density
Multiplicity       :   1
Irrep              :   0
Energy             : -2929.6430560606909239 Eh
Relativity type    :
Basis              : AO
                                X                 Y                 Z
Electronic contribution:    -10.866504578       9.872710542     -17.155611834
Nuclear contribution   :     11.296423500     -10.869881182      18.719066385
                        -----------------------------------------
Total Dipole Moment    :      0.429918922      -0.997170640       1.563454551
                        -----------------------------------------
Magnitude (a.u.)       :      1.903567624
Magnitude (Debye)      :      4.838484380

Rotational constants in cm-1:             0.013266             0.004606             0.004288
Rotational constants in MHz :           397.713837           138.094836           128.536874

                             ****ORCA TERMINATED NORMALLY****
TOTAL RUN TIME: 0 days 0 hours 0 minutes 20 seconds 953 msec
