                         Program Version 6.0.1  -  RELEASE   -
|  1> ! pbe def2-sv(p) def2/J RI DEFGRID1 loosescf d4 GCP(DFT/SV(P)) printgap
|  2> %output
|  3>     printlevel normal
|  4> end
|  5> * xyz 0 1
|  6> C 2.3018880328 -3.3438846189 -2.6492179242
|  7> C 3.2578816987 -3.0459541451 -1.5048889886
|  8> O 3.0137201896 -1.7267669563 -0.9804896925
|  9> C 2.1504018071 -1.5905916521 0.0031176767
| 10> O 1.5924592403 -2.5040832112 0.5697220065
| 11> C 1.9062591657 -0.1264685364 0.3214197674
| 12> C 1.0491635026 0.4702176255 -0.8011989479
| 13> H 1.6389065971 0.5521235711 -1.7171938291
| 14> C 0.5051336922 1.8321174149 -0.4130459648
| 15> O -0.6881090997 2.0595157326 -0.3520859335
| 16> O 1.4528583948 2.6861785039 -0.1621218493
| 17> C 1.0875532885 3.9957980668 0.3310465274
| 18> C 0.9462072228 3.9679847415 1.843827793
| 19> S -0.3700975342 -0.5935974856 -1.2438077512
| 20> P -1.7403847657 -0.1607654318 0.3195065283
| 21> S -1.1685381611 0.4676056538 2.0962941703
| 22> O -3.0120885816 0.5217415322 -0.3346188044
| 23> C -3.4694614465 1.8508475538 -0.0752579445
| 24> O -2.4312567294 -1.6063194784 0.4164949424
| 25> C -1.7710865835 -2.6923734832 1.0703661567
| 26> H 2.5075719239 -4.3339372914 -3.0420171334
| 27> H 1.2730946605 -3.3073518747 -2.2967249666
| 28> H 2.4228625465 -2.6104988563 -3.4411133371
| 29> H 4.2931735848 -3.0233792395 -1.8452842123
| 30> H 3.1368644435 -3.7717454296 -0.6959595452
| 31> H 2.8522212655 0.4115516378 0.3680480331
| 32> H 1.3868214733 -0.0612616429 1.2793432845
| 33> H 1.907434619 4.6407474583 0.0162805308
| 34> H 0.1518688067 4.3008552796 -0.1436832046
| 35> H 0.6711371345 4.9558173444 2.1976071165
| 36> H 0.1733665741 3.2599966548 2.13939886
| 37> H 1.8829098979 3.6696780865 2.3054795271
| 38> H -3.1150590709 2.5117425162 -0.8639251527
| 39> H -3.0998864828 2.1993181482 0.890439287
| 40> H -4.5559382611 1.7973526399 -0.0701753696
| 41> H -0.7742032614 -2.8579418442 0.6568805387
| 42> H -2.4012181405 -3.5615305231 0.9034477575
| 43> H -1.681768128 -2.4822242027 2.1374479247
| 44> *
| 45>
| 46>                          ****END OF INPUT****

CARTESIAN COORDINATES (ANGSTROEM)
---------------------------------
  C      2.301888   -3.343885   -2.649218
  C      3.257882   -3.045954   -1.504889
  O      3.013720   -1.726767   -0.980490
  C      2.150402   -1.590592    0.003118
  O      1.592459   -2.504083    0.569722
  C      1.906259   -0.126469    0.321420
  C      1.049164    0.470218   -0.801199
  H      1.638907    0.552124   -1.717194
  C      0.505134    1.832117   -0.413046
  O     -0.688109    2.059516   -0.352086
  O      1.452858    2.686179   -0.162122
  C      1.087553    3.995798    0.331047
  C      0.946207    3.967985    1.843828
  S     -0.370098   -0.593597   -1.243808
  P     -1.740385   -0.160765    0.319507
  S     -1.168538    0.467606    2.096294
  O     -3.012089    0.521742   -0.334619
  C     -3.469461    1.850848   -0.075258
  O     -2.431257   -1.606319    0.416495
  C     -1.771087   -2.692373    1.070366
  H      2.507572   -4.333937   -3.042017
  H      1.273095   -3.307352   -2.296725
  H      2.422863   -2.610499   -3.441113
  H      4.293174   -3.023379   -1.845284
  H      3.136864   -3.771745   -0.695960
  H      2.852221    0.411552    0.368048
  H      1.386821   -0.061262    1.279343
  H      1.907435    4.640747    0.016281
  H      0.151869    4.300855   -0.143683
  H      0.671137    4.955817    2.197607
  H      0.173367    3.259997    2.139399
  H      1.882910    3.669678    2.305480
  H     -3.115059    2.511743   -0.863925
  H     -3.099886    2.199318    0.890439
  H     -4.555938    1.797353   -0.070175
  H     -0.774203   -2.857942    0.656881
  H     -2.401218   -3.561531    0.903448
  H     -1.681768   -2.482224    2.137448

 Total Charge           Charge          ....    0
 Multiplicity           Mult            ....    1
 Number of Electrons    NEL             ....  174
 Basis Dimension        Dim             ....  316

ORBITAL ENERGIES
----------------

  NO   OCC          E(Eh)            E(eV)
   0   2.0000     -88.035288     -2395.5620
   1   2.0000     -87.974823     -2393.9166
   2   2.0000     -76.418891     -2079.4637
   3   2.0000     -18.827619      -512.3256
   4   2.0000     -18.807367      -511.7745
   5   2.0000     -18.777954      -510.9741
   6   2.0000     -18.768533      -510.7178
   7   2.0000     -18.762330      -510.5489
   8   2.0000     -18.740877      -509.9652
   9   2.0000     -10.033099      -273.0145
  10   2.0000     -10.012731      -272.4603
  11   2.0000      -9.961799      -271.0743
  12   2.0000      -9.956529      -270.9309
  13   2.0000      -9.950877      -270.7771
  14   2.0000      -9.931729      -270.2561
  15   2.0000      -9.919072      -269.9117
  16   2.0000      -9.908320      -269.6191
  17   2.0000      -9.890873      -269.1443
  18   2.0000      -9.889072      -269.0953
  19   2.0000      -7.680122      -208.9867
  20   2.0000      -7.619803      -207.3454
  21   2.0000      -6.414569      -174.5493
  22   2.0000      -5.708275      -155.3300
  23   2.0000      -5.704718      -155.2333
  24   2.0000      -5.696702      -155.0151
  25   2.0000      -5.648875      -153.7137
  26   2.0000      -5.640736      -153.4922
  27   2.0000      -5.639443      -153.4570
  28   2.0000      -4.636925      -126.1771
  29   2.0000      -4.636762      -126.1727
  30   2.0000      -4.635223      -126.1308
  31   2.0000      -1.037364       -28.2281
  32   2.0000      -1.014994       -27.6194
  33   2.0000      -0.969593       -26.3840
  34   2.0000      -0.941763       -25.6267
  35   2.0000      -0.923016       -25.1165
  36   2.0000      -0.917948       -24.9786
  37   2.0000      -0.769758       -20.9462
  38   2.0000      -0.717983       -19.5373
  39   2.0000      -0.710468       -19.3328
  40   2.0000      -0.685334       -18.6489
  41   2.0000      -0.652321       -17.7506
  42   2.0000      -0.629448       -17.1282
  43   2.0000      -0.622670       -16.9437
  44   2.0000      -0.604400       -16.4466
  45   2.0000      -0.597189       -16.2503
  46   2.0000      -0.571062       -15.5394
  47   2.0000      -0.512908       -13.9569
  48   2.0000      -0.505845       -13.7647
  49   2.0000      -0.500970       -13.6321
  50   2.0000      -0.487534       -13.2665
  51   2.0000      -0.463719       -12.6184
  52   2.0000      -0.459461       -12.5026
  53   2.0000      -0.450956       -12.2711
  54   2.0000      -0.441714       -12.0196
  55   2.0000      -0.437171       -11.8960
  56   2.0000      -0.421084       -11.4583
  57   2.0000      -0.415259       -11.2998
  58   2.0000      -0.409418       -11.1408
  59   2.0000      -0.405394       -11.0313
  60   2.0000      -0.396859       -10.7991
  61   2.0000      -0.393368       -10.7041
  62   2.0000      -0.391252       -10.6465
  63   2.0000      -0.383098       -10.4246
  64   2.0000      -0.376237       -10.2379
  65   2.0000      -0.369262       -10.0481
  66   2.0000      -0.361806        -9.8452
  67   2.0000      -0.357099        -9.7172
  68   2.0000      -0.353680        -9.6241
  69   2.0000      -0.340161        -9.2563
  70   2.0000      -0.338224        -9.2036
  71   2.0000      -0.333683        -9.0800
  72   2.0000      -0.329328        -8.9615
  73   2.0000      -0.311669        -8.4810
  74   2.0000      -0.304550        -8.2872
  75   2.0000      -0.298120        -8.1123
  76   2.0000      -0.291596        -7.9347
  77   2.0000      -0.284957        -7.7541
  78   2.0000      -0.274504        -7.4696
  79   2.0000      -0.265284        -7.2187
  80   2.0000      -0.260097        -7.0776
  81   2.0000      -0.246366        -6.7040
  82   2.0000      -0.241805        -6.5799
  83   2.0000      -0.224145        -6.0993
  84   2.0000      -0.214677        -5.8416
  85   2.0000      -0.195072        -5.3082
  86   2.0000      -0.187118        -5.0917
  87   0.0000      -0.050725        -1.3803
  88   0.0000      -0.038888        -1.0582
  89   0.0000      -0.020133        -0.5479
  90   0.0000       0.004991         0.1358
  91   0.0000       0.030346         0.8258

MULLIKEN ATOMIC CHARGES
-----------------------
   0 C :   -0.306259
   1 C :   -0.017157
   2 O :   -0.234505
   3 C :    0.123690
   4 O :   -0.184385
   5 C :   -0.048540
   6 C :   -0.346036
   7 H :    0.151874
   8 C :    0.230750
   9 O :   -0.189935
  10 O :   -0.216818
  11 C :   -0.013643
  12 C :   -0.315536
  13 S :   -0.082559
  14 P :    0.627665
  15 S :   -0.346124
  16 O :   -0.367917
  17 C :   -0.084430
  18 O :   -0.374627
  19 C :   -0.124821
  20 H :    0.114159
  21 H :    0.132348
  22 H :    0.112114
  23 H :    0.104293
  24 H :    0.113117
  25 H :    0.111353
  26 H :    0.119789
  27 H :    0.109208
  28 H :    0.113462
  29 H :    0.114934
  30 H :    0.146147
  31 H :    0.116435
  32 H :    0.114965
  33 H :    0.113913
  34 H :    0.118854
  35 H :    0.138098
  36 H :    0.112866
  37 H :    0.113259
Sum of atomic charges:   -0.0000000

LOEWDIN ATOMIC CHARGES
----------------------
   0 C :   -0.356764
   1 C :   -0.111874
   2 O :   -0.060768
   3 C :    0.024166
   4 O :   -0.156346
   5 C :   -0.253542
   6 C :   -0.260705
   7 H :    0.149347
   8 C :    0.026389
   9 O :   -0.154932
  10 O :   -0.033809
  11 C :   -0.105431
  12 C :   -0.359295
  13 S :    0.113782
  14 P :    0.591726
  15 S :   -0.328344
  16 O :   -0.238269
  17 C :   -0.207095
  18 O :   -0.258483
  19 C :   -0.227422
  20 H :    0.131239
  21 H :    0.130107
  22 H :    0.123677
  23 H :    0.118018
  24 H :    0.121594
  25 H :    0.139957
  26 H :    0.134300
  27 H :    0.120929
  28 H :    0.122172
  29 H :    0.132444
  30 H :    0.132148
  31 H :    0.126678
  32 H :    0.112200
  33 H :    0.107898
  34 H :    0.117303
  35 H :    0.110716
  36 H :    0.116629
  37 H :    0.109658

  Mayer bond orders larger than 0.100000
B(  0-C ,  1-C ) :   1.1751 B(  0-C , 20-H ) :   0.9430 B(  0-C , 21-H ) :   0.9416
B(  0-C , 22-H ) :   0.9498 B(  1-C ,  2-O ) :   0.9104 B(  1-C , 23-H ) :   0.9368
B(  1-C , 24-H ) :   0.9108 B(  2-O ,  3-C ) :   1.2192 B(  3-C ,  4-O ) :   2.0170
B(  3-C ,  5-C ) :   1.0231 B(  5-C ,  6-C ) :   1.0413 B(  5-C , 25-H ) :   0.8760
B(  5-C , 26-H ) :   0.8718 B(  6-C ,  7-H ) :   0.8618 B(  6-C ,  8-C ) :   0.9159
B(  6-C , 13-S ) :   1.0413 B(  8-C ,  9-O ) :   1.9417 B(  8-C , 10-O ) :   1.2865
B(  9-O , 14-P ) :   0.1065 B( 10-O , 11-C ) :   0.8933 B( 11-C , 12-C ) :   1.1780
B( 11-C , 27-H ) :   0.9362 B( 11-C , 28-H ) :   0.9143 B( 12-C , 29-H ) :   0.9409
B( 12-C , 30-H ) :   0.9293 B( 12-C , 31-H ) :   0.9481 B( 13-S , 14-P ) :   0.9252
B( 13-S , 15-S ) :   0.1177 B( 14-P , 15-S ) :   1.5417 B( 14-P , 16-O ) :   1.1408
B( 14-P , 18-O ) :   1.0964 B( 16-O , 17-C ) :   0.9292 B( 17-C , 32-H ) :   0.9537
B( 17-C , 33-H ) :   0.9349 B( 17-C , 34-H ) :   0.9548 B( 18-O , 19-C ) :   0.9330
B( 19-C , 35-H ) :   0.9221 B( 19-C , 36-H ) :   0.9569 B( 19-C , 37-H ) :   0.9439

Dispersion correction           -0.053643825
FINAL SINGLE POINT ENERGY     -1979.015982924487

DIPOLE MOMENT
-------------

Method             : SCF
Type of density    : Electron Density
Multiplicity       :   1
Irrep              :   0
Energy             : -1979.1458120131865144 Eh
Relativity type    :
Basis              : AO
                                X                 Y                 Z
Electronic contribution:     -8.436060621      -1.344220221       0.564711000
Nuclear contribution   :      9.732609727       2.286621790      -1.468813581
                        -----------------------------------------
Total Dipole Moment    :      1.296549107       0.942401569      -0.904102580
                        -----------------------------------------
Magnitude (a.u.)       :      1.840261334
Magnitude (Debye)      :      4.677572579

Rotational constants in cm-1:             0.012230             0.008184             0.006064
Rotational constants in MHz :           366.654721           245.335959           181.805421

                             ****ORCA TERMINATED NORMALLY****
TOTAL RUN TIME: 0 days 0 hours 0 minutes 45 seconds 443 msec
