                         Program Version 6.0.0  -   RELEASE  -
|  1> ! r2scan-3c def2/J RI DEFGRID2 scfconv6 printgap
|  2> %output
|  3>     printlevel normal
|  4> end
|  5> * xyz 0 1
|  6> C 2.8029850675 -2.7896553473 1.2887901199
|  7> C 1.5703484301 -2.2605084882 0.5847058956
|  8> O 1.4660087368 -0.8351056963 0.745029832
|  9> P 2.2712321243 0.2073852601 -0.1663619277
| 10> S 3.1691043931 -0.5195065433 -1.7372329457
| 11> O 3.2813732428 0.9270223297 0.8127135112
| 12> C 2.8703873365 1.5440438304 2.0604999517
| 13> C 4.1010907851 2.1639804796 2.6878168709
| 14> S 0.7781461233 1.689600054 -0.4870686762
| 15> C 0.119092702 0.9771713439 -2.014944645
| 16> S -0.5359093677 -0.6991417145 -1.7917807723
| 17> P -2.1487577361 -0.1860887273 -0.5114033382
| 18> S -2.9922070266 1.5613438143 -0.7940708745
| 19> O -1.6558461823 -0.466708935 0.9748328287
| 20> C -1.3487901602 0.5376447512 1.9576495695
| 21> C -2.0746927081 0.2096459731 3.24766793
| 22> O -3.0090690884 -1.47306413 -0.8324044054
| 23> C -4.4418716832 -1.5094384056 -0.659778998
| 24> C -4.8450258306 -1.3784844012 0.7939880425
| 25> H 2.7741328598 -2.5403330301 2.3460878155
| 26> H 2.8482692549 -3.8678679341 1.1738129928
| 27> H 3.6939797636 -2.3476958937 0.8437760981
| 28> H 0.6475872945 -2.651141045 1.0173389504
| 29> H 1.6011415602 -2.4957524414 -0.4838987975
| 30> H 2.1108865622 2.2982013736 1.8354180076
| 31> H 2.4381635056 0.7711543079 2.7003978596
| 32> H 4.8502886194 1.4001661807 2.8749075093
| 33> H 4.522787934 2.9096490956 2.0202463015
| 34> H 3.8237819441 2.6355692743 3.62497224
| 35> H 0.9143583115 0.9014100146 -2.7555094736
| 36> H -0.6751827612 1.6446702934 -2.3480050442
| 37> H -0.2654930815 0.5215500944 2.0997613879
| 38> H -1.6459099701 1.5184918373 1.5709548056
| 39> H -1.8243328225 -0.7965646697 3.570860755
| 40> H -1.7713852726 0.9187886475 4.0109971233
| 41> H -3.1499294863 0.2780878163 3.1074421931
| 42> H -4.8816212476 -0.7037682999 -1.2556471254
| 43> H -4.727336081 -2.4765724507 -1.0757944964
| 44> H -5.9165879881 -1.5265591398 0.8851391824
| 45> H -4.323860912 -2.1173226174 1.3971097365
| 46> H -4.594612234 -0.3815847722 1.1545214799
| 47> *
| 48>
| 49>                          ****END OF INPUT****

CARTESIAN COORDINATES (ANGSTROEM)
---------------------------------
  C      2.802985   -2.789655    1.288790
  C      1.570348   -2.260508    0.584706
  O      1.466009   -0.835106    0.745030
  P      2.271232    0.207385   -0.166362
  S      3.169104   -0.519507   -1.737233
  O      3.281373    0.927022    0.812714
  C      2.870387    1.544044    2.060500
  C      4.101091    2.163980    2.687817
  S      0.778146    1.689600   -0.487069
  C      0.119093    0.977171   -2.014945
  S     -0.535909   -0.699142   -1.791781
  P     -2.148758   -0.186089   -0.511403
  S     -2.992207    1.561344   -0.794071
  O     -1.655846   -0.466709    0.974833
  C     -1.348790    0.537645    1.957650
  C     -2.074693    0.209646    3.247668
  O     -3.009069   -1.473064   -0.832404
  C     -4.441872   -1.509438   -0.659779
  C     -4.845026   -1.378484    0.793988
  H      2.774133   -2.540333    2.346088
  H      2.848269   -3.867868    1.173813
  H      3.693980   -2.347696    0.843776
  H      0.647587   -2.651141    1.017339
  H      1.601142   -2.495752   -0.483899
  H      2.110887    2.298201    1.835418
  H      2.438164    0.771154    2.700398
  H      4.850289    1.400166    2.874908
  H      4.522788    2.909649    2.020246
  H      3.823782    2.635569    3.624972
  H      0.914358    0.901410   -2.755509
  H     -0.675183    1.644670   -2.348005
  H     -0.265493    0.521550    2.099761
  H     -1.645910    1.518492    1.570955
  H     -1.824333   -0.796565    3.570861
  H     -1.771385    0.918789    4.010997
  H     -3.149929    0.278088    3.107442
  H     -4.881621   -0.703768   -1.255647
  H     -4.727336   -2.476572   -1.075794
  H     -5.916588   -1.526559    0.885139
  H     -4.323861   -2.117323    1.397110
  H     -4.594612   -0.381585    1.154521

 Total Charge           Charge          ....    0
 Multiplicity           Mult            ....    1
 Number of Electrons    NEL             ....  202
 Basis Dimension        Dim             ....  539

ORBITAL ENERGIES
----------------

  NO   OCC          E(Eh)            E(eV)
   0   2.0000     -88.574028     -2410.2218
   1   2.0000     -88.571798     -2410.1612
   2   2.0000     -88.524086     -2408.8629
   3   2.0000     -88.522144     -2408.8100
   4   2.0000     -76.914980     -2092.9630
   5   2.0000     -76.914908     -2092.9610
   6   2.0000     -18.995389      -516.8908
   7   2.0000     -18.992181      -516.8035
   8   2.0000     -18.990657      -516.7621
   9   2.0000     -18.988473      -516.7026
  10   2.0000     -10.110847      -275.1301
  11   2.0000     -10.104659      -274.9617
  12   2.0000     -10.102358      -274.8991
  13   2.0000     -10.095211      -274.7047
  14   2.0000     -10.093887      -274.6686
  15   2.0000     -10.040260      -273.2094
  16   2.0000     -10.033578      -273.0275
  17   2.0000     -10.033362      -273.0217
  18   2.0000     -10.028254      -272.8827
  19   2.0000      -7.868557      -214.1143
  20   2.0000      -7.866007      -214.0449
  21   2.0000      -7.818884      -212.7627
  22   2.0000      -7.816937      -212.7097
  23   2.0000      -6.593387      -179.4152
  24   2.0000      -6.593276      -179.4122
  25   2.0000      -5.815338      -158.2434
  26   2.0000      -5.813012      -158.1801
  27   2.0000      -5.812474      -158.1655
  28   2.0000      -5.809983      -158.0977
  29   2.0000      -5.805674      -157.9804
  30   2.0000      -5.802889      -157.9046
  31   2.0000      -5.766491      -156.9142
  32   2.0000      -5.764741      -156.8666
  33   2.0000      -5.759348      -156.7198
  34   2.0000      -5.758737      -156.7032
  35   2.0000      -5.757226      -156.6621
  36   2.0000      -5.756763      -156.6495
  37   2.0000      -4.739081      -128.9569
  38   2.0000      -4.738687      -128.9462
  39   2.0000      -4.738206      -128.9331
  40   2.0000      -4.737919      -128.9253
  41   2.0000      -4.737406      -128.9114
  42   2.0000      -4.737025      -128.9010
  43   2.0000      -1.049985       -28.5715
  44   2.0000      -1.049092       -28.5472
  45   2.0000      -1.011147       -27.5147
  46   2.0000      -1.009698       -27.4753
  47   2.0000      -0.801549       -21.8113
  48   2.0000      -0.763630       -20.7794
  49   2.0000      -0.754455       -20.5298
  50   2.0000      -0.735052       -20.0018
  51   2.0000      -0.734687       -19.9919
  52   2.0000      -0.708263       -19.2728
  53   2.0000      -0.687732       -18.7141
  54   2.0000      -0.671662       -18.2768
  55   2.0000      -0.634813       -17.2741
  56   2.0000      -0.619675       -16.8622
  57   2.0000      -0.612068       -16.6552
  58   2.0000      -0.603288       -16.4163
  59   2.0000      -0.593313       -16.1449
  60   2.0000      -0.534404       -14.5419
  61   2.0000      -0.523645       -14.2491
  62   2.0000      -0.501631       -13.6501
  63   2.0000      -0.497787       -13.5455
  64   2.0000      -0.476754       -12.9731
  65   2.0000      -0.466879       -12.7044
  66   2.0000      -0.461777       -12.5656
  67   2.0000      -0.451610       -12.2889
  68   2.0000      -0.447927       -12.1887
  69   2.0000      -0.426998       -11.6192
  70   2.0000      -0.422081       -11.4854
  71   2.0000      -0.416667       -11.3381
  72   2.0000      -0.409333       -11.1385
  73   2.0000      -0.405474       -11.0335
  74   2.0000      -0.394742       -10.7415
  75   2.0000      -0.391760       -10.6603
  76   2.0000      -0.386618       -10.5204
  77   2.0000      -0.377328       -10.2676
  78   2.0000      -0.376001       -10.2315
  79   2.0000      -0.372187       -10.1277
  80   2.0000      -0.366706        -9.9786
  81   2.0000      -0.361485        -9.8365
  82   2.0000      -0.357182        -9.7194
  83   2.0000      -0.356539        -9.7019
  84   2.0000      -0.348773        -9.4906
  85   2.0000      -0.337911        -9.1950
  86   2.0000      -0.330359        -8.9895
  87   2.0000      -0.326949        -8.8967
  88   2.0000      -0.310294        -8.4435
  89   2.0000      -0.303470        -8.2578
  90   2.0000      -0.297995        -8.1089
  91   2.0000      -0.291955        -7.9445
  92   2.0000      -0.288158        -7.8412
  93   2.0000      -0.283987        -7.7277
  94   2.0000      -0.272815        -7.4237
  95   2.0000      -0.243503        -6.6261
  96   2.0000      -0.231819        -6.3081
  97   2.0000      -0.226758        -6.1704
  98   2.0000      -0.223006        -6.0683
  99   2.0000      -0.215280        -5.8581
 100   2.0000      -0.211484        -5.7548
 101   0.0000      -0.048905        -1.3308
 102   0.0000      -0.028089        -0.7643
 103   0.0000       0.002955         0.0804
 104   0.0000       0.004493         0.1223
 105   0.0000       0.008854         0.2409

MULLIKEN ATOMIC CHARGES
-----------------------
   0 C :   -0.453761
   1 C :   -0.155862
   2 O :   -0.260347
   3 P :    0.668139
   4 S :   -0.442233
   5 O :   -0.272307
   6 C :   -0.138324
   7 C :   -0.449593
   8 S :   -0.170868
   9 C :   -0.233492
  10 S :   -0.131133
  11 P :    0.696432
  12 S :   -0.486732
  13 O :   -0.255228
  14 C :   -0.113498
  15 C :   -0.479991
  16 O :   -0.313864
  17 C :   -0.154739
  18 C :   -0.445012
  19 H :    0.146250
  20 H :    0.147823
  21 H :    0.172122
  22 H :    0.160939
  23 H :    0.179698
  24 H :    0.150165
  25 H :    0.158903
  26 H :    0.158492
  27 H :    0.161415
  28 H :    0.145817
  29 H :    0.211387
  30 H :    0.208556
  31 H :    0.158445
  32 H :    0.179212
  33 H :    0.156340
  34 H :    0.146028
  35 H :    0.152489
  36 H :    0.172754
  37 H :    0.150918
  38 H :    0.149645
  39 H :    0.158167
  40 H :    0.166848
Sum of atomic charges:    0.0000000

LOEWDIN ATOMIC CHARGES
----------------------
   0 C :   -0.398890
   1 C :    0.007145
   2 O :   -0.699559
   3 P :    0.383201
   4 S :   -0.089059
   5 O :   -0.659505
   6 C :    0.019331
   7 C :   -0.381670
   8 S :    0.140699
   9 C :   -0.418583
  10 S :    0.183899
  11 P :    0.389113
  12 S :   -0.130130
  13 O :   -0.658093
  14 C :    0.003404
  15 C :   -0.391048
  16 O :   -0.669072
  17 C :    0.026342
  18 C :   -0.402179
  19 H :    0.154536
  20 H :    0.160261
  21 H :    0.166097
  22 H :    0.181110
  23 H :    0.183587
  24 H :    0.173968
  25 H :    0.172980
  26 H :    0.162901
  27 H :    0.164273
  28 H :    0.159838
  29 H :    0.190407
  30 H :    0.190232
  31 H :    0.178787
  32 H :    0.183330
  33 H :    0.159330
  34 H :    0.158877
  35 H :    0.158176
  36 H :    0.179815
  37 H :    0.181199
  38 H :    0.160397
  39 H :    0.161479
  40 H :    0.163072

  Mayer bond orders larger than 0.100000
B(  0-C ,  1-C ) :   0.9274 B(  0-C , 19-H ) :   0.9775 B(  0-C , 20-H ) :   0.9644
B(  0-C , 21-H ) :   0.9626 B(  1-C ,  2-O ) :   0.7592 B(  1-C , 22-H ) :   0.9641
B(  1-C , 23-H ) :   0.9541 B(  2-O ,  3-P ) :   1.0213 B(  3-P ,  4-S ) :   1.8402
B(  3-P ,  5-O ) :   1.1550 B(  3-P ,  8-S ) :   1.0282 B(  5-O ,  6-C ) :   0.7427
B(  6-C ,  7-C ) :   0.9671 B(  6-C , 24-H ) :   0.9359 B(  6-C , 25-H ) :   0.9479
B(  7-C , 26-H ) :   0.9730 B(  7-C , 27-H ) :   0.9698 B(  7-C , 28-H ) :   0.9621
B(  8-S ,  9-C ) :   0.8961 B(  9-C , 10-S ) :   0.8993 B(  9-C , 29-H ) :   0.9104
B(  9-C , 30-H ) :   0.9108 B( 10-S , 11-P ) :   1.0726 B( 11-P , 12-S ) :   1.7414
B( 11-P , 13-O ) :   1.0707 B( 11-P , 16-O ) :   1.1749 B( 13-O , 14-C ) :   0.7329
B( 14-C , 15-C ) :   0.9363 B( 14-C , 31-H ) :   0.9515 B( 14-C , 32-H ) :   0.9477
B( 15-C , 33-H ) :   0.9794 B( 15-C , 34-H ) :   0.9668 B( 15-C , 35-H ) :   0.9713
B( 16-O , 17-C ) :   0.8061 B( 17-C , 18-C ) :   0.9199 B( 17-C , 36-H ) :   0.9685
B( 17-C , 37-H ) :   0.9607 B( 18-C , 38-H ) :   0.9598 B( 18-C , 39-H ) :   0.9681
B( 18-C , 40-H ) :   0.9622

Dispersion correction           -0.021922456
FINAL SINGLE POINT ENERGY     -2932.462888351843

DIPOLE MOMENT
-------------

Method             : SCF
Type of density    : Electron Density
Multiplicity       :   1
Irrep              :   0
Energy             : -2932.4874108019598680 Eh
Relativity type    :
Basis              : AO
                                X                 Y                 Z
Electronic contribution:      2.892619594       5.385751663     -25.346841941
Nuclear contribution   :     -3.451673053      -5.835037369      27.334238175
                        -----------------------------------------
Total Dipole Moment    :     -0.559053459      -0.449285706       1.987396234
                        -----------------------------------------
Magnitude (a.u.)       :      2.112851677
Magnitude (Debye)      :      5.370442166

Rotational constants in cm-1:             0.012023             0.005192             0.004919
Rotational constants in MHz :           360.438807           155.652150           147.469765

                             ****ORCA TERMINATED NORMALLY****
TOTAL RUN TIME: 0 days 0 hours 1 minutes 26 seconds 816 msec
