                         Program Version 6.0.0  -   RELEASE  -
|  1> ! r2scan-3c def2/J RI DEFGRID2 scfconv6 printgap
|  2> %output
|  3>     printlevel normal
|  4> end
|  5> %cpcm
|  6>     smd true
|  7>     smdsolvent "water"
|  8> end
|  9> * xyz 0 1
| 10> C 2.8029850675 -2.7896553473 1.2887901199
| 11> C 1.5703484301 -2.2605084882 0.5847058956
| 12> O 1.4660087368 -0.8351056963 0.745029832
| 13> P 2.2712321243 0.2073852601 -0.1663619277
| 14> S 3.1691043931 -0.5195065433 -1.7372329457
| 15> O 3.2813732428 0.9270223297 0.8127135112
| 16> C 2.8703873365 1.5440438304 2.0604999517
| 17> C 4.1010907851 2.1639804796 2.6878168709
| 18> S 0.7781461233 1.689600054 -0.4870686762
| 19> C 0.119092702 0.9771713439 -2.014944645
| 20> S -0.5359093677 -0.6991417145 -1.7917807723
| 21> P -2.1487577361 -0.1860887273 -0.5114033382
| 22> S -2.9922070266 1.5613438143 -0.7940708745
| 23> O -1.6558461823 -0.466708935 0.9748328287
| 24> C -1.3487901602 0.5376447512 1.9576495695
| 25> C -2.0746927081 0.2096459731 3.24766793
| 26> O -3.0090690884 -1.47306413 -0.8324044054
| 27> C -4.4418716832 -1.5094384056 -0.659778998
| 28> C -4.8450258306 -1.3784844012 0.7939880425
| 29> H 2.7741328598 -2.5403330301 2.3460878155
| 30> H 2.8482692549 -3.8678679341 1.1738129928
| 31> H 3.6939797636 -2.3476958937 0.8437760981
| 32> H 0.6475872945 -2.651141045 1.0173389504
| 33> H 1.6011415602 -2.4957524414 -0.4838987975
| 34> H 2.1108865622 2.2982013736 1.8354180076
| 35> H 2.4381635056 0.7711543079 2.7003978596
| 36> H 4.8502886194 1.4001661807 2.8749075093
| 37> H 4.522787934 2.9096490956 2.0202463015
| 38> H 3.8237819441 2.6355692743 3.62497224
| 39> H 0.9143583115 0.9014100146 -2.7555094736
| 40> H -0.6751827612 1.6446702934 -2.3480050442
| 41> H -0.2654930815 0.5215500944 2.0997613879
| 42> H -1.6459099701 1.5184918373 1.5709548056
| 43> H -1.8243328225 -0.7965646697 3.570860755
| 44> H -1.7713852726 0.9187886475 4.0109971233
| 45> H -3.1499294863 0.2780878163 3.1074421931
| 46> H -4.8816212476 -0.7037682999 -1.2556471254
| 47> H -4.727336081 -2.4765724507 -1.0757944964
| 48> H -5.9165879881 -1.5265591398 0.8851391824
| 49> H -4.323860912 -2.1173226174 1.3971097365
| 50> H -4.594612234 -0.3815847722 1.1545214799
| 51> *
| 52>
| 53>                          ****END OF INPUT****

CARTESIAN COORDINATES (ANGSTROEM)
---------------------------------
  C      2.802985   -2.789655    1.288790
  C      1.570348   -2.260508    0.584706
  O      1.466009   -0.835106    0.745030
  P      2.271232    0.207385   -0.166362
  S      3.169104   -0.519507   -1.737233
  O      3.281373    0.927022    0.812714
  C      2.870387    1.544044    2.060500
  C      4.101091    2.163980    2.687817
  S      0.778146    1.689600   -0.487069
  C      0.119093    0.977171   -2.014945
  S     -0.535909   -0.699142   -1.791781
  P     -2.148758   -0.186089   -0.511403
  S     -2.992207    1.561344   -0.794071
  O     -1.655846   -0.466709    0.974833
  C     -1.348790    0.537645    1.957650
  C     -2.074693    0.209646    3.247668
  O     -3.009069   -1.473064   -0.832404
  C     -4.441872   -1.509438   -0.659779
  C     -4.845026   -1.378484    0.793988
  H      2.774133   -2.540333    2.346088
  H      2.848269   -3.867868    1.173813
  H      3.693980   -2.347696    0.843776
  H      0.647587   -2.651141    1.017339
  H      1.601142   -2.495752   -0.483899
  H      2.110887    2.298201    1.835418
  H      2.438164    0.771154    2.700398
  H      4.850289    1.400166    2.874908
  H      4.522788    2.909649    2.020246
  H      3.823782    2.635569    3.624972
  H      0.914358    0.901410   -2.755509
  H     -0.675183    1.644670   -2.348005
  H     -0.265493    0.521550    2.099761
  H     -1.645910    1.518492    1.570955
  H     -1.824333   -0.796565    3.570861
  H     -1.771385    0.918789    4.010997
  H     -3.149929    0.278088    3.107442
  H     -4.881621   -0.703768   -1.255647
  H     -4.727336   -2.476572   -1.075794
  H     -5.916588   -1.526559    0.885139
  H     -4.323861   -2.117323    1.397110
  H     -4.594612   -0.381585    1.154521

 Total Charge           Charge          ....    0
 Multiplicity           Mult            ....    1
 Number of Electrons    NEL             ....  202
 Basis Dimension        Dim             ....  539

ORBITAL ENERGIES
----------------

  NO   OCC          E(Eh)            E(eV)
   0   2.0000     -88.577941     -2410.3283
   1   2.0000     -88.577471     -2410.3155
   2   2.0000     -88.531910     -2409.0757
   3   2.0000     -88.530553     -2409.0388
   4   2.0000     -76.920433     -2093.1114
   5   2.0000     -76.919916     -2093.0973
   6   2.0000     -18.996231      -516.9137
   7   2.0000     -18.994474      -516.8659
   8   2.0000     -18.993097      -516.8284
   9   2.0000     -18.989736      -516.7370
  10   2.0000     -10.105156      -274.9753
  11   2.0000     -10.094867      -274.6953
  12   2.0000     -10.091348      -274.5995
  13   2.0000     -10.087019      -274.4817
  14   2.0000     -10.086359      -274.4638
  15   2.0000     -10.021313      -272.6938
  16   2.0000     -10.019031      -272.6317
  17   2.0000     -10.017472      -272.5893
  18   2.0000     -10.017290      -272.5843
  19   2.0000      -7.872435      -214.2199
  20   2.0000      -7.871780      -214.2020
  21   2.0000      -7.827063      -212.9852
  22   2.0000      -7.825605      -212.9455
  23   2.0000      -6.598811      -179.5628
  24   2.0000      -6.598355      -179.5504
  25   2.0000      -5.819198      -158.3484
  26   2.0000      -5.818713      -158.3352
  27   2.0000      -5.816344      -158.2708
  28   2.0000      -5.815706      -158.2534
  29   2.0000      -5.809587      -158.0869
  30   2.0000      -5.808782      -158.0650
  31   2.0000      -5.774751      -157.1390
  32   2.0000      -5.773171      -157.0960
  33   2.0000      -5.767309      -156.9364
  34   2.0000      -5.766976      -156.9274
  35   2.0000      -5.766005      -156.9010
  36   2.0000      -5.765516      -156.8877
  37   2.0000      -4.744558      -129.1060
  38   2.0000      -4.743619      -129.0804
  39   2.0000      -4.743425      -129.0752
  40   2.0000      -4.743162      -129.0680
  41   2.0000      -4.742693      -129.0552
  42   2.0000      -4.742448      -129.0486
  43   2.0000      -1.051802       -28.6210
  44   2.0000      -1.049914       -28.5696
  45   2.0000      -1.012389       -27.5485
  46   2.0000      -1.010071       -27.4854
  47   2.0000      -0.804485       -21.8911
  48   2.0000      -0.758497       -20.6398
  49   2.0000      -0.745975       -20.2990
  50   2.0000      -0.725693       -19.7471
  51   2.0000      -0.723618       -19.6907
  52   2.0000      -0.706807       -19.2332
  53   2.0000      -0.690495       -18.7893
  54   2.0000      -0.677662       -18.4401
  55   2.0000      -0.631173       -17.1751
  56   2.0000      -0.615945       -16.7607
  57   2.0000      -0.600433       -16.3386
  58   2.0000      -0.595112       -16.1938
  59   2.0000      -0.590813       -16.0768
  60   2.0000      -0.529667       -14.4130
  61   2.0000      -0.518844       -14.1185
  62   2.0000      -0.497634       -13.5413
  63   2.0000      -0.493613       -13.4319
  64   2.0000      -0.474743       -12.9184
  65   2.0000      -0.460926       -12.5424
  66   2.0000      -0.452996       -12.3267
  67   2.0000      -0.447553       -12.1785
  68   2.0000      -0.441542       -12.0150
  69   2.0000      -0.424577       -11.5533
  70   2.0000      -0.417586       -11.3631
  71   2.0000      -0.414157       -11.2698
  72   2.0000      -0.404691       -11.0122
  73   2.0000      -0.401407       -10.9228
  74   2.0000      -0.391171       -10.6443
  75   2.0000      -0.387243       -10.5374
  76   2.0000      -0.383280       -10.4296
  77   2.0000      -0.368462       -10.0264
  78   2.0000      -0.365689        -9.9509
  79   2.0000      -0.360033        -9.7970
  80   2.0000      -0.355304        -9.6683
  81   2.0000      -0.351923        -9.5763
  82   2.0000      -0.346694        -9.4340
  83   2.0000      -0.346056        -9.4167
  84   2.0000      -0.344497        -9.3742
  85   2.0000      -0.333332        -9.0704
  86   2.0000      -0.323649        -8.8069
  87   2.0000      -0.321284        -8.7426
  88   2.0000      -0.305270        -8.3068
  89   2.0000      -0.301850        -8.2138
  90   2.0000      -0.296801        -8.0764
  91   2.0000      -0.289844        -7.8870
  92   2.0000      -0.284049        -7.7294
  93   2.0000      -0.283304        -7.7091
  94   2.0000      -0.273088        -7.4311
  95   2.0000      -0.247596        -6.7374
  96   2.0000      -0.240151        -6.5348
  97   2.0000      -0.234690        -6.3862
  98   2.0000      -0.231878        -6.3097
  99   2.0000      -0.223967        -6.0945
 100   2.0000      -0.218512        -5.9460
 101   0.0000      -0.054507        -1.4832
 102   0.0000      -0.034590        -0.9412
 103   0.0000      -0.000644        -0.0175
 104   0.0000       0.002229         0.0607
 105   0.0000       0.007206         0.1961

MULLIKEN ATOMIC CHARGES
-----------------------
   0 C :   -0.490887
   1 C :   -0.137864
   2 O :   -0.275139
   3 P :    0.680800
   4 S :   -0.498294
   5 O :   -0.309924
   6 C :   -0.114750
   7 C :   -0.496536
   8 S :   -0.178058
   9 C :   -0.244168
  10 S :   -0.155927
  11 P :    0.718023
  12 S :   -0.521140
  13 O :   -0.287515
  14 C :   -0.089253
  15 C :   -0.525447
  16 O :   -0.343852
  17 C :   -0.151574
  18 C :   -0.481598
  19 H :    0.167555
  20 H :    0.170000
  21 H :    0.166023
  22 H :    0.180151
  23 H :    0.176094
  24 H :    0.163840
  25 H :    0.182176
  26 H :    0.169436
  27 H :    0.167859
  28 H :    0.171192
  29 H :    0.232619
  30 H :    0.229706
  31 H :    0.175206
  32 H :    0.175009
  33 H :    0.169760
  34 H :    0.169464
  35 H :    0.166500
  36 H :    0.178132
  37 H :    0.176106
  38 H :    0.173897
  39 H :    0.170663
  40 H :    0.171714
Sum of atomic charges:    0.0000000

LOEWDIN ATOMIC CHARGES
----------------------
   0 C :   -0.401315
   1 C :    0.011628
   2 O :   -0.701815
   3 P :    0.385108
   4 S :   -0.130829
   5 O :   -0.679566
   6 C :    0.030154
   7 C :   -0.386203
   8 S :    0.141740
   9 C :   -0.414378
  10 S :    0.167847
  11 P :    0.390435
  12 S :   -0.152827
  13 O :   -0.671012
  14 C :    0.009901
  15 C :   -0.394016
  16 O :   -0.684609
  17 C :    0.030582
  18 C :   -0.404191
  19 H :    0.162321
  20 H :    0.167910
  21 H :    0.162235
  22 H :    0.188989
  23 H :    0.181931
  24 H :    0.180985
  25 H :    0.184181
  26 H :    0.164932
  27 H :    0.164316
  28 H :    0.170301
  29 H :    0.196427
  30 H :    0.196580
  31 H :    0.185507
  32 H :    0.182962
  33 H :    0.163530
  34 H :    0.167961
  35 H :    0.161713
  36 H :    0.181692
  37 H :    0.191666
  38 H :    0.169629
  39 H :    0.164785
  40 H :    0.162812

  Mayer bond orders larger than 0.100000
B(  0-C ,  1-C ) :   0.9273 B(  0-C , 19-H ) :   0.9720 B(  0-C , 20-H ) :   0.9598
B(  0-C , 21-H ) :   0.9644 B(  1-C ,  2-O ) :   0.7458 B(  1-C , 22-H ) :   0.9536
B(  1-C , 23-H ) :   0.9516 B(  2-O ,  3-P ) :   1.0329 B(  3-P ,  4-S ) :   1.8138
B(  3-P ,  5-O ) :   1.1649 B(  3-P ,  8-S ) :   1.0427 B(  5-O ,  6-C ) :   0.7394
B(  6-C ,  7-C ) :   0.9524 B(  6-C , 24-H ) :   0.9276 B(  6-C , 25-H ) :   0.9375
B(  7-C , 26-H ) :   0.9712 B(  7-C , 27-H ) :   0.9690 B(  7-C , 28-H ) :   0.9557
B(  8-S ,  9-C ) :   0.8837 B(  9-C , 10-S ) :   0.8890 B(  9-C , 29-H ) :   0.9041
B(  9-C , 30-H ) :   0.9055 B( 10-S , 11-P ) :   1.0801 B( 11-P , 12-S ) :   1.7258
B( 11-P , 13-O ) :   1.0737 B( 11-P , 16-O ) :   1.1786 B( 13-O , 14-C ) :   0.7237
B( 14-C , 15-C ) :   0.9342 B( 14-C , 31-H ) :   0.9420 B( 14-C , 32-H ) :   0.9452
B( 15-C , 33-H ) :   0.9752 B( 15-C , 34-H ) :   0.9601 B( 15-C , 35-H ) :   0.9685
B( 16-O , 17-C ) :   0.7941 B( 17-C , 18-C ) :   0.9082 B( 17-C , 36-H ) :   0.9641
B( 17-C , 37-H ) :   0.9507 B( 18-C , 38-H ) :   0.9539 B( 18-C , 39-H ) :   0.9666
B( 18-C , 40-H ) :   0.9596

Dispersion correction           -0.021922456
FINAL SINGLE POINT ENERGY     -2932.472984310875

DIPOLE MOMENT
-------------

Method             : SCF
Type of density    : Electron Density
Multiplicity       :   1
Irrep              :   0
Energy             : -2932.4975067609921098 Eh
Relativity type    :
Basis              : AO
                                X                 Y                 Z
Electronic contribution:      2.534615500       5.347444781     -24.570014075
Nuclear contribution   :     -3.451673053      -5.835037369      27.334238175
                        -----------------------------------------
Total Dipole Moment    :     -0.917057553      -0.487592588       2.764224100
                        -----------------------------------------
Magnitude (a.u.)       :      2.952909745
Magnitude (Debye)      :      7.505700084

Rotational constants in cm-1:             0.012023             0.005192             0.004919
Rotational constants in MHz :           360.438807           155.652150           147.469765

                             ****ORCA TERMINATED NORMALLY****
TOTAL RUN TIME: 0 days 0 hours 1 minutes 58 seconds 854 msec
