                         Program Version 6.0.0  -   RELEASE  -
|  1> ! pbe def2-sv(p) def2/J RI DEFGRID1 loosescf d4 GCP(DFT/SV(P)) printgap
|  2> %output
|  3>     printlevel normal
|  4> end
|  5> * xyz 0 1
|  6> C 3.5675503123 2.2182695131 -0.8076844819
|  7> C 2.0845152618 2.0988740255 -0.5298681979
|  8> O 1.6358371487 0.7295216917 -0.565323581
|  9> P 2.1218729162 -0.3616781263 0.4710338315
| 10> S 2.4804151546 0.2668363838 2.2953885218
| 11> O 3.3671377285 -1.001457692 -0.2786728639
| 12> C 4.33247764 -1.8264555321 0.3973292505
| 13> C 3.7475004445 -3.1570451025 0.8249834887
| 14> S 0.5841259402 -1.7853299895 0.2300629145
| 15> C -0.5186474873 -1.1104948481 1.505307915
| 16> S -1.125867702 0.5611895783 1.1496971318
| 17> P -2.0749515252 0.2155844146 -0.7464462256
| 18> S -1.0006193749 0.1639284466 -2.3780134996
| 19> O -3.2010798435 1.3410682851 -0.7517496031
| 20> C -2.9567408234 2.6593210476 -1.2687815014
| 21> C -2.004892403 3.4418074267 -0.3874601655
| 22> O -2.8878361852 -1.1156907092 -0.5213165399
| 23> C -3.9608254029 -1.2527409961 0.4479274636
| 24> C -5.3066730817 -1.031483845 -0.211165996
| 25> H 3.8379294733 3.2676685788 -0.8701219527
| 26> H 4.1338731335 1.7529717675 -0.0013687847
| 27> H 3.8131332736 1.7224167987 -1.7434090513
| 28> H 1.4879447327 2.5829792325 -1.3054059343
| 29> H 1.836504531 2.516027146 0.4521150927
| 30> H 5.1287265424 -1.9526501554 -0.3374158405
| 31> H 4.7083037342 -1.2758556151 1.2658989427
| 32> H 4.5383555423 -3.7874514708 1.2186680475
| 33> H 2.9984826203 -3.0024533949 1.6007697137
| 34> H 3.2769568307 -3.6520940382 -0.0211697388
| 35> H 0.025470935 -1.0249322027 2.4467401064
| 36> H -1.3481519186 -1.8070715035 1.5928067408
| 37> H -2.5549995864 2.563246263 -2.2827283973
| 38> H -3.9456659654 3.1183756403 -1.3015878248
| 39> H -1.9115347953 4.4550672729 -0.7643070146
| 40> H -2.368409517 3.4670812155 0.6366990851
| 41> H -1.0228773553 2.9691851686 -0.3960193021
| 42> H -3.8673679307 -2.2769662189 0.8148121991
| 43> H -3.8008090376 -0.5425531849 1.2633424049
| 44> H -6.0917029529 -1.2241115729 0.5135295139
| 45> H -5.3892195875 -0.0083467854 -0.5670326534
| 46> H -5.4225727171 -1.706610228 -1.0545727657
| 47> *
| 48>
| 49>                          ****END OF INPUT****

CARTESIAN COORDINATES (ANGSTROEM)
---------------------------------
  C      3.567550    2.218270   -0.807684
  C      2.084515    2.098874   -0.529868
  O      1.635837    0.729522   -0.565324
  P      2.121873   -0.361678    0.471034
  S      2.480415    0.266836    2.295389
  O      3.367138   -1.001458   -0.278673
  C      4.332478   -1.826456    0.397329
  C      3.747500   -3.157045    0.824983
  S      0.584126   -1.785330    0.230063
  C     -0.518647   -1.110495    1.505308
  S     -1.125868    0.561190    1.149697
  P     -2.074952    0.215584   -0.746446
  S     -1.000619    0.163928   -2.378013
  O     -3.201080    1.341068   -0.751750
  C     -2.956741    2.659321   -1.268782
  C     -2.004892    3.441807   -0.387460
  O     -2.887836   -1.115691   -0.521317
  C     -3.960825   -1.252741    0.447927
  C     -5.306673   -1.031484   -0.211166
  H      3.837929    3.267669   -0.870122
  H      4.133873    1.752972   -0.001369
  H      3.813133    1.722417   -1.743409
  H      1.487945    2.582979   -1.305406
  H      1.836505    2.516027    0.452115
  H      5.128727   -1.952650   -0.337416
  H      4.708304   -1.275856    1.265899
  H      4.538356   -3.787451    1.218668
  H      2.998483   -3.002453    1.600770
  H      3.276957   -3.652094   -0.021170
  H      0.025471   -1.024932    2.446740
  H     -1.348152   -1.807072    1.592807
  H     -2.555000    2.563246   -2.282728
  H     -3.945666    3.118376   -1.301588
  H     -1.911535    4.455067   -0.764307
  H     -2.368410    3.467081    0.636699
  H     -1.022877    2.969185   -0.396019
  H     -3.867368   -2.276966    0.814812
  H     -3.800809   -0.542553    1.263342
  H     -6.091703   -1.224112    0.513530
  H     -5.389220   -0.008347   -0.567033
  H     -5.422573   -1.706610   -1.054573

 Total Charge           Charge          ....    0
 Multiplicity           Mult            ....    1
 Number of Electrons    NEL             ....  202
 Basis Dimension        Dim             ....  334

ORBITAL ENERGIES
----------------

  NO   OCC          E(Eh)            E(eV)
   0   2.0000     -88.038819     -2395.6581
   1   2.0000     -88.038764     -2395.6566
   2   2.0000     -87.986702     -2394.2399
   3   2.0000     -87.976916     -2393.9736
   4   2.0000     -76.423321     -2079.5843
   5   2.0000     -76.422877     -2079.5722
   6   2.0000     -18.794108      -511.4137
   7   2.0000     -18.792487      -511.3696
   8   2.0000     -18.791234      -511.3355
   9   2.0000     -18.781613      -511.0737
  10   2.0000      -9.960147      -271.0294
  11   2.0000      -9.957054      -270.9452
  12   2.0000      -9.953525      -270.8492
  13   2.0000      -9.950982      -270.7800
  14   2.0000      -9.944975      -270.6165
  15   2.0000      -9.888272      -269.0736
  16   2.0000      -9.888027      -269.0669
  17   2.0000      -9.882646      -268.9205
  18   2.0000      -9.878966      -268.8203
  19   2.0000      -7.683965      -209.0913
  20   2.0000      -7.683231      -209.0714
  21   2.0000      -7.631671      -207.6683
  22   2.0000      -7.622186      -207.4102
  23   2.0000      -6.420817      -174.7193
  24   2.0000      -6.420255      -174.7040
  25   2.0000      -5.711849      -155.4273
  26   2.0000      -5.711119      -155.4075
  27   2.0000      -5.708658      -155.3405
  28   2.0000      -5.707758      -155.3160
  29   2.0000      -5.700665      -155.1230
  30   2.0000      -5.700292      -155.1128
  31   2.0000      -5.660352      -154.0260
  32   2.0000      -5.652452      -153.8110
  33   2.0000      -5.651928      -153.7968
  34   2.0000      -5.651270      -153.7789
  35   2.0000      -5.642862      -153.5501
  36   2.0000      -5.642106      -153.5295
  37   2.0000      -4.643529      -126.3568
  38   2.0000      -4.643202      -126.3479
  39   2.0000      -4.642512      -126.3292
  40   2.0000      -4.641986      -126.3149
  41   2.0000      -4.641533      -126.3025
  42   2.0000      -4.640100      -126.2636
  43   2.0000      -0.988852       -26.9080
  44   2.0000      -0.982716       -26.7411
  45   2.0000      -0.947057       -25.7707
  46   2.0000      -0.941285       -25.6137
  47   2.0000      -0.761417       -20.7192
  48   2.0000      -0.718783       -19.5591
  49   2.0000      -0.707565       -19.2538
  50   2.0000      -0.692763       -18.8510
  51   2.0000      -0.684024       -18.6132
  52   2.0000      -0.671232       -18.2652
  53   2.0000      -0.649277       -17.6677
  54   2.0000      -0.636938       -17.3320
  55   2.0000      -0.599155       -16.3038
  56   2.0000      -0.590347       -16.0642
  57   2.0000      -0.578061       -15.7298
  58   2.0000      -0.569026       -15.4840
  59   2.0000      -0.559441       -15.2232
  60   2.0000      -0.504153       -13.7187
  61   2.0000      -0.488871       -13.3028
  62   2.0000      -0.477047       -12.9811
  63   2.0000      -0.469537       -12.7767
  64   2.0000      -0.457095       -12.4382
  65   2.0000      -0.447252       -12.1703
  66   2.0000      -0.436948       -11.8899
  67   2.0000      -0.433122       -11.7858
  68   2.0000      -0.429549       -11.6886
  69   2.0000      -0.417601       -11.3635
  70   2.0000      -0.409829       -11.1520
  71   2.0000      -0.394355       -10.7310
  72   2.0000      -0.389998       -10.6124
  73   2.0000      -0.384547       -10.4641
  74   2.0000      -0.379781       -10.3344
  75   2.0000      -0.375623       -10.2212
  76   2.0000      -0.364736        -9.9250
  77   2.0000      -0.362794        -9.8721
  78   2.0000      -0.355541        -9.6748
  79   2.0000      -0.352296        -9.5865
  80   2.0000      -0.349308        -9.5052
  81   2.0000      -0.345663        -9.4060
  82   2.0000      -0.343557        -9.3486
  83   2.0000      -0.337394        -9.1810
  84   2.0000      -0.329615        -8.9693
  85   2.0000      -0.320358        -8.7174
  86   2.0000      -0.309906        -8.4330
  87   2.0000      -0.300383        -8.1738
  88   2.0000      -0.293390        -7.9835
  89   2.0000      -0.292081        -7.9479
  90   2.0000      -0.278983        -7.5915
  91   2.0000      -0.271227        -7.3804
  92   2.0000      -0.268746        -7.3129
  93   2.0000      -0.261690        -7.1210
  94   2.0000      -0.257962        -7.0195
  95   2.0000      -0.233915        -6.3651
  96   2.0000      -0.216095        -5.8803
  97   2.0000      -0.208442        -5.6720
  98   2.0000      -0.203939        -5.5495
  99   2.0000      -0.192651        -5.2423
 100   2.0000      -0.185518        -5.0482
 101   0.0000      -0.045615        -1.2412
 102   0.0000      -0.019270        -0.5244
 103   0.0000      -0.011415        -0.3106
 104   0.0000       0.004237         0.1153
 105   0.0000       0.019724         0.5367

MULLIKEN ATOMIC CHARGES
-----------------------
   0 C :   -0.295445
   1 C :   -0.020650
   2 O :   -0.344852
   3 P :    0.619522
   4 S :   -0.346699
   5 O :   -0.369100
   6 C :   -0.004380
   7 C :   -0.315159
   8 S :   -0.064331
   9 C :   -0.354760
  10 S :   -0.106839
  11 P :    0.597772
  12 S :   -0.287773
  13 O :   -0.383239
  14 C :    0.002769
  15 C :   -0.349341
  16 O :   -0.364721
  17 C :   -0.031524
  18 C :   -0.279211
  19 H :    0.108679
  20 H :    0.119562
  21 H :    0.119219
  22 H :    0.113902
  23 H :    0.111187
  24 H :    0.106381
  25 H :    0.110310
  26 H :    0.112516
  27 H :    0.124101
  28 H :    0.120785
  29 H :    0.190983
  30 H :    0.184549
  31 H :    0.110441
  32 H :    0.103998
  33 H :    0.116155
  34 H :    0.122087
  35 H :    0.151667
  36 H :    0.110919
  37 H :    0.105979
  38 H :    0.108820
  39 H :    0.124254
  40 H :    0.121467
Sum of atomic charges:    0.0000000

LOEWDIN ATOMIC CHARGES
----------------------
   0 C :   -0.365314
   1 C :   -0.118065
   2 O :   -0.227183
   3 P :    0.576001
   4 S :   -0.332115
   5 O :   -0.240951
   6 C :   -0.119085
   7 C :   -0.369597
   8 S :    0.103298
   9 C :   -0.480094
  10 S :    0.069022
  11 P :    0.564397
  12 S :   -0.296015
  13 O :   -0.249925
  14 C :   -0.119495
  15 C :   -0.373435
  16 O :   -0.239934
  17 C :   -0.117634
  18 C :   -0.357052
  19 H :    0.129139
  20 H :    0.120722
  21 H :    0.127831
  22 H :    0.117796
  23 H :    0.109578
  24 H :    0.119308
  25 H :    0.109934
  26 H :    0.130797
  27 H :    0.120071
  28 H :    0.125687
  29 H :    0.130664
  30 H :    0.129051
  31 H :    0.110665
  32 H :    0.117838
  33 H :    0.132763
  34 H :    0.125950
  35 H :    0.123075
  36 H :    0.118001
  37 H :    0.107023
  38 H :    0.129640
  39 H :    0.127819
  40 H :    0.129822

  Mayer bond orders larger than 0.100000
B(  0-C ,  1-C ) :   1.1610 B(  0-C , 19-H ) :   0.9390 B(  0-C , 20-H ) :   0.9348
B(  0-C , 21-H ) :   0.9444 B(  1-C ,  2-O ) :   0.9088 B(  1-C , 22-H ) :   0.9238
B(  1-C , 23-H ) :   0.9188 B(  2-O ,  3-P ) :   1.1474 B(  3-P ,  4-S ) :   1.5758
B(  3-P ,  5-O ) :   1.1113 B(  3-P ,  8-S ) :   0.9594 B(  4-S ,  8-S ) :   0.1101
B(  5-O ,  6-C ) :   0.9085 B(  6-C ,  7-C ) :   1.1665 B(  6-C , 24-H ) :   0.9337
B(  6-C , 25-H ) :   0.9157 B(  7-C , 26-H ) :   0.9378 B(  7-C , 27-H ) :   0.9353
B(  7-C , 28-H ) :   0.9445 B(  8-S ,  9-C ) :   1.0114 B(  9-C , 10-S ) :   0.9981
B(  9-C , 29-H ) :   0.8820 B(  9-C , 30-H ) :   0.9003 B( 10-S , 11-P ) :   0.9360
B( 10-S , 12-S ) :   0.1099 B( 11-P , 12-S ) :   1.6915 B( 11-P , 13-O ) :   1.0612
B( 11-P , 16-O ) :   1.1181 B( 13-O , 14-C ) :   0.9114 B( 14-C , 15-C ) :   1.1632
B( 14-C , 31-H ) :   0.9123 B( 14-C , 32-H ) :   0.9326 B( 15-C , 33-H ) :   0.9378
B( 15-C , 34-H ) :   0.9420 B( 15-C , 35-H ) :   0.9253 B( 16-O , 17-C ) :   0.8924
B( 17-C , 18-C ) :   1.1698 B( 17-C , 36-H ) :   0.9305 B( 17-C , 37-H ) :   0.9087
B( 18-C , 38-H ) :   0.9390 B( 18-C , 39-H ) :   0.9415 B( 18-C , 40-H ) :   0.9469

Dispersion correction           -0.067179410
FINAL SINGLE POINT ENERGY     -2929.517425497660

DIPOLE MOMENT
-------------

Method             : SCF
Type of density    : Electron Density
Multiplicity       :   1
Irrep              :   0
Energy             : -2929.6352603053746861 Eh
Relativity type    :
Basis              : AO
                                X                 Y                 Z
Electronic contribution:      1.296128019      -5.740471332      -0.828721626
Nuclear contribution   :     -1.902991353       5.926248781       1.265686697
                        -----------------------------------------
Total Dipole Moment    :     -0.606863334       0.185777449       0.436965071
                        -----------------------------------------
Magnitude (a.u.)       :      0.770541913
Magnitude (Debye)      :      1.958561893

Rotational constants in cm-1:             0.012941             0.005256             0.004602
Rotational constants in MHz :           387.951825           157.557788           137.954459

                             ****ORCA TERMINATED NORMALLY****
TOTAL RUN TIME: 0 days 0 hours 0 minutes 21 seconds 410 msec
