                         Program Version 6.0.0  -   RELEASE  -
|  1> ! pbe def2-sv(p) def2/J RI DEFGRID1 loosescf d4 GCP(DFT/SV(P)) printgap
|  2> %output
|  3>     printlevel normal
|  4> end
|  5> * xyz 0 1
|  6> C 1.8336407002 -1.2512076666 -3.0289550677
|  7> C 2.7917841921 -0.376392864 -2.2461741538
|  8> O 2.0687337573 0.4131854994 -1.262186674
|  9> P 2.1221492497 0.1476929601 0.2911516509
| 10> S 1.0286845415 1.4917829292 1.2125032891
| 11> O 3.6902239383 0.1592334643 0.547614478
| 12> C 4.3537122579 -0.3925952531 1.7003119592
| 13> C 3.8267840751 0.1692913975 3.0038213361
| 14> S 1.609027603 -1.8866775275 0.641353264
| 15> C -0.1780625313 -1.6785835315 0.7687833057
| 16> S -0.9086689909 -1.0061004782 -0.7587577288
| 17> P -2.1684206523 0.5103297545 0.0344222004
| 18> S -2.4005044076 0.541782015 1.9772976803
| 19> O -3.5366297115 0.3154355543 -0.7618870469
| 20> C -4.5908849722 -0.5457359488 -0.3039508333
| 21> C -4.1885174337 -2.0069684228 -0.3022746927
| 22> O -1.6766148707 1.8865585147 -0.5546288625
| 23> C -1.0200033936 2.1052327764 -1.8236584524
| 24> C -1.8002679854 1.5445337096 -2.9927441353
| 25> H 2.386717872 -1.7680433089 -3.8065273204
| 26> H 1.361920934 -1.9844156761 -2.3793178196
| 27> H 1.056427537 -0.6440349181 -3.4839841489
| 28> H 3.2748892618 0.3611386745 -2.8887309187
| 29> H 3.5511792794 -0.9723251101 -1.7366377859
| 30> H 4.2386370146 -1.4796805668 1.6732411886
| 31> H 5.400192462 -0.1243051739 1.5450765103
| 32> H 2.7835564223 -0.1125736948 3.1421829071
| 33> H 4.4111311232 -0.2225958008 3.8300099395
| 34> H 3.8875759041 1.2552329471 3.0016512625
| 35> H -0.4230629432 -1.0004650463 1.5914067069
| 36> H -0.5806624572 -2.6730359442 0.9456789977
| 37> H -4.8820696558 -0.2283498794 0.7024135262
| 38> H -5.4047723378 -0.3523627789 -1.0041590011
| 39> H -3.4354092953 -2.1802214119 0.4651946294
| 40> H -5.0591414899 -2.6157697598 -0.0807194401
| 41> H -3.784417692 -2.2916959372 -1.2702972623
| 42> H -0.9369107297 3.1922371226 -1.8733342861
| 43> H -0.0170157047 1.6708282872 -1.766044597
| 44> H -2.8095084973 1.9479987005 -2.9957561284
| 45> H -1.2986512743 1.8180893352 -3.9159718877
| 46> H -1.8557026766 0.4589739705 -2.9243910246
| 47> *
| 48>
| 49>                          ****END OF INPUT****

CARTESIAN COORDINATES (ANGSTROEM)
---------------------------------
  C      1.833641   -1.251208   -3.028955
  C      2.791784   -0.376393   -2.246174
  O      2.068734    0.413185   -1.262187
  P      2.122149    0.147693    0.291152
  S      1.028685    1.491783    1.212503
  O      3.690224    0.159233    0.547614
  C      4.353712   -0.392595    1.700312
  C      3.826784    0.169291    3.003821
  S      1.609028   -1.886678    0.641353
  C     -0.178063   -1.678584    0.768783
  S     -0.908669   -1.006100   -0.758758
  P     -2.168421    0.510330    0.034422
  S     -2.400504    0.541782    1.977298
  O     -3.536630    0.315436   -0.761887
  C     -4.590885   -0.545736   -0.303951
  C     -4.188517   -2.006968   -0.302275
  O     -1.676615    1.886559   -0.554629
  C     -1.020003    2.105233   -1.823658
  C     -1.800268    1.544534   -2.992744
  H      2.386718   -1.768043   -3.806527
  H      1.361921   -1.984416   -2.379318
  H      1.056428   -0.644035   -3.483984
  H      3.274889    0.361139   -2.888731
  H      3.551179   -0.972325   -1.736638
  H      4.238637   -1.479681    1.673241
  H      5.400192   -0.124305    1.545077
  H      2.783556   -0.112574    3.142183
  H      4.411131   -0.222596    3.830010
  H      3.887576    1.255233    3.001651
  H     -0.423063   -1.000465    1.591407
  H     -0.580662   -2.673036    0.945679
  H     -4.882070   -0.228350    0.702414
  H     -5.404772   -0.352363   -1.004159
  H     -3.435409   -2.180221    0.465195
  H     -5.059141   -2.615770   -0.080719
  H     -3.784418   -2.291696   -1.270297
  H     -0.936911    3.192237   -1.873334
  H     -0.017016    1.670828   -1.766045
  H     -2.809508    1.947999   -2.995756
  H     -1.298651    1.818089   -3.915972
  H     -1.855703    0.458974   -2.924391

 Total Charge           Charge          ....    0
 Multiplicity           Mult            ....    1
 Number of Electrons    NEL             ....  202
 Basis Dimension        Dim             ....  334

ORBITAL ENERGIES
----------------

  NO   OCC          E(Eh)            E(eV)
   0   2.0000     -88.049559     -2395.9503
   1   2.0000     -88.041764     -2395.7382
   2   2.0000     -87.979412     -2394.0415
   3   2.0000     -87.977389     -2393.9865
   4   2.0000     -76.426260     -2079.6643
   5   2.0000     -76.419962     -2079.4929
   6   2.0000     -18.795073      -511.4399
   7   2.0000     -18.792138      -511.3601
   8   2.0000     -18.781922      -511.0821
   9   2.0000     -18.780530      -511.0442
  10   2.0000      -9.960515      -271.0394
  11   2.0000      -9.959267      -271.0054
  12   2.0000      -9.955868      -270.9129
  13   2.0000      -9.946091      -270.6469
  14   2.0000      -9.943907      -270.5875
  15   2.0000      -9.889141      -269.0972
  16   2.0000      -9.883547      -268.9450
  17   2.0000      -9.883113      -268.9332
  18   2.0000      -9.880910      -268.8732
  19   2.0000      -7.694428      -209.3760
  20   2.0000      -7.685813      -209.1416
  21   2.0000      -7.624091      -207.4621
  22   2.0000      -7.622588      -207.4212
  23   2.0000      -6.423250      -174.7855
  24   2.0000      -6.416959      -174.6143
  25   2.0000      -5.722190      -155.7087
  26   2.0000      -5.718718      -155.6142
  27   2.0000      -5.713704      -155.4778
  28   2.0000      -5.711794      -155.4258
  29   2.0000      -5.710335      -155.3861
  30   2.0000      -5.702844      -155.1823
  31   2.0000      -5.653342      -153.8353
  32   2.0000      -5.651615      -153.7883
  33   2.0000      -5.644489      -153.5943
  34   2.0000      -5.644206      -153.5867
  35   2.0000      -5.643269      -153.5611
  36   2.0000      -5.642528      -153.5410
  37   2.0000      -4.646055      -126.4256
  38   2.0000      -4.645405      -126.4079
  39   2.0000      -4.643178      -126.3473
  40   2.0000      -4.639579      -126.2494
  41   2.0000      -4.638760      -126.2271
  42   2.0000      -4.637451      -126.1915
  43   2.0000      -0.990015       -26.9397
  44   2.0000      -0.977014       -26.5859
  45   2.0000      -0.945865       -25.7383
  46   2.0000      -0.934556       -25.4306
  47   2.0000      -0.763967       -20.7886
  48   2.0000      -0.719800       -19.5868
  49   2.0000      -0.708747       -19.2860
  50   2.0000      -0.691893       -18.8274
  51   2.0000      -0.683797       -18.6071
  52   2.0000      -0.678663       -18.4674
  53   2.0000      -0.649153       -17.6644
  54   2.0000      -0.632263       -17.2048
  55   2.0000      -0.594988       -16.1905
  56   2.0000      -0.587038       -15.9741
  57   2.0000      -0.578811       -15.7502
  58   2.0000      -0.569427       -15.4949
  59   2.0000      -0.564789       -15.3687
  60   2.0000      -0.507700       -13.8152
  61   2.0000      -0.486025       -13.2254
  62   2.0000      -0.474174       -12.9029
  63   2.0000      -0.462262       -12.5788
  64   2.0000      -0.451741       -12.2925
  65   2.0000      -0.448525       -12.2050
  66   2.0000      -0.442320       -12.0361
  67   2.0000      -0.434525       -11.8240
  68   2.0000      -0.432644       -11.7728
  69   2.0000      -0.422088       -11.4856
  70   2.0000      -0.413478       -11.2513
  71   2.0000      -0.398660       -10.8481
  72   2.0000      -0.391401       -10.6506
  73   2.0000      -0.388780       -10.5792
  74   2.0000      -0.384517       -10.4632
  75   2.0000      -0.363384        -9.8882
  76   2.0000      -0.361517        -9.8374
  77   2.0000      -0.355889        -9.6842
  78   2.0000      -0.352720        -9.5980
  79   2.0000      -0.348522        -9.4838
  80   2.0000      -0.347832        -9.4650
  81   2.0000      -0.346240        -9.4217
  82   2.0000      -0.341189        -9.2842
  83   2.0000      -0.340866        -9.2754
  84   2.0000      -0.332685        -9.0528
  85   2.0000      -0.319063        -8.6822
  86   2.0000      -0.305398        -8.3103
  87   2.0000      -0.298012        -8.1093
  88   2.0000      -0.295938        -8.0529
  89   2.0000      -0.287669        -7.8279
  90   2.0000      -0.282541        -7.6883
  91   2.0000      -0.280492        -7.6326
  92   2.0000      -0.266485        -7.2514
  93   2.0000      -0.261422        -7.1137
  94   2.0000      -0.254655        -6.9295
  95   2.0000      -0.236450        -6.4341
  96   2.0000      -0.217927        -5.9301
  97   2.0000      -0.207913        -5.6576
  98   2.0000      -0.195722        -5.3259
  99   2.0000      -0.193490        -5.2651
 100   2.0000      -0.181762        -4.9460
 101   0.0000      -0.045924        -1.2497
 102   0.0000      -0.034680        -0.9437
 103   0.0000      -0.011725        -0.3191
 104   0.0000       0.006561         0.1785
 105   0.0000       0.018324         0.4986

MULLIKEN ATOMIC CHARGES
-----------------------
   0 C :   -0.289885
   1 C :   -0.008023
   2 O :   -0.350081
   3 P :    0.584251
   4 S :   -0.276059
   5 O :   -0.376716
   6 C :   -0.012095
   7 C :   -0.308859
   8 S :   -0.131445
   9 C :   -0.326468
  10 S :   -0.140360
  11 P :    0.615258
  12 S :   -0.300634
  13 O :   -0.376177
  14 C :    0.003482
  15 C :   -0.313645
  16 O :   -0.352145
  17 C :   -0.024759
  18 C :   -0.317339
  19 H :    0.109383
  20 H :    0.123064
  21 H :    0.120273
  22 H :    0.111254
  23 H :    0.100344
  24 H :    0.111897
  25 H :    0.109265
  26 H :    0.129994
  27 H :    0.111151
  28 H :    0.128391
  29 H :    0.209607
  30 H :    0.179771
  31 H :    0.110757
  32 H :    0.101383
  33 H :    0.116760
  34 H :    0.110304
  35 H :    0.115354
  36 H :    0.107728
  37 H :    0.138557
  38 H :    0.122314
  39 H :    0.110943
  40 H :    0.123206
Sum of atomic charges:   -0.0000000

LOEWDIN ATOMIC CHARGES
----------------------
   0 C :   -0.361502
   1 C :   -0.111595
   2 O :   -0.233215
   3 P :    0.557020
   4 S :   -0.280822
   5 O :   -0.246109
   6 C :   -0.115553
   7 C :   -0.368517
   8 S :    0.062376
   9 C :   -0.477090
  10 S :    0.073721
  11 P :    0.576481
  12 S :   -0.298904
  13 O :   -0.248818
  14 C :   -0.118511
  15 C :   -0.371041
  16 O :   -0.226152
  17 C :   -0.120055
  18 C :   -0.368067
  19 H :    0.129139
  20 H :    0.115772
  21 H :    0.126137
  22 H :    0.121679
  23 H :    0.107613
  24 H :    0.106707
  25 H :    0.121315
  26 H :    0.123141
  27 H :    0.130063
  28 H :    0.131660
  29 H :    0.125999
  30 H :    0.133750
  31 H :    0.111044
  32 H :    0.117002
  33 H :    0.117627
  34 H :    0.129158
  35 H :    0.121955
  36 H :    0.123165
  37 H :    0.111565
  38 H :    0.128811
  39 H :    0.129549
  40 H :    0.113506

  Mayer bond orders larger than 0.100000
B(  0-C ,  1-C ) :   1.1671 B(  0-C , 19-H ) :   0.9385 B(  0-C , 20-H ) :   0.9320
B(  0-C , 21-H ) :   0.9454 B(  1-C ,  2-O ) :   0.8889 B(  1-C , 22-H ) :   0.9354
B(  1-C , 23-H ) :   0.9173 B(  2-O ,  3-P ) :   1.1098 B(  3-P ,  4-S ) :   1.6713
B(  3-P ,  5-O ) :   1.0887 B(  3-P ,  8-S ) :   0.9253 B(  4-S ,  8-S ) :   0.1089
B(  5-O ,  6-C ) :   0.9118 B(  6-C ,  7-C ) :   1.1668 B(  6-C , 24-H ) :   0.9259
B(  6-C , 25-H ) :   0.9332 B(  7-C , 26-H ) :   0.9323 B(  7-C , 27-H ) :   0.9350
B(  7-C , 28-H ) :   0.9431 B(  8-S ,  9-C ) :   1.0056 B(  9-C , 10-S ) :   0.9997
B(  9-C , 29-H ) :   0.8447 B(  9-C , 30-H ) :   0.9071 B( 10-S , 11-P ) :   0.9333
B( 10-S , 12-S ) :   0.1117 B( 11-P , 12-S ) :   1.6160 B( 11-P , 13-O ) :   1.0799
B( 11-P , 16-O ) :   1.1530 B( 13-O , 14-C ) :   0.9185 B( 14-C , 15-C ) :   1.1643
B( 14-C , 31-H ) :   0.9158 B( 14-C , 32-H ) :   0.9345 B( 15-C , 33-H ) :   0.9368
B( 15-C , 34-H ) :   0.9377 B( 15-C , 35-H ) :   0.9430 B( 16-O , 17-C ) :   0.8968
B( 17-C , 18-C ) :   1.1646 B( 17-C , 36-H ) :   0.9331 B( 17-C , 37-H ) :   0.9049
B( 18-C , 38-H ) :   0.9411 B( 18-C , 39-H ) :   0.9362 B( 18-C , 40-H ) :   0.9352

Dispersion correction           -0.069056356
FINAL SINGLE POINT ENERGY     -2929.513522967624

DIPOLE MOMENT
-------------

Method             : SCF
Type of density    : Electron Density
Multiplicity       :   1
Irrep              :   0
Energy             : -2929.6309849208946616 Eh
Relativity type    :
Basis              : AO
                                X                 Y                 Z
Electronic contribution:     -0.868140380       6.675743950      11.432609830
Nuclear contribution   :      1.818462401      -7.976113020     -12.821009862
                        -----------------------------------------
Total Dipole Moment    :      0.950322021      -1.300369070      -1.388400032
                        -----------------------------------------
Magnitude (a.u.)       :      2.126435118
Magnitude (Debye)      :      5.404968530

Rotational constants in cm-1:             0.012465             0.005568             0.005113
Rotational constants in MHz :           373.682342           166.927867           153.272578

                             ****ORCA TERMINATED NORMALLY****
TOTAL RUN TIME: 0 days 0 hours 0 minutes 22 seconds 487 msec
