                         Program Version 6.0.0  -   RELEASE  -
|  1> ! wb97x-v def2-tzvp def2/J RIJCOSX DEFGRID2 scfconv7 GCP(DFT/TZ) printgap
|  2> %output
|  3>     printlevel normal
|  4> end
|  5> * xyz 0 1
|  6> C 0.6055616455964098 -1.8391062711047642e-05 -9.945122439076638e-05
|  7> O -0.608081374519693 3.933432120064046e-05 3.151499908251072e-05
|  8> H 1.1851431771034748 -0.9419969334273437 7.529195843949568e-05
|  9> H 1.185241687365979 0.9418999294768451 7.578356087197776e-05
| 10> *
| 11>
| 12>                          ****END OF INPUT****

CARTESIAN COORDINATES (ANGSTROEM)
---------------------------------
  C      0.605562   -0.000018   -0.000099
  O     -0.608081    0.000039    0.000032
  H      1.185143   -0.941997    0.000075
  H      1.185242    0.941900    0.000076

 Total Charge           Charge          ....    0
 Multiplicity           Mult            ....    1
 Number of Electrons    NEL             ....   16
 Basis Dimension        Dim             ....   74

ORBITAL ENERGIES
----------------

  NO   OCC          E(Eh)            E(eV)
   0   2.0000     -21.692783      -590.2906
   1   2.0000     -12.150911      -330.6431
   2   2.0000      -1.734025       -47.1852
   3   2.0000      -1.163785       -31.6682
   4   2.0000      -1.015941       -27.6452
   5   2.0000      -1.002667       -27.2840
   6   2.0000      -0.911490       -24.8029
   7   2.0000      -0.793071       -21.5806
   8   0.0000      -0.328643        -8.9428
   9   0.0000      -0.022949        -0.6245
  10   0.0000       0.034067         0.9270
  11   0.0000       0.035757         0.9730
  12   0.0000       0.192224         5.2307

MULLIKEN ATOMIC CHARGES
-----------------------
   0 C :    0.081919
   1 O :   -0.266480
   2 H :    0.092280
   3 H :    0.092281
Sum of atomic charges:   -0.0000000

LOEWDIN ATOMIC CHARGES
----------------------
   0 C :   -0.261590
   1 O :    0.085251
   2 H :    0.088169
   3 H :    0.088170

  Mayer bond orders larger than 0.100000
B(  0-C ,  1-O ) :   2.1014 B(  0-C ,  2-H ) :   0.9329 B(  0-C ,  3-H ) :   0.9329

FINAL SINGLE POINT ENERGY      -114.508195306652

DIPOLE MOMENT
-------------

Method             : SCF
Type of density    : Electron Density
Multiplicity       :   1
Irrep              :   0
Energy             :  -114.5099697085514947 Eh
Relativity type    :
Basis              : AO
                                X                 Y                 Z
Electronic contribution:     -1.250543662       0.000064268      -0.000202994
Nuclear contribution   :      2.218999530      -0.000109990       0.000176088
                        -----------------------------------------
Total Dipole Moment    :      0.968455868      -0.000045722      -0.000026906
                        -----------------------------------------
Magnitude (a.u.)       :      0.968455869
Magnitude (Debye)      :      2.461619192

Rotational constants in cm-1:             9.424365             1.281753             1.128300
Rotational constants in MHz :        282535.354852         38425.989201         33825.570630

                             ****ORCA TERMINATED NORMALLY****
TOTAL RUN TIME: 0 days 0 hours 0 minutes 8 seconds 647 msec
