                         Program Version 6.0.0  -   RELEASE  -
|  1> ! wb97x-v def2-tzvp def2/J RIJCOSX DEFGRID2 scfconv7 GCP(DFT/TZ) printgap
|  2> %output
|  3>     printlevel normal
|  4> end
|  5> %cpcm
|  6>     smd true
|  7>     smdsolvent "water"
|  8> end
|  9> * xyz 0 1
| 10> C 0.6055616455964098 -1.8391062711047642e-05 -9.945122439076638e-05
| 11> O -0.608081374519693 3.933432120064046e-05 3.151499908251072e-05
| 12> H 1.1851431771034748 -0.9419969334273437 7.529195843949568e-05
| 13> H 1.185241687365979 0.9418999294768451 7.578356087197776e-05
| 14> *
| 15>
| 16>                          ****END OF INPUT****

CARTESIAN COORDINATES (ANGSTROEM)
---------------------------------
  C      0.605562   -0.000018   -0.000099
  O     -0.608081    0.000039    0.000032
  H      1.185143   -0.941997    0.000075
  H      1.185242    0.941900    0.000076

 Total Charge           Charge          ....    0
 Multiplicity           Mult            ....    1
 Number of Electrons    NEL             ....   16
 Basis Dimension        Dim             ....   74

ORBITAL ENERGIES
----------------

  NO   OCC          E(Eh)            E(eV)
   0   2.0000     -21.691688      -590.2608
   1   2.0000     -12.144088      -330.4574
   2   2.0000      -1.736068       -47.2408
   3   2.0000      -1.161227       -31.5986
   4   2.0000      -1.009316       -27.4649
   5   2.0000      -1.000684       -27.2300
   6   2.0000      -0.918614       -24.9968
   7   2.0000      -0.786785       -21.4095
   8   0.0000      -0.314813        -8.5665
   9   0.0000       0.001581         0.0430
  10   0.0000       0.042199         1.1483
  11   0.0000       0.060430         1.6444
  12   0.0000       0.203415         5.5352

MULLIKEN ATOMIC CHARGES
-----------------------
   0 C :    0.117116
   1 O :   -0.389600
   2 H :    0.136241
   3 H :    0.136243
Sum of atomic charges:   -0.0000000

LOEWDIN ATOMIC CHARGES
----------------------
   0 C :   -0.219041
   1 O :    0.008368
   2 H :    0.105336
   3 H :    0.105337

  Mayer bond orders larger than 0.100000
B(  0-C ,  1-O ) :   1.9940 B(  0-C ,  2-H ) :   0.9378 B(  0-C ,  3-H ) :   0.9377

FINAL SINGLE POINT ENERGY      -114.511693297007

DIPOLE MOMENT
-------------

Method             : SCF
Type of density    : Electron Density
Multiplicity       :   1
Irrep              :   0
Energy             :  -114.5134676989066520 Eh
Relativity type    :
Basis              : AO
                                X                 Y                 Z
Electronic contribution:     -0.888396607       0.000047620      -0.000216520
Nuclear contribution   :      2.218999530      -0.000109990       0.000176088
                        -----------------------------------------
Total Dipole Moment    :      1.330602922      -0.000062370      -0.000040432
                        -----------------------------------------
Magnitude (a.u.)       :      1.330602924
Magnitude (Debye)      :      3.382123852

Rotational constants in cm-1:             9.424365             1.281753             1.128300
Rotational constants in MHz :        282535.354852         38425.989201         33825.570630

                             ****ORCA TERMINATED NORMALLY****
TOTAL RUN TIME: 0 days 0 hours 0 minutes 8 seconds 560 msec
