                         Program Version 6.0.0  -   RELEASE  -
|  1> ! pbe def2-sv(p) def2/J RI DEFGRID1 loosescf d4 GCP(DFT/SV(P)) printgap
|  2> %output
|  3>     printlevel normal
|  4> end
|  5> * xyz 0 1
|  6> C 3.6651617345 1.368039135 -2.3455827745
|  7> C 4.2978599007 1.2223130023 -0.9763012395
|  8> O 3.7952300101 0.0722756406 -0.2814665078
|  9> P 2.2965710624 -0.0075537001 0.2610937343
| 10> S 1.7130826489 1.6932974415 1.0474435704
| 11> O 2.3742505507 -1.2624383486 1.2177367287
| 12> C 2.7010127915 -1.1411959169 2.6244371937
| 13> C 1.4399760402 -1.1360724085 3.4645370791
| 14> S 1.2249216529 -0.8586310752 -1.354253687
| 15> C 0.0234081827 -1.8771548705 -0.4412776689
| 16> S -0.9813247604 -0.9540814162 0.7397390808
| 17> P -2.1739231019 0.150444709 -0.6488395565
| 18> S -2.1593094048 -0.5335648409 -2.4839005274
| 19> O -1.6702043932 1.6437260714 -0.5598041049
| 20> C -2.1061880493 2.6231467671 0.4152716658
| 21> C -1.8568066979 2.1885352328 1.8433583948
| 22> O -3.6140307821 0.2369688664 0.0207203135
| 23> C -4.6224729956 -0.7650356973 -0.200142041
| 24> C -4.251092378 -2.1012135912 0.4094886673
| 25> H 2.5942652761 1.5496272742 -2.2411883709
| 26> H 4.1148334554 2.2061146842 -2.8682581847
| 27> H 3.8050545286 0.4598850549 -2.926566219
| 28> H 4.103362402 2.110709924 -0.3653650396
| 29> H 5.3719532674 1.0452823353 -1.0435460628
| 30> H 3.3229529532 -2.0124918071 2.8344418608
| 31> H 3.2802964815 -0.2276335183 2.7824268092
| 32> H 1.7120704219 -1.1277080294 4.5149118104
| 33> H 0.8464297688 -0.2519514922 3.2436836125
| 34> H 0.8394747012 -2.0159586157 3.2518089862
| 35> H 0.5493371496 -2.6442666324 0.119961234
| 36> H -0.6153331852 -2.3081306417 -1.2129385893
| 37> H -1.5169520948 3.505420794 0.1606694231
| 38> H -3.1671486707 2.815920449 0.2436366646
| 39> H -0.7956559911 2.0140428565 2.0034606788
| 40> H -2.1885389628 2.9753580465 2.513328034
| 41> H -2.4062705856 1.2754838358 2.0641723521
| 42> H -5.5128677763 -0.3422304234 0.2672466785
| 43> H -4.7780746338 -0.8649891302 -1.2787657479
| 44> H -5.0967101949 -2.7767246742 0.3297926974
| 45> H -3.4062664614 -2.5317439232 -0.1257534357
| 46> H -3.9815535383 -1.9808867741 1.455577973
| 47> *
| 48>
| 49>                          ****END OF INPUT****

CARTESIAN COORDINATES (ANGSTROEM)
---------------------------------
  C      3.665162    1.368039   -2.345583
  C      4.297860    1.222313   -0.976301
  O      3.795230    0.072276   -0.281467
  P      2.296571   -0.007554    0.261094
  S      1.713083    1.693297    1.047444
  O      2.374251   -1.262438    1.217737
  C      2.701013   -1.141196    2.624437
  C      1.439976   -1.136072    3.464537
  S      1.224922   -0.858631   -1.354254
  C      0.023408   -1.877155   -0.441278
  S     -0.981325   -0.954081    0.739739
  P     -2.173923    0.150445   -0.648840
  S     -2.159309   -0.533565   -2.483901
  O     -1.670204    1.643726   -0.559804
  C     -2.106188    2.623147    0.415272
  C     -1.856807    2.188535    1.843358
  O     -3.614031    0.236969    0.020720
  C     -4.622473   -0.765036   -0.200142
  C     -4.251092   -2.101214    0.409489
  H      2.594265    1.549627   -2.241188
  H      4.114833    2.206115   -2.868258
  H      3.805055    0.459885   -2.926566
  H      4.103362    2.110710   -0.365365
  H      5.371953    1.045282   -1.043546
  H      3.322953   -2.012492    2.834442
  H      3.280296   -0.227634    2.782427
  H      1.712070   -1.127708    4.514912
  H      0.846430   -0.251951    3.243684
  H      0.839475   -2.015959    3.251809
  H      0.549337   -2.644267    0.119961
  H     -0.615333   -2.308131   -1.212939
  H     -1.516952    3.505421    0.160669
  H     -3.167149    2.815920    0.243637
  H     -0.795656    2.014043    2.003461
  H     -2.188539    2.975358    2.513328
  H     -2.406271    1.275484    2.064172
  H     -5.512868   -0.342230    0.267247
  H     -4.778075   -0.864989   -1.278766
  H     -5.096710   -2.776725    0.329793
  H     -3.406266   -2.531744   -0.125753
  H     -3.981554   -1.980887    1.455578

 Total Charge           Charge          ....    0
 Multiplicity           Mult            ....    1
 Number of Electrons    NEL             ....  202
 Basis Dimension        Dim             ....  334

ORBITAL ENERGIES
----------------

  NO   OCC          E(Eh)            E(eV)
   0   2.0000     -88.040932     -2395.7156
   1   2.0000     -88.036033     -2395.5822
   2   2.0000     -87.984296     -2394.1744
   3   2.0000     -87.983787     -2394.1606
   4   2.0000     -76.425307     -2079.6383
   5   2.0000     -76.424232     -2079.6091
   6   2.0000     -18.795353      -511.4476
   7   2.0000     -18.793791      -511.4050
   8   2.0000     -18.786457      -511.2055
   9   2.0000     -18.783919      -511.1364
  10   2.0000      -9.955911      -270.9141
  11   2.0000      -9.954638      -270.8795
  12   2.0000      -9.953758      -270.8555
  13   2.0000      -9.949176      -270.7309
  14   2.0000      -9.947708      -270.6909
  15   2.0000      -9.885931      -269.0099
  16   2.0000      -9.883590      -268.9461
  17   2.0000      -9.881712      -268.8951
  18   2.0000      -9.877246      -268.7735
  19   2.0000      -7.685330      -209.1285
  20   2.0000      -7.681205      -209.0162
  21   2.0000      -7.629476      -207.6086
  22   2.0000      -7.628749      -207.5888
  23   2.0000      -6.422619      -174.7684
  24   2.0000      -6.421900      -174.7488
  25   2.0000      -5.713205      -155.4642
  26   2.0000      -5.709917      -155.3747
  27   2.0000      -5.709456      -155.3622
  28   2.0000      -5.705726      -155.2607
  29   2.0000      -5.702298      -155.1674
  30   2.0000      -5.697782      -155.0445
  31   2.0000      -5.658538      -153.9766
  32   2.0000      -5.657433      -153.9466
  33   2.0000      -5.649818      -153.7394
  34   2.0000      -5.649745      -153.7374
  35   2.0000      -5.649531      -153.7316
  36   2.0000      -5.648966      -153.7162
  37   2.0000      -4.645675      -126.4152
  38   2.0000      -4.644672      -126.3880
  39   2.0000      -4.644025      -126.3703
  40   2.0000      -4.643688      -126.3612
  41   2.0000      -4.643027      -126.3432
  42   2.0000      -4.642145      -126.3192
  43   2.0000      -0.986378       -26.8407
  44   2.0000      -0.985608       -26.8198
  45   2.0000      -0.944505       -25.7013
  46   2.0000      -0.940674       -25.5970
  47   2.0000      -0.760493       -20.6941
  48   2.0000      -0.718457       -19.5502
  49   2.0000      -0.706639       -19.2286
  50   2.0000      -0.689062       -18.7503
  51   2.0000      -0.684563       -18.6279
  52   2.0000      -0.671831       -18.2814
  53   2.0000      -0.651253       -17.7215
  54   2.0000      -0.635512       -17.2932
  55   2.0000      -0.598705       -16.2916
  56   2.0000      -0.590436       -16.0666
  57   2.0000      -0.575544       -15.6613
  58   2.0000      -0.573869       -15.6158
  59   2.0000      -0.557166       -15.1613
  60   2.0000      -0.499873       -13.6022
  61   2.0000      -0.493084       -13.4175
  62   2.0000      -0.468252       -12.7418
  63   2.0000      -0.466375       -12.6907
  64   2.0000      -0.461399       -12.5553
  65   2.0000      -0.447974       -12.1900
  66   2.0000      -0.440189       -11.9782
  67   2.0000      -0.432882       -11.7793
  68   2.0000      -0.421816       -11.4782
  69   2.0000      -0.417273       -11.3546
  70   2.0000      -0.411189       -11.1890
  71   2.0000      -0.396985       -10.8025
  72   2.0000      -0.395962       -10.7747
  73   2.0000      -0.381514       -10.3815
  74   2.0000      -0.376172       -10.2362
  75   2.0000      -0.371670       -10.1137
  76   2.0000      -0.369954       -10.0670
  77   2.0000      -0.361151        -9.8274
  78   2.0000      -0.353198        -9.6110
  79   2.0000      -0.348976        -9.4961
  80   2.0000      -0.345776        -9.4090
  81   2.0000      -0.342837        -9.3291
  82   2.0000      -0.342145        -9.3102
  83   2.0000      -0.335728        -9.1356
  84   2.0000      -0.331754        -9.0275
  85   2.0000      -0.319481        -8.6935
  86   2.0000      -0.301744        -8.2109
  87   2.0000      -0.296163        -8.0590
  88   2.0000      -0.294555        -8.0152
  89   2.0000      -0.289881        -7.8881
  90   2.0000      -0.285470        -7.7680
  91   2.0000      -0.277321        -7.5463
  92   2.0000      -0.272339        -7.4107
  93   2.0000      -0.258450        -7.0328
  94   2.0000      -0.256325        -6.9750
  95   2.0000      -0.236215        -6.4277
  96   2.0000      -0.214273        -5.8307
  97   2.0000      -0.204368        -5.5611
  98   2.0000      -0.202968        -5.5231
  99   2.0000      -0.196640        -5.3509
 100   2.0000      -0.191854        -5.2206
 101   0.0000      -0.047167        -1.2835
 102   0.0000      -0.024145        -0.6570
 103   0.0000      -0.018090        -0.4922
 104   0.0000      -0.000942        -0.0256
 105   0.0000       0.016121         0.4387

MULLIKEN ATOMIC CHARGES
-----------------------
   0 C :   -0.328738
   1 C :   -0.004555
   2 O :   -0.369444
   3 P :    0.616279
   4 S :   -0.333593
   5 O :   -0.377888
   6 C :   -0.002194
   7 C :   -0.300568
   8 S :   -0.076511
   9 C :   -0.337537
  10 S :   -0.109848
  11 P :    0.625587
  12 S :   -0.315855
  13 O :   -0.358223
  14 C :    0.022661
  15 C :   -0.359736
  16 O :   -0.385289
  17 C :   -0.000450
  18 C :   -0.312503
  19 H :    0.136073
  20 H :    0.115143
  21 H :    0.122814
  22 H :    0.109491
  23 H :    0.103915
  24 H :    0.108260
  25 H :    0.106942
  26 H :    0.109194
  27 H :    0.137657
  28 H :    0.111180
  29 H :    0.185684
  30 H :    0.189395
  31 H :    0.110655
  32 H :    0.103170
  33 H :    0.161342
  34 H :    0.108298
  35 H :    0.117204
  36 H :    0.104377
  37 H :    0.114282
  38 H :    0.113191
  39 H :    0.122752
  40 H :    0.117389
Sum of atomic charges:   -0.0000000

LOEWDIN ATOMIC CHARGES
----------------------
   0 C :   -0.370154
   1 C :   -0.123544
   2 O :   -0.247292
   3 P :    0.569964
   4 S :   -0.314444
   5 O :   -0.244013
   6 C :   -0.111166
   7 C :   -0.363980
   8 S :    0.092043
   9 C :   -0.479771
  10 S :    0.084372
  11 P :    0.580385
  12 S :   -0.307087
  13 O :   -0.233970
  14 C :   -0.104006
  15 C :   -0.379815
  16 O :   -0.245959
  17 C :   -0.117557
  18 C :   -0.369401
  19 H :    0.123629
  20 H :    0.132285
  21 H :    0.126429
  22 H :    0.107626
  23 H :    0.118226
  24 H :    0.119485
  25 H :    0.111652
  26 H :    0.129485
  27 H :    0.125838
  28 H :    0.121354
  29 H :    0.133111
  30 H :    0.127628
  31 H :    0.124473
  32 H :    0.111759
  33 H :    0.122492
  34 H :    0.130365
  35 H :    0.114036
  36 H :    0.118419
  37 H :    0.112560
  38 H :    0.131044
  39 H :    0.119778
  40 H :    0.123720

  Mayer bond orders larger than 0.100000
B(  0-C ,  1-C ) :   1.1609 B(  0-C , 19-H ) :   0.9319 B(  0-C , 20-H ) :   0.9388
B(  0-C , 21-H ) :   0.9444 B(  1-C ,  2-O ) :   0.9159 B(  1-C , 22-H ) :   0.9118
B(  1-C , 23-H ) :   0.9322 B(  2-O ,  3-P ) :   1.1020 B(  3-P ,  4-S ) :   1.6006
B(  3-P ,  5-O ) :   1.1167 B(  3-P ,  8-S ) :   0.9696 B(  4-S ,  8-S ) :   0.1035
B(  5-O ,  6-C ) :   0.8847 B(  6-C ,  7-C ) :   1.1711 B(  6-C , 24-H ) :   0.9342
B(  6-C , 25-H ) :   0.9134 B(  7-C , 26-H ) :   0.9385 B(  7-C , 27-H ) :   0.9346
B(  7-C , 28-H ) :   0.9449 B(  8-S ,  9-C ) :   1.0007 B(  9-C , 10-S ) :   1.0169
B(  9-C , 29-H ) :   0.8981 B(  9-C , 30-H ) :   0.8777 B( 10-S , 11-P ) :   0.9275
B( 10-S , 12-S ) :   0.1130 B( 11-P , 12-S ) :   1.6281 B( 11-P , 13-O ) :   1.1535
B( 11-P , 16-O ) :   1.0690 B( 13-O , 14-C ) :   0.8938 B( 14-C , 15-C ) :   1.1697
B( 14-C , 31-H ) :   0.9312 B( 14-C , 32-H ) :   0.9315 B( 15-C , 33-H ) :   0.9188
B( 15-C , 34-H ) :   0.9347 B( 15-C , 35-H ) :   0.9358 B( 16-O , 17-C ) :   0.9064
B( 17-C , 18-C ) :   1.1664 B( 17-C , 36-H ) :   0.9340 B( 17-C , 37-H ) :   0.9158
B( 18-C , 38-H ) :   0.9369 B( 18-C , 39-H ) :   0.9354 B( 18-C , 40-H ) :   0.9443

Dispersion correction           -0.067237253
FINAL SINGLE POINT ENERGY     -2929.516981895933

DIPOLE MOMENT
-------------

Method             : SCF
Type of density    : Electron Density
Multiplicity       :   1
Irrep              :   0
Energy             : -2929.6350081114210298 Eh
Relativity type    :
Basis              : AO
                                X                 Y                 Z
Electronic contribution:      2.736100608      -1.064065830     -12.086839766
Nuclear contribution   :     -2.835083464       0.720600686      13.285990338
                        -----------------------------------------
Total Dipole Moment    :     -0.098982856      -0.343465144       1.199150571
                        -----------------------------------------
Magnitude (a.u.)       :      1.251290535
Magnitude (Debye)      :      3.180527780

Rotational constants in cm-1:             0.011970             0.005348             0.005051
Rotational constants in MHz :           358.853908           160.339904           151.419755

                             ****ORCA TERMINATED NORMALLY****
TOTAL RUN TIME: 0 days 0 hours 0 minutes 21 seconds 452 msec
