                         Program Version 6.0.0  -   RELEASE  -
|  1> ! pbe def2-sv(p) def2/J RI DEFGRID1 loosescf d4 GCP(DFT/SV(P)) printgap
|  2> %output
|  3>     printlevel normal
|  4> end
|  5> * xyz 0 1
|  6> C 2.7908630648 -2.9365089821 -2.2342794022
|  7> C 3.0803880763 -2.6747768915 -0.7701293213
|  8> O 3.4999397939 -1.3029912999 -0.5593660947
|  9> P 2.518023807 -0.152216042 -0.0849115899
| 10> S 3.5081292806 1.502428909 0.2287199303
| 11> O 1.7165167911 -0.7489539029 1.1697334405
| 12> C 2.2203886162 -0.6179650964 2.5182409132
| 13> C 1.5360236558 0.5279253817 3.2352590096
| 14> S 0.9609441562 -0.09757398 -1.5060083777
| 15> C 0.2922071684 1.5126756767 -1.0160320874
| 16> S -0.6611909652 1.450922092 0.5146476059
| 17> P -2.4401963237 0.5428783964 -0.2734057858
| 18> S -2.602335731 0.5002746405 -2.2215527643
| 19> O -3.6219607308 1.37456201 0.3459093138
| 20> C -3.7707402504 1.635655491 1.7643430208
| 21> C -4.7300465686 0.6477032137 2.3958969313
| 22> O -2.5555579488 -0.8298870056 0.5275682849
| 23> C -1.5798565817 -1.8856791453 0.5210001785
| 24> C -1.5911164132 -2.6720285578 -0.7747533384
| 25> H 2.575501064 -3.9917384616 -2.3696498575
| 26> H 1.9349044902 -2.3533339926 -2.5676727798
| 27> H 3.6528791544 -2.6666536437 -2.837932448
| 28> H 3.9275537385 -3.2691875196 -0.4236177782
| 29> H 2.2038471542 -2.8780927751 -0.1502133878
| 30> H 1.9996599349 -1.5753666297 2.993264045
| 31> H 3.3029701652 -0.4635033814 2.4835755335
| 32> H 0.4587683232 0.3902983627 3.2230353783
| 33> H 1.8856898561 0.5667968914 4.2617135232
| 34> H 1.7698262606 1.4697306813 2.7434938806
| 35> H -0.3515830775 1.8381866281 -1.8328772769
| 36> H 1.1168051961 2.2063248808 -0.8490224794
| 37> H -2.7853947648 1.5972842 2.2368368691
| 38> H -4.1600288179 2.6540935997 1.8133910234
| 39> H -5.689116568 0.6863185243 1.8868171146
| 40> H -4.3368538969 -0.3622816376 2.3220225705
| 41> H -4.8681537101 0.9056416436 3.441242304
| 42> H -0.5911859547 -1.4567129875 0.7109887582
| 43> H -1.872513367 -2.5131845793 1.3653435267
| 44> H -1.2726445253 -2.0448434787 -1.6050718634
| 45> H -0.9129345293 -3.515102141 -0.6890144707
| 46> H -2.5936909811 -3.0367582722 -0.9820627003
| 47> *
| 48>
| 49>                          ****END OF INPUT****

CARTESIAN COORDINATES (ANGSTROEM)
---------------------------------
  C      2.790863   -2.936509   -2.234279
  C      3.080388   -2.674777   -0.770129
  O      3.499940   -1.302991   -0.559366
  P      2.518024   -0.152216   -0.084912
  S      3.508129    1.502429    0.228720
  O      1.716517   -0.748954    1.169733
  C      2.220389   -0.617965    2.518241
  C      1.536024    0.527925    3.235259
  S      0.960944   -0.097574   -1.506008
  C      0.292207    1.512676   -1.016032
  S     -0.661191    1.450922    0.514648
  P     -2.440196    0.542878   -0.273406
  S     -2.602336    0.500275   -2.221553
  O     -3.621961    1.374562    0.345909
  C     -3.770740    1.635655    1.764343
  C     -4.730047    0.647703    2.395897
  O     -2.555558   -0.829887    0.527568
  C     -1.579857   -1.885679    0.521000
  C     -1.591116   -2.672029   -0.774753
  H      2.575501   -3.991738   -2.369650
  H      1.934904   -2.353334   -2.567673
  H      3.652879   -2.666654   -2.837932
  H      3.927554   -3.269188   -0.423618
  H      2.203847   -2.878093   -0.150213
  H      1.999660   -1.575367    2.993264
  H      3.302970   -0.463503    2.483576
  H      0.458768    0.390298    3.223035
  H      1.885690    0.566797    4.261714
  H      1.769826    1.469731    2.743494
  H     -0.351583    1.838187   -1.832877
  H      1.116805    2.206325   -0.849022
  H     -2.785395    1.597284    2.236837
  H     -4.160029    2.654094    1.813391
  H     -5.689117    0.686319    1.886817
  H     -4.336854   -0.362282    2.322023
  H     -4.868154    0.905642    3.441242
  H     -0.591186   -1.456713    0.710989
  H     -1.872513   -2.513185    1.365344
  H     -1.272645   -2.044843   -1.605072
  H     -0.912935   -3.515102   -0.689014
  H     -2.593691   -3.036758   -0.982063

 Total Charge           Charge          ....    0
 Multiplicity           Mult            ....    1
 Number of Electrons    NEL             ....  202
 Basis Dimension        Dim             ....  334

ORBITAL ENERGIES
----------------

  NO   OCC          E(Eh)            E(eV)
   0   2.0000     -88.047427     -2395.8923
   1   2.0000     -88.042832     -2395.7673
   2   2.0000     -87.989572     -2394.3180
   3   2.0000     -87.988047     -2394.2765
   4   2.0000     -76.429502     -2079.7525
   5   2.0000     -76.428287     -2079.7194
   6   2.0000     -18.798527      -511.5339
   7   2.0000     -18.797020      -511.4929
   8   2.0000     -18.793770      -511.4045
   9   2.0000     -18.793408      -511.3946
  10   2.0000      -9.964982      -271.1609
  11   2.0000      -9.961998      -271.0798
  12   2.0000      -9.958243      -270.9776
  13   2.0000      -9.954677      -270.8805
  14   2.0000      -9.952215      -270.8135
  15   2.0000      -9.894358      -269.2392
  16   2.0000      -9.889987      -269.1202
  17   2.0000      -9.884134      -268.9610
  18   2.0000      -9.880230      -268.8547
  19   2.0000      -7.692275      -209.3175
  20   2.0000      -7.687550      -209.1889
  21   2.0000      -7.634842      -207.7546
  22   2.0000      -7.633234      -207.7109
  23   2.0000      -6.427630      -174.9047
  24   2.0000      -6.425663      -174.8512
  25   2.0000      -5.720105      -155.6520
  26   2.0000      -5.716899      -155.5647
  27   2.0000      -5.715420      -155.5245
  28   2.0000      -5.712070      -155.4333
  29   2.0000      -5.709189      -155.3549
  30   2.0000      -5.704563      -155.2290
  31   2.0000      -5.663972      -154.1245
  32   2.0000      -5.662312      -154.0793
  33   2.0000      -5.655507      -153.8942
  34   2.0000      -5.654691      -153.8720
  35   2.0000      -5.653781      -153.8472
  36   2.0000      -5.653265      -153.8332
  37   2.0000      -4.650661      -126.5509
  38   2.0000      -4.648979      -126.5052
  39   2.0000      -4.648380      -126.4888
  40   2.0000      -4.648020      -126.4791
  41   2.0000      -4.647574      -126.4669
  42   2.0000      -4.645888      -126.4210
  43   2.0000      -0.990530       -26.9537
  44   2.0000      -0.989854       -26.9353
  45   2.0000      -0.948835       -25.8191
  46   2.0000      -0.946182       -25.7469
  47   2.0000      -0.767109       -20.8741
  48   2.0000      -0.726120       -19.7587
  49   2.0000      -0.715630       -19.4733
  50   2.0000      -0.696765       -18.9599
  51   2.0000      -0.690776       -18.7970
  52   2.0000      -0.677160       -18.4265
  53   2.0000      -0.652869       -17.7655
  54   2.0000      -0.642433       -17.4815
  55   2.0000      -0.595805       -16.2127
  56   2.0000      -0.589170       -16.0321
  57   2.0000      -0.583906       -15.8889
  58   2.0000      -0.577285       -15.7087
  59   2.0000      -0.563629       -15.3371
  60   2.0000      -0.515124       -14.0172
  61   2.0000      -0.503403       -13.6983
  62   2.0000      -0.481794       -13.1103
  63   2.0000      -0.477584       -12.9957
  64   2.0000      -0.462438       -12.5836
  65   2.0000      -0.451376       -12.2826
  66   2.0000      -0.448611       -12.2073
  67   2.0000      -0.438346       -11.9280
  68   2.0000      -0.431352       -11.7377
  69   2.0000      -0.421496       -11.4695
  70   2.0000      -0.407325       -11.0839
  71   2.0000      -0.402648       -10.9566
  72   2.0000      -0.394142       -10.7251
  73   2.0000      -0.387934       -10.5562
  74   2.0000      -0.382689       -10.4135
  75   2.0000      -0.375856       -10.2276
  76   2.0000      -0.368248       -10.0205
  77   2.0000      -0.363786        -9.8991
  78   2.0000      -0.359114        -9.7720
  79   2.0000      -0.358099        -9.7444
  80   2.0000      -0.353969        -9.6320
  81   2.0000      -0.348560        -9.4848
  82   2.0000      -0.344319        -9.3694
  83   2.0000      -0.342562        -9.3216
  84   2.0000      -0.336284        -9.1507
  85   2.0000      -0.323819        -8.8116
  86   2.0000      -0.315880        -8.5955
  87   2.0000      -0.308912        -8.4059
  88   2.0000      -0.296136        -8.0583
  89   2.0000      -0.291697        -7.9375
  90   2.0000      -0.287839        -7.8325
  91   2.0000      -0.280461        -7.6317
  92   2.0000      -0.276812        -7.5324
  93   2.0000      -0.275932        -7.5085
  94   2.0000      -0.261854        -7.1254
  95   2.0000      -0.236430        -6.4336
  96   2.0000      -0.218281        -5.9397
  97   2.0000      -0.214089        -5.8256
  98   2.0000      -0.204801        -5.5729
  99   2.0000      -0.203326        -5.5328
 100   2.0000      -0.201253        -5.4764
 101   0.0000      -0.048569        -1.3216
 102   0.0000      -0.030642        -0.8338
 103   0.0000      -0.009770        -0.2659
 104   0.0000      -0.000664        -0.0181
 105   0.0000       0.000734         0.0200

MULLIKEN ATOMIC CHARGES
-----------------------
   0 C :   -0.303229
   1 C :   -0.031612
   2 O :   -0.364489
   3 P :    0.615940
   4 S :   -0.307347
   5 O :   -0.382949
   6 C :   -0.011489
   7 C :   -0.285051
   8 S :   -0.099461
   9 C :   -0.337758
  10 S :   -0.117844
  11 P :    0.604594
  12 S :   -0.305321
  13 O :   -0.353861
  14 C :   -0.018067
  15 C :   -0.288809
  16 O :   -0.378147
  17 C :   -0.045386
  18 C :   -0.310575
  19 H :    0.113579
  20 H :    0.139800
  21 H :    0.127335
  22 H :    0.113152
  23 H :    0.108138
  24 H :    0.100583
  25 H :    0.108466
  26 H :    0.113991
  27 H :    0.107916
  28 H :    0.124792
  29 H :    0.197569
  30 H :    0.191089
  31 H :    0.106975
  32 H :    0.115413
  33 H :    0.122883
  34 H :    0.123256
  35 H :    0.109727
  36 H :    0.141780
  37 H :    0.097555
  38 H :    0.141006
  39 H :    0.100719
  40 H :    0.115138
Sum of atomic charges:   -0.0000000

LOEWDIN ATOMIC CHARGES
----------------------
   0 C :   -0.361096
   1 C :   -0.117676
   2 O :   -0.243402
   3 P :    0.568825
   4 S :   -0.306316
   5 O :   -0.255503
   6 C :   -0.117213
   7 C :   -0.362129
   8 S :    0.102127
   9 C :   -0.482870
  10 S :    0.070609
  11 P :    0.567497
  12 S :   -0.295905
  13 O :   -0.234617
  14 C :   -0.111289
  15 C :   -0.358837
  16 O :   -0.245219
  17 C :   -0.127031
  18 C :   -0.368988
  19 H :    0.132028
  20 H :    0.120575
  21 H :    0.132819
  22 H :    0.122676
  23 H :    0.108241
  24 H :    0.114651
  25 H :    0.110714
  26 H :    0.119889
  27 H :    0.128292
  28 H :    0.124023
  29 H :    0.131469
  30 H :    0.130286
  31 H :    0.104007
  32 H :    0.123978
  33 H :    0.130706
  34 H :    0.127013
  35 H :    0.129322
  36 H :    0.104491
  37 H :    0.115111
  38 H :    0.117937
  39 H :    0.124030
  40 H :    0.126773

  Mayer bond orders larger than 0.100000
B(  0-C ,  1-C ) :   1.1687 B(  0-C , 19-H ) :   0.9378 B(  0-C , 20-H ) :   0.9330
B(  0-C , 21-H ) :   0.9453 B(  1-C ,  2-O ) :   0.9021 B(  1-C , 22-H ) :   0.9334
B(  1-C , 23-H ) :   0.9148 B(  2-O ,  3-P ) :   1.1260 B(  3-P ,  4-S ) :   1.6338
B(  3-P ,  5-O ) :   1.0611 B(  3-P ,  8-S ) :   0.9665 B(  4-S ,  8-S ) :   0.1008
B(  5-O ,  6-C ) :   0.8893 B(  6-C ,  7-C ) :   1.1749 B(  6-C , 24-H ) :   0.9335
B(  6-C , 25-H ) :   0.9114 B(  7-C , 26-H ) :   0.9452 B(  7-C , 27-H ) :   0.9389
B(  7-C , 28-H ) :   0.9356 B(  8-S ,  9-C ) :   1.0013 B(  9-C , 10-S ) :   1.0155
B(  9-C , 29-H ) :   0.8728 B(  9-C , 30-H ) :   0.8693 B( 10-S , 11-P ) :   0.9376
B( 10-S , 12-S ) :   0.1129 B( 11-P , 12-S ) :   1.6516 B( 11-P , 13-O ) :   1.1455
B( 11-P , 16-O ) :   1.0791 B( 13-O , 14-C ) :   0.8935 B( 14-C , 15-C ) :   1.1648
B( 14-C , 31-H ) :   0.9160 B( 14-C , 32-H ) :   0.9355 B( 15-C , 33-H ) :   0.9464
B( 15-C , 34-H ) :   0.9416 B( 15-C , 35-H ) :   0.9395 B( 16-O , 17-C ) :   0.9106
B( 17-C , 18-C ) :   1.1655 B( 17-C , 36-H ) :   0.8943 B( 17-C , 37-H ) :   0.9342
B( 18-C , 38-H ) :   0.9279 B( 18-C , 39-H ) :   0.9375 B( 18-C , 40-H ) :   0.9441

Dispersion correction           -0.065895122
FINAL SINGLE POINT ENERGY     -2929.518752311432

DIPOLE MOMENT
-------------

Method             : SCF
Type of density    : Electron Density
Multiplicity       :   1
Irrep              :   0
Energy             : -2929.6389053110256100 Eh
Relativity type    :
Basis              : AO
                                X                 Y                 Z
Electronic contribution:      4.300019237      15.674239965     -13.016443571
Nuclear contribution   :     -4.439602987     -17.179325301      14.664890623
                        -----------------------------------------
Total Dipole Moment    :     -0.139583750      -1.505085336       1.648447052
                        -----------------------------------------
Magnitude (a.u.)       :      2.236547155
Magnitude (Debye)      :      5.684851085

Rotational constants in cm-1:             0.011718             0.005272             0.004753
Rotational constants in MHz :           351.307500           158.035761           142.492749

                             ****ORCA TERMINATED NORMALLY****
TOTAL RUN TIME: 0 days 0 hours 0 minutes 21 seconds 792 msec
