                         Program Version 6.0.0  -   RELEASE  -
|  1> ! pbe def2-sv(p) def2/J RI DEFGRID1 loosescf d4 GCP(DFT/SV(P)) printgap
|  2> %output
|  3>     printlevel normal
|  4> end
|  5> * xyz 0 1
|  6> C 4.8705440139 1.2548590445 0.2638546272
|  7> C 3.5978311448 1.5639990047 -0.4952416724
|  8> O 2.8464410787 0.3651842022 -0.7818468777
|  9> P 2.0957763452 -0.438721765 0.3552133041
| 10> S 1.4767311809 0.6012179725 1.9027648207
| 11> O 3.161685455 -1.5554287653 0.7448174482
| 12> C 3.0259982387 -2.3583060055 1.9267330279
| 13> C 1.8748520212 -3.3364642448 1.8061782158
| 14> S 0.7209866444 -1.5117201246 -0.8604545404
| 15> C 0.2509089645 -0.2088482148 -2.0356654113
| 16> S -0.3276296501 1.3109458683 -1.2400577307
| 17> P -2.0785840363 0.4784263382 -0.3968856179
| 18> S -3.0073387896 -0.8741972891 -1.4762294298
| 19> O -2.9095640814 1.7480983251 0.0665617238
| 20> C -3.2358211614 2.8872204471 -0.7515895509
| 21> C -3.8622752187 2.5049666688 -2.0766476104
| 22> O -1.5471846052 -0.0534224293 0.9959494245
| 23> C -2.1648651836 -1.1434285865 1.7029966991
| 24> C -3.512228795 -0.7395932758 2.2618219497
| 25> H 5.4545546159 2.1632576704 0.3729427148
| 26> H 4.6254501348 0.8698648837 1.2528648599
| 27> H 5.4537973578 0.5086582744 -0.269035745
| 28> H 3.8025506646 1.9864034284 -1.4797524214
| 29> H 2.9593665852 2.2454423301 0.0763061479
| 30> H 3.9851773915 -2.8699545158 2.0140919411
| 31> H 2.8776399227 -1.6918171712 2.7834523218
| 32> H 0.9357085435 -2.7887542709 1.7166345927
| 33> H 1.9961192449 -3.9576074102 0.9224753511
| 34> H 1.8351818983 -3.9650729761 2.6898389057
| 35> H -0.5557847584 -0.6341055868 -2.634939108
| 36> H 1.1061867139 0.0590476543 -2.6498963051
| 37> H -3.9297208912 3.4567692984 -0.1305853199
| 38> H -2.3200427459 3.4648281016 -0.9075054054
| 39> H -3.1454090301 1.9584706872 -2.6882338794
| 40> H -4.7321494348 1.8720732123 -1.9173643284
| 41> H -4.1638276697 3.4043616272 -2.6038440603
| 42> H -2.2622779652 -1.9935082969 1.0188092465
| 43> H -1.4505823345 -1.3804324056 2.4936220811
| 44> H -4.1883468672 -0.4977937556 1.441943765
| 45> H -3.9276730959 -1.561042028 2.8367720467
| 46> H -3.4054203695 0.1353288009 2.8976806792
| 47> *
| 48>
| 49>                          ****END OF INPUT****

CARTESIAN COORDINATES (ANGSTROEM)
---------------------------------
  C      4.870544    1.254859    0.263855
  C      3.597831    1.563999   -0.495242
  O      2.846441    0.365184   -0.781847
  P      2.095776   -0.438722    0.355213
  S      1.476731    0.601218    1.902765
  O      3.161685   -1.555429    0.744817
  C      3.025998   -2.358306    1.926733
  C      1.874852   -3.336464    1.806178
  S      0.720987   -1.511720   -0.860455
  C      0.250909   -0.208848   -2.035665
  S     -0.327630    1.310946   -1.240058
  P     -2.078584    0.478426   -0.396886
  S     -3.007339   -0.874197   -1.476229
  O     -2.909564    1.748098    0.066562
  C     -3.235821    2.887220   -0.751590
  C     -3.862275    2.504967   -2.076648
  O     -1.547185   -0.053422    0.995949
  C     -2.164865   -1.143429    1.702997
  C     -3.512229   -0.739593    2.261822
  H      5.454555    2.163258    0.372943
  H      4.625450    0.869865    1.252865
  H      5.453797    0.508658   -0.269036
  H      3.802551    1.986403   -1.479752
  H      2.959367    2.245442    0.076306
  H      3.985177   -2.869955    2.014092
  H      2.877640   -1.691817    2.783452
  H      0.935709   -2.788754    1.716635
  H      1.996119   -3.957607    0.922475
  H      1.835182   -3.965073    2.689839
  H     -0.555785   -0.634106   -2.634939
  H      1.106187    0.059048   -2.649896
  H     -3.929721    3.456769   -0.130585
  H     -2.320043    3.464828   -0.907505
  H     -3.145409    1.958471   -2.688234
  H     -4.732149    1.872073   -1.917364
  H     -4.163828    3.404362   -2.603844
  H     -2.262278   -1.993508    1.018809
  H     -1.450582   -1.380432    2.493622
  H     -4.188347   -0.497794    1.441944
  H     -3.927673   -1.561042    2.836772
  H     -3.405420    0.135329    2.897681

 Total Charge           Charge          ....    0
 Multiplicity           Mult            ....    1
 Number of Electrons    NEL             ....  202
 Basis Dimension        Dim             ....  334

ORBITAL ENERGIES
----------------

  NO   OCC          E(Eh)            E(eV)
   0   2.0000     -88.043333     -2395.7809
   1   2.0000     -88.037982     -2395.6353
   2   2.0000     -87.983999     -2394.1663
   3   2.0000     -87.981878     -2394.1086
   4   2.0000     -76.424375     -2079.6130
   5   2.0000     -76.423875     -2079.5993
   6   2.0000     -18.793983      -511.4103
   7   2.0000     -18.791430      -511.3408
   8   2.0000     -18.789256      -511.2816
   9   2.0000     -18.779760      -511.0233
  10   2.0000      -9.957458      -270.9562
  11   2.0000      -9.955584      -270.9052
  12   2.0000      -9.952818      -270.8299
  13   2.0000      -9.951186      -270.7855
  14   2.0000      -9.941398      -270.5192
  15   2.0000      -9.886831      -269.0344
  16   2.0000      -9.883892      -268.9544
  17   2.0000      -9.882942      -268.9285
  18   2.0000      -9.875752      -268.7329
  19   2.0000      -7.688358      -209.2108
  20   2.0000      -7.682972      -209.0643
  21   2.0000      -7.628983      -207.5952
  22   2.0000      -7.626828      -207.5365
  23   2.0000      -6.421551      -174.7393
  24   2.0000      -6.421379      -174.7346
  25   2.0000      -5.716128      -155.5437
  26   2.0000      -5.712904      -155.4560
  27   2.0000      -5.711138      -155.4080
  28   2.0000      -5.707514      -155.3093
  29   2.0000      -5.705367      -155.2509
  30   2.0000      -5.699630      -155.0948
  31   2.0000      -5.657788      -153.9562
  32   2.0000      -5.655641      -153.8978
  33   2.0000      -5.649797      -153.7388
  34   2.0000      -5.649071      -153.7190
  35   2.0000      -5.647638      -153.6801
  36   2.0000      -5.646940      -153.6611
  37   2.0000      -4.644046      -126.3709
  38   2.0000      -4.644022      -126.3703
  39   2.0000      -4.643432      -126.3542
  40   2.0000      -4.643190      -126.3476
  41   2.0000      -4.642062      -126.3169
  42   2.0000      -4.641693      -126.3069
  43   2.0000      -0.986945       -26.8561
  44   2.0000      -0.982297       -26.7297
  45   2.0000      -0.947185       -25.7742
  46   2.0000      -0.940083       -25.5810
  47   2.0000      -0.763392       -20.7730
  48   2.0000      -0.718461       -19.5503
  49   2.0000      -0.706165       -19.2157
  50   2.0000      -0.687905       -18.7188
  51   2.0000      -0.683226       -18.5915
  52   2.0000      -0.670767       -18.2525
  53   2.0000      -0.650674       -17.7058
  54   2.0000      -0.637952       -17.3595
  55   2.0000      -0.599020       -16.3002
  56   2.0000      -0.592653       -16.1269
  57   2.0000      -0.573366       -15.6021
  58   2.0000      -0.570874       -15.5343
  59   2.0000      -0.560141       -15.2422
  60   2.0000      -0.496425       -13.5084
  61   2.0000      -0.488978       -13.3058
  62   2.0000      -0.474056       -12.8997
  63   2.0000      -0.465191       -12.6585
  64   2.0000      -0.458918       -12.4878
  65   2.0000      -0.444486       -12.0951
  66   2.0000      -0.438960       -11.9447
  67   2.0000      -0.430855       -11.7241
  68   2.0000      -0.424390       -11.5483
  69   2.0000      -0.415171       -11.2974
  70   2.0000      -0.413031       -11.2391
  71   2.0000      -0.394013       -10.7216
  72   2.0000      -0.391321       -10.6484
  73   2.0000      -0.385193       -10.4816
  74   2.0000      -0.382683       -10.4133
  75   2.0000      -0.374913       -10.2019
  76   2.0000      -0.371041       -10.0965
  77   2.0000      -0.357631        -9.7316
  78   2.0000      -0.351963        -9.5774
  79   2.0000      -0.348556        -9.4847
  80   2.0000      -0.346348        -9.4246
  81   2.0000      -0.343392        -9.3442
  82   2.0000      -0.341670        -9.2973
  83   2.0000      -0.337800        -9.1920
  84   2.0000      -0.329434        -8.9644
  85   2.0000      -0.318015        -8.6536
  86   2.0000      -0.307640        -8.3713
  87   2.0000      -0.295264        -8.0345
  88   2.0000      -0.294880        -8.0241
  89   2.0000      -0.284785        -7.7494
  90   2.0000      -0.281603        -7.6628
  91   2.0000      -0.274047        -7.4572
  92   2.0000      -0.268198        -7.2980
  93   2.0000      -0.260567        -7.0904
  94   2.0000      -0.260083        -7.0772
  95   2.0000      -0.233741        -6.3604
  96   2.0000      -0.217899        -5.9293
  97   2.0000      -0.206340        -5.6148
  98   2.0000      -0.198914        -5.4127
  99   2.0000      -0.196062        -5.3351
 100   2.0000      -0.190820        -5.1925
 101   0.0000      -0.047770        -1.2999
 102   0.0000      -0.021288        -0.5793
 103   0.0000      -0.016972        -0.4618
 104   0.0000       0.002557         0.0696
 105   0.0000       0.019424         0.5286

MULLIKEN ATOMIC CHARGES
-----------------------
   0 C :   -0.303905
   1 C :   -0.005259
   2 O :   -0.376950
   3 P :    0.614786
   4 S :   -0.313075
   5 O :   -0.368557
   6 C :   -0.002177
   7 C :   -0.338865
   8 S :   -0.096098
   9 C :   -0.336266
  10 S :   -0.100768
  11 P :    0.621440
  12 S :   -0.338562
  13 O :   -0.370913
  14 C :   -0.009282
  15 C :   -0.310408
  16 O :   -0.342217
  17 C :   -0.016372
  18 C :   -0.298584
  19 H :    0.111818
  20 H :    0.123172
  21 H :    0.117121
  22 H :    0.101997
  23 H :    0.114930
  24 H :    0.105552
  25 H :    0.107985
  26 H :    0.140323
  27 H :    0.124340
  28 H :    0.115740
  29 H :    0.191528
  30 H :    0.186551
  31 H :    0.110236
  32 H :    0.113730
  33 H :    0.123405
  34 H :    0.126819
  35 H :    0.110846
  36 H :    0.111198
  37 H :    0.110913
  38 H :    0.120184
  39 H :    0.107489
  40 H :    0.116154
Sum of atomic charges:    0.0000000

LOEWDIN ATOMIC CHARGES
----------------------
   0 C :   -0.364140
   1 C :   -0.117916
   2 O :   -0.241775
   3 P :    0.570257
   4 S :   -0.309406
   5 O :   -0.244786
   6 C :   -0.122518
   7 C :   -0.370840
   8 S :    0.084806
   9 C :   -0.476093
  10 S :    0.082991
  11 P :    0.576988
  12 S :   -0.322243
  13 O :   -0.241952
  14 C :   -0.112645
  15 C :   -0.370184
  16 O :   -0.226972
  17 C :   -0.120881
  18 C :   -0.364048
  19 H :    0.130471
  20 H :    0.123405
  21 H :    0.126840
  22 H :    0.116872
  23 H :    0.111932
  24 H :    0.118955
  25 H :    0.107698
  26 H :    0.120641
  27 H :    0.127310
  28 H :    0.132427
  29 H :    0.129614
  30 H :    0.133702
  31 H :    0.122101
  32 H :    0.110077
  33 H :    0.120038
  34 H :    0.129767
  35 H :    0.129673
  36 H :    0.107544
  37 H :    0.116386
  38 H :    0.121212
  39 H :    0.128342
  40 H :    0.126350

  Mayer bond orders larger than 0.100000
B(  0-C ,  1-C ) :   1.1659 B(  0-C , 19-H ) :   0.9389 B(  0-C , 20-H ) :   0.9356
B(  0-C , 21-H ) :   0.9460 B(  1-C ,  2-O ) :   0.9006 B(  1-C , 22-H ) :   0.9343
B(  1-C , 23-H ) :   0.9146 B(  2-O ,  3-P ) :   1.1103 B(  3-P ,  4-S ) :   1.6258
B(  3-P ,  5-O ) :   1.0956 B(  3-P ,  8-S ) :   0.9490 B(  4-S ,  8-S ) :   0.1076
B(  5-O ,  6-C ) :   0.9148 B(  6-C ,  7-C ) :   1.1626 B(  6-C , 24-H ) :   0.9323
B(  6-C , 25-H ) :   0.9108 B(  7-C , 26-H ) :   0.9288 B(  7-C , 27-H ) :   0.9432
B(  7-C , 28-H ) :   0.9387 B(  8-S ,  9-C ) :   1.0033 B(  9-C , 10-S ) :   1.0126
B(  9-C , 29-H ) :   0.8775 B(  9-C , 30-H ) :   0.9019 B( 10-S , 11-P ) :   0.9388
B( 10-S , 12-S ) :   0.1092 B( 11-P , 12-S ) :   1.5888 B( 11-P , 13-O ) :   1.1157
B( 11-P , 16-O ) :   1.1452 B( 13-O , 14-C ) :   0.9146 B( 14-C , 15-C ) :   1.1637
B( 14-C , 31-H ) :   0.9344 B( 14-C , 32-H ) :   0.9286 B( 15-C , 33-H ) :   0.9331
B( 15-C , 34-H ) :   0.9423 B( 15-C , 35-H ) :   0.9348 B( 16-O , 17-C ) :   0.9065
B( 17-C , 18-C ) :   1.1624 B( 17-C , 36-H ) :   0.9143 B( 17-C , 37-H ) :   0.9246
B( 18-C , 38-H ) :   0.9352 B( 18-C , 39-H ) :   0.9402 B( 18-C , 40-H ) :   0.9458

Dispersion correction           -0.067562286
FINAL SINGLE POINT ENERGY     -2929.518242350295

DIPOLE MOMENT
-------------

Method             : SCF
Type of density    : Electron Density
Multiplicity       :   1
Irrep              :   0
Energy             : -2929.6353238328597399 Eh
Relativity type    :
Basis              : AO
                                X                 Y                 Z
Electronic contribution:     -0.322444405      -0.290839011      -6.858085855
Nuclear contribution   :      0.932265349       0.721626822       6.889751112
                        -----------------------------------------
Total Dipole Moment    :      0.609820944       0.430787810       0.031665257
                        -----------------------------------------
Magnitude (a.u.)       :      0.747303425
Magnitude (Debye)      :      1.899494352

Rotational constants in cm-1:             0.012481             0.005441             0.004773
Rotational constants in MHz :           374.157718           163.104689           143.080564

                             ****ORCA TERMINATED NORMALLY****
TOTAL RUN TIME: 0 days 0 hours 0 minutes 21 seconds 229 msec
