                         Program Version 6.0.0  -   RELEASE  -
|  1> ! r2scan-3c def2/J RI DEFGRID2 scfconv6 printgap
|  2> %output
|  3>     printlevel normal
|  4> end
|  5> * xyz 0 1
|  6> C 4.0579364647 -1.0397088991 -2.4594282132
|  7> C 4.3198522331 -1.4919659276 -1.0373343636
|  8> O 3.1056800155 -1.625940452 -0.2790489068
|  9> P 2.2180481331 -0.3755385943 0.1360437219
| 10> S 3.2151479513 1.2359138799 0.6523887575
| 11> O 1.2815522476 -0.9996394427 1.250508732
| 12> C 1.613072696 -0.9314281138 2.6535989974
| 13> C 2.8292402044 -1.7696716448 2.9857895316
| 14> S 0.8233622907 -0.1731976597 -1.4411176824
| 15> C 0.2034144304 1.4529231417 -0.9334951038
| 16> S -0.8404290447 1.3846677327 0.5413373285
| 17> P -2.4813322664 0.3912643689 -0.4005490939
| 18> S -2.8394695977 0.9037070978 -2.2509803571
| 19> O -3.6782761516 0.5851176604 0.6290794257
| 20> C -4.5612741327 1.7222523299 0.5918448482
| 21> C -3.8473721477 3.0193605553 0.9112498865
| 22> O -2.183514285 -1.1504126461 -0.2574131042
| 23> C -2.0484409794 -1.8092035922 1.0270890425
| 24> C -1.298963112 -3.1059786708 0.8047447491
| 25> H 3.6735772201 -0.0203047398 -2.4621510354
| 26> H 4.9849035215 -1.0673954413 -3.0231978412
| 27> H 3.3260360221 -1.6884630362 -2.934455196
| 28> H 4.9720527261 -0.7788632944 -0.5227956452
| 29> H 4.7602104051 -2.4894227361 -1.0061152354
| 30> H 1.7791119876 0.1176225839 2.9184294568
| 31> H 0.7177986885 -1.3025383607 3.1540966349
| 32> H 3.7113546763 -1.3485607827 2.504838291
| 33> H 2.9820025154 -1.7721980663 4.0604557774
| 34> H 2.6912300808 -2.7892375288 2.635790122
| 35> H -0.3800500345 1.8387573456 -1.7696416058
| 36> H 1.0440097493 2.1055650511 -0.6965044094
| 37> H -5.0181464184 1.7693748502 -0.4011812017
| 38> H -5.3188625445 1.4839402482 1.3397637852
| 39> H -3.2961984614 2.9303522154 1.844121091
| 40> H -3.1495428215 3.2673253923 0.11290674
| 41> H -4.5779543263 3.8171358642 0.9981401088
| 42> H -1.5084392004 -1.1411609189 1.7049473336
| 43> H -3.053196485 -1.9830763957 1.4169469952
| 44> H -1.8196836284 -3.7120535547 0.0689500925
| 45> H -0.2951896498 -2.900824326 0.4409318013
| 46> H -1.2380930616 -3.6488470859 1.7425431856
| 47> *
| 48>
| 49>                          ****END OF INPUT****

CARTESIAN COORDINATES (ANGSTROEM)
---------------------------------
  C      4.057936   -1.039709   -2.459428
  C      4.319852   -1.491966   -1.037334
  O      3.105680   -1.625940   -0.279049
  P      2.218048   -0.375539    0.136044
  S      3.215148    1.235914    0.652389
  O      1.281552   -0.999639    1.250509
  C      1.613073   -0.931428    2.653599
  C      2.829240   -1.769672    2.985790
  S      0.823362   -0.173198   -1.441118
  C      0.203414    1.452923   -0.933495
  S     -0.840429    1.384668    0.541337
  P     -2.481332    0.391264   -0.400549
  S     -2.839470    0.903707   -2.250980
  O     -3.678276    0.585118    0.629079
  C     -4.561274    1.722252    0.591845
  C     -3.847372    3.019361    0.911250
  O     -2.183514   -1.150413   -0.257413
  C     -2.048441   -1.809204    1.027089
  C     -1.298963   -3.105979    0.804745
  H      3.673577   -0.020305   -2.462151
  H      4.984904   -1.067395   -3.023198
  H      3.326036   -1.688463   -2.934455
  H      4.972053   -0.778863   -0.522796
  H      4.760210   -2.489423   -1.006115
  H      1.779112    0.117623    2.918429
  H      0.717799   -1.302538    3.154097
  H      3.711355   -1.348561    2.504838
  H      2.982003   -1.772198    4.060456
  H      2.691230   -2.789238    2.635790
  H     -0.380050    1.838757   -1.769642
  H      1.044010    2.105565   -0.696504
  H     -5.018146    1.769375   -0.401181
  H     -5.318863    1.483940    1.339764
  H     -3.296198    2.930352    1.844121
  H     -3.149543    3.267325    0.112907
  H     -4.577954    3.817136    0.998140
  H     -1.508439   -1.141161    1.704947
  H     -3.053196   -1.983076    1.416947
  H     -1.819684   -3.712054    0.068950
  H     -0.295190   -2.900824    0.440932
  H     -1.238093   -3.648847    1.742543

 Total Charge           Charge          ....    0
 Multiplicity           Mult            ....    1
 Number of Electrons    NEL             ....  202
 Basis Dimension        Dim             ....  539

ORBITAL ENERGIES
----------------

  NO   OCC          E(Eh)            E(eV)
   0   2.0000     -88.574110     -2410.2241
   1   2.0000     -88.571934     -2410.1648
   2   2.0000     -88.524659     -2408.8784
   3   2.0000     -88.519852     -2408.7476
   4   2.0000     -76.916183     -2092.9958
   5   2.0000     -76.912331     -2092.8909
   6   2.0000     -18.996801      -516.9292
   7   2.0000     -18.994098      -516.8557
   8   2.0000     -18.993264      -516.8330
   9   2.0000     -18.987099      -516.6652
  10   2.0000     -10.101981      -274.8889
  11   2.0000     -10.101561      -274.8774
  12   2.0000     -10.101507      -274.8760
  13   2.0000     -10.100362      -274.8448
  14   2.0000     -10.098514      -274.7945
  15   2.0000     -10.032841      -273.0075
  16   2.0000     -10.029898      -272.9274
  17   2.0000     -10.028885      -272.8998
  18   2.0000     -10.027644      -272.8661
  19   2.0000      -7.868312      -214.1077
  20   2.0000      -7.866282      -214.0524
  21   2.0000      -7.819418      -212.7772
  22   2.0000      -7.814649      -212.6474
  23   2.0000      -6.594871      -179.4556
  24   2.0000      -6.590853      -179.3462
  25   2.0000      -5.815202      -158.2397
  26   2.0000      -5.813095      -158.1824
  27   2.0000      -5.812270      -158.1599
  28   2.0000      -5.810163      -158.1026
  29   2.0000      -5.805334      -157.9712
  30   2.0000      -5.803438      -157.9196
  31   2.0000      -5.766978      -156.9274
  32   2.0000      -5.762327      -156.8009
  33   2.0000      -5.759712      -156.7297
  34   2.0000      -5.759495      -156.7238
  35   2.0000      -5.754869      -156.5979
  36   2.0000      -5.754672      -156.5926
  37   2.0000      -4.740296      -128.9900
  38   2.0000      -4.739730      -128.9746
  39   2.0000      -4.738702      -128.9466
  40   2.0000      -4.736736      -128.8931
  41   2.0000      -4.735679      -128.8644
  42   2.0000      -4.734352      -128.8283
  43   2.0000      -1.053960       -28.6797
  44   2.0000      -1.050238       -28.5784
  45   2.0000      -1.015395       -27.6303
  46   2.0000      -1.008339       -27.4383
  47   2.0000      -0.800826       -21.7916
  48   2.0000      -0.759220       -20.6594
  49   2.0000      -0.750372       -20.4187
  50   2.0000      -0.734602       -19.9895
  51   2.0000      -0.732994       -19.9458
  52   2.0000      -0.712580       -19.3903
  53   2.0000      -0.686466       -18.6797
  54   2.0000      -0.668949       -18.2030
  55   2.0000      -0.636075       -17.3085
  56   2.0000      -0.623172       -16.9574
  57   2.0000      -0.609155       -16.5760
  58   2.0000      -0.602680       -16.3998
  59   2.0000      -0.589453       -16.0398
  60   2.0000      -0.529798       -14.4165
  61   2.0000      -0.520388       -14.1605
  62   2.0000      -0.496450       -13.5091
  63   2.0000      -0.493562       -13.4305
  64   2.0000      -0.478077       -13.0091
  65   2.0000      -0.465981       -12.6800
  66   2.0000      -0.460750       -12.5376
  67   2.0000      -0.455786       -12.4026
  68   2.0000      -0.446214       -12.1421
  69   2.0000      -0.438100       -11.9213
  70   2.0000      -0.426662       -11.6101
  71   2.0000      -0.415794       -11.3143
  72   2.0000      -0.407881       -11.0990
  73   2.0000      -0.405852       -11.0438
  74   2.0000      -0.393634       -10.7113
  75   2.0000      -0.388905       -10.5827
  76   2.0000      -0.380377       -10.3506
  77   2.0000      -0.377282       -10.2664
  78   2.0000      -0.373006       -10.1500
  79   2.0000      -0.367462        -9.9991
  80   2.0000      -0.365146        -9.9361
  81   2.0000      -0.361333        -9.8324
  82   2.0000      -0.355699        -9.6791
  83   2.0000      -0.352985        -9.6052
  84   2.0000      -0.350902        -9.5485
  85   2.0000      -0.333858        -9.0847
  86   2.0000      -0.323045        -8.7905
  87   2.0000      -0.316910        -8.6236
  88   2.0000      -0.312613        -8.5066
  89   2.0000      -0.309927        -8.4335
  90   2.0000      -0.303341        -8.2543
  91   2.0000      -0.292500        -7.9593
  92   2.0000      -0.283263        -7.7080
  93   2.0000      -0.280331        -7.6282
  94   2.0000      -0.272497        -7.4150
  95   2.0000      -0.245743        -6.6870
  96   2.0000      -0.231084        -6.2881
  97   2.0000      -0.228287        -6.2120
  98   2.0000      -0.219187        -5.9644
  99   2.0000      -0.216738        -5.8977
 100   2.0000      -0.213235        -5.8024
 101   0.0000      -0.045512        -1.2384
 102   0.0000      -0.024702        -0.6722
 103   0.0000      -0.001847        -0.0503
 104   0.0000      -0.000771        -0.0210
 105   0.0000       0.015781         0.4294

MULLIKEN ATOMIC CHARGES
-----------------------
   0 C :   -0.454245
   1 C :   -0.148943
   2 O :   -0.308595
   3 P :    0.666414
   4 S :   -0.487431
   5 O :   -0.261806
   6 C :   -0.143251
   7 C :   -0.450684
   8 S :   -0.096830
   9 C :   -0.247371
  10 S :   -0.162365
  11 P :    0.651210
  12 S :   -0.445298
  13 O :   -0.291384
  14 C :   -0.165558
  15 C :   -0.444496
  16 O :   -0.258184
  17 C :   -0.100429
  18 C :   -0.473208
  19 H :    0.178539
  20 H :    0.148522
  21 H :    0.158044
  22 H :    0.170422
  23 H :    0.148866
  24 H :    0.175677
  25 H :    0.147364
  26 H :    0.169398
  27 H :    0.148601
  28 H :    0.157353
  29 H :    0.219254
  30 H :    0.213224
  31 H :    0.174035
  32 H :    0.147664
  33 H :    0.153589
  34 H :    0.179867
  35 H :    0.147800
  36 H :    0.153705
  37 H :    0.154662
  38 H :    0.154921
  39 H :    0.179209
  40 H :    0.141738
Sum of atomic charges:    0.0000000

LOEWDIN ATOMIC CHARGES
----------------------
   0 C :   -0.406082
   1 C :    0.020346
   2 O :   -0.661142
   3 P :    0.377079
   4 S :   -0.135157
   5 O :   -0.686194
   6 C :    0.016941
   7 C :   -0.398829
   8 S :    0.184924
   9 C :   -0.425318
  10 S :    0.143161
  11 P :    0.379865
  12 S :   -0.102575
  13 O :   -0.667237
  14 C :    0.022705
  15 C :   -0.408801
  16 O :   -0.652525
  17 C :    0.023642
  18 C :   -0.389812
  19 H :    0.166377
  20 H :    0.159839
  21 H :    0.161259
  22 H :    0.179342
  23 H :    0.179827
  24 H :    0.182101
  25 H :    0.177943
  26 H :    0.165634
  27 H :    0.159803
  28 H :    0.160951
  29 H :    0.192916
  30 H :    0.191784
  31 H :    0.180270
  32 H :    0.179356
  33 H :    0.159978
  34 H :    0.166708
  35 H :    0.159399
  36 H :    0.176205
  37 H :    0.173291
  38 H :    0.162003
  39 H :    0.171581
  40 H :    0.158442

  Mayer bond orders larger than 0.100000
B(  0-C ,  1-C ) :   0.9242 B(  0-C , 19-H ) :   0.9613 B(  0-C , 20-H ) :   0.9582
B(  0-C , 21-H ) :   0.9684 B(  1-C ,  2-O ) :   0.8112 B(  1-C , 22-H ) :   0.9656
B(  1-C , 23-H ) :   0.9578 B(  2-O ,  3-P ) :   1.0684 B(  3-P ,  4-S ) :   1.7498
B(  3-P ,  5-O ) :   1.1211 B(  3-P ,  8-S ) :   1.1072 B(  5-O ,  6-C ) :   0.7725
B(  6-C ,  7-C ) :   0.9142 B(  6-C , 24-H ) :   0.9591 B(  6-C , 25-H ) :   0.9631
B(  7-C , 26-H ) :   0.9596 B(  7-C , 27-H ) :   0.9628 B(  7-C , 28-H ) :   0.9748
B(  8-S ,  9-C ) :   0.9121 B(  9-C , 10-S ) :   0.9075 B(  9-C , 29-H ) :   0.9046
B(  9-C , 30-H ) :   0.9050 B( 10-S , 11-P ) :   1.0018 B( 11-P , 12-S ) :   1.8339
B( 11-P , 13-O ) :   1.0352 B( 11-P , 16-O ) :   1.1656 B( 13-O , 14-C ) :   0.8192
B( 14-C , 15-C ) :   0.9186 B( 14-C , 31-H ) :   0.9691 B( 14-C , 32-H ) :   0.9615
B( 15-C , 33-H ) :   0.9676 B( 15-C , 34-H ) :   0.9630 B( 15-C , 35-H ) :   0.9563
B( 16-O , 17-C ) :   0.7338 B( 17-C , 18-C ) :   0.9352 B( 17-C , 36-H ) :   0.9541
B( 17-C , 37-H ) :   0.9444 B( 18-C , 38-H ) :   0.9689 B( 18-C , 39-H ) :   0.9662
B( 18-C , 40-H ) :   0.9683

Dispersion correction           -0.021794950
FINAL SINGLE POINT ENERGY     -2932.465554652657

DIPOLE MOMENT
-------------

Method             : SCF
Type of density    : Electron Density
Multiplicity       :   1
Irrep              :   0
Energy             : -2932.4902373969216569 Eh
Relativity type    :
Basis              : AO
                                X                 Y                 Z
Electronic contribution:     -4.706135515       8.149934125     -10.368024122
Nuclear contribution   :      4.881624423      -8.895387907      11.705589749
                        -----------------------------------------
Total Dipole Moment    :      0.175488907      -0.745453782       1.337565628
                        -----------------------------------------
Magnitude (a.u.)       :      1.541291506
Magnitude (Debye)      :      3.917651667

Rotational constants in cm-1:             0.012890             0.004866             0.004625
Rotational constants in MHz :           386.425226           145.869838           138.642223

                             ****ORCA TERMINATED NORMALLY****
TOTAL RUN TIME: 0 days 0 hours 1 minutes 20 seconds 591 msec
