                         Program Version 6.0.0  -   RELEASE  -
|  1> ! r2scan-3c def2/J RI DEFGRID2 scfconv6 printgap
|  2> %output
|  3>     printlevel normal
|  4> end
|  5> %cpcm
|  6>     smd true
|  7>     smdsolvent "water"
|  8> end
|  9> * xyz 0 1
| 10> C 4.0579364647 -1.0397088991 -2.4594282132
| 11> C 4.3198522331 -1.4919659276 -1.0373343636
| 12> O 3.1056800155 -1.625940452 -0.2790489068
| 13> P 2.2180481331 -0.3755385943 0.1360437219
| 14> S 3.2151479513 1.2359138799 0.6523887575
| 15> O 1.2815522476 -0.9996394427 1.250508732
| 16> C 1.613072696 -0.9314281138 2.6535989974
| 17> C 2.8292402044 -1.7696716448 2.9857895316
| 18> S 0.8233622907 -0.1731976597 -1.4411176824
| 19> C 0.2034144304 1.4529231417 -0.9334951038
| 20> S -0.8404290447 1.3846677327 0.5413373285
| 21> P -2.4813322664 0.3912643689 -0.4005490939
| 22> S -2.8394695977 0.9037070978 -2.2509803571
| 23> O -3.6782761516 0.5851176604 0.6290794257
| 24> C -4.5612741327 1.7222523299 0.5918448482
| 25> C -3.8473721477 3.0193605553 0.9112498865
| 26> O -2.183514285 -1.1504126461 -0.2574131042
| 27> C -2.0484409794 -1.8092035922 1.0270890425
| 28> C -1.298963112 -3.1059786708 0.8047447491
| 29> H 3.6735772201 -0.0203047398 -2.4621510354
| 30> H 4.9849035215 -1.0673954413 -3.0231978412
| 31> H 3.3260360221 -1.6884630362 -2.934455196
| 32> H 4.9720527261 -0.7788632944 -0.5227956452
| 33> H 4.7602104051 -2.4894227361 -1.0061152354
| 34> H 1.7791119876 0.1176225839 2.9184294568
| 35> H 0.7177986885 -1.3025383607 3.1540966349
| 36> H 3.7113546763 -1.3485607827 2.504838291
| 37> H 2.9820025154 -1.7721980663 4.0604557774
| 38> H 2.6912300808 -2.7892375288 2.635790122
| 39> H -0.3800500345 1.8387573456 -1.7696416058
| 40> H 1.0440097493 2.1055650511 -0.6965044094
| 41> H -5.0181464184 1.7693748502 -0.4011812017
| 42> H -5.3188625445 1.4839402482 1.3397637852
| 43> H -3.2961984614 2.9303522154 1.844121091
| 44> H -3.1495428215 3.2673253923 0.11290674
| 45> H -4.5779543263 3.8171358642 0.9981401088
| 46> H -1.5084392004 -1.1411609189 1.7049473336
| 47> H -3.053196485 -1.9830763957 1.4169469952
| 48> H -1.8196836284 -3.7120535547 0.0689500925
| 49> H -0.2951896498 -2.900824326 0.4409318013
| 50> H -1.2380930616 -3.6488470859 1.7425431856
| 51> *
| 52>
| 53>                          ****END OF INPUT****

CARTESIAN COORDINATES (ANGSTROEM)
---------------------------------
  C      4.057936   -1.039709   -2.459428
  C      4.319852   -1.491966   -1.037334
  O      3.105680   -1.625940   -0.279049
  P      2.218048   -0.375539    0.136044
  S      3.215148    1.235914    0.652389
  O      1.281552   -0.999639    1.250509
  C      1.613073   -0.931428    2.653599
  C      2.829240   -1.769672    2.985790
  S      0.823362   -0.173198   -1.441118
  C      0.203414    1.452923   -0.933495
  S     -0.840429    1.384668    0.541337
  P     -2.481332    0.391264   -0.400549
  S     -2.839470    0.903707   -2.250980
  O     -3.678276    0.585118    0.629079
  C     -4.561274    1.722252    0.591845
  C     -3.847372    3.019361    0.911250
  O     -2.183514   -1.150413   -0.257413
  C     -2.048441   -1.809204    1.027089
  C     -1.298963   -3.105979    0.804745
  H      3.673577   -0.020305   -2.462151
  H      4.984904   -1.067395   -3.023198
  H      3.326036   -1.688463   -2.934455
  H      4.972053   -0.778863   -0.522796
  H      4.760210   -2.489423   -1.006115
  H      1.779112    0.117623    2.918429
  H      0.717799   -1.302538    3.154097
  H      3.711355   -1.348561    2.504838
  H      2.982003   -1.772198    4.060456
  H      2.691230   -2.789238    2.635790
  H     -0.380050    1.838757   -1.769642
  H      1.044010    2.105565   -0.696504
  H     -5.018146    1.769375   -0.401181
  H     -5.318863    1.483940    1.339764
  H     -3.296198    2.930352    1.844121
  H     -3.149543    3.267325    0.112907
  H     -4.577954    3.817136    0.998140
  H     -1.508439   -1.141161    1.704947
  H     -3.053196   -1.983076    1.416947
  H     -1.819684   -3.712054    0.068950
  H     -0.295190   -2.900824    0.440932
  H     -1.238093   -3.648847    1.742543

 Total Charge           Charge          ....    0
 Multiplicity           Mult            ....    1
 Number of Electrons    NEL             ....  202
 Basis Dimension        Dim             ....  539

ORBITAL ENERGIES
----------------

  NO   OCC          E(Eh)            E(eV)
   0   2.0000     -88.578361     -2410.3397
   1   2.0000     -88.576140     -2410.2793
   2   2.0000     -88.531341     -2409.0603
   3   2.0000     -88.529394     -2409.0073
   4   2.0000     -76.919964     -2093.0986
   5   2.0000     -76.919040     -2093.0735
   6   2.0000     -18.996827      -516.9299
   7   2.0000     -18.996591      -516.9235
   8   2.0000     -18.993421      -516.8373
   9   2.0000     -18.992052      -516.8000
  10   2.0000     -10.102756      -274.9100
  11   2.0000     -10.091312      -274.5986
  12   2.0000     -10.090941      -274.5885
  13   2.0000     -10.090243      -274.5695
  14   2.0000     -10.089154      -274.5399
  15   2.0000     -10.018856      -272.6269
  16   2.0000     -10.018834      -272.6263
  17   2.0000     -10.018735      -272.6236
  18   2.0000     -10.018617      -272.6204
  19   2.0000      -7.872683      -214.2266
  20   2.0000      -7.870460      -214.1661
  21   2.0000      -7.826488      -212.9696
  22   2.0000      -7.824433      -212.9136
  23   2.0000      -6.598529      -179.5551
  24   2.0000      -6.597738      -179.5336
  25   2.0000      -5.819527      -158.3574
  26   2.0000      -5.817300      -158.2968
  27   2.0000      -5.816626      -158.2784
  28   2.0000      -5.814363      -158.2169
  29   2.0000      -5.809762      -158.0917
  30   2.0000      -5.807574      -158.0321
  31   2.0000      -5.774055      -157.1200
  32   2.0000      -5.771947      -157.0627
  33   2.0000      -5.766678      -156.9193
  34   2.0000      -5.766586      -156.9168
  35   2.0000      -5.764719      -156.8660
  36   2.0000      -5.764512      -156.8604
  37   2.0000      -4.744356      -129.1005
  38   2.0000      -4.743320      -129.0723
  39   2.0000      -4.743087      -129.0660
  40   2.0000      -4.742598      -129.0526
  41   2.0000      -4.742151      -129.0405
  42   2.0000      -4.741678      -129.0276
  43   2.0000      -1.054271       -28.6882
  44   2.0000      -1.052990       -28.6533
  45   2.0000      -1.013622       -27.5821
  46   2.0000      -1.011957       -27.5368
  47   2.0000      -0.803754       -21.8712
  48   2.0000      -0.756279       -20.5794
  49   2.0000      -0.744493       -20.2587
  50   2.0000      -0.725491       -19.7416
  51   2.0000      -0.723798       -19.6955
  52   2.0000      -0.711476       -19.3603
  53   2.0000      -0.690099       -18.7786
  54   2.0000      -0.675139       -18.3715
  55   2.0000      -0.632873       -17.2213
  56   2.0000      -0.619573       -16.8594
  57   2.0000      -0.599786       -16.3210
  58   2.0000      -0.598950       -16.2983
  59   2.0000      -0.588632       -16.0175
  60   2.0000      -0.527288       -14.3482
  61   2.0000      -0.514655       -14.0045
  62   2.0000      -0.491373       -13.3709
  63   2.0000      -0.490695       -13.3525
  64   2.0000      -0.477626       -12.9969
  65   2.0000      -0.460961       -12.5434
  66   2.0000      -0.454923       -12.3791
  67   2.0000      -0.451118       -12.2755
  68   2.0000      -0.441837       -12.0230
  69   2.0000      -0.434602       -11.8261
  70   2.0000      -0.422374       -11.4934
  71   2.0000      -0.407761       -11.0957
  72   2.0000      -0.407344       -11.0844
  73   2.0000      -0.403101       -10.9689
  74   2.0000      -0.391795       -10.6613
  75   2.0000      -0.388236       -10.5644
  76   2.0000      -0.379890       -10.3373
  77   2.0000      -0.373829       -10.1724
  78   2.0000      -0.365231        -9.9384
  79   2.0000      -0.358273        -9.7491
  80   2.0000      -0.355816        -9.6822
  81   2.0000      -0.352199        -9.5838
  82   2.0000      -0.350563        -9.5393
  83   2.0000      -0.347695        -9.4613
  84   2.0000      -0.346219        -9.4211
  85   2.0000      -0.329116        -8.9557
  86   2.0000      -0.320452        -8.7200
  87   2.0000      -0.316431        -8.6105
  88   2.0000      -0.306684        -8.3453
  89   2.0000      -0.305086        -8.3018
  90   2.0000      -0.299550        -8.1512
  91   2.0000      -0.288208        -7.8425
  92   2.0000      -0.281606        -7.6629
  93   2.0000      -0.279769        -7.6129
  94   2.0000      -0.275371        -7.4932
  95   2.0000      -0.250163        -6.8073
  96   2.0000      -0.238775        -6.4974
  97   2.0000      -0.236169        -6.4265
  98   2.0000      -0.228059        -6.2058
  99   2.0000      -0.225084        -6.1248
 100   2.0000      -0.220174        -5.9912
 101   0.0000      -0.051372        -1.3979
 102   0.0000      -0.031433        -0.8553
 103   0.0000      -0.006175        -0.1680
 104   0.0000      -0.005185        -0.1411
 105   0.0000       0.015324         0.4170

MULLIKEN ATOMIC CHARGES
-----------------------
   0 C :   -0.490263
   1 C :   -0.149974
   2 O :   -0.333165
   3 P :    0.709889
   4 S :   -0.531161
   5 O :   -0.283363
   6 C :   -0.141393
   7 C :   -0.493258
   8 S :   -0.124890
   9 C :   -0.254988
  10 S :   -0.160201
  11 P :    0.664275
  12 S :   -0.498681
  13 O :   -0.311067
  14 C :   -0.158638
  15 C :   -0.481678
  16 O :   -0.289975
  17 C :   -0.103813
  18 C :   -0.509080
  19 H :    0.173043
  20 H :    0.173312
  21 H :    0.170164
  22 H :    0.177980
  23 H :    0.176039
  24 H :    0.177276
  25 H :    0.181273
  26 H :    0.169009
  27 H :    0.173121
  28 H :    0.171330
  29 H :    0.234229
  30 H :    0.232718
  31 H :    0.179472
  32 H :    0.175839
  33 H :    0.168409
  34 H :    0.174073
  35 H :    0.172758
  36 H :    0.174304
  37 H :    0.175817
  38 H :    0.166190
  39 H :    0.172062
  40 H :    0.173006
Sum of atomic charges:    0.0000000

LOEWDIN ATOMIC CHARGES
----------------------
   0 C :   -0.409784
   1 C :    0.025992
   2 O :   -0.671085
   3 P :    0.383416
   4 S :   -0.161186
   5 O :   -0.693283
   6 C :    0.022476
   7 C :   -0.402461
   8 S :    0.168114
   9 C :   -0.420902
  10 S :    0.148144
  11 P :    0.381912
  12 S :   -0.142948
  13 O :   -0.672983
  14 C :    0.028694
  15 C :   -0.411302
  16 O :   -0.676566
  17 C :    0.029326
  18 C :   -0.393153
  19 H :    0.161712
  20 H :    0.168765
  21 H :    0.163744
  22 H :    0.181792
  23 H :    0.191316
  24 H :    0.182431
  25 H :    0.191195
  26 H :    0.162864
  27 H :    0.168881
  28 H :    0.164286
  29 H :    0.197118
  30 H :    0.197411
  31 H :    0.181725
  32 H :    0.191533
  33 H :    0.163700
  34 H :    0.161888
  35 H :    0.168566
  36 H :    0.183593
  37 H :    0.182978
  38 H :    0.164080
  39 H :    0.166978
  40 H :    0.171024

  Mayer bond orders larger than 0.100000
B(  0-C ,  1-C ) :   0.9097 B(  0-C , 19-H ) :   0.9631 B(  0-C , 20-H ) :   0.9530
B(  0-C , 21-H ) :   0.9659 B(  1-C ,  2-O ) :   0.7996 B(  1-C , 22-H ) :   0.9647
B(  1-C , 23-H ) :   0.9482 B(  2-O ,  3-P ) :   1.0773 B(  3-P ,  4-S ) :   1.7117
B(  3-P ,  5-O ) :   1.1351 B(  3-P ,  8-S ) :   1.1067 B(  5-O ,  6-C ) :   0.7599
B(  6-C ,  7-C ) :   0.8998 B(  6-C , 24-H ) :   0.9563 B(  6-C , 25-H ) :   0.9529
B(  7-C , 26-H ) :   0.9594 B(  7-C , 27-H ) :   0.9568 B(  7-C , 28-H ) :   0.9739
B(  8-S ,  9-C ) :   0.8995 B(  9-C , 10-S ) :   0.8975 B(  9-C , 29-H ) :   0.9011
B(  9-C , 30-H ) :   0.9018 B( 10-S , 11-P ) :   1.0140 B( 11-P , 12-S ) :   1.8119
B( 11-P , 13-O ) :   1.0477 B( 11-P , 16-O ) :   1.1707 B( 13-O , 14-C ) :   0.8067
B( 14-C , 15-C ) :   0.9065 B( 14-C , 31-H ) :   0.9675 B( 14-C , 32-H ) :   0.9505
B( 15-C , 33-H ) :   0.9647 B( 15-C , 34-H ) :   0.9648 B( 15-C , 35-H ) :   0.9510
B( 16-O , 17-C ) :   0.7224 B( 17-C , 18-C ) :   0.9260 B( 17-C , 36-H ) :   0.9453
B( 17-C , 37-H ) :   0.9345 B( 18-C , 38-H ) :   0.9681 B( 18-C , 39-H ) :   0.9671
B( 18-C , 40-H ) :   0.9608

Dispersion correction           -0.021794950
FINAL SINGLE POINT ENERGY     -2932.474425273857

DIPOLE MOMENT
-------------

Method             : SCF
Type of density    : Electron Density
Multiplicity       :   1
Irrep              :   0
Energy             : -2932.4991080181221150 Eh
Relativity type    :
Basis              : AO
                                X                 Y                 Z
Electronic contribution:     -4.678746819       8.026613343      -9.685345528
Nuclear contribution   :      4.881624423      -8.895387907      11.705589749
                        -----------------------------------------
Total Dipole Moment    :      0.202877604      -0.868774563       2.020244222
                        -----------------------------------------
Magnitude (a.u.)       :      2.208464462
Magnitude (Debye)      :      5.613470553

Rotational constants in cm-1:             0.012890             0.004866             0.004625
Rotational constants in MHz :           386.425226           145.869838           138.642223

                             ****ORCA TERMINATED NORMALLY****
TOTAL RUN TIME: 0 days 0 hours 1 minutes 50 seconds 306 msec
