                         Program Version 6.0.0  -   RELEASE  -
|  1> ! pbe def2-sv(p) def2/J RI DEFGRID1 loosescf d4 GCP(DFT/SV(P)) printgap
|  2> %output
|  3>     printlevel normal
|  4> end
|  5> * xyz 0 1
|  6> C 4.0940707956 -1.6500676687 -2.2892459967
|  7> C 4.3379632461 -1.684919002 -0.794495195
|  8> O 3.1129250406 -1.5991528078 -0.0458394561
|  9> P 2.2195669977 -0.2833051088 -0.0143703597
| 10> S 3.2407488918 1.3924304765 0.0624172467
| 11> O 1.2748389657 -0.5908011634 1.2189251382
| 12> C 1.6348661382 -0.2528107174 2.5792841187
| 13> C 0.3799121543 0.1740100168 3.3123164327
| 14> S 0.8379719137 -0.5258123985 -1.5895998773
| 15> C 0.2836621078 1.2017942604 -1.6424173481
| 16> S -0.5585735106 1.7253625736 -0.1349001879
| 17> P -2.2882189413 0.4761340757 -0.341331324
| 18> S -2.7901839576 -0.0081497974 -2.1652689715
| 19> O -3.4084856401 1.3140175176 0.3773917176
| 20> C -3.2755785716 2.0127612524 1.6391949087
| 21> C -3.5013771175 1.0879172746 2.8166381961
| 22> O -2.0498907732 -0.7529300488 0.644887644
| 23> C -1.6462901447 -2.0702964479 0.2377475175
| 24> C -2.6105542981 -3.0791938499 0.8299665791
| 25> H 3.7130974709 -0.6721870792 -2.5815869328
| 26> H 5.0278220454 -1.8335240713 -2.8110015706
| 27> H 3.3664540475 -2.4067754843 -2.572023259
| 28> H 4.9859589565 -0.8566510961 -0.4906358714
| 29> H 4.7726481993 -2.6338514201 -0.4779201496
| 30> H 2.0819670598 -1.1428133537 3.027474388
| 31> H 2.3756283289 0.5536666879 2.5566280921
| 32> H -0.3586968627 -0.6220014775 3.2760023917
| 33> H 0.6266177353 0.3898635153 4.3466214011
| 34> H -0.0359386416 1.0652847269 2.8488027905
| 35> H -0.3961249359 1.2781969933 -2.490584153
| 36> H 1.1452394322 1.8589048957 -1.7564389601
| 37> H -2.2860783321 2.4767366023 1.6784231674
| 38> H -4.0411740688 2.7887437382 1.5865298138
| 39> H -4.4769465828 0.6161879584 2.737120648
| 40> H -2.7380533963 0.3156618021 2.8413862115
| 41> H -3.4556005857 1.6658057784 3.7343706314
| 42> H -1.6464393295 -2.124959886 -0.8562047334
| 43> H -0.6280168037 -2.221647553 0.6052857278
| 44> H -3.6103968481 -2.9101674313 0.4381118373
| 45> H -2.2866939889 -4.0793026361 0.5608895032
| 46> H -2.6351387204 -2.9873035371 1.9119984054
| 47> *
| 48>
| 49>                          ****END OF INPUT****

CARTESIAN COORDINATES (ANGSTROEM)
---------------------------------
  C      4.094071   -1.650068   -2.289246
  C      4.337963   -1.684919   -0.794495
  O      3.112925   -1.599153   -0.045839
  P      2.219567   -0.283305   -0.014370
  S      3.240749    1.392430    0.062417
  O      1.274839   -0.590801    1.218925
  C      1.634866   -0.252811    2.579284
  C      0.379912    0.174010    3.312316
  S      0.837972   -0.525812   -1.589600
  C      0.283662    1.201794   -1.642417
  S     -0.558574    1.725363   -0.134900
  P     -2.288219    0.476134   -0.341331
  S     -2.790184   -0.008150   -2.165269
  O     -3.408486    1.314018    0.377392
  C     -3.275579    2.012761    1.639195
  C     -3.501377    1.087917    2.816638
  O     -2.049891   -0.752930    0.644888
  C     -1.646290   -2.070296    0.237748
  C     -2.610554   -3.079194    0.829967
  H      3.713097   -0.672187   -2.581587
  H      5.027822   -1.833524   -2.811002
  H      3.366454   -2.406775   -2.572023
  H      4.985959   -0.856651   -0.490636
  H      4.772648   -2.633851   -0.477920
  H      2.081967   -1.142813    3.027474
  H      2.375628    0.553667    2.556628
  H     -0.358697   -0.622001    3.276002
  H      0.626618    0.389864    4.346621
  H     -0.035939    1.065285    2.848803
  H     -0.396125    1.278197   -2.490584
  H      1.145239    1.858905   -1.756439
  H     -2.286078    2.476737    1.678423
  H     -4.041174    2.788744    1.586530
  H     -4.476947    0.616188    2.737121
  H     -2.738053    0.315662    2.841386
  H     -3.455601    1.665806    3.734371
  H     -1.646439   -2.124960   -0.856205
  H     -0.628017   -2.221648    0.605286
  H     -3.610397   -2.910167    0.438112
  H     -2.286694   -4.079303    0.560890
  H     -2.635139   -2.987304    1.911998

 Total Charge           Charge          ....    0
 Multiplicity           Mult            ....    1
 Number of Electrons    NEL             ....  202
 Basis Dimension        Dim             ....  334

ORBITAL ENERGIES
----------------

  NO   OCC          E(Eh)            E(eV)
   0   2.0000     -88.046406     -2395.8645
   1   2.0000     -88.039701     -2395.6821
   2   2.0000     -87.992027     -2394.3848
   3   2.0000     -87.985483     -2394.2067
   4   2.0000     -76.429331     -2079.7478
   5   2.0000     -76.426273     -2079.6646
   6   2.0000     -18.795956      -511.4640
   7   2.0000     -18.795255      -511.4449
   8   2.0000     -18.793014      -511.3839
   9   2.0000     -18.788432      -511.2592
  10   2.0000      -9.962887      -271.1039
  11   2.0000      -9.954916      -270.8870
  12   2.0000      -9.954786      -270.8835
  13   2.0000      -9.954548      -270.8770
  14   2.0000      -9.942800      -270.5574
  15   2.0000      -9.890439      -269.1325
  16   2.0000      -9.889082      -269.0956
  17   2.0000      -9.886176      -269.0165
  18   2.0000      -9.882169      -268.9075
  19   2.0000      -7.691191      -209.2879
  20   2.0000      -7.684531      -209.1067
  21   2.0000      -7.636966      -207.8124
  22   2.0000      -7.630758      -207.6435
  23   2.0000      -6.426982      -174.8871
  24   2.0000      -6.423757      -174.7993
  25   2.0000      -5.719054      -155.6234
  26   2.0000      -5.715794      -155.5347
  27   2.0000      -5.712365      -155.4414
  28   2.0000      -5.709134      -155.3534
  29   2.0000      -5.708087      -155.3250
  30   2.0000      -5.701475      -155.1450
  31   2.0000      -5.665683      -154.1711
  32   2.0000      -5.659798      -154.0109
  33   2.0000      -5.657693      -153.9537
  34   2.0000      -5.657245      -153.9415
  35   2.0000      -5.651333      -153.7806
  36   2.0000      -5.650780      -153.7655
  37   2.0000      -4.649452      -126.5180
  38   2.0000      -4.648704      -126.4977
  39   2.0000      -4.647527      -126.4656
  40   2.0000      -4.646504      -126.4378
  41   2.0000      -4.645420      -126.4083
  42   2.0000      -4.644170      -126.3743
  43   2.0000      -0.989507       -26.9259
  44   2.0000      -0.986394       -26.8412
  45   2.0000      -0.947833       -25.7918
  46   2.0000      -0.944044       -25.6887
  47   2.0000      -0.766239       -20.8504
  48   2.0000      -0.724503       -19.7147
  49   2.0000      -0.713699       -19.4207
  50   2.0000      -0.690966       -18.8021
  51   2.0000      -0.689116       -18.7518
  52   2.0000      -0.674629       -18.3576
  53   2.0000      -0.650888       -17.7116
  54   2.0000      -0.640843       -17.4382
  55   2.0000      -0.602091       -16.3837
  56   2.0000      -0.592875       -16.1330
  57   2.0000      -0.575866       -15.6701
  58   2.0000      -0.571505       -15.5514
  59   2.0000      -0.560197       -15.2437
  60   2.0000      -0.508157       -13.8276
  61   2.0000      -0.499845       -13.6015
  62   2.0000      -0.482573       -13.1315
  63   2.0000      -0.475864       -12.9489
  64   2.0000      -0.458081       -12.4650
  65   2.0000      -0.447047       -12.1648
  66   2.0000      -0.444878       -12.1058
  67   2.0000      -0.435048       -11.8383
  68   2.0000      -0.428510       -11.6604
  69   2.0000      -0.418691       -11.3932
  70   2.0000      -0.407418       -11.0864
  71   2.0000      -0.395783       -10.7698
  72   2.0000      -0.393083       -10.6963
  73   2.0000      -0.388436       -10.5699
  74   2.0000      -0.384290       -10.4571
  75   2.0000      -0.375082       -10.2065
  76   2.0000      -0.367935       -10.0120
  77   2.0000      -0.360099        -9.7988
  78   2.0000      -0.356110        -9.6902
  79   2.0000      -0.355146        -9.6640
  80   2.0000      -0.350755        -9.5445
  81   2.0000      -0.347309        -9.4508
  82   2.0000      -0.346262        -9.4223
  83   2.0000      -0.341829        -9.3016
  84   2.0000      -0.338789        -9.2189
  85   2.0000      -0.318189        -8.6584
  86   2.0000      -0.313547        -8.5321
  87   2.0000      -0.300404        -8.1744
  88   2.0000      -0.296244        -8.0612
  89   2.0000      -0.289089        -7.8665
  90   2.0000      -0.287727        -7.8295
  91   2.0000      -0.280452        -7.6315
  92   2.0000      -0.276482        -7.5235
  93   2.0000      -0.266991        -7.2652
  94   2.0000      -0.255243        -6.9455
  95   2.0000      -0.235514        -6.4087
  96   2.0000      -0.216191        -5.8829
  97   2.0000      -0.214068        -5.8251
  98   2.0000      -0.209576        -5.7029
  99   2.0000      -0.201294        -5.4775
 100   2.0000      -0.199831        -5.4377
 101   0.0000      -0.047834        -1.3016
 102   0.0000      -0.027366        -0.7447
 103   0.0000      -0.006961        -0.1894
 104   0.0000       0.000318         0.0087
 105   0.0000       0.007132         0.1941

MULLIKEN ATOMIC CHARGES
-----------------------
   0 C :   -0.317124
   1 C :   -0.003863
   2 O :   -0.376051
   3 P :    0.616381
   4 S :   -0.335184
   5 O :   -0.362838
   6 C :   -0.003926
   7 C :   -0.305799
   8 S :   -0.074866
   9 C :   -0.349032
  10 S :   -0.122207
  11 P :    0.627342
  12 S :   -0.316769
  13 O :   -0.358969
  14 C :   -0.027039
  15 C :   -0.311346
  16 O :   -0.384106
  17 C :   -0.024561
  18 C :   -0.276038
  19 H :    0.127050
  20 H :    0.114578
  21 H :    0.119019
  22 H :    0.111919
  23 H :    0.105550
  24 H :    0.103293
  25 H :    0.107559
  26 H :    0.129621
  27 H :    0.108438
  28 H :    0.126291
  29 H :    0.195484
  30 H :    0.191434
  31 H :    0.121915
  32 H :    0.116169
  33 H :    0.120771
  34 H :    0.141498
  35 H :    0.110959
  36 H :    0.112991
  37 H :    0.109609
  38 H :    0.115385
  39 H :    0.108326
  40 H :    0.108140
Sum of atomic charges:   -0.0000000

LOEWDIN ATOMIC CHARGES
----------------------
   0 C :   -0.369185
   1 C :   -0.119341
   2 O :   -0.247896
   3 P :    0.570075
   4 S :   -0.323351
   5 O :   -0.238559
   6 C :   -0.114675
   7 C :   -0.354976
   8 S :    0.106921
   9 C :   -0.480645
  10 S :    0.067615
  11 P :    0.572875
  12 S :   -0.306750
  13 O :   -0.235682
  14 C :   -0.110418
  15 C :   -0.363390
  16 O :   -0.245361
  17 C :   -0.129121
  18 C :   -0.353245
  19 H :    0.121298
  20 H :    0.131792
  21 H :    0.124943
  22 H :    0.110866
  23 H :    0.118867
  24 H :    0.113837
  25 H :    0.108213
  26 H :    0.125590
  27 H :    0.129110
  28 H :    0.122600
  29 H :    0.131623
  30 H :    0.131113
  31 H :    0.105325
  32 H :    0.124826
  33 H :    0.130102
  34 H :    0.127130
  35 H :    0.130311
  36 H :    0.103249
  37 H :    0.107225
  38 H :    0.126590
  39 H :    0.129134
  40 H :    0.121363

  Mayer bond orders larger than 0.100000
B(  0-C ,  1-C ) :   1.1644 B(  0-C , 19-H ) :   0.9355 B(  0-C , 20-H ) :   0.9379
B(  0-C , 21-H ) :   0.9449 B(  1-C ,  2-O ) :   0.9087 B(  1-C , 22-H ) :   0.9161
B(  1-C , 23-H ) :   0.9338 B(  2-O ,  3-P ) :   1.1118 B(  3-P ,  4-S ) :   1.5985
B(  3-P ,  5-O ) :   1.1161 B(  3-P ,  8-S ) :   0.9630 B(  4-S ,  8-S ) :   0.1078
B(  5-O ,  6-C ) :   0.8948 B(  6-C ,  7-C ) :   1.1645 B(  6-C , 24-H ) :   0.9337
B(  6-C , 25-H ) :   0.9040 B(  7-C , 26-H ) :   0.9415 B(  7-C , 27-H ) :   0.9380
B(  7-C , 28-H ) :   0.9430 B(  8-S ,  9-C ) :   0.9942 B(  9-C , 10-S ) :   1.0229
B(  9-C , 29-H ) :   0.8785 B(  9-C , 30-H ) :   0.8828 B( 10-S , 11-P ) :   0.9253
B( 10-S , 12-S ) :   0.1046 B( 11-P , 12-S ) :   1.6366 B( 11-P , 13-O ) :   1.1504
B( 11-P , 16-O ) :   1.0869 B( 13-O , 14-C ) :   0.9015 B( 14-C , 15-C ) :   1.1624
B( 14-C , 31-H ) :   0.9123 B( 14-C , 32-H ) :   0.9347 B( 15-C , 33-H ) :   0.9446
B( 15-C , 34-H ) :   0.9313 B( 15-C , 35-H ) :   0.9379 B( 16-O , 17-C ) :   0.8969
B( 17-C , 18-C ) :   1.1570 B( 17-C , 36-H ) :   0.9016 B( 17-C , 37-H ) :   0.9197
B( 18-C , 38-H ) :   0.9482 B( 18-C , 39-H ) :   0.9422 B( 18-C , 40-H ) :   0.9517

Dispersion correction           -0.066614246
FINAL SINGLE POINT ENERGY     -2929.523408023113

DIPOLE MOMENT
-------------

Method             : SCF
Type of density    : Electron Density
Multiplicity       :   1
Irrep              :   0
Energy             : -2929.6424889475729287 Eh
Relativity type    :
Basis              : AO
                                X                 Y                 Z
Electronic contribution:      0.925842135      10.379747968     -16.062391757
Nuclear contribution   :     -0.444605429     -11.043425030      17.454466135
                        -----------------------------------------
Total Dipole Moment    :      0.481236706      -0.663677062       1.392074378
                        -----------------------------------------
Magnitude (a.u.)       :      1.615526875
Magnitude (Debye)      :      4.106342981

Rotational constants in cm-1:             0.011793             0.005451             0.005063
Rotational constants in MHz :           353.540679           163.405685           151.776193

                             ****ORCA TERMINATED NORMALLY****
TOTAL RUN TIME: 0 days 0 hours 0 minutes 21 seconds 610 msec
