                         Program Version 6.0.1  -  RELEASE   -
|  1> ! pbe def2-sv(p) def2/J RI DEFGRID1 loosescf d4 GCP(DFT/SV(P)) printgap
|  2> %output
|  3>     printlevel normal
|  4> end
|  5> * xyz 0 1
|  6> C 3.0535985902 -3.5217907449 0.2728018579
|  7> C 2.7922865649 -2.1272786293 0.8180320411
|  8> O 2.6831579467 -1.1643163246 -0.2495532045
|  9> C 1.5422194003 -1.0445284733 -0.8851461388
| 10> O 0.5390633675 -1.6884367589 -0.6315693727
| 11> C 1.5936880361 0.0138759864 -1.9632961098
| 12> C 0.4623738424 1.0229016804 -1.7569932581
| 13> H 0.4591835135 1.7450047191 -2.5783334998
| 14> C 0.5765514234 1.7853994495 -0.4485064366
| 15> O -0.3865859333 2.0297165957 0.2499047366
| 16> O 1.8102892193 2.1181401474 -0.176396589
| 17> C 2.0713238865 2.8389408087 1.0478235461
| 18> C 1.8220154686 4.3267619407 0.8680514937
| 19> S -1.1995966043 0.2591923041 -1.8232986241
| 20> P -1.5954265101 -0.3087471924 0.1740482589
| 21> S -0.4909153704 -0.4224847563 1.8084384471
| 22> O -2.8474912005 0.6718682267 0.3340135152
| 23> C -3.6132028842 0.7313321153 1.539526371
| 24> O -2.4089829467 -1.6770835742 -0.0428541407
| 25> C -1.9003966634 -2.9937490532 0.1561540405
| 26> H 3.9439413304 -3.5185960226 -0.3498967735
| 27> H 3.1971878731 -4.206353504 1.1020092209
| 28> H 2.20561469 -3.8592482696 -0.3186559277
| 29> H 3.6304412785 -1.7687233778 1.4149240833
| 30> H 1.8726246191 -2.0982752788 1.4101006132
| 31> H 1.4509070313 -0.470945532 -2.9298451525
| 32> H 2.5588838917 0.5174472815 -1.9277483858
| 33> H 1.4357641944 2.4242492338 1.8359731803
| 34> H 3.1200830337 2.6299146892 1.2570929568
| 35> H 2.4204148539 4.7101517938 0.046432881
| 36> H 0.7700155303 4.5086081124 0.6594481908
| 37> H 2.0924664625 4.8451392761 1.7818507611
| 38> H -2.9491568931 0.7784381204 2.405436861
| 39> H -4.2566886173 -0.1454086815 1.6148121925
| 40> H -4.2047249256 1.6402460447 1.465986884
| 41> H -1.3740086405 -3.3236661994 -0.7371909725
| 42> H -2.7683585648 -3.6190131001 0.3517830209
| 43> H -1.2177455973 -3.0050156237 1.0074355782
| 44> *
| 45>
| 46>                          ****END OF INPUT****

CARTESIAN COORDINATES (ANGSTROEM)
---------------------------------
  C      3.053599   -3.521791    0.272802
  C      2.792287   -2.127279    0.818032
  O      2.683158   -1.164316   -0.249553
  C      1.542219   -1.044528   -0.885146
  O      0.539063   -1.688437   -0.631569
  C      1.593688    0.013876   -1.963296
  C      0.462374    1.022902   -1.756993
  H      0.459184    1.745005   -2.578333
  C      0.576551    1.785399   -0.448506
  O     -0.386586    2.029717    0.249905
  O      1.810289    2.118140   -0.176397
  C      2.071324    2.838941    1.047824
  C      1.822015    4.326762    0.868051
  S     -1.199597    0.259192   -1.823299
  P     -1.595427   -0.308747    0.174048
  S     -0.490915   -0.422485    1.808438
  O     -2.847491    0.671868    0.334014
  C     -3.613203    0.731332    1.539526
  O     -2.408983   -1.677084   -0.042854
  C     -1.900397   -2.993749    0.156154
  H      3.943941   -3.518596   -0.349897
  H      3.197188   -4.206354    1.102009
  H      2.205615   -3.859248   -0.318656
  H      3.630441   -1.768723    1.414924
  H      1.872625   -2.098275    1.410101
  H      1.450907   -0.470946   -2.929845
  H      2.558884    0.517447   -1.927748
  H      1.435764    2.424249    1.835973
  H      3.120083    2.629915    1.257093
  H      2.420415    4.710152    0.046433
  H      0.770016    4.508608    0.659448
  H      2.092466    4.845139    1.781851
  H     -2.949157    0.778438    2.405437
  H     -4.256689   -0.145409    1.614812
  H     -4.204725    1.640246    1.465987
  H     -1.374009   -3.323666   -0.737191
  H     -2.768359   -3.619013    0.351783
  H     -1.217746   -3.005016    1.007436

 Total Charge           Charge          ....    0
 Multiplicity           Mult            ....    1
 Number of Electrons    NEL             ....  174
 Basis Dimension        Dim             ....  316

ORBITAL ENERGIES
----------------

  NO   OCC          E(Eh)            E(eV)
   0   2.0000     -88.024209     -2395.2605
   1   2.0000     -87.964280     -2393.6298
   2   2.0000     -76.411067     -2079.2508
   3   2.0000     -18.815804      -512.0041
   4   2.0000     -18.809050      -511.8203
   5   2.0000     -18.767782      -510.6973
   6   2.0000     -18.761548      -510.5277
   7   2.0000     -18.747173      -510.1365
   8   2.0000     -18.744104      -510.0530
   9   2.0000     -10.019068      -272.6327
  10   2.0000     -10.015452      -272.5343
  11   2.0000      -9.952632      -270.8249
  12   2.0000      -9.951866      -270.8040
  13   2.0000      -9.945722      -270.6369
  14   2.0000      -9.921700      -269.9832
  15   2.0000      -9.920620      -269.9538
  16   2.0000      -9.914035      -269.7746
  17   2.0000      -9.890483      -269.1337
  18   2.0000      -9.887580      -269.0547
  19   2.0000      -7.669654      -208.7019
  20   2.0000      -7.609287      -207.0592
  21   2.0000      -6.406192      -174.3214
  22   2.0000      -5.698133      -155.0541
  23   2.0000      -5.694673      -154.9599
  24   2.0000      -5.685355      -154.7064
  25   2.0000      -5.638543      -153.4325
  26   2.0000      -5.629994      -153.1999
  27   2.0000      -5.628928      -153.1709
  28   2.0000      -4.628745      -125.9546
  29   2.0000      -4.628439      -125.9462
  30   2.0000      -4.626768      -125.9008
  31   2.0000      -1.024365       -27.8744
  32   2.0000      -1.015882       -27.6435
  33   2.0000      -0.958383       -26.0789
  34   2.0000      -0.927050       -25.2263
  35   2.0000      -0.921491       -25.0750
  36   2.0000      -0.913736       -24.8640
  37   2.0000      -0.763984       -20.7891
  38   2.0000      -0.711706       -19.3665
  39   2.0000      -0.707758       -19.2591
  40   2.0000      -0.682528       -18.5725
  41   2.0000      -0.648270       -17.6403
  42   2.0000      -0.620906       -16.8957
  43   2.0000      -0.611129       -16.6297
  44   2.0000      -0.608030       -16.5454
  45   2.0000      -0.597541       -16.2599
  46   2.0000      -0.566407       -15.4127
  47   2.0000      -0.510469       -13.8906
  48   2.0000      -0.499909       -13.6032
  49   2.0000      -0.491900       -13.3853
  50   2.0000      -0.481471       -13.1015
  51   2.0000      -0.455112       -12.3842
  52   2.0000      -0.454803       -12.3758
  53   2.0000      -0.445926       -12.1343
  54   2.0000      -0.438518       -11.9327
  55   2.0000      -0.426679       -11.6105
  56   2.0000      -0.418198       -11.3798
  57   2.0000      -0.412010       -11.2114
  58   2.0000      -0.406603       -11.0642
  59   2.0000      -0.398877       -10.8540
  60   2.0000      -0.393366       -10.7040
  61   2.0000      -0.389596       -10.6015
  62   2.0000      -0.387055       -10.5323
  63   2.0000      -0.379054       -10.3146
  64   2.0000      -0.377099       -10.2614
  65   2.0000      -0.366449        -9.9716
  66   2.0000      -0.363858        -9.9011
  67   2.0000      -0.357244        -9.7211
  68   2.0000      -0.349636        -9.5141
  69   2.0000      -0.339369        -9.2347
  70   2.0000      -0.335862        -9.1393
  71   2.0000      -0.330046        -8.9810
  72   2.0000      -0.323573        -8.8049
  73   2.0000      -0.304123        -8.2756
  74   2.0000      -0.296748        -8.0749
  75   2.0000      -0.292679        -7.9642
  76   2.0000      -0.282770        -7.6946
  77   2.0000      -0.269948        -7.3456
  78   2.0000      -0.267927        -7.2907
  79   2.0000      -0.264614        -7.2005
  80   2.0000      -0.250022        -6.8035
  81   2.0000      -0.243344        -6.6217
  82   2.0000      -0.238753        -6.4968
  83   2.0000      -0.227944        -6.2027
  84   2.0000      -0.190192        -5.1754
  85   2.0000      -0.182566        -4.9679
  86   2.0000      -0.173957        -4.7336
  87   0.0000      -0.044458        -1.2098
  88   0.0000      -0.040644        -1.1060
  89   0.0000      -0.031684        -0.8622
  90   0.0000       0.009827         0.2674
  91   0.0000       0.039771         1.0822

MULLIKEN ATOMIC CHARGES
-----------------------
   0 C :   -0.309422
   1 C :   -0.028241
   2 O :   -0.216497
   3 C :    0.102980
   4 O :   -0.209281
   5 C :   -0.009387
   6 C :   -0.336525
   7 H :    0.155068
   8 C :    0.204358
   9 O :   -0.174047
  10 O :   -0.224429
  11 C :   -0.010635
  12 C :   -0.311375
  13 S :   -0.056400
  14 P :    0.653167
  15 S :   -0.360485
  16 O :   -0.373632
  17 C :   -0.090645
  18 O :   -0.396853
  19 C :   -0.086635
  20 H :    0.111041
  21 H :    0.114965
  22 H :    0.126438
  23 H :    0.100550
  24 H :    0.134974
  25 H :    0.121733
  26 H :    0.112757
  27 H :    0.126258
  28 H :    0.104029
  29 H :    0.112354
  30 H :    0.133465
  31 H :    0.117249
  32 H :    0.112607
  33 H :    0.104326
  34 H :    0.116207
  35 H :    0.112093
  36 H :    0.108323
  37 H :    0.109546
Sum of atomic charges:   -0.0000000

LOEWDIN ATOMIC CHARGES
----------------------
   0 C :   -0.357154
   1 C :   -0.114212
   2 O :   -0.042255
   3 C :    0.033641
   4 O :   -0.172475
   5 C :   -0.250763
   6 C :   -0.261532
   7 H :    0.153210
   8 C :    0.006210
   9 O :   -0.147169
  10 O :   -0.042377
  11 C :   -0.106822
  12 C :   -0.357015
  13 S :    0.126712
  14 P :    0.603726
  15 S :   -0.330511
  16 O :   -0.253496
  17 C :   -0.214203
  18 O :   -0.262416
  19 C :   -0.214666
  20 H :    0.123217
  21 H :    0.131969
  22 H :    0.129184
  23 H :    0.118018
  24 H :    0.121665
  25 H :    0.146464
  26 H :    0.138546
  27 H :    0.127308
  28 H :    0.119180
  29 H :    0.124055
  30 H :    0.132949
  31 H :    0.133245
  32 H :    0.106770
  33 H :    0.107863
  34 H :    0.117843
  35 H :    0.109666
  36 H :    0.112211
  37 H :    0.103411

  Mayer bond orders larger than 0.100000
B(  0-C ,  1-C ) :   1.1673 B(  0-C , 20-H ) :   0.9477 B(  0-C , 21-H ) :   0.9443
B(  0-C , 22-H ) :   0.9458 B(  1-C ,  2-O ) :   0.9052 B(  1-C , 23-H ) :   0.9380
B(  1-C , 24-H ) :   0.9051 B(  2-O ,  3-C ) :   1.2696 B(  3-C ,  4-O ) :   1.9226
B(  3-C ,  5-C ) :   1.0101 B(  5-C ,  6-C ) :   1.0157 B(  5-C , 25-H ) :   0.8849
B(  5-C , 26-H ) :   0.8826 B(  6-C ,  7-H ) :   0.8717 B(  6-C ,  8-C ) :   0.8895
B(  6-C , 13-S ) :   1.0551 B(  8-C ,  9-O ) :   2.0027 B(  8-C , 10-O ) :   1.2615
B( 10-O , 11-C ) :   0.9001 B( 11-C , 12-C ) :   1.1724 B( 11-C , 27-H ) :   0.9123
B( 11-C , 28-H ) :   0.9371 B( 12-C , 29-H ) :   0.9478 B( 12-C , 30-H ) :   0.9444
B( 12-C , 31-H ) :   0.9438 B( 13-S , 14-P ) :   0.9253 B( 13-S , 15-S ) :   0.1216
B( 14-P , 15-S ) :   1.5061 B( 14-P , 16-O ) :   1.1016 B( 14-P , 18-O ) :   1.0828
B( 16-O , 17-C ) :   0.9419 B( 17-C , 32-H ) :   0.9316 B( 17-C , 33-H ) :   0.9513
B( 17-C , 34-H ) :   0.9602 B( 18-O , 19-C ) :   0.9393 B( 19-C , 35-H ) :   0.9507
B( 19-C , 36-H ) :   0.9560 B( 19-C , 37-H ) :   0.9324

Dispersion correction           -0.055394054
FINAL SINGLE POINT ENERGY     -1978.996214372939

DIPOLE MOMENT
-------------

Method             : SCF
Type of density    : Electron Density
Multiplicity       :   1
Irrep              :   0
Energy             : -1979.1249179234023359 Eh
Relativity type    :
Basis              : AO
                                X                 Y                 Z
Electronic contribution:    -11.602351207       1.917185754      -7.046832994
Nuclear contribution   :     13.086402693      -1.794143095       6.884450521
                        -----------------------------------------
Total Dipole Moment    :      1.484051487       0.123042659      -0.162382473
                        -----------------------------------------
Magnitude (a.u.)       :      1.497970754
Magnitude (Debye)      :      3.807539065

Rotational constants in cm-1:             0.010857             0.010162             0.007084
Rotational constants in MHz :           325.483162           304.644115           212.369343

                             ****ORCA TERMINATED NORMALLY****
TOTAL RUN TIME: 0 days 0 hours 0 minutes 41 seconds 766 msec
