                         Program Version 6.0.0  -   RELEASE  -
|  1> ! pbe def2-sv(p) def2/J RI DEFGRID1 loosescf d4 GCP(DFT/SV(P)) printgap
|  2> %output
|  3>     printlevel normal
|  4> end
|  5> * xyz 0 1
|  6> C 5.2218134756 -1.152611873 -0.2302418619
|  7> C 3.8718452107 -1.6146781453 0.278257711
|  8> O 2.8306807232 -1.3331783175 -0.6925618858
|  9> P 1.935594409 -0.0356091643 -0.6825123147
| 10> S 0.8408059731 0.0683381155 -2.2991596336
| 11> O 2.9894185642 1.1427729264 -0.5206216545
| 12> C 2.6727588652 2.5231129447 -0.7666897353
| 13> C 1.9401849278 3.1491628807 0.4026527349
| 14> S 1.0220764356 -0.0876707603 1.2499461212
| 15> C 0.2088601722 -1.7033660674 1.148425323
| 16> S -1.0815864787 -1.824762588 -0.1325659173
| 17> P -2.1990988264 -0.0872465154 0.3182426112
| 18> S -1.6155650704 1.7335692802 -0.1365180268
| 19> O -2.4554120864 -0.3579359402 1.8532561689
| 20> C -2.6200268439 0.6748964358 2.8521347744
| 21> C -1.5811222847 0.4888383946 3.9400755655
| 22> O -3.6158660473 -0.441689781 -0.3172106549
| 23> C -3.9746027727 -0.0681308528 -1.6562653708
| 24> C -3.1634412347 -0.8230174231 -2.6903134578
| 25> H 5.9885146827 -1.4537516549 0.4768685892
| 26> H 5.4287930492 -1.6020600302 -1.1976502931
| 27> H 5.2358125298 -0.0714623479 -0.33655567
| 28> H 3.6194371991 -1.128008236 1.2241594929
| 29> H 3.8458123648 -2.6998048514 0.3952560525
| 30> H 3.6453132819 2.9915417295 -0.9265359316
| 31> H 2.0750004168 2.5888630896 -1.6818097514
| 32> H 1.8645159567 4.2200309484 0.244512343
| 33> H 0.9332005845 2.7422244011 0.4820094839
| 34> H 2.4746870295 2.9567664332 1.3291268024
| 35> H -0.2366013464 -1.8773521811 2.125523361
| 36> H 0.9351339067 -2.4756251665 0.9030318157
| 37> H -2.517551416 1.6531702924 2.3710192598
| 38> H -3.6339425488 0.5615463447 3.2394028188
| 39> H -1.6759724684 -0.4982172523 4.383531703
| 40> H -0.5806643936 0.6004763846 3.5262995219
| 41> H -1.7344661175 1.2415749846 4.7062951748
| 42> H -5.036568952 -0.3084735343 -1.7216835035
| 43> H -3.8281030047 1.0115896948 -1.7675485203
| 44> H -2.113029231 -0.532077168 -2.6316235987
| 45> H -3.2369856007 -1.8947386658 -2.5212814267
| 46> H -3.5313825481 -0.5872050239 -3.6836292229
| 47> *
| 48>
| 49>                          ****END OF INPUT****

CARTESIAN COORDINATES (ANGSTROEM)
---------------------------------
  C      5.221813   -1.152612   -0.230242
  C      3.871845   -1.614678    0.278258
  O      2.830681   -1.333178   -0.692562
  P      1.935594   -0.035609   -0.682512
  S      0.840806    0.068338   -2.299160
  O      2.989419    1.142773   -0.520622
  C      2.672759    2.523113   -0.766690
  C      1.940185    3.149163    0.402653
  S      1.022076   -0.087671    1.249946
  C      0.208860   -1.703366    1.148425
  S     -1.081586   -1.824763   -0.132566
  P     -2.199099   -0.087247    0.318243
  S     -1.615565    1.733569   -0.136518
  O     -2.455412   -0.357936    1.853256
  C     -2.620027    0.674896    2.852135
  C     -1.581122    0.488838    3.940076
  O     -3.615866   -0.441690   -0.317211
  C     -3.974603   -0.068131   -1.656265
  C     -3.163441   -0.823017   -2.690313
  H      5.988515   -1.453752    0.476869
  H      5.428793   -1.602060   -1.197650
  H      5.235813   -0.071462   -0.336556
  H      3.619437   -1.128008    1.224159
  H      3.845812   -2.699805    0.395256
  H      3.645313    2.991542   -0.926536
  H      2.075000    2.588863   -1.681810
  H      1.864516    4.220031    0.244512
  H      0.933201    2.742224    0.482009
  H      2.474687    2.956766    1.329127
  H     -0.236601   -1.877352    2.125523
  H      0.935134   -2.475625    0.903032
  H     -2.517551    1.653170    2.371019
  H     -3.633943    0.561546    3.239403
  H     -1.675972   -0.498217    4.383532
  H     -0.580664    0.600476    3.526300
  H     -1.734466    1.241575    4.706295
  H     -5.036569   -0.308474   -1.721684
  H     -3.828103    1.011590   -1.767549
  H     -2.113029   -0.532077   -2.631624
  H     -3.236986   -1.894739   -2.521281
  H     -3.531383   -0.587205   -3.683629

 Total Charge           Charge          ....    0
 Multiplicity           Mult            ....    1
 Number of Electrons    NEL             ....  202
 Basis Dimension        Dim             ....  334

ORBITAL ENERGIES
----------------

  NO   OCC          E(Eh)            E(eV)
   0   2.0000     -88.043810     -2395.7939
   1   2.0000     -88.035451     -2395.5664
   2   2.0000     -87.979181     -2394.0352
   3   2.0000     -87.976171     -2393.9533
   4   2.0000     -76.423294     -2079.5836
   5   2.0000     -76.421312     -2079.5296
   6   2.0000     -18.793173      -511.3882
   7   2.0000     -18.792711      -511.3757
   8   2.0000     -18.789000      -511.2747
   9   2.0000     -18.782794      -511.1058
  10   2.0000      -9.960820      -271.0477
  11   2.0000      -9.957663      -270.9618
  12   2.0000      -9.949792      -270.7476
  13   2.0000      -9.949169      -270.7307
  14   2.0000      -9.943190      -270.5680
  15   2.0000      -9.887389      -269.0495
  16   2.0000      -9.886997      -269.0389
  17   2.0000      -9.878469      -268.8068
  18   2.0000      -9.874429      -268.6969
  19   2.0000      -7.687797      -209.1956
  20   2.0000      -7.680722      -209.0031
  21   2.0000      -7.623842      -207.4553
  22   2.0000      -7.621142      -207.3818
  23   2.0000      -6.420679      -174.7156
  24   2.0000      -6.418606      -174.6592
  25   2.0000      -5.715652      -155.5308
  26   2.0000      -5.712328      -155.4404
  27   2.0000      -5.708912      -155.3474
  28   2.0000      -5.705318      -155.2496
  29   2.0000      -5.704880      -155.2377
  30   2.0000      -5.697223      -155.0293
  31   2.0000      -5.652641      -153.8162
  32   2.0000      -5.650263      -153.7515
  33   2.0000      -5.644503      -153.5947
  34   2.0000      -5.644089      -153.5835
  35   2.0000      -5.641668      -153.5176
  36   2.0000      -5.641185      -153.5045
  37   2.0000      -4.643794      -126.3641
  38   2.0000      -4.642507      -126.3290
  39   2.0000      -4.641259      -126.2951
  40   2.0000      -4.640567      -126.2762
  41   2.0000      -4.640461      -126.2734
  42   2.0000      -4.638923      -126.2315
  43   2.0000      -0.987913       -26.8825
  44   2.0000      -0.980725       -26.6869
  45   2.0000      -0.946085       -25.7443
  46   2.0000      -0.940751       -25.5991
  47   2.0000      -0.761835       -20.7306
  48   2.0000      -0.718526       -19.5521
  49   2.0000      -0.709399       -19.3037
  50   2.0000      -0.688776       -18.7426
  51   2.0000      -0.680432       -18.5155
  52   2.0000      -0.668722       -18.1968
  53   2.0000      -0.648694       -17.6519
  54   2.0000      -0.634260       -17.2591
  55   2.0000      -0.595093       -16.1933
  56   2.0000      -0.586883       -15.9699
  57   2.0000      -0.575887       -15.6707
  58   2.0000      -0.568031       -15.4569
  59   2.0000      -0.559942       -15.2368
  60   2.0000      -0.501789       -13.6544
  61   2.0000      -0.496473       -13.5097
  62   2.0000      -0.476500       -12.9662
  63   2.0000      -0.466069       -12.6824
  64   2.0000      -0.458752       -12.4833
  65   2.0000      -0.446120       -12.1396
  66   2.0000      -0.436849       -11.8873
  67   2.0000      -0.429072       -11.6756
  68   2.0000      -0.426194       -11.5973
  69   2.0000      -0.414813       -11.2876
  70   2.0000      -0.411552       -11.1989
  71   2.0000      -0.392933       -10.6923
  72   2.0000      -0.388842       -10.5809
  73   2.0000      -0.387109       -10.5338
  74   2.0000      -0.378737       -10.3059
  75   2.0000      -0.371723       -10.1151
  76   2.0000      -0.362702        -9.8696
  77   2.0000      -0.360544        -9.8109
  78   2.0000      -0.353991        -9.6326
  79   2.0000      -0.350785        -9.5453
  80   2.0000      -0.348506        -9.4833
  81   2.0000      -0.345488        -9.4012
  82   2.0000      -0.340507        -9.2657
  83   2.0000      -0.336668        -9.1612
  84   2.0000      -0.328187        -8.9304
  85   2.0000      -0.317608        -8.6426
  86   2.0000      -0.308440        -8.3931
  87   2.0000      -0.296690        -8.0734
  88   2.0000      -0.290973        -7.9178
  89   2.0000      -0.288179        -7.8418
  90   2.0000      -0.278578        -7.5805
  91   2.0000      -0.274210        -7.4616
  92   2.0000      -0.266227        -7.2444
  93   2.0000      -0.258368        -7.0305
  94   2.0000      -0.255102        -6.9417
  95   2.0000      -0.247870        -6.7449
  96   2.0000      -0.220474        -5.9994
  97   2.0000      -0.206964        -5.6318
  98   2.0000      -0.188946        -5.1415
  99   2.0000      -0.182577        -4.9682
 100   2.0000      -0.181014        -4.9256
 101   0.0000      -0.049716        -1.3528
 102   0.0000      -0.027455        -0.7471
 103   0.0000      -0.009441        -0.2569
 104   0.0000      -0.002675        -0.0728
 105   0.0000       0.020508         0.5580

MULLIKEN ATOMIC CHARGES
-----------------------
   0 C :   -0.284798
   1 C :   -0.022231
   2 O :   -0.364122
   3 P :    0.614620
   4 S :   -0.278228
   5 O :   -0.382125
   6 C :   -0.000721
   7 C :   -0.340936
   8 S :   -0.124255
   9 C :   -0.336669
  10 S :   -0.081208
  11 P :    0.611790
  12 S :   -0.312922
  13 O :   -0.375124
  14 C :   -0.002008
  15 C :   -0.308342
  16 O :   -0.367774
  17 C :    0.000293
  18 C :   -0.344501
  19 H :    0.108135
  20 H :    0.120963
  21 H :    0.124620
  22 H :    0.101927
  23 H :    0.106551
  24 H :    0.102026
  25 H :    0.113414
  26 H :    0.112514
  27 H :    0.158890
  28 H :    0.109185
  29 H :    0.189185
  30 H :    0.183522
  31 H :    0.109110
  32 H :    0.105792
  33 H :    0.114924
  34 H :    0.128686
  35 H :    0.112358
  36 H :    0.101799
  37 H :    0.109799
  38 H :    0.155844
  39 H :    0.117866
  40 H :    0.112150
Sum of atomic charges:    0.0000000

LOEWDIN ATOMIC CHARGES
----------------------
   0 C :   -0.358209
   1 C :   -0.119188
   2 O :   -0.239390
   3 P :    0.565270
   4 S :   -0.289677
   5 O :   -0.245856
   6 C :   -0.117180
   7 C :   -0.375116
   8 S :    0.078024
   9 C :   -0.473617
  10 S :    0.092082
  11 P :    0.568350
  12 S :   -0.303414
  13 O :   -0.245065
  14 C :   -0.116999
  15 C :   -0.359491
  16 O :   -0.246186
  17 C :   -0.121267
  18 C :   -0.374131
  19 H :    0.129061
  20 H :    0.129375
  21 H :    0.127414
  22 H :    0.103246
  23 H :    0.117802
  24 H :    0.116507
  25 H :    0.112829
  26 H :    0.132087
  27 H :    0.121046
  28 H :    0.121550
  29 H :    0.133654
  30 H :    0.131930
  31 H :    0.106822
  32 H :    0.117205
  33 H :    0.123470
  34 H :    0.119487
  35 H :    0.131563
  36 H :    0.116994
  37 H :    0.108928
  38 H :    0.125161
  39 H :    0.123545
  40 H :    0.131383

  Mayer bond orders larger than 0.100000
B(  0-C ,  1-C ) :   1.1697 B(  0-C , 19-H ) :   0.9393 B(  0-C , 20-H ) :   0.9471
B(  0-C , 21-H ) :   0.9413 B(  1-C ,  2-O ) :   0.8933 B(  1-C , 22-H ) :   0.9067
B(  1-C , 23-H ) :   0.9340 B(  2-O ,  3-P ) :   1.1161 B(  3-P ,  4-S ) :   1.7020
B(  3-P ,  5-O ) :   1.0810 B(  3-P ,  8-S ) :   0.9288 B(  4-S ,  8-S ) :   0.1126
B(  5-O ,  6-C ) :   0.9051 B(  6-C ,  7-C ) :   1.1675 B(  6-C , 24-H ) :   0.9339
B(  6-C , 25-H ) :   0.9098 B(  7-C , 26-H ) :   0.9383 B(  7-C , 27-H ) :   0.9182
B(  7-C , 28-H ) :   0.9448 B(  8-S ,  9-C ) :   1.0020 B(  9-C , 10-S ) :   0.9977
B(  9-C , 29-H ) :   0.9026 B(  9-C , 30-H ) :   0.9059 B( 10-S , 11-P ) :   0.9670
B( 10-S , 12-S ) :   0.1133 B( 11-P , 12-S ) :   1.6073 B( 11-P , 13-O ) :   1.1149
B( 11-P , 16-O ) :   1.1163 B( 13-O , 14-C ) :   0.8984 B( 14-C , 15-C ) :   1.1665
B( 14-C , 31-H ) :   0.8982 B( 14-C , 32-H ) :   0.9332 B( 15-C , 33-H ) :   0.9477
B( 15-C , 34-H ) :   0.9374 B( 15-C , 35-H ) :   0.9397 B( 16-O , 17-C ) :   0.9114
B( 17-C , 18-C ) :   1.1618 B( 17-C , 36-H ) :   0.9330 B( 17-C , 37-H ) :   0.9131
B( 18-C , 38-H ) :   0.9248 B( 18-C , 39-H ) :   0.9437 B( 18-C , 40-H ) :   0.9379

Dispersion correction           -0.068021349
FINAL SINGLE POINT ENERGY     -2929.512440750627

DIPOLE MOMENT
-------------

Method             : SCF
Type of density    : Electron Density
Multiplicity       :   1
Irrep              :   0
Energy             : -2929.6288607958999819 Eh
Relativity type    :
Basis              : AO
                                X                 Y                 Z
Electronic contribution:     -7.073495732      -5.355921230      -7.423222970
Nuclear contribution   :      7.687087402       5.201033277       8.754473161
                        -----------------------------------------
Total Dipole Moment    :      0.613591670      -0.154887954       1.331250191
                        -----------------------------------------
Magnitude (a.u.)       :      1.474012241
Magnitude (Debye)      :      3.746641367

Rotational constants in cm-1:             0.011457             0.005667             0.005285
Rotational constants in MHz :           343.465096           169.879142           158.426352

                             ****ORCA TERMINATED NORMALLY****
TOTAL RUN TIME: 0 days 0 hours 0 minutes 21 seconds 494 msec
