                         Program Version 6.0.0  -   RELEASE  -
|  1> ! pbe def2-sv(p) def2/J RI DEFGRID1 loosescf d4 GCP(DFT/SV(P)) printgap
|  2> %output
|  3>     printlevel normal
|  4> end
|  5> * xyz 0 1
|  6> C 3.9586231251 0.4418417971 -2.6649847369
|  7> C 4.4558826921 -0.1765469795 -1.3733195936
|  8> O 3.3748275497 -0.6348677451 -0.5414855312
|  9> P 2.4084666602 0.3882764204 0.1900121419
| 10> S 3.1940461716 2.0657538063 0.8218160448
| 11> O 1.9122622934 -0.6174002709 1.3085429407
| 12> C 1.23325802 -0.1603227913 2.4943913047
| 13> C 1.1307410519 -1.3406634947 3.4380312087
| 14> S 0.7510695283 0.6195294848 -1.1284152745
| 15> C 0.2838028558 -1.1278546181 -1.2734246717
| 16> S -0.7659403368 -1.7225094726 0.088609648
| 17> P -2.2768820915 -0.2724234468 -0.0926803388
| 18> S -2.7666408507 0.3450669453 -1.8924895887
| 19> O -1.7136220909 0.8108936993 0.9263232572
| 20> C -2.2948923682 2.129851578 1.0375585678
| 21> C -1.4530114371 3.1462982295 0.291668168
| 22> O -3.5027250169 -0.8441653191 0.745317504
| 23> C -4.5363947436 -1.6472778736 0.1485588063
| 24> C -4.0254524382 -3.0129661774 -0.2624879597
| 25> H 4.8084296048 0.6988759535 -3.2892387201
| 26> H 3.31726999 -0.2533001431 -3.2007935302
| 27> H 3.3929750377 1.3480896296 -2.4493710589
| 28> H 5.0488120518 0.5475048169 -0.8057311462
| 29> H 5.0455132743 -1.0760060162 -1.5562018767
| 30> H 1.8094065016 0.6628633479 2.9298021645
| 31> H 0.2414475488 0.2099729041 2.2174699561
| 32> H 2.1230359487 -1.7105323453 3.6788815252
| 33> H 0.6307513811 -1.0271111264 4.3484191152
| 34> H 0.5608326349 -2.1371809015 2.9670100904
| 35> H 1.1747951323 -1.7517018457 -1.2718196218
| 36> H -0.2653550496 -1.210832581 -2.2098009644
| 37> H -3.3160926605 2.1066493542 0.6472016722
| 38> H -2.3168583131 2.3371828626 2.1087902752
| 39> H -1.8684810511 4.1370754813 0.4441919768
| 40> H -0.4272812953 3.1289115671 0.6535581238
| 41> H -1.4461061004 2.9221656347 -0.7732245511
| 42> H -5.2966900913 -1.7168995335 0.9275272851
| 43> H -4.935913352 -1.1088132821 -0.716901537
| 44> H -3.5300689367 -3.4985587236 0.5744397118
| 45> H -4.8591827384 -3.623904877 -0.5932963354
| 46> H -3.3145214462 -2.9124254058 -1.0815190118
| 47> *
| 48>
| 49>                          ****END OF INPUT****

CARTESIAN COORDINATES (ANGSTROEM)
---------------------------------
  C      3.958623    0.441842   -2.664985
  C      4.455883   -0.176547   -1.373320
  O      3.374828   -0.634868   -0.541486
  P      2.408467    0.388276    0.190012
  S      3.194046    2.065754    0.821816
  O      1.912262   -0.617400    1.308543
  C      1.233258   -0.160323    2.494391
  C      1.130741   -1.340663    3.438031
  S      0.751070    0.619529   -1.128415
  C      0.283803   -1.127855   -1.273425
  S     -0.765940   -1.722509    0.088610
  P     -2.276882   -0.272423   -0.092680
  S     -2.766641    0.345067   -1.892490
  O     -1.713622    0.810894    0.926323
  C     -2.294892    2.129852    1.037559
  C     -1.453011    3.146298    0.291668
  O     -3.502725   -0.844165    0.745318
  C     -4.536395   -1.647278    0.148559
  C     -4.025452   -3.012966   -0.262488
  H      4.808430    0.698876   -3.289239
  H      3.317270   -0.253300   -3.200794
  H      3.392975    1.348090   -2.449371
  H      5.048812    0.547505   -0.805731
  H      5.045513   -1.076006   -1.556202
  H      1.809407    0.662863    2.929802
  H      0.241448    0.209973    2.217470
  H      2.123036   -1.710532    3.678882
  H      0.630751   -1.027111    4.348419
  H      0.560833   -2.137181    2.967010
  H      1.174795   -1.751702   -1.271820
  H     -0.265355   -1.210833   -2.209801
  H     -3.316093    2.106649    0.647202
  H     -2.316858    2.337183    2.108790
  H     -1.868481    4.137075    0.444192
  H     -0.427281    3.128912    0.653558
  H     -1.446106    2.922166   -0.773225
  H     -5.296690   -1.716900    0.927527
  H     -4.935913   -1.108813   -0.716902
  H     -3.530069   -3.498559    0.574440
  H     -4.859183   -3.623905   -0.593296
  H     -3.314521   -2.912425   -1.081519

 Total Charge           Charge          ....    0
 Multiplicity           Mult            ....    1
 Number of Electrons    NEL             ....  202
 Basis Dimension        Dim             ....  334

ORBITAL ENERGIES
----------------

  NO   OCC          E(Eh)            E(eV)
   0   2.0000     -88.048535     -2395.9224
   1   2.0000     -88.042407     -2395.7557
   2   2.0000     -87.994196     -2394.4438
   3   2.0000     -87.988716     -2394.2947
   4   2.0000     -76.431806     -2079.8152
   5   2.0000     -76.424994     -2079.6298
   6   2.0000     -18.797572      -511.5079
   7   2.0000     -18.792890      -511.3805
   8   2.0000     -18.792555      -511.3714
   9   2.0000     -18.787898      -511.2447
  10   2.0000      -9.960845      -271.0484
  11   2.0000      -9.955517      -270.9034
  12   2.0000      -9.953667      -270.8530
  13   2.0000      -9.953067      -270.8367
  14   2.0000      -9.942904      -270.5602
  15   2.0000      -9.887833      -269.0616
  16   2.0000      -9.884493      -268.9707
  17   2.0000      -9.880266      -268.8557
  18   2.0000      -9.875982      -268.7391
  19   2.0000      -7.693533      -209.3517
  20   2.0000      -7.686839      -209.1695
  21   2.0000      -7.639075      -207.8698
  22   2.0000      -7.633837      -207.7273
  23   2.0000      -6.429203      -174.9475
  24   2.0000      -6.422683      -174.7701
  25   2.0000      -5.721393      -155.6870
  26   2.0000      -5.718155      -155.5989
  27   2.0000      -5.714988      -155.5127
  28   2.0000      -5.711162      -155.4086
  29   2.0000      -5.710348      -155.3865
  30   2.0000      -5.703806      -155.2085
  31   2.0000      -5.667921      -154.2320
  32   2.0000      -5.662709      -154.0901
  33   2.0000      -5.659807      -154.0112
  34   2.0000      -5.659257      -153.9962
  35   2.0000      -5.654389      -153.8637
  36   2.0000      -5.654140      -153.8570
  37   2.0000      -4.651704      -126.5793
  38   2.0000      -4.650924      -126.5581
  39   2.0000      -4.649816      -126.5279
  40   2.0000      -4.644977      -126.3963
  41   2.0000      -4.644905      -126.3943
  42   2.0000      -4.642940      -126.3408
  43   2.0000      -0.990012       -26.9396
  44   2.0000      -0.988275       -26.8923
  45   2.0000      -0.947462       -25.7818
  46   2.0000      -0.944194       -25.6928
  47   2.0000      -0.767070       -20.8730
  48   2.0000      -0.722670       -19.6649
  49   2.0000      -0.709913       -19.3177
  50   2.0000      -0.687660       -18.7122
  51   2.0000      -0.682807       -18.5801
  52   2.0000      -0.674800       -18.3622
  53   2.0000      -0.655870       -17.8471
  54   2.0000      -0.641450       -17.4548
  55   2.0000      -0.601082       -16.3563
  56   2.0000      -0.594892       -16.1878
  57   2.0000      -0.576425       -15.6853
  58   2.0000      -0.561520       -15.2797
  59   2.0000      -0.558886       -15.2081
  60   2.0000      -0.504774       -13.7356
  61   2.0000      -0.500198       -13.6111
  62   2.0000      -0.472775       -12.8649
  63   2.0000      -0.470300       -12.7975
  64   2.0000      -0.465020       -12.6538
  65   2.0000      -0.442964       -12.0537
  66   2.0000      -0.440230       -11.9793
  67   2.0000      -0.438731       -11.9385
  68   2.0000      -0.426175       -11.5968
  69   2.0000      -0.421551       -11.4710
  70   2.0000      -0.411489       -11.1972
  71   2.0000      -0.398724       -10.8498
  72   2.0000      -0.395307       -10.7569
  73   2.0000      -0.381528       -10.3819
  74   2.0000      -0.380906       -10.3650
  75   2.0000      -0.375350       -10.2138
  76   2.0000      -0.368323       -10.0226
  77   2.0000      -0.359476        -9.7818
  78   2.0000      -0.352558        -9.5936
  79   2.0000      -0.350723        -9.5436
  80   2.0000      -0.349108        -9.4997
  81   2.0000      -0.344842        -9.3836
  82   2.0000      -0.341383        -9.2895
  83   2.0000      -0.338304        -9.2057
  84   2.0000      -0.333078        -9.0635
  85   2.0000      -0.317756        -8.6466
  86   2.0000      -0.309985        -8.4351
  87   2.0000      -0.302428        -8.2295
  88   2.0000      -0.299496        -8.1497
  89   2.0000      -0.291182        -7.9235
  90   2.0000      -0.288805        -7.8588
  91   2.0000      -0.278799        -7.5865
  92   2.0000      -0.268764        -7.3134
  93   2.0000      -0.267450        -7.2777
  94   2.0000      -0.256402        -6.9771
  95   2.0000      -0.233644        -6.3578
  96   2.0000      -0.220451        -5.9988
  97   2.0000      -0.211842        -5.7645
  98   2.0000      -0.208773        -5.6810
  99   2.0000      -0.206874        -5.6293
 100   2.0000      -0.204683        -5.5697
 101   0.0000      -0.047777        -1.3001
 102   0.0000      -0.024286        -0.6608
 103   0.0000      -0.012507        -0.3403
 104   0.0000       0.000480         0.0131
 105   0.0000       0.004256         0.1158

MULLIKEN ATOMIC CHARGES
-----------------------
   0 C :   -0.311482
   1 C :   -0.003508
   2 O :   -0.367320
   3 P :    0.581608
   4 S :   -0.320430
   5 O :   -0.369493
   6 C :   -0.029106
   7 C :   -0.279540
   8 S :   -0.062673
   9 C :   -0.353934
  10 S :   -0.074039
  11 P :    0.607056
  12 S :   -0.329717
  13 O :   -0.361287
  14 C :   -0.003073
  15 C :   -0.290620
  16 O :   -0.371398
  17 C :   -0.005976
  18 C :   -0.314762
  19 H :    0.113342
  20 H :    0.112647
  21 H :    0.129033
  22 H :    0.114102
  23 H :    0.106571
  24 H :    0.105778
  25 H :    0.123444
  26 H :    0.113718
  27 H :    0.107293
  28 H :    0.113714
  29 H :    0.188247
  30 H :    0.192819
  31 H :    0.101469
  32 H :    0.107228
  33 H :    0.106205
  34 H :    0.118736
  35 H :    0.128851
  36 H :    0.106362
  37 H :    0.112733
  38 H :    0.117950
  39 H :    0.114619
  40 H :    0.124833
Sum of atomic charges:    0.0000000

LOEWDIN ATOMIC CHARGES
----------------------
   0 C :   -0.367487
   1 C :   -0.118079
   2 O :   -0.241269
   3 P :    0.565599
   4 S :   -0.320467
   5 O :   -0.240198
   6 C :   -0.130247
   7 C :   -0.350646
   8 S :    0.099857
   9 C :   -0.477690
  10 S :    0.105357
  11 P :    0.568533
  12 S :   -0.322139
  13 O :   -0.240152
  14 C :   -0.111821
  15 C :   -0.362330
  16 O :   -0.246211
  17 C :   -0.120386
  18 C :   -0.368689
  19 H :    0.131056
  20 H :    0.123007
  21 H :    0.122373
  22 H :    0.112055
  23 H :    0.119000
  24 H :    0.107244
  25 H :    0.107955
  26 H :    0.125613
  27 H :    0.128818
  28 H :    0.121738
  29 H :    0.134560
  30 H :    0.134440
  31 H :    0.108855
  32 H :    0.118169
  33 H :    0.127529
  34 H :    0.124650
  35 H :    0.124779
  36 H :    0.119235
  37 H :    0.110539
  38 H :    0.124642
  39 H :    0.131763
  40 H :    0.120444

  Mayer bond orders larger than 0.100000
B(  0-C ,  1-C ) :   1.1629 B(  0-C , 19-H ) :   0.9382 B(  0-C , 20-H ) :   0.9466
B(  0-C , 21-H ) :   0.9358 B(  1-C ,  2-O ) :   0.9091 B(  1-C , 22-H ) :   0.9162
B(  1-C , 23-H ) :   0.9347 B(  2-O ,  3-P ) :   1.0922 B(  3-P ,  4-S ) :   1.6437
B(  3-P ,  5-O ) :   1.1187 B(  3-P ,  8-S ) :   0.9661 B(  5-O ,  6-C ) :   0.8901
B(  6-C ,  7-C ) :   1.1639 B(  6-C , 24-H ) :   0.9157 B(  6-C , 25-H ) :   0.9018
B(  7-C , 26-H ) :   0.9503 B(  7-C , 27-H ) :   0.9427 B(  7-C , 28-H ) :   0.9485
B(  8-S ,  9-C ) :   0.9939 B(  9-C , 10-S ) :   0.9861 B(  9-C , 29-H ) :   0.8930
B(  9-C , 30-H ) :   0.8922 B( 10-S , 11-P ) :   0.9723 B( 10-S , 12-S ) :   0.1119
B( 11-P , 12-S ) :   1.5895 B( 11-P , 13-O ) :   1.1134 B( 11-P , 16-O ) :   1.1120
B( 13-O , 14-C ) :   0.8844 B( 14-C , 15-C ) :   1.1730 B( 14-C , 31-H ) :   0.9145
B( 14-C , 32-H ) :   0.9342 B( 15-C , 33-H ) :   0.9395 B( 15-C , 34-H ) :   0.9405
B( 15-C , 35-H ) :   0.9369 B( 16-O , 17-C ) :   0.9082 B( 17-C , 18-C ) :   1.1647
B( 17-C , 36-H ) :   0.9336 B( 17-C , 37-H ) :   0.9147 B( 18-C , 38-H ) :   0.9452
B( 18-C , 39-H ) :   0.9381 B( 18-C , 40-H ) :   0.9359

Dispersion correction           -0.066228599
FINAL SINGLE POINT ENERGY     -2929.527073748971

DIPOLE MOMENT
-------------

Method             : SCF
Type of density    : Electron Density
Multiplicity       :   1
Irrep              :   0
Energy             : -2929.6460044350328644 Eh
Relativity type    :
Basis              : AO
                                X                 Y                 Z
Electronic contribution:      2.791329517       2.944210730      -3.149664588
Nuclear contribution   :     -3.340092135      -3.845528196       3.340184594
                        -----------------------------------------
Total Dipole Moment    :     -0.548762617      -0.901317466       0.190520007
                        -----------------------------------------
Magnitude (a.u.)       :      1.072292618
Magnitude (Debye)      :      2.725551231

Rotational constants in cm-1:             0.012377             0.004961             0.004913
Rotational constants in MHz :           371.041095           148.720965           147.296465

                             ****ORCA TERMINATED NORMALLY****
TOTAL RUN TIME: 0 days 0 hours 0 minutes 21 seconds 317 msec
