                         Program Version 6.0.1  -  RELEASE   -
|  1> ! pbe def2-sv(p) def2/J RI DEFGRID1 loosescf d4 GCP(DFT/SV(P)) printgap
|  2> %output
|  3>     printlevel normal
|  4> end
|  5> * xyz 0 1
|  6> C 5.2545111483 -2.0246687127 -1.4856077484
|  7> C 4.5461093152 -0.7172110959 -1.1683310588
|  8> O 3.1162021254 -0.8704334759 -1.2467375519
|  9> C 2.4765250164 -1.3192940865 -0.1825392063
| 10> O 3.0055249983 -1.6134709623 0.8641948738
| 11> C 0.9845809239 -1.440548383 -0.4412390323
| 12> C 0.4211945299 -0.1349162293 -1.0011767148
| 13> H 0.9516698654 0.1282924816 -1.9211097941
| 14> C 0.5540650436 1.0095885065 -0.0158711676
| 15> O -0.3921189332 1.683922411 0.33821728
| 16> O 1.785715356 1.1655385004 0.3898522524
| 17> C 2.059758406 2.1985426901 1.3622802759
| 18> C 2.2725677548 3.5412739287 0.684217277
| 19> S -1.3274004093 -0.2819391627 -1.4814169962
| 20> P -2.3518811303 0.0043189692 0.3637343698
| 21> S -1.5079158116 -0.5433505996 2.0478470645
| 22> O -3.0450484014 1.4226472387 0.4092706473
| 23> C -3.8081284905 1.9494778726 -0.6933656208
| 24> O -3.6568392472 -0.8847127394 0.044975868
| 25> C -3.5984301242 -2.3116416328 -0.0082944111
| 26> H 4.9480042476 -2.3898779434 -2.461822117
| 27> H 6.327063141 -1.8610124094 -1.4849495491
| 28> H 5.0117376529 -2.7724039742 -0.7340561943
| 29> H 4.7784050536 0.0497008066 -1.9071908258
| 30> H 4.8036853313 -0.3716791621 -0.1634502097
| 31> H 0.4943791895 -1.7090379432 0.4971624613
| 32> H 0.8244987142 -2.2336314513 -1.1735518905
| 33> H 1.223164745 2.239137713 2.0657108889
| 34> H 2.9602910026 1.8526011025 1.8700660259
| 35> H 1.3565247644 3.862663528 0.1938464326
| 36> H 2.5457638696 4.2761755615 1.4340608585
| 37> H 3.0669897131 3.4683426438 -0.0530953094
| 38> H -3.1765925681 2.0281306209 -1.5782146824
| 39> H -4.1320563218 2.9335252111 -0.3647288314
| 40> H -4.6616863021 1.3050952331 -0.8963737583
| 41> H -4.6311852438 -2.6495537624 0.0194326892
| 42> H -3.049946311 -2.6964580724 0.8533913816
| 43> H -3.1147448243 -2.628171036 -0.9321898069
| 44> *
| 45>
| 46>                          ****END OF INPUT****

CARTESIAN COORDINATES (ANGSTROEM)
---------------------------------
  C      5.254511   -2.024669   -1.485608
  C      4.546109   -0.717211   -1.168331
  O      3.116202   -0.870433   -1.246738
  C      2.476525   -1.319294   -0.182539
  O      3.005525   -1.613471    0.864195
  C      0.984581   -1.440548   -0.441239
  C      0.421195   -0.134916   -1.001177
  H      0.951670    0.128292   -1.921110
  C      0.554065    1.009589   -0.015871
  O     -0.392119    1.683922    0.338217
  O      1.785715    1.165539    0.389852
  C      2.059758    2.198543    1.362280
  C      2.272568    3.541274    0.684217
  S     -1.327400   -0.281939   -1.481417
  P     -2.351881    0.004319    0.363734
  S     -1.507916   -0.543351    2.047847
  O     -3.045048    1.422647    0.409271
  C     -3.808128    1.949478   -0.693366
  O     -3.656839   -0.884713    0.044976
  C     -3.598430   -2.311642   -0.008294
  H      4.948004   -2.389878   -2.461822
  H      6.327063   -1.861012   -1.484950
  H      5.011738   -2.772404   -0.734056
  H      4.778405    0.049701   -1.907191
  H      4.803685   -0.371679   -0.163450
  H      0.494379   -1.709038    0.497162
  H      0.824499   -2.233631   -1.173552
  H      1.223165    2.239138    2.065711
  H      2.960291    1.852601    1.870066
  H      1.356525    3.862664    0.193846
  H      2.545764    4.276176    1.434061
  H      3.066990    3.468343   -0.053095
  H     -3.176593    2.028131   -1.578215
  H     -4.132056    2.933525   -0.364729
  H     -4.661686    1.305095   -0.896374
  H     -4.631185   -2.649554    0.019433
  H     -3.049946   -2.696458    0.853391
  H     -3.114745   -2.628171   -0.932190

 Total Charge           Charge          ....    0
 Multiplicity           Mult            ....    1
 Number of Electrons    NEL             ....  174
 Basis Dimension        Dim             ....  316

ORBITAL ENERGIES
----------------

  NO   OCC          E(Eh)            E(eV)
   0   2.0000     -88.038114     -2395.6389
   1   2.0000     -87.972831     -2393.8624
   2   2.0000     -76.420127     -2079.4974
   3   2.0000     -18.821215      -512.1513
   4   2.0000     -18.802967      -511.6548
   5   2.0000     -18.781542      -511.0717
   6   2.0000     -18.780022      -511.0304
   7   2.0000     -18.751627      -510.2577
   8   2.0000     -18.736712      -509.8518
   9   2.0000     -10.025604      -272.8105
  10   2.0000     -10.009285      -272.3665
  11   2.0000      -9.955023      -270.8899
  12   2.0000      -9.952815      -270.8299
  13   2.0000      -9.951381      -270.7909
  14   2.0000      -9.942037      -270.5366
  15   2.0000      -9.935257      -270.3521
  16   2.0000      -9.906480      -269.5690
  17   2.0000      -9.893317      -269.2108
  18   2.0000      -9.889558      -269.1085
  19   2.0000      -7.683008      -209.0653
  20   2.0000      -7.617973      -207.2956
  21   2.0000      -6.416083      -174.5905
  22   2.0000      -5.710932      -155.4024
  23   2.0000      -5.707422      -155.3068
  24   2.0000      -5.700016      -155.1053
  25   2.0000      -5.647245      -153.6694
  26   2.0000      -5.638645      -153.4353
  27   2.0000      -5.637682      -153.4091
  28   2.0000      -4.638910      -126.2312
  29   2.0000      -4.638155      -126.2106
  30   2.0000      -4.636391      -126.1626
  31   2.0000      -1.029926       -28.0257
  32   2.0000      -1.010252       -27.4904
  33   2.0000      -0.976249       -26.5651
  34   2.0000      -0.933879       -25.4121
  35   2.0000      -0.929296       -25.2874
  36   2.0000      -0.914018       -24.8717
  37   2.0000      -0.768252       -20.9052
  38   2.0000      -0.712618       -19.3913
  39   2.0000      -0.711182       -19.3522
  40   2.0000      -0.687356       -18.7039
  41   2.0000      -0.657430       -17.8896
  42   2.0000      -0.627684       -17.0801
  43   2.0000      -0.625550       -17.0221
  44   2.0000      -0.612432       -16.6651
  45   2.0000      -0.596504       -16.2317
  46   2.0000      -0.570676       -15.5289
  47   2.0000      -0.513848       -13.9825
  48   2.0000      -0.505210       -13.7475
  49   2.0000      -0.499924       -13.6036
  50   2.0000      -0.485332       -13.2065
  51   2.0000      -0.466390       -12.6911
  52   2.0000      -0.463929       -12.6241
  53   2.0000      -0.447883       -12.1875
  54   2.0000      -0.436862       -11.8876
  55   2.0000      -0.430317       -11.7095
  56   2.0000      -0.423457       -11.5229
  57   2.0000      -0.418638       -11.3917
  58   2.0000      -0.416764       -11.3407
  59   2.0000      -0.406873       -11.0716
  60   2.0000      -0.402346       -10.9484
  61   2.0000      -0.394794       -10.7429
  62   2.0000      -0.391513       -10.6536
  63   2.0000      -0.388993       -10.5850
  64   2.0000      -0.379417       -10.3245
  65   2.0000      -0.369449       -10.0532
  66   2.0000      -0.360141        -9.7999
  67   2.0000      -0.355442        -9.6721
  68   2.0000      -0.349478        -9.5098
  69   2.0000      -0.340067        -9.2537
  70   2.0000      -0.338460        -9.2100
  71   2.0000      -0.328436        -8.9372
  72   2.0000      -0.326409        -8.8821
  73   2.0000      -0.315484        -8.5847
  74   2.0000      -0.303433        -8.2568
  75   2.0000      -0.298818        -8.1313
  76   2.0000      -0.292356        -7.9554
  77   2.0000      -0.288357        -7.8466
  78   2.0000      -0.274906        -7.4806
  79   2.0000      -0.264534        -7.1983
  80   2.0000      -0.260091        -7.0774
  81   2.0000      -0.251629        -6.8472
  82   2.0000      -0.239994        -6.5306
  83   2.0000      -0.228695        -6.2231
  84   2.0000      -0.214423        -5.8347
  85   2.0000      -0.191816        -5.2196
  86   2.0000      -0.186363        -5.0712
  87   0.0000      -0.043785        -1.1915
  88   0.0000      -0.033904        -0.9226
  89   0.0000      -0.017387        -0.4731
  90   0.0000       0.006281         0.1709
  91   0.0000       0.028261         0.7690

MULLIKEN ATOMIC CHARGES
-----------------------
   0 C :   -0.305114
   1 C :   -0.009281
   2 O :   -0.246767
   3 C :    0.111147
   4 O :   -0.192010
   5 C :   -0.047644
   6 C :   -0.318122
   7 H :    0.158273
   8 C :    0.211880
   9 O :   -0.184481
  10 O :   -0.221567
  11 C :   -0.007678
  12 C :   -0.309701
  13 S :   -0.097723
  14 P :    0.617799
  15 S :   -0.317771
  16 O :   -0.355341
  17 C :   -0.101868
  18 O :   -0.396834
  19 C :   -0.099389
  20 H :    0.112759
  21 H :    0.112953
  22 H :    0.129928
  23 H :    0.099185
  24 H :    0.106527
  25 H :    0.120375
  26 H :    0.116918
  27 H :    0.126195
  28 H :    0.114148
  29 H :    0.129854
  30 H :    0.119417
  31 H :    0.112512
  32 H :    0.115950
  33 H :    0.129231
  34 H :    0.121591
  35 H :    0.120831
  36 H :    0.115027
  37 H :    0.108791
Sum of atomic charges:   -0.0000000

LOEWDIN ATOMIC CHARGES
----------------------
   0 C :   -0.356371
   1 C :   -0.110223
   2 O :   -0.067280
   3 C :    0.023476
   4 O :   -0.159439
   5 C :   -0.250233
   6 C :   -0.268686
   7 H :    0.150992
   8 C :    0.021055
   9 O :   -0.153127
  10 O :   -0.030299
  11 C :   -0.103982
  12 C :   -0.356153
  13 S :    0.095041
  14 P :    0.587276
  15 S :   -0.316935
  16 O :   -0.232271
  17 C :   -0.208724
  18 O :   -0.268289
  19 C :   -0.220596
  20 H :    0.124302
  21 H :    0.130688
  22 H :    0.131890
  23 H :    0.115931
  24 H :    0.119196
  25 H :    0.135564
  26 H :    0.142275
  27 H :    0.129394
  28 H :    0.123430
  29 H :    0.131464
  30 H :    0.134295
  31 H :    0.124175
  32 H :    0.109142
  33 H :    0.125403
  34 H :    0.114159
  35 H :    0.120236
  36 H :    0.108755
  37 H :    0.104469

  Mayer bond orders larger than 0.100000
B(  0-C ,  1-C ) :   1.1749 B(  0-C , 20-H ) :   0.9488 B(  0-C , 21-H ) :   0.9441
B(  0-C , 22-H ) :   0.9453 B(  1-C ,  2-O ) :   0.9181 B(  1-C , 23-H ) :   0.9373
B(  1-C , 24-H ) :   0.9140 B(  2-O ,  3-C ) :   1.1893 B(  3-C ,  4-O ) :   2.0707
B(  3-C ,  5-C ) :   1.0192 B(  5-C ,  6-C ) :   1.0281 B(  5-C , 25-H ) :   0.8775
B(  5-C , 26-H ) :   0.8856 B(  6-C ,  7-H ) :   0.8620 B(  6-C ,  8-C ) :   0.8969
B(  6-C , 13-S ) :   1.0232 B(  8-C ,  9-O ) :   1.9836 B(  8-C , 10-O ) :   1.2639
B( 10-O , 11-C ) :   0.8940 B( 11-C , 12-C ) :   1.1733 B( 11-C , 27-H ) :   0.9147
B( 11-C , 28-H ) :   0.9346 B( 12-C , 29-H ) :   0.9449 B( 12-C , 30-H ) :   0.9438
B( 12-C , 31-H ) :   0.9480 B( 13-S , 14-P ) :   0.9368 B( 13-S , 15-S ) :   0.1119
B( 14-P , 15-S ) :   1.6083 B( 14-P , 16-O ) :   1.1302 B( 14-P , 18-O ) :   1.0434
B( 16-O , 17-C ) :   0.9237 B( 17-C , 32-H ) :   0.9405 B( 17-C , 33-H ) :   0.9598
B( 17-C , 34-H ) :   0.9460 B( 18-O , 19-C ) :   0.9402 B( 19-C , 35-H ) :   0.9589
B( 19-C , 36-H ) :   0.9321 B( 19-C , 37-H ) :   0.9464

Dispersion correction           -0.051752645
FINAL SINGLE POINT ENERGY     -1979.013229520524

DIPOLE MOMENT
-------------

Method             : SCF
Type of density    : Electron Density
Multiplicity       :   1
Irrep              :   0
Energy             : -1979.1440615474775768 Eh
Relativity type    :
Basis              : AO
                                X                 Y                 Z
Electronic contribution:    -16.921861046      -2.105286831       4.990409729
Nuclear contribution   :     17.699733933       2.690163222      -6.650070435
                        -----------------------------------------
Total Dipole Moment    :      0.777872888       0.584876390      -1.659660706
                        -----------------------------------------
Magnitude (a.u.)       :      1.923964729
Magnitude (Debye)      :      4.890329701

Rotational constants in cm-1:             0.015764             0.006143             0.005327
Rotational constants in MHz :           472.580271           184.173814           159.705183

                             ****ORCA TERMINATED NORMALLY****
TOTAL RUN TIME: 0 days 0 hours 0 minutes 49 seconds 986 msec
