                         Program Version 6.0.0  -   RELEASE  -
|  1> ! pbe def2-sv(p) def2/J RI DEFGRID1 loosescf d4 GCP(DFT/SV(P)) printgap
|  2> %output
|  3>     printlevel normal
|  4> end
|  5> * xyz 0 1
|  6> C 2.4724929671 -3.2038586765 -1.5683026326
|  7> C 2.7593462172 -2.6381910472 -0.1920900044
|  8> O 3.2780870897 -1.2879673899 -0.2843342845
|  9> P 2.3812894748 0.0082853264 -0.1108193343
| 10> S 3.4946454715 1.6111134845 -0.1922391434
| 11> O 1.5265126102 -0.2181129812 1.2247039877
| 12> C 2.0813252701 0.0767367728 2.5271530069
| 13> C 1.7417202463 1.4875710691 2.96417142
| 14> S 0.8363601213 -0.1525334565 -1.5357631447
| 15> C 0.1979689167 1.529501923 -1.3340271203
| 16> S -0.7353840187 1.7558799755 0.196638661
| 17> P -2.283341298 0.3717782944 -0.2562133869
| 18> S -2.8633233044 0.3796030043 -2.1243604011
| 19> O -3.450947216 0.7830780132 0.7284129843
| 20> C -3.5501990292 0.4086238652 2.1247030639
| 21> C -2.3309102769 0.8075330197 2.9273633071
| 22> O -1.7341888663 -1.0204137949 0.3016103302
| 23> C -1.7116883639 -2.2314395647 -0.474391188
| 24> C -3.0444783672 -2.9475004633 -0.3861171556
| 25> H 3.3658992508 -3.1511445886 -2.1841069484
| 26> H 2.1659648783 -4.2404912274 -1.4699314782
| 27> H 1.6793165355 -2.6411759539 -2.056761616
| 28> H 3.5528012465 -3.1974446539 0.306799842
| 29> H 1.8615736619 -2.6312485543 0.4311151466
| 30> H 1.6276338709 -0.6636804764 3.1885979806
| 31> H 3.165350895 -0.0704675786 2.4958956994
| 32> H 0.6682788262 1.6472067984 2.9239188822
| 33> H 2.0938047201 1.6395945193 3.9793266103
| 34> H 2.2227427468 2.2108743162 2.309773356
| 35> H -0.4539052247 1.7149037169 -2.1878153276
| 36> H 1.0326958577 2.2307357266 -1.3082364602
| 37> H -4.4451725202 0.9355280931 2.4589264893
| 38> H -3.7135816548 -0.6699483511 2.1762930617
| 39> H -2.1355964863 1.8717789095 2.8140142193
| 40> H -2.5049495078 0.5844212349 3.9755794638
| 41> H -1.4616477576 0.2500751219 2.5831663896
| 42> H -1.4721849525 -1.9882502072 -1.5138282595
| 43> H -0.9043607465 -2.821995733 -0.0389294617
| 44> H -3.8277956278 -2.315176669 -0.8022232376
| 45> H -2.9955206421 -3.8684449315 -0.9580410122
| 46> H -3.2862589374 -3.1786096662 0.6478370938
| 47> *
| 48>
| 49>                          ****END OF INPUT****

CARTESIAN COORDINATES (ANGSTROEM)
---------------------------------
  C      2.472493   -3.203859   -1.568303
  C      2.759346   -2.638191   -0.192090
  O      3.278087   -1.287967   -0.284334
  P      2.381289    0.008285   -0.110819
  S      3.494645    1.611113   -0.192239
  O      1.526513   -0.218113    1.224704
  C      2.081325    0.076737    2.527153
  C      1.741720    1.487571    2.964171
  S      0.836360   -0.152533   -1.535763
  C      0.197969    1.529502   -1.334027
  S     -0.735384    1.755880    0.196639
  P     -2.283341    0.371778   -0.256213
  S     -2.863323    0.379603   -2.124360
  O     -3.450947    0.783078    0.728413
  C     -3.550199    0.408624    2.124703
  C     -2.330910    0.807533    2.927363
  O     -1.734189   -1.020414    0.301610
  C     -1.711688   -2.231440   -0.474391
  C     -3.044478   -2.947500   -0.386117
  H      3.365899   -3.151145   -2.184107
  H      2.165965   -4.240491   -1.469931
  H      1.679317   -2.641176   -2.056762
  H      3.552801   -3.197445    0.306800
  H      1.861574   -2.631249    0.431115
  H      1.627634   -0.663680    3.188598
  H      3.165351   -0.070468    2.495896
  H      0.668279    1.647207    2.923919
  H      2.093805    1.639595    3.979327
  H      2.222743    2.210874    2.309773
  H     -0.453905    1.714904   -2.187815
  H      1.032696    2.230736   -1.308236
  H     -4.445173    0.935528    2.458926
  H     -3.713582   -0.669948    2.176293
  H     -2.135596    1.871779    2.814014
  H     -2.504950    0.584421    3.975579
  H     -1.461648    0.250075    2.583166
  H     -1.472185   -1.988250   -1.513828
  H     -0.904361   -2.821996   -0.038929
  H     -3.827796   -2.315177   -0.802223
  H     -2.995521   -3.868445   -0.958041
  H     -3.286259   -3.178610    0.647837

 Total Charge           Charge          ....    0
 Multiplicity           Mult            ....    1
 Number of Electrons    NEL             ....  202
 Basis Dimension        Dim             ....  334

ORBITAL ENERGIES
----------------

  NO   OCC          E(Eh)            E(eV)
   0   2.0000     -88.044956     -2395.8251
   1   2.0000     -88.038366     -2395.6457
   2   2.0000     -87.987351     -2394.2575
   3   2.0000     -87.985685     -2394.2122
   4   2.0000     -76.428890     -2079.7358
   5   2.0000     -76.426910     -2079.6820
   6   2.0000     -18.798287      -511.5274
   7   2.0000     -18.795965      -511.4642
   8   2.0000     -18.793863      -511.4070
   9   2.0000     -18.791056      -511.3306
  10   2.0000      -9.964707      -271.1535
  11   2.0000      -9.963779      -271.1282
  12   2.0000      -9.955732      -270.9092
  13   2.0000      -9.954945      -270.8878
  14   2.0000      -9.952692      -270.8265
  15   2.0000      -9.895509      -269.2705
  16   2.0000      -9.895172      -269.2613
  17   2.0000      -9.887855      -269.0622
  18   2.0000      -9.879463      -268.8339
  19   2.0000      -7.689872      -209.2520
  20   2.0000      -7.683512      -209.0790
  21   2.0000      -7.632535      -207.6918
  22   2.0000      -7.631015      -207.6505
  23   2.0000      -6.426142      -174.8642
  24   2.0000      -6.424954      -174.8319
  25   2.0000      -5.717682      -155.5860
  26   2.0000      -5.714539      -155.5005
  27   2.0000      -5.711470      -155.4170
  28   2.0000      -5.708137      -155.3263
  29   2.0000      -5.706731      -155.2881
  30   2.0000      -5.700249      -155.1117
  31   2.0000      -5.661527      -154.0580
  32   2.0000      -5.660038      -154.0175
  33   2.0000      -5.653032      -153.8268
  34   2.0000      -5.652698      -153.8177
  35   2.0000      -5.651758      -153.7922
  36   2.0000      -5.650880      -153.7683
  37   2.0000      -4.649215      -126.5116
  38   2.0000      -4.648065      -126.4803
  39   2.0000      -4.647454      -126.4636
  40   2.0000      -4.646649      -126.4418
  41   2.0000      -4.646313      -126.4326
  42   2.0000      -4.645281      -126.4045
  43   2.0000      -0.988586       -26.9008
  44   2.0000      -0.987945       -26.8833
  45   2.0000      -0.946815       -25.7641
  46   2.0000      -0.945546       -25.7296
  47   2.0000      -0.766274       -20.8514
  48   2.0000      -0.725812       -19.7503
  49   2.0000      -0.714857       -19.4523
  50   2.0000      -0.697914       -18.9912
  51   2.0000      -0.693297       -18.8656
  52   2.0000      -0.676080       -18.3971
  53   2.0000      -0.653897       -17.7934
  54   2.0000      -0.638495       -17.3743
  55   2.0000      -0.600904       -16.3514
  56   2.0000      -0.588336       -16.0094
  57   2.0000      -0.583153       -15.8684
  58   2.0000      -0.582247       -15.8438
  59   2.0000      -0.558710       -15.2033
  60   2.0000      -0.512267       -13.9395
  61   2.0000      -0.498780       -13.5725
  62   2.0000      -0.481673       -13.1070
  63   2.0000      -0.477502       -12.9935
  64   2.0000      -0.460635       -12.5345
  65   2.0000      -0.450660       -12.2631
  66   2.0000      -0.449506       -12.2317
  67   2.0000      -0.438778       -11.9398
  68   2.0000      -0.432400       -11.7662
  69   2.0000      -0.420367       -11.4388
  70   2.0000      -0.411952       -11.2098
  71   2.0000      -0.398494       -10.8436
  72   2.0000      -0.393262       -10.7012
  73   2.0000      -0.386074       -10.5056
  74   2.0000      -0.383121       -10.4253
  75   2.0000      -0.375251       -10.2111
  76   2.0000      -0.370590       -10.0843
  77   2.0000      -0.365613        -9.9488
  78   2.0000      -0.362542        -9.8653
  79   2.0000      -0.358501        -9.7553
  80   2.0000      -0.353687        -9.6243
  81   2.0000      -0.350915        -9.5489
  82   2.0000      -0.349429        -9.5084
  83   2.0000      -0.342260        -9.3134
  84   2.0000      -0.336304        -9.1513
  85   2.0000      -0.321885        -8.7589
  86   2.0000      -0.312701        -8.5090
  87   2.0000      -0.307635        -8.3712
  88   2.0000      -0.305352        -8.3090
  89   2.0000      -0.290005        -7.8914
  90   2.0000      -0.284613        -7.7447
  91   2.0000      -0.280038        -7.6202
  92   2.0000      -0.275039        -7.4842
  93   2.0000      -0.272449        -7.4137
  94   2.0000      -0.259628        -7.0648
  95   2.0000      -0.232203        -6.3186
  96   2.0000      -0.217504        -5.9186
  97   2.0000      -0.212530        -5.7832
  98   2.0000      -0.202920        -5.5217
  99   2.0000      -0.199956        -5.4411
 100   2.0000      -0.198421        -5.3993
 101   0.0000      -0.045885        -1.2486
 102   0.0000      -0.022796        -0.6203
 103   0.0000      -0.003293        -0.0896
 104   0.0000      -0.001073        -0.0292
 105   0.0000       0.002892         0.0787

MULLIKEN ATOMIC CHARGES
-----------------------
   0 C :   -0.303017
   1 C :   -0.038153
   2 O :   -0.366321
   3 P :    0.616399
   4 S :   -0.310965
   5 O :   -0.379641
   6 C :   -0.010177
   7 C :   -0.306175
   8 S :   -0.102582
   9 C :   -0.350356
  10 S :   -0.083674
  11 P :    0.622604
  12 S :   -0.314274
  13 O :   -0.369603
  14 C :    0.015412
  15 C :   -0.377685
  16 O :   -0.384260
  17 C :   -0.019615
  18 C :   -0.295148
  19 H :    0.127999
  20 H :    0.111865
  21 H :    0.137358
  22 H :    0.112565
  23 H :    0.115777
  24 H :    0.100309
  25 H :    0.105290
  26 H :    0.129804
  27 H :    0.104666
  28 H :    0.127732
  29 H :    0.197828
  30 H :    0.187525
  31 H :    0.113464
  32 H :    0.106440
  33 H :    0.138554
  34 H :    0.118109
  35 H :    0.155767
  36 H :    0.118170
  37 H :    0.101677
  38 H :    0.125788
  39 H :    0.110480
  40 H :    0.110064
Sum of atomic charges:   -0.0000000

LOEWDIN ATOMIC CHARGES
----------------------
   0 C :   -0.361388
   1 C :   -0.118607
   2 O :   -0.243762
   3 P :    0.569371
   4 S :   -0.308155
   5 O :   -0.255742
   6 C :   -0.115816
   7 C :   -0.367426
   8 S :    0.096941
   9 C :   -0.483107
  10 S :    0.092679
  11 P :    0.576587
  12 S :   -0.308811
  13 O :   -0.243618
  14 C :   -0.106803
  15 C :   -0.379790
  16 O :   -0.249420
  17 C :   -0.125282
  18 C :   -0.362847
  19 H :    0.133166
  20 H :    0.130995
  21 H :    0.119372
  22 H :    0.122466
  23 H :    0.108922
  24 H :    0.114633
  25 H :    0.109588
  26 H :    0.122639
  27 H :    0.127330
  28 H :    0.124389
  29 H :    0.132534
  30 H :    0.130432
  31 H :    0.124270
  32 H :    0.113014
  33 H :    0.127759
  34 H :    0.133764
  35 H :    0.126033
  36 H :    0.105002
  37 H :    0.111869
  38 H :    0.125967
  39 H :    0.130528
  40 H :    0.120324

  Mayer bond orders larger than 0.100000
B(  0-C ,  1-C ) :   1.1696 B(  0-C , 19-H ) :   0.9450 B(  0-C , 20-H ) :   0.9382
B(  0-C , 21-H ) :   0.9329 B(  1-C ,  2-O ) :   0.9025 B(  1-C , 22-H ) :   0.9326
B(  1-C , 23-H ) :   0.9118 B(  2-O ,  3-P ) :   1.1201 B(  3-P ,  4-S ) :   1.6404
B(  3-P ,  5-O ) :   1.0772 B(  3-P ,  8-S ) :   0.9608 B(  4-S ,  8-S ) :   0.1009
B(  5-O ,  6-C ) :   0.8951 B(  6-C ,  7-C ) :   1.1747 B(  6-C , 24-H ) :   0.9328
B(  6-C , 25-H ) :   0.9163 B(  7-C , 26-H ) :   0.9388 B(  7-C , 27-H ) :   0.9379
B(  7-C , 28-H ) :   0.9302 B(  8-S ,  9-C ) :   0.9984 B(  9-C , 10-S ) :   1.0147
B(  9-C , 29-H ) :   0.8789 B(  9-C , 30-H ) :   0.8737 B( 10-S , 11-P ) :   0.9660
B( 10-S , 12-S ) :   0.1040 B( 11-P , 12-S ) :   1.6244 B( 11-P , 13-O ) :   1.1342
B( 11-P , 16-O ) :   1.0567 B( 13-O , 14-C ) :   0.9014 B( 14-C , 15-C ) :   1.1646
B( 14-C , 31-H ) :   0.9333 B( 14-C , 32-H ) :   0.9280 B( 15-C , 33-H ) :   0.9360
B( 15-C , 34-H ) :   0.9332 B( 15-C , 35-H ) :   0.9253 B( 16-O , 17-C ) :   0.9015
B( 17-C , 18-C ) :   1.1621 B( 17-C , 36-H ) :   0.9038 B( 17-C , 37-H ) :   0.9291
B( 18-C , 38-H ) :   0.9376 B( 18-C , 39-H ) :   0.9400 B( 18-C , 40-H ) :   0.9448

Dispersion correction           -0.067349138
FINAL SINGLE POINT ENERGY     -2929.515061586010

DIPOLE MOMENT
-------------

Method             : SCF
Type of density    : Electron Density
Multiplicity       :   1
Irrep              :   0
Energy             : -2929.6340464182594587 Eh
Relativity type    :
Basis              : AO
                                X                 Y                 Z
Electronic contribution:      3.331598453      15.849163159     -15.374835241
Nuclear contribution   :     -3.646484883     -17.687677102      17.135549312
                        -----------------------------------------
Total Dipole Moment    :     -0.314886429      -1.838513943       1.760714072
                        -----------------------------------------
Magnitude (a.u.)       :      2.565034312
Magnitude (Debye)      :      6.519799085

Rotational constants in cm-1:             0.010773             0.005946             0.005247
Rotational constants in MHz :           322.977565           178.268677           157.312076

                             ****ORCA TERMINATED NORMALLY****
TOTAL RUN TIME: 0 days 0 hours 0 minutes 22 seconds 257 msec
