                         Program Version 6.0.0  -   RELEASE  -
|  1> ! pbe def2-sv(p) def2/J RI DEFGRID1 loosescf d4 GCP(DFT/SV(P)) printgap
|  2> %output
|  3>     printlevel normal
|  4> end
|  5> * xyz 0 1
|  6> C 3.6293582712 -2.1722161316 -2.2902831218
|  7> C 4.6028562874 -1.4255543349 -1.4035213182
|  8> O 4.0826175236 -0.1484566295 -0.9585690131
|  9> P 2.8257103446 0.0707745058 -0.0380246606
| 10> S 2.873701642 1.8796974195 0.713513184
| 11> O 2.954314968 -1.1658894963 0.9594912095
| 12> C 1.9283885021 -1.6066452199 1.8632421732
| 13> C 1.7698627998 -0.6808086713 3.0521161406
| 14> S 1.0931311703 -0.3498128458 -1.2211477508
| 15> C 0.0190751141 0.9838206413 -0.646749064
| 16> S -0.9001221897 0.5744327668 0.8634405504
| 17> P -2.8327110519 0.2009521708 0.034593067
| 18> S -3.0532469138 0.661833764 -1.8656903291
| 19> O -3.8195111421 0.8578810721 1.0820918309
| 20> C -3.6840144698 2.1785748384 1.6340170149
| 21> C -3.616059732 3.2536608813 0.5678650292
| 22> O -3.2271260314 -1.290654338 0.3873113927
| 23> C -3.0385433167 -2.3856013022 -0.5234291506
| 24> C -1.6094154761 -2.8904693282 -0.4993135689
| 25> H 4.1121057323 -3.0666677088 -2.6716668694
| 26> H 2.7442270618 -2.4615236631 -1.7265986633
| 27> H 3.3210080558 -1.5486261927 -3.1256209875
| 28> H 5.5076600539 -1.1471125113 -1.9459706567
| 29> H 4.8636218548 -2.0134932028 -0.5218588672
| 30> H 0.9863840072 -1.6929966307 1.3129741457
| 31> H 2.2648780101 -2.5975605843 2.1739268532
| 32> H 1.4097249237 0.2941317795 2.7284925125
| 33> H 1.0505488318 -1.1066179082 3.7440169593
| 34> H 2.7233162547 -0.5488195945 3.5567716768
| 35> H -0.6953669056 1.1869188293 -1.4482985244
| 36> H 0.6389199951 1.8537281084 -0.4238900585
| 37> H -4.5757540493 2.2896809941 2.2534088266
| 38> H -2.7915605784 2.2016584899 2.2661202313
| 39> H -4.4678235027 3.1746139308 -0.1038756756
| 40> H -3.6196235668 4.2313909465 1.0390101273
| 41> H -2.7039362083 3.1483411922 -0.0189423569
| 42> H -3.7378655342 -3.145812799 -0.1719709489
| 43> H -3.3209878672 -2.0625304739 -1.5313774844
| 44> H -1.5374907167 -3.7924303622 -1.0983004442
| 45> H -0.9384288022 -2.1406685774 -0.9170501241
| 46> H -1.310599946 -3.111639511 0.5221914952
| 47> *
| 48>
| 49>                          ****END OF INPUT****

CARTESIAN COORDINATES (ANGSTROEM)
---------------------------------
  C      3.629358   -2.172216   -2.290283
  C      4.602856   -1.425554   -1.403521
  O      4.082618   -0.148457   -0.958569
  P      2.825710    0.070775   -0.038025
  S      2.873702    1.879697    0.713513
  O      2.954315   -1.165889    0.959491
  C      1.928389   -1.606645    1.863242
  C      1.769863   -0.680809    3.052116
  S      1.093131   -0.349813   -1.221148
  C      0.019075    0.983821   -0.646749
  S     -0.900122    0.574433    0.863441
  P     -2.832711    0.200952    0.034593
  S     -3.053247    0.661834   -1.865690
  O     -3.819511    0.857881    1.082092
  C     -3.684014    2.178575    1.634017
  C     -3.616060    3.253661    0.567865
  O     -3.227126   -1.290654    0.387311
  C     -3.038543   -2.385601   -0.523429
  C     -1.609415   -2.890469   -0.499314
  H      4.112106   -3.066668   -2.671667
  H      2.744227   -2.461524   -1.726599
  H      3.321008   -1.548626   -3.125621
  H      5.507660   -1.147113   -1.945971
  H      4.863622   -2.013493   -0.521859
  H      0.986384   -1.692997    1.312974
  H      2.264878   -2.597561    2.173927
  H      1.409725    0.294132    2.728493
  H      1.050549   -1.106618    3.744017
  H      2.723316   -0.548820    3.556772
  H     -0.695367    1.186919   -1.448299
  H      0.638920    1.853728   -0.423890
  H     -4.575754    2.289681    2.253409
  H     -2.791561    2.201658    2.266120
  H     -4.467824    3.174614   -0.103876
  H     -3.619624    4.231391    1.039010
  H     -2.703936    3.148341   -0.018942
  H     -3.737866   -3.145813   -0.171971
  H     -3.320988   -2.062530   -1.531377
  H     -1.537491   -3.792430   -1.098300
  H     -0.938429   -2.140669   -0.917050
  H     -1.310600   -3.111640    0.522191

 Total Charge           Charge          ....    0
 Multiplicity           Mult            ....    1
 Number of Electrons    NEL             ....  202
 Basis Dimension        Dim             ....  334

ORBITAL ENERGIES
----------------

  NO   OCC          E(Eh)            E(eV)
   0   2.0000     -88.049371     -2395.9452
   1   2.0000     -88.048068     -2395.9097
   2   2.0000     -87.994189     -2394.4436
   3   2.0000     -87.987590     -2394.2640
   4   2.0000     -76.431191     -2079.7985
   5   2.0000     -76.429970     -2079.7652
   6   2.0000     -18.797112      -511.4954
   7   2.0000     -18.795465      -511.4506
   8   2.0000     -18.793680      -511.4020
   9   2.0000     -18.790635      -511.3192
  10   2.0000      -9.961336      -271.0617
  11   2.0000      -9.957615      -270.9605
  12   2.0000      -9.956565      -270.9319
  13   2.0000      -9.952179      -270.8126
  14   2.0000      -9.950928      -270.7785
  15   2.0000      -9.895519      -269.2708
  16   2.0000      -9.885382      -268.9949
  17   2.0000      -9.885051      -268.9859
  18   2.0000      -9.881426      -268.8873
  19   2.0000      -7.693686      -209.3558
  20   2.0000      -7.692054      -209.3114
  21   2.0000      -7.638997      -207.8677
  22   2.0000      -7.632734      -207.6973
  23   2.0000      -6.428376      -174.9250
  24   2.0000      -6.427291      -174.8955
  25   2.0000      -5.721372      -155.6864
  26   2.0000      -5.719879      -155.6458
  27   2.0000      -5.718092      -155.5972
  28   2.0000      -5.716493      -155.5537
  29   2.0000      -5.711089      -155.4066
  30   2.0000      -5.709351      -155.3593
  31   2.0000      -5.667788      -154.2284
  32   2.0000      -5.661834      -154.0663
  33   2.0000      -5.659584      -154.0051
  34   2.0000      -5.659348      -153.9987
  35   2.0000      -5.653121      -153.8292
  36   2.0000      -5.652910      -153.8235
  37   2.0000      -4.650615      -126.5497
  38   2.0000      -4.650427      -126.5446
  39   2.0000      -4.650158      -126.5372
  40   2.0000      -4.649071      -126.5077
  41   2.0000      -4.648871      -126.5022
  42   2.0000      -4.647500      -126.4649
  43   2.0000      -0.992209       -26.9994
  44   2.0000      -0.991569       -26.9820
  45   2.0000      -0.947601       -25.7855
  46   2.0000      -0.946870       -25.7656
  47   2.0000      -0.764083       -20.7918
  48   2.0000      -0.725299       -19.7364
  49   2.0000      -0.716051       -19.4847
  50   2.0000      -0.694336       -18.8938
  51   2.0000      -0.685694       -18.6587
  52   2.0000      -0.682014       -18.5585
  53   2.0000      -0.654912       -17.8211
  54   2.0000      -0.641790       -17.4640
  55   2.0000      -0.603559       -16.4237
  56   2.0000      -0.595332       -16.1998
  57   2.0000      -0.583464       -15.8769
  58   2.0000      -0.573826       -15.6146
  59   2.0000      -0.562924       -15.3179
  60   2.0000      -0.504116       -13.7177
  61   2.0000      -0.497095       -13.5266
  62   2.0000      -0.477860       -13.0032
  63   2.0000      -0.469644       -12.7797
  64   2.0000      -0.460672       -12.5355
  65   2.0000      -0.451746       -12.2926
  66   2.0000      -0.443834       -12.0773
  67   2.0000      -0.432840       -11.7782
  68   2.0000      -0.430538       -11.7155
  69   2.0000      -0.426844       -11.6150
  70   2.0000      -0.415647       -11.3103
  71   2.0000      -0.409755       -11.1500
  72   2.0000      -0.405106       -11.0235
  73   2.0000      -0.392719       -10.6864
  74   2.0000      -0.382454       -10.4071
  75   2.0000      -0.377227       -10.2649
  76   2.0000      -0.366380        -9.9697
  77   2.0000      -0.358851        -9.7648
  78   2.0000      -0.355897        -9.6845
  79   2.0000      -0.352595        -9.5946
  80   2.0000      -0.349738        -9.5168
  81   2.0000      -0.347189        -9.4475
  82   2.0000      -0.342208        -9.3120
  83   2.0000      -0.342005        -9.3064
  84   2.0000      -0.337308        -9.1786
  85   2.0000      -0.322429        -8.7738
  86   2.0000      -0.313651        -8.5349
  87   2.0000      -0.301478        -8.2036
  88   2.0000      -0.300912        -8.1882
  89   2.0000      -0.294874        -8.0239
  90   2.0000      -0.290623        -7.9083
  91   2.0000      -0.280261        -7.6263
  92   2.0000      -0.274440        -7.4679
  93   2.0000      -0.264977        -7.2104
  94   2.0000      -0.263299        -7.1647
  95   2.0000      -0.236206        -6.4275
  96   2.0000      -0.224951        -6.1212
  97   2.0000      -0.214867        -5.8468
  98   2.0000      -0.209156        -5.6914
  99   2.0000      -0.204186        -5.5562
 100   2.0000      -0.201488        -5.4828
 101   0.0000      -0.048359        -1.3159
 102   0.0000      -0.038432        -1.0458
 103   0.0000      -0.014962        -0.4071
 104   0.0000      -0.000326        -0.0089
 105   0.0000       0.008956         0.2437

MULLIKEN ATOMIC CHARGES
-----------------------
   0 C :   -0.333272
   1 C :    0.003864
   2 O :   -0.358737
   3 P :    0.615353
   4 S :   -0.303536
   5 O :   -0.380628
   6 C :   -0.034620
   7 C :   -0.302113
   8 S :   -0.123027
   9 C :   -0.344869
  10 S :   -0.113243
  11 P :    0.599062
  12 S :   -0.321844
  13 O :   -0.356388
  14 C :   -0.006930
  15 C :   -0.311147
  16 O :   -0.352483
  17 C :   -0.005015
  18 C :   -0.328991
  19 H :    0.119390
  20 H :    0.129205
  21 H :    0.132070
  22 H :    0.113874
  23 H :    0.112809
  24 H :    0.125183
  25 H :    0.103438
  26 H :    0.132627
  27 H :    0.108096
  28 H :    0.117862
  29 H :    0.194271
  30 H :    0.196963
  31 H :    0.110590
  32 H :    0.114014
  33 H :    0.127331
  34 H :    0.113922
  35 H :    0.122345
  36 H :    0.105926
  37 H :    0.113724
  38 H :    0.109775
  39 H :    0.135157
  40 H :    0.119992
Sum of atomic charges:    0.0000000

LOEWDIN ATOMIC CHARGES
----------------------
   0 C :   -0.370939
   1 C :   -0.108661
   2 O :   -0.234191
   3 P :    0.567426
   4 S :   -0.294288
   5 O :   -0.246063
   6 C :   -0.122703
   7 C :   -0.367030
   8 S :    0.089155
   9 C :   -0.494279
  10 S :    0.082665
  11 P :    0.568985
  12 S :   -0.301925
  13 O :   -0.231879
  14 C :   -0.117056
  15 C :   -0.367464
  16 O :   -0.233675
  17 C :   -0.120343
  18 C :   -0.369860
  19 H :    0.134639
  20 H :    0.117004
  21 H :    0.130759
  22 H :    0.124443
  23 H :    0.115766
  24 H :    0.102458
  25 H :    0.117875
  26 H :    0.116375
  27 H :    0.129607
  28 H :    0.127926
  29 H :    0.124607
  30 H :    0.126377
  31 H :    0.122220
  32 H :    0.108076
  33 H :    0.130530
  34 H :    0.131222
  35 H :    0.120142
  36 H :    0.118912
  37 H :    0.108709
  38 H :    0.130212
  39 H :    0.110597
  40 H :    0.123668

  Mayer bond orders larger than 0.100000
B(  0-C ,  1-C ) :   1.1690 B(  0-C , 19-H ) :   0.9354 B(  0-C , 20-H ) :   0.9328
B(  0-C , 21-H ) :   0.9426 B(  1-C ,  2-O ) :   0.8988 B(  1-C , 22-H ) :   0.9334
B(  1-C , 23-H ) :   0.9269 B(  2-O ,  3-P ) :   1.1475 B(  3-P ,  4-S ) :   1.6536
B(  3-P ,  5-O ) :   1.0701 B(  3-P ,  8-S ) :   0.9329 B(  4-S ,  8-S ) :   0.1145
B(  4-S , 30-H ) :   0.1060 B(  5-O ,  6-C ) :   0.9127 B(  6-C ,  7-C ) :   1.1672
B(  6-C , 24-H ) :   0.9038 B(  6-C , 25-H ) :   0.9344 B(  7-C , 26-H ) :   0.9272
B(  7-C , 27-H ) :   0.9376 B(  7-C , 28-H ) :   0.9450 B(  8-S ,  9-C ) :   1.0155
B(  9-C , 10-S ) :   1.0051 B(  9-C , 29-H ) :   0.8471 B(  9-C , 30-H ) :   0.8552
B( 10-S , 11-P ) :   0.9362 B( 10-S , 12-S ) :   0.1219 B( 11-P , 12-S ) :   1.5959
B( 11-P , 13-O ) :   1.1372 B( 11-P , 16-O ) :   1.1288 B( 12-S , 29-H ) :   0.1164
B( 13-O , 14-C ) :   0.9152 B( 14-C , 15-C ) :   1.1633 B( 14-C , 31-H ) :   0.9331
B( 14-C , 32-H ) :   0.9224 B( 15-C , 33-H ) :   0.9436 B( 15-C , 34-H ) :   0.9362
B( 15-C , 35-H ) :   0.9365 B( 16-O , 17-C ) :   0.9164 B( 17-C , 18-C ) :   1.1597
B( 17-C , 36-H ) :   0.9332 B( 17-C , 37-H ) :   0.9092 B( 18-C , 38-H ) :   0.9376
B( 18-C , 39-H ) :   0.9283 B( 18-C , 40-H ) :   0.9413

Dispersion correction           -0.064382489
FINAL SINGLE POINT ENERGY     -2929.518905426992

DIPOLE MOMENT
-------------

Method             : SCF
Type of density    : Electron Density
Multiplicity       :   1
Irrep              :   0
Energy             : -2929.6395930838662025 Eh
Relativity type    :
Basis              : AO
                                X                 Y                 Z
Electronic contribution:      0.144370275      10.219824588      -3.322603779
Nuclear contribution   :     -0.066557760     -11.659369370       3.719436234
                        -----------------------------------------
Total Dipole Moment    :      0.077812514      -1.439544781       0.396832456
                        -----------------------------------------
Magnitude (a.u.)       :      1.495265850
Magnitude (Debye)      :      3.800663748

Rotational constants in cm-1:             0.012288             0.004576             0.004204
Rotational constants in MHz :           368.390462           137.178464           126.024228

                             ****ORCA TERMINATED NORMALLY****
TOTAL RUN TIME: 0 days 0 hours 0 minutes 20 seconds 962 msec
