                         Program Version 6.0.0  -   RELEASE  -
|  1> ! pbe def2-sv(p) def2/J RI DEFGRID1 loosescf d4 GCP(DFT/SV(P)) printgap
|  2> %output
|  3>     printlevel normal
|  4> end
|  5> * xyz 0 1
|  6> C 2.7218339046 -1.9150366299 -2.4495185387
|  7> C 3.9024955394 -1.4686936247 -1.6118874757
|  8> O 3.5735120376 -1.4076382094 -0.2131162461
|  9> P 2.5099789725 -0.3786327961 0.3630203908
| 10> S 2.5372250822 1.4022252772 -0.4734021067
| 11> O 2.8132739814 -0.3899388423 1.9207916666
| 12> C 3.7522744809 0.5237555198 2.5242201227
| 13> C 5.1769866201 0.220365903 2.1113250314
| 14> S 0.7208391336 -1.4948552163 0.4107586793
| 15> C -0.3222660672 -0.2165761507 1.1642769373
| 16> S -0.8505001383 1.0771923747 -0.0069384589
| 17> P -2.8380144891 0.367486772 -0.3100928645
| 18> S -3.9378755415 1.3851639789 -1.5685975412
| 19> O -3.4261519151 0.2069507638 1.1606872698
| 20> C -4.1816325175 1.2595688252 1.7842761456
| 21> C -3.3111513148 2.4406717702 2.1665506692
| 22> O -2.682522877 -1.1859497906 -0.5981336664
| 23> C -2.675244212 -1.7048521724 -1.9396854148
| 24> C -1.3844086766 -1.3839967335 -2.665560931
| 25> H 2.3169500408 -2.8480529599 -2.0649162115
| 26> H 1.9437378661 -1.1521843438 -2.421724996
| 27> H 3.0379008893 -2.0540319266 -3.4783104708
| 28> H 4.2450163272 -0.4790396529 -1.9307118146
| 29> H 4.7260506605 -2.1823051237 -1.6572662826
| 30> H 3.4773394963 1.5439878663 2.2366948904
| 31> H 3.6024229998 0.3833614773 3.5956415772
| 32> H 5.3039297187 0.4206951072 1.0483452154
| 33> H 5.857436377 0.8525897367 2.6731371283
| 34> H 5.4090175334 -0.82395167 2.3028664261
| 35> H 0.2386812495 0.2737375694 1.9561054171
| 36> H -1.2031821885 -0.7199899122 1.5557907973
| 37> H -4.9722870815 1.5747931056 1.0959555076
| 38> H -4.6225034678 0.7827984624 2.6609792475
| 39> H -2.490470437 2.1207821619 2.8036566452
| 40> H -2.901011175 2.9061181014 1.2705375779
| 41> H -3.9128658591 3.1715825885 2.697278078
| 42> H -2.8037706962 -2.7795917916 -1.8060005731
| 43> H -3.5332322149 -1.2890426132 -2.4780251115
| 44> H -0.5355981809 -1.771228514 -2.1074836807
| 45> H -1.4034804208 -1.8360182837 -3.651880097
| 46> H -1.2775064882 -0.3041878957 -2.7742448385
| 47> *
| 48>
| 49>                          ****END OF INPUT****

CARTESIAN COORDINATES (ANGSTROEM)
---------------------------------
  C      2.721834   -1.915037   -2.449519
  C      3.902496   -1.468694   -1.611887
  O      3.573512   -1.407638   -0.213116
  P      2.509979   -0.378633    0.363020
  S      2.537225    1.402225   -0.473402
  O      2.813274   -0.389939    1.920792
  C      3.752274    0.523756    2.524220
  C      5.176987    0.220366    2.111325
  S      0.720839   -1.494855    0.410759
  C     -0.322266   -0.216576    1.164277
  S     -0.850500    1.077192   -0.006938
  P     -2.838014    0.367487   -0.310093
  S     -3.937876    1.385164   -1.568598
  O     -3.426152    0.206951    1.160687
  C     -4.181633    1.259569    1.784276
  C     -3.311151    2.440672    2.166551
  O     -2.682523   -1.185950   -0.598134
  C     -2.675244   -1.704852   -1.939685
  C     -1.384409   -1.383997   -2.665561
  H      2.316950   -2.848053   -2.064916
  H      1.943738   -1.152184   -2.421725
  H      3.037901   -2.054032   -3.478310
  H      4.245016   -0.479040   -1.930712
  H      4.726051   -2.182305   -1.657266
  H      3.477339    1.543988    2.236695
  H      3.602423    0.383361    3.595642
  H      5.303930    0.420695    1.048345
  H      5.857436    0.852590    2.673137
  H      5.409018   -0.823952    2.302866
  H      0.238681    0.273738    1.956105
  H     -1.203182   -0.719990    1.555791
  H     -4.972287    1.574793    1.095956
  H     -4.622503    0.782798    2.660979
  H     -2.490470    2.120782    2.803657
  H     -2.901011    2.906118    1.270538
  H     -3.912866    3.171583    2.697278
  H     -2.803771   -2.779592   -1.806001
  H     -3.533232   -1.289043   -2.478025
  H     -0.535598   -1.771229   -2.107484
  H     -1.403480   -1.836018   -3.651880
  H     -1.277506   -0.304188   -2.774245

 Total Charge           Charge          ....    0
 Multiplicity           Mult            ....    1
 Number of Electrons    NEL             ....  202
 Basis Dimension        Dim             ....  334

ORBITAL ENERGIES
----------------

  NO   OCC          E(Eh)            E(eV)
   0   2.0000     -88.046993     -2395.8805
   1   2.0000     -88.038683     -2395.6543
   2   2.0000     -87.994066     -2394.4403
   3   2.0000     -87.986962     -2394.2470
   4   2.0000     -76.432084     -2079.8227
   5   2.0000     -76.422564     -2079.5637
   6   2.0000     -18.800970      -511.6004
   7   2.0000     -18.796634      -511.4824
   8   2.0000     -18.788470      -511.2603
   9   2.0000     -18.787946      -511.2460
  10   2.0000      -9.959494      -271.0116
  11   2.0000      -9.958719      -270.9905
  12   2.0000      -9.955989      -270.9162
  13   2.0000      -9.950741      -270.7734
  14   2.0000      -9.948288      -270.7067
  15   2.0000      -9.889732      -269.1133
  16   2.0000      -9.888164      -269.0706
  17   2.0000      -9.882396      -268.9137
  18   2.0000      -9.876398      -268.7505
  19   2.0000      -7.692194      -209.3152
  20   2.0000      -7.683078      -209.0672
  21   2.0000      -7.638725      -207.8603
  22   2.0000      -7.632116      -207.6804
  23   2.0000      -6.429702      -174.9611
  24   2.0000      -6.420298      -174.7052
  25   2.0000      -5.719952      -155.6478
  26   2.0000      -5.716838      -155.5631
  27   2.0000      -5.711211      -155.4100
  28   2.0000      -5.709080      -155.3520
  29   2.0000      -5.707601      -155.3117
  30   2.0000      -5.699907      -155.1023
  31   2.0000      -5.667513      -154.2209
  32   2.0000      -5.661072      -154.0456
  33   2.0000      -5.659412      -154.0004
  34   2.0000      -5.659065      -153.9910
  35   2.0000      -5.652677      -153.8172
  36   2.0000      -5.652311      -153.8072
  37   2.0000      -4.652262      -126.5945
  38   2.0000      -4.651480      -126.5732
  39   2.0000      -4.650142      -126.5368
  40   2.0000      -4.642579      -126.3310
  41   2.0000      -4.642544      -126.3301
  42   2.0000      -4.640518      -126.2749
  43   2.0000      -0.993330       -27.0299
  44   2.0000      -0.985850       -26.8263
  45   2.0000      -0.953437       -25.9443
  46   2.0000      -0.942775       -25.6542
  47   2.0000      -0.764447       -20.8017
  48   2.0000      -0.722492       -19.6600
  49   2.0000      -0.709045       -19.2941
  50   2.0000      -0.692867       -18.8539
  51   2.0000      -0.680037       -18.5048
  52   2.0000      -0.675933       -18.3931
  53   2.0000      -0.657805       -17.8998
  54   2.0000      -0.641420       -17.4539
  55   2.0000      -0.605046       -16.4641
  56   2.0000      -0.595175       -16.1955
  57   2.0000      -0.578868       -15.7518
  58   2.0000      -0.566560       -15.4169
  59   2.0000      -0.561882       -15.2896
  60   2.0000      -0.498887       -13.5754
  61   2.0000      -0.492805       -13.4099
  62   2.0000      -0.480061       -13.0631
  63   2.0000      -0.464753       -12.6466
  64   2.0000      -0.461464       -12.5571
  65   2.0000      -0.445627       -12.1261
  66   2.0000      -0.445394       -12.1198
  67   2.0000      -0.443467       -12.0673
  68   2.0000      -0.423318       -11.5191
  69   2.0000      -0.419521       -11.4157
  70   2.0000      -0.413693       -11.2572
  71   2.0000      -0.399104       -10.8602
  72   2.0000      -0.394942       -10.7469
  73   2.0000      -0.392504       -10.6806
  74   2.0000      -0.386633       -10.5208
  75   2.0000      -0.381894       -10.3919
  76   2.0000      -0.369503       -10.0547
  77   2.0000      -0.360648        -9.8137
  78   2.0000      -0.354569        -9.6483
  79   2.0000      -0.350964        -9.5502
  80   2.0000      -0.350147        -9.5280
  81   2.0000      -0.344619        -9.3776
  82   2.0000      -0.344060        -9.3624
  83   2.0000      -0.334859        -9.1120
  84   2.0000      -0.328960        -8.9515
  85   2.0000      -0.319729        -8.7003
  86   2.0000      -0.318478        -8.6662
  87   2.0000      -0.302522        -8.2321
  88   2.0000      -0.298310        -8.1174
  89   2.0000      -0.289025        -7.8648
  90   2.0000      -0.285375        -7.7655
  91   2.0000      -0.279688        -7.6107
  92   2.0000      -0.270496        -7.3606
  93   2.0000      -0.264658        -7.2017
  94   2.0000      -0.261564        -7.1175
  95   2.0000      -0.236731        -6.4418
  96   2.0000      -0.215917        -5.8754
  97   2.0000      -0.212758        -5.7894
  98   2.0000      -0.205153        -5.5825
  99   2.0000      -0.204344        -5.5605
 100   2.0000      -0.202857        -5.5200
 101   0.0000      -0.043009        -1.1703
 102   0.0000      -0.026743        -0.7277
 103   0.0000      -0.014303        -0.3892
 104   0.0000      -0.003423        -0.0931
 105   0.0000       0.015474         0.4211

MULLIKEN ATOMIC CHARGES
-----------------------
   0 C :   -0.343538
   1 C :    0.001609
   2 O :   -0.371166
   3 P :    0.593058
   4 S :   -0.315167
   5 O :   -0.370687
   6 C :   -0.006740
   7 C :   -0.306888
   8 S :   -0.064313
   9 C :   -0.358986
  10 S :   -0.042816
  11 P :    0.567824
  12 S :   -0.316906
  13 O :   -0.370669
  14 C :   -0.003349
  15 C :   -0.310606
  16 O :   -0.371263
  17 C :    0.000178
  18 C :   -0.343497
  19 H :    0.122337
  20 H :    0.148793
  21 H :    0.117374
  22 H :    0.113355
  23 H :    0.108279
  24 H :    0.111655
  25 H :    0.106193
  26 H :    0.122356
  27 H :    0.114044
  28 H :    0.119385
  29 H :    0.186262
  30 H :    0.198693
  31 H :    0.113194
  32 H :    0.104921
  33 H :    0.109779
  34 H :    0.130130
  35 H :    0.111808
  36 H :    0.103427
  37 H :    0.111957
  38 H :    0.142454
  39 H :    0.107075
  40 H :    0.130447
Sum of atomic charges:   -0.0000000

LOEWDIN ATOMIC CHARGES
----------------------
   0 C :   -0.371899
   1 C :   -0.117811
   2 O :   -0.241770
   3 P :    0.568159
   4 S :   -0.314566
   5 O :   -0.244378
   6 C :   -0.119617
   7 C :   -0.364192
   8 S :    0.106076
   9 C :   -0.477117
  10 S :    0.095941
  11 P :    0.566483
  12 S :   -0.316477
  13 O :   -0.246208
  14 C :   -0.118942
  15 C :   -0.367541
  16 O :   -0.244611
  17 C :   -0.117362
  18 C :   -0.375339
  19 H :    0.124772
  20 H :    0.126721
  21 H :    0.133764
  22 H :    0.112282
  23 H :    0.120239
  24 H :    0.110297
  25 H :    0.119075
  26 H :    0.122748
  27 H :    0.131387
  28 H :    0.127636
  29 H :    0.132862
  30 H :    0.137889
  31 H :    0.111038
  32 H :    0.118142
  33 H :    0.121669
  34 H :    0.122880
  35 H :    0.130226
  36 H :    0.118229
  37 H :    0.109673
  38 H :    0.117434
  39 H :    0.128517
  40 H :    0.123690

  Mayer bond orders larger than 0.100000
B(  0-C ,  1-C ) :   1.1639 B(  0-C , 19-H ) :   0.9437 B(  0-C , 20-H ) :   0.9272
B(  0-C , 21-H ) :   0.9363 B(  1-C ,  2-O ) :   0.9033 B(  1-C , 22-H ) :   0.9166
B(  1-C , 23-H ) :   0.9329 B(  2-O ,  3-P ) :   1.1098 B(  3-P ,  4-S ) :   1.6074
B(  3-P ,  5-O ) :   1.1082 B(  3-P ,  8-S ) :   0.9733 B(  4-S ,  8-S ) :   0.1150
B(  5-O ,  6-C ) :   0.9042 B(  6-C ,  7-C ) :   1.1670 B(  6-C , 24-H ) :   0.9148
B(  6-C , 25-H ) :   0.9340 B(  7-C , 26-H ) :   0.9374 B(  7-C , 27-H ) :   0.9387
B(  7-C , 28-H ) :   0.9459 B(  8-S ,  9-C ) :   0.9904 B(  9-C , 10-S ) :   0.9825
B(  9-C , 29-H ) :   0.8946 B(  9-C , 30-H ) :   0.8866 B( 10-S , 11-P ) :   0.9790
B( 11-P , 12-S ) :   1.6362 B( 11-P , 13-O ) :   1.0761 B( 11-P , 16-O ) :   1.0936
B( 13-O , 14-C ) :   0.9140 B( 14-C , 15-C ) :   1.1623 B( 14-C , 31-H ) :   0.9150
B( 14-C , 32-H ) :   0.9349 B( 15-C , 33-H ) :   0.9472 B( 15-C , 34-H ) :   0.9358
B( 15-C , 35-H ) :   0.9385 B( 16-O , 17-C ) :   0.9096 B( 17-C , 18-C ) :   1.1625
B( 17-C , 36-H ) :   0.9335 B( 17-C , 37-H ) :   0.9158 B( 18-C , 38-H ) :   0.9253
B( 18-C , 39-H ) :   0.9366 B( 18-C , 40-H ) :   0.9373

Dispersion correction           -0.064417243
FINAL SINGLE POINT ENERGY     -2929.520718215666

DIPOLE MOMENT
-------------

Method             : SCF
Type of density    : Electron Density
Multiplicity       :   1
Irrep              :   0
Energy             : -2929.6416877280394147 Eh
Relativity type    :
Basis              : AO
                                X                 Y                 Z
Electronic contribution:     -9.178412003       3.145711514      -0.627680592
Nuclear contribution   :     10.194738247      -4.048692142       1.465800479
                        -----------------------------------------
Total Dipole Moment    :      1.016326244      -0.902980628       0.838119886
                        -----------------------------------------
Magnitude (a.u.)       :      1.597103000
Magnitude (Debye)      :      4.059513211

Rotational constants in cm-1:             0.013180             0.004496             0.003870
Rotational constants in MHz :           395.115509           134.788808           116.026202

                             ****ORCA TERMINATED NORMALLY****
TOTAL RUN TIME: 0 days 0 hours 0 minutes 20 seconds 897 msec
