                         Program Version 6.0.0  -   RELEASE  -
|  1> ! pbe def2-sv(p) def2/J RI DEFGRID1 loosescf d4 GCP(DFT/SV(P)) printgap
|  2> %output
|  3>     printlevel normal
|  4> end
|  5> * xyz 0 1
|  6> C 4.5594371313 1.2518465525 -1.5357546094
|  7> C 4.6573138424 -0.0435219822 -0.7559400576
|  8> O 3.3946408616 -0.7284563016 -0.6811044056
|  9> P 2.1709759675 -0.1655080756 0.16186168
| 10> S 2.6569791954 0.6821837854 1.8638578459
| 11> O 1.2241584966 -1.4297240657 0.2475874821
| 12> C 1.2535463856 -2.357987754 1.3495227868
| 13> C 2.5655102912 -3.1093612894 1.4233100597
| 14> S 1.0832186734 0.9967195985 -1.2201788632
| 15> C 0.074756652 1.8855613159 0.0048305767
| 16> S -0.9781368301 0.8166863601 1.0170032386
| 17> P -2.2262604868 0.011131741 -0.5315728401
| 18> S -1.5194260744 -1.4948952439 -1.5664262844
| 19> O -2.5956650904 1.2499674282 -1.4378090793
| 20> C -3.7153034556 2.1483562393 -1.2244813406
| 21> C -3.5757600337 2.9795059005 0.0337821819
| 22> O -3.5901587039 -0.3056918126 0.2213309155
| 23> C -3.8244682905 -1.5729781501 0.8574568697
| 24> C -2.9595075581 -1.7504697819 2.0882584288
| 25> H 3.9441167575 1.9678944524 -0.9923244121
| 26> H 5.5529558829 1.6683258556 -1.6671217978
| 27> H 4.1095756009 1.0733291258 -2.509486947
| 28> H 5.0061558056 0.1483687035 0.2640365022
| 29> H 5.3157899877 -0.7615629536 -1.2464901291
| 30> H 1.070848025 -1.7995345299 2.2739860163
| 31> H 0.4155752634 -3.0264328604 1.1428630859
| 32> H 2.5054401388 -3.8617795407 2.2033576297
| 33> H 2.7757749155 -3.5882618704 0.4703050164
| 34> H 3.3746719874 -2.4182594703 1.6578244239
| 35> H -0.531747282 2.5877179989 -0.5614026035
| 36> H 0.729221219 2.4002820529 0.7083624855
| 37> H -3.7068005135 2.7687697367 -2.1220481339
| 38> H -4.6278509815 1.5511537843 -1.1934554873
| 39> H -3.54854537 2.336555778 0.910507711
| 40> H -2.6696346704 3.579334135 0.0072525909
| 41> H -4.4324626969 3.6421992253 0.1098147721
| 42> H -4.8857981961 -1.5498784678 1.1079372716
| 43> H -3.6276858078 -2.3670193976 0.1296771083
| 44> H -3.1046979857 -0.924396367 2.7794743552
| 45> H -3.214613202 -2.68364898 2.5796957689
| 46> H -1.909508154 -1.7790285388 1.797181414
| 47> *
| 48>
| 49>                          ****END OF INPUT****

CARTESIAN COORDINATES (ANGSTROEM)
---------------------------------
  C      4.559437    1.251847   -1.535755
  C      4.657314   -0.043522   -0.755940
  O      3.394641   -0.728456   -0.681104
  P      2.170976   -0.165508    0.161862
  S      2.656979    0.682184    1.863858
  O      1.224158   -1.429724    0.247587
  C      1.253546   -2.357988    1.349523
  C      2.565510   -3.109361    1.423310
  S      1.083219    0.996720   -1.220179
  C      0.074757    1.885561    0.004831
  S     -0.978137    0.816686    1.017003
  P     -2.226260    0.011132   -0.531573
  S     -1.519426   -1.494895   -1.566426
  O     -2.595665    1.249967   -1.437809
  C     -3.715303    2.148356   -1.224481
  C     -3.575760    2.979506    0.033782
  O     -3.590159   -0.305692    0.221331
  C     -3.824468   -1.572978    0.857457
  C     -2.959508   -1.750470    2.088258
  H      3.944117    1.967894   -0.992324
  H      5.552956    1.668326   -1.667122
  H      4.109576    1.073329   -2.509487
  H      5.006156    0.148369    0.264037
  H      5.315790   -0.761563   -1.246490
  H      1.070848   -1.799535    2.273986
  H      0.415575   -3.026433    1.142863
  H      2.505440   -3.861780    2.203358
  H      2.775775   -3.588262    0.470305
  H      3.374672   -2.418259    1.657824
  H     -0.531747    2.587718   -0.561403
  H      0.729221    2.400282    0.708362
  H     -3.706801    2.768770   -2.122048
  H     -4.627851    1.551154   -1.193455
  H     -3.548545    2.336556    0.910508
  H     -2.669635    3.579334    0.007253
  H     -4.432463    3.642199    0.109815
  H     -4.885798   -1.549878    1.107937
  H     -3.627686   -2.367019    0.129677
  H     -3.104698   -0.924396    2.779474
  H     -3.214613   -2.683649    2.579696
  H     -1.909508   -1.779029    1.797181

 Total Charge           Charge          ....    0
 Multiplicity           Mult            ....    1
 Number of Electrons    NEL             ....  202
 Basis Dimension        Dim             ....  334

ORBITAL ENERGIES
----------------

  NO   OCC          E(Eh)            E(eV)
   0   2.0000     -88.037814     -2395.6307
   1   2.0000     -88.036441     -2395.5934
   2   2.0000     -87.985360     -2394.2034
   3   2.0000     -87.975466     -2393.9341
   4   2.0000     -76.423739     -2079.5957
   5   2.0000     -76.422010     -2079.5486
   6   2.0000     -18.795800      -511.4597
   7   2.0000     -18.792839      -511.3792
   8   2.0000     -18.789613      -511.2914
   9   2.0000     -18.780137      -511.0335
  10   2.0000      -9.960391      -271.0360
  11   2.0000      -9.955214      -270.8951
  12   2.0000      -9.955198      -270.8947
  13   2.0000      -9.949617      -270.7428
  14   2.0000      -9.943887      -270.5869
  15   2.0000      -9.891559      -269.1630
  16   2.0000      -9.889038      -269.0944
  17   2.0000      -9.881450      -268.8879
  18   2.0000      -9.878033      -268.7949
  19   2.0000      -7.682216      -209.0437
  20   2.0000      -7.681721      -209.0302
  21   2.0000      -7.630333      -207.6319
  22   2.0000      -7.620658      -207.3686
  23   2.0000      -6.420969      -174.7235
  24   2.0000      -6.419433      -174.6816
  25   2.0000      -5.710122      -155.3803
  26   2.0000      -5.709608      -155.3663
  27   2.0000      -5.706909      -155.2929
  28   2.0000      -5.706417      -155.2795
  29   2.0000      -5.699084      -155.0800
  30   2.0000      -5.698405      -155.0615
  31   2.0000      -5.659015      -153.9896
  32   2.0000      -5.651112      -153.7746
  33   2.0000      -5.650595      -153.7605
  34   2.0000      -5.649706      -153.7363
  35   2.0000      -5.641494      -153.5129
  36   2.0000      -5.640473      -153.4851
  37   2.0000      -4.644421      -126.3811
  38   2.0000      -4.642564      -126.3306
  39   2.0000      -4.641797      -126.3097
  40   2.0000      -4.641152      -126.2922
  41   2.0000      -4.640771      -126.2818
  42   2.0000      -4.640160      -126.2652
  43   2.0000      -0.990090       -26.9417
  44   2.0000      -0.981120       -26.6976
  45   2.0000      -0.947100       -25.7719
  46   2.0000      -0.939732       -25.5714
  47   2.0000      -0.760422       -20.6921
  48   2.0000      -0.718674       -19.5561
  49   2.0000      -0.706770       -19.2322
  50   2.0000      -0.694633       -18.9019
  51   2.0000      -0.682839       -18.5810
  52   2.0000      -0.671701       -18.2779
  53   2.0000      -0.648901       -17.6575
  54   2.0000      -0.634529       -17.2664
  55   2.0000      -0.597897       -16.2696
  56   2.0000      -0.591371       -16.0920
  57   2.0000      -0.583474       -15.8771
  58   2.0000      -0.567638       -15.4462
  59   2.0000      -0.557886       -15.1808
  60   2.0000      -0.498537       -13.5659
  61   2.0000      -0.487794       -13.2735
  62   2.0000      -0.474556       -12.9133
  63   2.0000      -0.469591       -12.7782
  64   2.0000      -0.459352       -12.4996
  65   2.0000      -0.447907       -12.1882
  66   2.0000      -0.435763       -11.8577
  67   2.0000      -0.433260       -11.7896
  68   2.0000      -0.428507       -11.6603
  69   2.0000      -0.418277       -11.3819
  70   2.0000      -0.408148       -11.1063
  71   2.0000      -0.400270       -10.8919
  72   2.0000      -0.388658       -10.5759
  73   2.0000      -0.382498       -10.4083
  74   2.0000      -0.379518       -10.3272
  75   2.0000      -0.374408       -10.1881
  76   2.0000      -0.368454       -10.0261
  77   2.0000      -0.361036        -9.8243
  78   2.0000      -0.356658        -9.7052
  79   2.0000      -0.352248        -9.5851
  80   2.0000      -0.346472        -9.4280
  81   2.0000      -0.344325        -9.3696
  82   2.0000      -0.343160        -9.3379
  83   2.0000      -0.336703        -9.1622
  84   2.0000      -0.329763        -8.9733
  85   2.0000      -0.323265        -8.7965
  86   2.0000      -0.309342        -8.4176
  87   2.0000      -0.300005        -8.1636
  88   2.0000      -0.295095        -8.0299
  89   2.0000      -0.291614        -7.9352
  90   2.0000      -0.277273        -7.5450
  91   2.0000      -0.273421        -7.4402
  92   2.0000      -0.268164        -7.2971
  93   2.0000      -0.260428        -7.0866
  94   2.0000      -0.256470        -6.9789
  95   2.0000      -0.231607        -6.3024
  96   2.0000      -0.214204        -5.8288
  97   2.0000      -0.207256        -5.6397
  98   2.0000      -0.202361        -5.5065
  99   2.0000      -0.190718        -5.1897
 100   2.0000      -0.183112        -4.9827
 101   0.0000      -0.045167        -1.2291
 102   0.0000      -0.019879        -0.5409
 103   0.0000      -0.009862        -0.2684
 104   0.0000       0.002133         0.0580
 105   0.0000       0.018607         0.5063

MULLIKEN ATOMIC CHARGES
-----------------------
   0 C :   -0.314803
   1 C :   -0.003928
   2 O :   -0.369150
   3 P :    0.617225
   4 S :   -0.348029
   5 O :   -0.344515
   6 C :   -0.019953
   7 C :   -0.295366
   8 S :   -0.063569
   9 C :   -0.357896
  10 S :   -0.103133
  11 P :    0.606681
  12 S :   -0.291645
  13 O :   -0.376289
  14 C :    0.009880
  15 C :   -0.327696
  16 O :   -0.385180
  17 C :    0.001510
  18 C :   -0.347446
  19 H :    0.123909
  20 H :    0.111840
  21 H :    0.120392
  22 H :    0.109967
  23 H :    0.105749
  24 H :    0.110761
  25 H :    0.113480
  26 H :    0.108067
  27 H :    0.118723
  28 H :    0.119447
  29 H :    0.183962
  30 H :    0.190347
  31 H :    0.111160
  32 H :    0.111411
  33 H :    0.133492
  34 H :    0.120798
  35 H :    0.113834
  36 H :    0.104233
  37 H :    0.112469
  38 H :    0.121266
  39 H :    0.116758
  40 H :    0.151236
Sum of atomic charges:   -0.0000000

LOEWDIN ATOMIC CHARGES
----------------------
   0 C :   -0.369537
   1 C :   -0.119317
   2 O :   -0.241786
   3 P :    0.575108
   4 S :   -0.333959
   5 O :   -0.227054
   6 C :   -0.118197
   7 C :   -0.365354
   8 S :    0.101001
   9 C :   -0.480259
  10 S :    0.075839
  11 P :    0.568087
  12 S :   -0.300860
  13 O :   -0.244756
  14 C :   -0.107000
  15 C :   -0.368124
  16 O :   -0.247701
  17 C :   -0.119815
  18 C :   -0.372545
  19 H :    0.119977
  20 H :    0.130441
  21 H :    0.125554
  22 H :    0.109614
  23 H :    0.118958
  24 H :    0.109109
  25 H :    0.117738
  26 H :    0.128807
  27 H :    0.127557
  28 H :    0.120723
  29 H :    0.126512
  30 H :    0.131157
  31 H :    0.122282
  32 H :    0.116663
  33 H :    0.123049
  34 H :    0.123839
  35 H :    0.132295
  36 H :    0.118131
  37 H :    0.111355
  38 H :    0.125896
  39 H :    0.133254
  40 H :    0.123320

  Mayer bond orders larger than 0.100000
B(  0-C ,  1-C ) :   1.1661 B(  0-C , 19-H ) :   0.9353 B(  0-C , 20-H ) :   0.9379
B(  0-C , 21-H ) :   0.9447 B(  1-C ,  2-O ) :   0.9094 B(  1-C , 22-H ) :   0.9155
B(  1-C , 23-H ) :   0.9338 B(  2-O ,  3-P ) :   1.1107 B(  3-P ,  4-S ) :   1.5738
B(  3-P ,  5-O ) :   1.1453 B(  3-P ,  8-S ) :   0.9644 B(  4-S ,  8-S ) :   0.1102
B(  5-O ,  6-C ) :   0.9095 B(  6-C ,  7-C ) :   1.1607 B(  6-C , 24-H ) :   0.9184
B(  6-C , 25-H ) :   0.9244 B(  7-C , 26-H ) :   0.9392 B(  7-C , 27-H ) :   0.9446
B(  7-C , 28-H ) :   0.9347 B(  8-S ,  9-C ) :   1.0057 B(  9-C , 10-S ) :   1.0053
B(  9-C , 29-H ) :   0.8926 B(  9-C , 30-H ) :   0.8863 B( 10-S , 11-P ) :   0.9303
B( 10-S , 12-S ) :   0.1112 B( 11-P , 12-S ) :   1.6957 B( 11-P , 13-O ) :   1.1073
B( 11-P , 16-O ) :   1.0596 B( 13-O , 14-C ) :   0.8949 B( 14-C , 15-C ) :   1.1679
B( 14-C , 31-H ) :   0.9355 B( 14-C , 32-H ) :   0.9270 B( 15-C , 33-H ) :   0.9350
B( 15-C , 34-H ) :   0.9432 B( 15-C , 35-H ) :   0.9353 B( 16-O , 17-C ) :   0.9074
B( 17-C , 18-C ) :   1.1634 B( 17-C , 36-H ) :   0.9326 B( 17-C , 37-H ) :   0.9108
B( 18-C , 38-H ) :   0.9432 B( 18-C , 39-H ) :   0.9378 B( 18-C , 40-H ) :   0.9242

Dispersion correction           -0.067684596
FINAL SINGLE POINT ENERGY     -2929.515279222864

DIPOLE MOMENT
-------------

Method             : SCF
Type of density    : Electron Density
Multiplicity       :   1
Irrep              :   0
Energy             : -2929.6328825295508977 Eh
Relativity type    :
Basis              : AO
                                X                 Y                 Z
Electronic contribution:      0.648848383       1.272469814      -7.280116924
Nuclear contribution   :     -1.378780154      -0.880835526       7.667772242
                        -----------------------------------------
Total Dipole Moment    :     -0.729931770       0.391634289       0.387655318
                        -----------------------------------------
Magnitude (a.u.)       :      0.914578838
Magnitude (Debye)      :      2.324674661

Rotational constants in cm-1:             0.012681             0.005358             0.004711
Rotational constants in MHz :           380.165333           160.631224           141.243690

                             ****ORCA TERMINATED NORMALLY****
TOTAL RUN TIME: 0 days 0 hours 0 minutes 21 seconds 636 msec
