                         Program Version 6.0.0  -   RELEASE  -
|  1> ! pbe def2-sv(p) def2/J RI DEFGRID1 loosescf d4 GCP(DFT/SV(P)) printgap
|  2> %output
|  3>     printlevel normal
|  4> end
|  5> * xyz 0 1
|  6> C 3.6725514193 1.3079144871 -1.386949243
|  7> C 3.2210865601 2.056297504 -0.1507780146
|  8> O 1.9778611544 1.5448538641 0.3862309888
|  9> P 1.767589412 0.0889234993 0.9623902449
| 10> S 0.3164031313 -0.0179382067 2.2761131421
| 11> O 3.2146665121 -0.1992062807 1.5708446568
| 12> C 3.4535618993 -1.2031749331 2.5699579958
| 13> C 3.1904419828 -2.6063699488 2.0623135464
| 14> S 1.6332344337 -1.2376211351 -0.7041623414
| 15> C 0.0005290224 -1.9668419173 -0.4372170085
| 16> S -1.2018077784 -1.5131573645 -1.7314182839
| 17> P -2.0463255881 0.2046410255 -0.8840907011
| 18> S -3.4607642094 1.0883520456 -1.9085123068
| 19> O -0.7299712197 1.0619970628 -0.6088943371
| 20> C -0.8657323312 2.4678310229 -0.2951702641
| 21> C -0.4347572234 3.3024711364 -1.4826374451
| 22> O -2.4775200184 -0.1760329322 0.6057671886
| 23> C -3.8000505077 -0.6393455503 0.9210343044
| 24> C -4.0396121352 -2.0484650887 0.416952691
| 25> H 3.9299230827 0.2805825004 -1.134756769
| 26> H 2.8842313478 1.2939358501 -2.1359868758
| 27> H 4.5473604617 1.8006153843 -1.7999776008
| 28> H 2.9859202183 3.0985004945 -0.3739367542
| 29> H 3.9795013302 2.0070640163 0.6327368087
| 30> H 4.5030161546 -1.0616856271 2.8325089652
| 31> H 2.8209606993 -0.9844523422 3.4358602397
| 32> H 2.1242298666 -2.7448758784 1.8898197224
| 33> H 3.7256161714 -2.7818459761 1.1326956712
| 34> H 3.5196321776 -3.3221252169 2.8087856889
| 35> H -0.3758839598 -1.6486627217 0.5389172495
| 36> H 0.1022178832 -3.0465457294 -0.501880108
| 37> H -1.9057952137 2.6745196248 -0.0256162918
| 38> H -0.2289378452 2.6352774001 0.5751407164
| 39> H 0.578313281 3.0388646489 -1.7728810181
| 40> H -1.1023050092 3.1221842215 -2.322997964
| 41> H -0.4745228653 4.3531619188 -1.214210715
| 42> H -3.844104975 -0.5835238886 2.0097562556
| 43> H -4.5229899401 0.0554449795 0.4807618552
| 44> H -5.0218753254 -2.379881484 0.7379372285
| 45> H -3.9990677592 -2.0649387202 -0.6719867886
| 46> H -3.2856731975 -2.7255688073 0.8101824781
| 47> *
| 48>
| 49>                          ****END OF INPUT****

CARTESIAN COORDINATES (ANGSTROEM)
---------------------------------
  C      3.672551    1.307914   -1.386949
  C      3.221087    2.056298   -0.150778
  O      1.977861    1.544854    0.386231
  P      1.767589    0.088923    0.962390
  S      0.316403   -0.017938    2.276113
  O      3.214667   -0.199206    1.570845
  C      3.453562   -1.203175    2.569958
  C      3.190442   -2.606370    2.062314
  S      1.633234   -1.237621   -0.704162
  C      0.000529   -1.966842   -0.437217
  S     -1.201808   -1.513157   -1.731418
  P     -2.046326    0.204641   -0.884091
  S     -3.460764    1.088352   -1.908512
  O     -0.729971    1.061997   -0.608894
  C     -0.865732    2.467831   -0.295170
  C     -0.434757    3.302471   -1.482637
  O     -2.477520   -0.176033    0.605767
  C     -3.800051   -0.639346    0.921034
  C     -4.039612   -2.048465    0.416953
  H      3.929923    0.280583   -1.134757
  H      2.884231    1.293936   -2.135987
  H      4.547360    1.800615   -1.799978
  H      2.985920    3.098500   -0.373937
  H      3.979501    2.007064    0.632737
  H      4.503016   -1.061686    2.832509
  H      2.820961   -0.984452    3.435860
  H      2.124230   -2.744876    1.889820
  H      3.725616   -2.781846    1.132696
  H      3.519632   -3.322125    2.808786
  H     -0.375884   -1.648663    0.538917
  H      0.102218   -3.046546   -0.501880
  H     -1.905795    2.674520   -0.025616
  H     -0.228938    2.635277    0.575141
  H      0.578313    3.038865   -1.772881
  H     -1.102305    3.122184   -2.322998
  H     -0.474523    4.353162   -1.214211
  H     -3.844105   -0.583524    2.009756
  H     -4.522990    0.055445    0.480762
  H     -5.021875   -2.379881    0.737937
  H     -3.999068   -2.064939   -0.671987
  H     -3.285673   -2.725569    0.810182

 Total Charge           Charge          ....    0
 Multiplicity           Mult            ....    1
 Number of Electrons    NEL             ....  202
 Basis Dimension        Dim             ....  334

ORBITAL ENERGIES
----------------

  NO   OCC          E(Eh)            E(eV)
   0   2.0000     -88.043941     -2395.7974
   1   2.0000     -88.041027     -2395.7181
   2   2.0000     -87.990023     -2394.3302
   3   2.0000     -87.981993     -2394.1118
   4   2.0000     -76.431219     -2079.7992
   5   2.0000     -76.419149     -2079.4708
   6   2.0000     -18.796831      -511.4878
   7   2.0000     -18.795945      -511.4637
   8   2.0000     -18.783495      -511.1249
   9   2.0000     -18.779706      -511.0218
  10   2.0000      -9.962432      -271.0916
  11   2.0000      -9.957440      -270.9557
  12   2.0000      -9.956604      -270.9330
  13   2.0000      -9.944482      -270.6031
  14   2.0000      -9.937109      -270.4025
  15   2.0000      -9.893981      -269.2289
  16   2.0000      -9.888817      -269.0884
  17   2.0000      -9.879955      -268.8473
  18   2.0000      -9.874004      -268.6853
  19   2.0000      -7.688808      -209.2231
  20   2.0000      -7.686642      -209.1642
  21   2.0000      -7.635007      -207.7591
  22   2.0000      -7.627169      -207.5458
  23   2.0000      -6.428251      -174.9216
  24   2.0000      -6.417145      -174.6194
  25   2.0000      -5.716740      -155.5604
  26   2.0000      -5.714888      -155.5100
  27   2.0000      -5.713289      -155.4665
  28   2.0000      -5.710825      -155.3995
  29   2.0000      -5.705778      -155.2621
  30   2.0000      -5.703453      -155.1989
  31   2.0000      -5.664042      -154.1264
  32   2.0000      -5.656133      -153.9112
  33   2.0000      -5.655602      -153.8967
  34   2.0000      -5.655029      -153.8812
  35   2.0000      -5.647864      -153.6862
  36   2.0000      -5.647195      -153.6680
  37   2.0000      -4.651218      -126.5661
  38   2.0000      -4.649685      -126.5244
  39   2.0000      -4.648736      -126.4985
  40   2.0000      -4.639458      -126.2461
  41   2.0000      -4.639144      -126.2375
  42   2.0000      -4.637608      -126.1957
  43   2.0000      -0.993072       -27.0229
  44   2.0000      -0.976408       -26.5694
  45   2.0000      -0.947978       -25.7958
  46   2.0000      -0.934773       -25.4365
  47   2.0000      -0.762111       -20.7381
  48   2.0000      -0.722750       -19.6670
  49   2.0000      -0.705988       -19.2109
  50   2.0000      -0.695637       -18.9292
  51   2.0000      -0.680645       -18.5213
  52   2.0000      -0.674572       -18.3560
  53   2.0000      -0.652739       -17.7619
  54   2.0000      -0.636979       -17.3331
  55   2.0000      -0.602208       -16.3869
  56   2.0000      -0.586318       -15.9545
  57   2.0000      -0.584909       -15.9162
  58   2.0000      -0.567009       -15.4291
  59   2.0000      -0.555595       -15.1185
  60   2.0000      -0.500869       -13.6293
  61   2.0000      -0.492832       -13.4107
  62   2.0000      -0.474830       -12.9208
  63   2.0000      -0.463029       -12.5996
  64   2.0000      -0.458985       -12.4896
  65   2.0000      -0.452720       -12.3191
  66   2.0000      -0.440998       -12.0002
  67   2.0000      -0.434108       -11.8127
  68   2.0000      -0.429648       -11.6913
  69   2.0000      -0.417189       -11.3523
  70   2.0000      -0.412272       -11.2185
  71   2.0000      -0.405827       -11.0431
  72   2.0000      -0.389275       -10.5927
  73   2.0000      -0.387899       -10.5553
  74   2.0000      -0.375456       -10.2167
  75   2.0000      -0.372840       -10.1455
  76   2.0000      -0.366463        -9.9720
  77   2.0000      -0.361682        -9.8419
  78   2.0000      -0.356508        -9.7011
  79   2.0000      -0.349975        -9.5233
  80   2.0000      -0.346669        -9.4333
  81   2.0000      -0.343777        -9.3547
  82   2.0000      -0.342692        -9.3251
  83   2.0000      -0.334040        -9.0897
  84   2.0000      -0.324973        -8.8430
  85   2.0000      -0.317827        -8.6485
  86   2.0000      -0.310155        -8.4397
  87   2.0000      -0.299987        -8.1631
  88   2.0000      -0.298626        -8.1260
  89   2.0000      -0.287912        -7.8345
  90   2.0000      -0.284098        -7.7307
  91   2.0000      -0.274081        -7.4581
  92   2.0000      -0.266833        -7.2609
  93   2.0000      -0.263005        -7.1567
  94   2.0000      -0.259585        -7.0637
  95   2.0000      -0.230615        -6.2753
  96   2.0000      -0.217346        -5.9143
  97   2.0000      -0.208133        -5.6636
  98   2.0000      -0.205035        -5.5793
  99   2.0000      -0.200031        -5.4431
 100   2.0000      -0.197288        -5.3685
 101   0.0000      -0.041595        -1.1319
 102   0.0000      -0.030211        -0.8221
 103   0.0000      -0.016725        -0.4551
 104   0.0000       0.005047         0.1373
 105   0.0000       0.006539         0.1779

MULLIKEN ATOMIC CHARGES
-----------------------
   0 C :   -0.337813
   1 C :    0.006533
   2 O :   -0.371005
   3 P :    0.628120
   4 S :   -0.299904
   5 O :   -0.387944
   6 C :    0.003387
   7 C :   -0.315106
   8 S :   -0.095559
   9 C :   -0.367850
  10 S :   -0.065784
  11 P :    0.606204
  12 S :   -0.325021
  13 O :   -0.382918
  14 C :   -0.000668
  15 C :   -0.296045
  16 O :   -0.365198
  17 C :   -0.004108
  18 C :   -0.314708
  19 H :    0.127279
  20 H :    0.140860
  21 H :    0.118264
  22 H :    0.112168
  23 H :    0.112520
  24 H :    0.103560
  25 H :    0.111985
  26 H :    0.120264
  27 H :    0.118934
  28 H :    0.113773
  29 H :    0.207430
  30 H :    0.182002
  31 H :    0.102613
  32 H :    0.113351
  33 H :    0.113693
  34 H :    0.118966
  35 H :    0.103248
  36 H :    0.104870
  37 H :    0.110000
  38 H :    0.111347
  39 H :    0.125383
  40 H :    0.112878
Sum of atomic charges:   -0.0000000

LOEWDIN ATOMIC CHARGES
----------------------
   0 C :   -0.370282
   1 C :   -0.109403
   2 O :   -0.230930
   3 P :    0.583744
   4 S :   -0.288011
   5 O :   -0.252356
   6 C :   -0.117080
   7 C :   -0.370544
   8 S :    0.084086
   9 C :   -0.485324
  10 S :    0.093937
  11 P :    0.568562
  12 S :   -0.322379
  13 O :   -0.250112
  14 C :   -0.123259
  15 C :   -0.358158
  16 O :   -0.240851
  17 C :   -0.122177
  18 C :   -0.367651
  19 H :    0.117853
  20 H :    0.131323
  21 H :    0.134156
  22 H :    0.121209
  23 H :    0.115528
  24 H :    0.118069
  25 H :    0.111667
  26 H :    0.119031
  27 H :    0.123730
  28 H :    0.131117
  29 H :    0.124994
  30 H :    0.137162
  31 H :    0.106297
  32 H :    0.113415
  33 H :    0.120196
  34 H :    0.125291
  35 H :    0.126805
  36 H :    0.118557
  37 H :    0.108319
  38 H :    0.130075
  39 H :    0.120904
  40 H :    0.122487

  Mayer bond orders larger than 0.100000
B(  0-C ,  1-C ) :   1.1732 B(  0-C , 19-H ) :   0.9323 B(  0-C , 20-H ) :   0.9417
B(  0-C , 21-H ) :   0.9351 B(  1-C ,  2-O ) :   0.8988 B(  1-C , 22-H ) :   0.9284
B(  1-C , 23-H ) :   0.9253 B(  2-O ,  3-P ) :   1.1138 B(  3-P ,  4-S ) :   1.6212
B(  3-P ,  5-O ) :   1.0610 B(  3-P ,  8-S ) :   0.9510 B(  4-S ,  8-S ) :   0.1182
B(  4-S , 29-H ) :   0.1054 B(  5-O ,  6-C ) :   0.9128 B(  6-C ,  7-C ) :   1.1661
B(  6-C , 24-H ) :   0.9342 B(  6-C , 25-H ) :   0.9171 B(  7-C , 26-H ) :   0.9380
B(  7-C , 27-H ) :   0.9422 B(  7-C , 28-H ) :   0.9367 B(  8-S ,  9-C ) :   1.0034
B(  9-C , 10-S ) :   0.9807 B(  9-C , 29-H ) :   0.8407 B(  9-C , 30-H ) :   0.9089
B( 10-S , 11-P ) :   0.9936 B( 11-P , 12-S ) :   1.6283 B( 11-P , 13-O ) :   1.1087
B( 11-P , 16-O ) :   1.0812 B( 13-O , 14-C ) :   0.8783 B( 14-C , 15-C ) :   1.1754
B( 14-C , 31-H ) :   0.9076 B( 14-C , 32-H ) :   0.9140 B( 15-C , 33-H ) :   0.9425
B( 15-C , 34-H ) :   0.9385 B( 15-C , 35-H ) :   0.9415 B( 16-O , 17-C ) :   0.9151
B( 17-C , 18-C ) :   1.1616 B( 17-C , 36-H ) :   0.9326 B( 17-C , 37-H ) :   0.9116
B( 18-C , 38-H ) :   0.9396 B( 18-C , 39-H ) :   0.9360 B( 18-C , 40-H ) :   0.9477

Dispersion correction           -0.068322128
FINAL SINGLE POINT ENERGY     -2929.516511173259

DIPOLE MOMENT
-------------

Method             : SCF
Type of density    : Electron Density
Multiplicity       :   1
Irrep              :   0
Energy             : -2929.6371889041188297 Eh
Relativity type    :
Basis              : AO
                                X                 Y                 Z
Electronic contribution:     -8.961360067      -1.175251105      -4.807802739
Nuclear contribution   :     10.620363425       0.772615546       5.583016388
                        -----------------------------------------
Total Dipole Moment    :      1.659003359      -0.402635559       0.775213649
                        -----------------------------------------
Magnitude (a.u.)       :      1.874930329
Magnitude (Debye)      :      4.765694160

Rotational constants in cm-1:             0.011964             0.005857             0.005034
Rotational constants in MHz :           358.676209           175.585317           150.918388

                             ****ORCA TERMINATED NORMALLY****
TOTAL RUN TIME: 0 days 0 hours 0 minutes 22 seconds 457 msec
