                         Program Version 6.0.1  -  RELEASE   -
|  1> ! pbe def2-sv(p) def2/J RI DEFGRID1 loosescf d4 GCP(DFT/SV(P)) printgap
|  2> %output
|  3>     printlevel normal
|  4> end
|  5> * xyz 0 1
|  6> C 5.2446628493 -0.0109800047 -0.8006735867
|  7> C 4.8226203703 -1.3869120485 -1.2900800849
|  8> O 3.5720155668 -1.788005917 -0.6964838792
|  9> C 2.4532989938 -1.3656379668 -1.2486219033
| 10> O 2.3897565235 -0.6680601414 -2.236185799
| 11> C 1.2388720851 -1.8970374114 -0.5071848843
| 12> C 0.1921437983 -0.7981040551 -0.3954764442
| 13> H 0.0287171922 -0.3439363479 -1.382175781
| 14> C 0.5926491569 0.317966025 0.5456163934
| 15> O -0.2286848823 0.9157900541 1.2152118343
| 16> O 1.8713580004 0.5645490436 0.5293553836
| 17> C 2.3842940381 1.6133532928 1.3833703609
| 18> C 2.7420001473 1.0556749321 2.7506249918
| 19> S -1.4093716749 -1.4534550007 0.1931531326
| 20> P -2.5268158594 0.3472148171 0.1555662476
| 21> S -1.9877525163 1.7412753006 -1.1260036737
| 22> O -3.971739623 -0.2554920103 -0.190630512
| 23> C -4.2471896638 -0.8304523432 -1.4702080551
| 24> O -2.9427825578 0.7703277106 1.624784895
| 25> C -2.5707949221 1.9858352385 2.277945278
| 26> H 4.5170659391 0.7319633027 -1.1193667096
| 27> H 5.313429637 -0.0032751063 0.2833923947
| 28> H 6.212279057 0.2391715584 -1.2230643696
| 29> H 5.5292501971 -2.1562889292 -0.9791124334
| 30> H 4.7084452436 -1.3893152542 -2.3777509672
| 31> H 1.5392138322 -2.2678045978 0.4711241999
| 32> H 0.8200980811 -2.7223621497 -1.0858522235
| 33> H 3.2652155593 1.9838057725 0.8591768911
| 34> H 1.6300041748 2.4005736663 1.460310681
| 35> H 3.1893649539 1.8419057874 3.3494560128
| 36> H 1.8498360435 0.6920300031 3.2551100038
| 37> H 3.4483892253 0.2365479864 2.6479255282
| 38> H -3.7360731237 -1.7883932815 -1.5716105909
| 39> H -3.9271807608 -0.1516033617 -2.2634817913
| 40> H -5.3249326221 -0.9678311551 -1.5024133753
| 41> H -3.4692147413 2.3536199969 2.7691409756
| 42> H -2.209354687 2.7154608987 1.551351611
| 43> H -1.7887850548 1.7725619841 3.0038766342
| 44> *
| 45>
| 46>                          ****END OF INPUT****

CARTESIAN COORDINATES (ANGSTROEM)
---------------------------------
  C      5.244663   -0.010980   -0.800674
  C      4.822620   -1.386912   -1.290080
  O      3.572016   -1.788006   -0.696484
  C      2.453299   -1.365638   -1.248622
  O      2.389757   -0.668060   -2.236186
  C      1.238872   -1.897037   -0.507185
  C      0.192144   -0.798104   -0.395476
  H      0.028717   -0.343936   -1.382176
  C      0.592649    0.317966    0.545616
  O     -0.228685    0.915790    1.215212
  O      1.871358    0.564549    0.529355
  C      2.384294    1.613353    1.383370
  C      2.742000    1.055675    2.750625
  S     -1.409372   -1.453455    0.193153
  P     -2.526816    0.347215    0.155566
  S     -1.987753    1.741275   -1.126004
  O     -3.971740   -0.255492   -0.190631
  C     -4.247190   -0.830452   -1.470208
  O     -2.942783    0.770328    1.624785
  C     -2.570795    1.985835    2.277945
  H      4.517066    0.731963   -1.119367
  H      5.313430   -0.003275    0.283392
  H      6.212279    0.239172   -1.223064
  H      5.529250   -2.156289   -0.979112
  H      4.708445   -1.389315   -2.377751
  H      1.539214   -2.267805    0.471124
  H      0.820098   -2.722362   -1.085852
  H      3.265216    1.983806    0.859177
  H      1.630004    2.400574    1.460311
  H      3.189365    1.841906    3.349456
  H      1.849836    0.692030    3.255110
  H      3.448389    0.236548    2.647926
  H     -3.736073   -1.788393   -1.571611
  H     -3.927181   -0.151603   -2.263482
  H     -5.324933   -0.967831   -1.502413
  H     -3.469215    2.353620    2.769141
  H     -2.209355    2.715461    1.551352
  H     -1.788785    1.772562    3.003877

 Total Charge           Charge          ....    0
 Multiplicity           Mult            ....    1
 Number of Electrons    NEL             ....  174
 Basis Dimension        Dim             ....  316

ORBITAL ENERGIES
----------------

  NO   OCC          E(Eh)            E(eV)
   0   2.0000     -88.034516     -2395.5410
   1   2.0000     -87.970127     -2393.7889
   2   2.0000     -76.416088     -2079.3875
   3   2.0000     -18.829350      -512.3727
   4   2.0000     -18.809479      -511.8319
   5   2.0000     -18.777239      -510.9546
   6   2.0000     -18.770955      -510.7836
   7   2.0000     -18.758412      -510.4423
   8   2.0000     -18.744897      -510.0746
   9   2.0000     -10.030222      -272.9362
  10   2.0000     -10.017975      -272.6030
  11   2.0000      -9.964570      -271.1497
  12   2.0000      -9.955930      -270.9146
  13   2.0000      -9.947662      -270.6896
  14   2.0000      -9.931143      -270.2401
  15   2.0000      -9.929106      -270.1847
  16   2.0000      -9.919440      -269.9217
  17   2.0000      -9.901574      -269.4355
  18   2.0000      -9.895977      -269.2832
  19   2.0000      -7.679600      -208.9726
  20   2.0000      -7.615208      -207.2203
  21   2.0000      -6.411847      -174.4752
  22   2.0000      -5.707478      -155.3084
  23   2.0000      -5.704294      -155.2217
  24   2.0000      -5.696421      -155.0075
  25   2.0000      -5.644333      -153.5901
  26   2.0000      -5.636032      -153.3642
  27   2.0000      -5.634963      -153.3351
  28   2.0000      -4.634139      -126.1013
  29   2.0000      -4.634011      -126.0978
  30   2.0000      -4.632498      -126.0567
  31   2.0000      -1.037628       -28.2353
  32   2.0000      -1.017307       -27.6823
  33   2.0000      -0.970290       -26.4029
  34   2.0000      -0.939153       -25.5557
  35   2.0000      -0.924437       -25.1552
  36   2.0000      -0.922489       -25.1022
  37   2.0000      -0.768714       -20.9178
  38   2.0000      -0.720130       -19.5957
  39   2.0000      -0.716855       -19.5066
  40   2.0000      -0.689445       -18.7607
  41   2.0000      -0.656904       -17.8753
  42   2.0000      -0.631074       -17.1724
  43   2.0000      -0.618594       -16.8328
  44   2.0000      -0.609160       -16.5761
  45   2.0000      -0.603586       -16.4244
  46   2.0000      -0.572326       -15.5738
  47   2.0000      -0.516613       -14.0577
  48   2.0000      -0.507115       -13.7993
  49   2.0000      -0.502125       -13.6635
  50   2.0000      -0.477689       -12.9986
  51   2.0000      -0.476166       -12.9571
  52   2.0000      -0.461298       -12.5526
  53   2.0000      -0.451743       -12.2926
  54   2.0000      -0.443991       -12.0816
  55   2.0000      -0.430955       -11.7269
  56   2.0000      -0.428928       -11.6717
  57   2.0000      -0.426211       -11.5978
  58   2.0000      -0.412095       -11.2137
  59   2.0000      -0.406574       -11.0635
  60   2.0000      -0.400139       -10.8883
  61   2.0000      -0.398895       -10.8545
  62   2.0000      -0.391394       -10.6504
  63   2.0000      -0.383418       -10.4333
  64   2.0000      -0.380640       -10.3577
  65   2.0000      -0.373640       -10.1673
  66   2.0000      -0.366102        -9.9621
  67   2.0000      -0.361654        -9.8411
  68   2.0000      -0.356651        -9.7050
  69   2.0000      -0.350354        -9.5336
  70   2.0000      -0.342366        -9.3162
  71   2.0000      -0.334091        -9.0911
  72   2.0000      -0.331584        -9.0229
  73   2.0000      -0.312337        -8.4991
  74   2.0000      -0.307117        -8.3571
  75   2.0000      -0.300844        -8.1864
  76   2.0000      -0.291394        -7.9292
  77   2.0000      -0.285271        -7.7626
  78   2.0000      -0.276977        -7.5369
  79   2.0000      -0.266582        -7.2541
  80   2.0000      -0.259573        -7.0634
  81   2.0000      -0.245709        -6.6861
  82   2.0000      -0.242148        -6.5892
  83   2.0000      -0.231462        -6.2984
  84   2.0000      -0.216713        -5.8971
  85   2.0000      -0.192144        -5.2285
  86   2.0000      -0.183999        -5.0069
  87   0.0000      -0.049878        -1.3572
  88   0.0000      -0.032106        -0.8737
  89   0.0000      -0.024348        -0.6625
  90   0.0000       0.012763         0.3473
  91   0.0000       0.020207         0.5499

MULLIKEN ATOMIC CHARGES
-----------------------
   0 C :   -0.322877
   1 C :   -0.012362
   2 O :   -0.229531
   3 C :    0.117943
   4 O :   -0.201246
   5 C :   -0.063436
   6 C :   -0.336503
   7 H :    0.177107
   8 C :    0.237276
   9 O :   -0.195073
  10 O :   -0.218078
  11 C :   -0.015446
  12 C :   -0.314284
  13 S :   -0.097394
  14 P :    0.627316
  15 S :   -0.351324
  16 O :   -0.373575
  17 C :   -0.098756
  18 O :   -0.367417
  19 C :   -0.083727
  20 H :    0.139851
  21 H :    0.115804
  22 H :    0.116208
  23 H :    0.105257
  24 H :    0.110816
  25 H :    0.107038
  26 H :    0.129317
  27 H :    0.115038
  28 H :    0.121902
  29 H :    0.120579
  30 H :    0.129291
  31 H :    0.122888
  32 H :    0.107552
  33 H :    0.112304
  34 H :    0.120778
  35 H :    0.117956
  36 H :    0.116215
  37 H :    0.112594
Sum of atomic charges:   -0.0000000

LOEWDIN ATOMIC CHARGES
----------------------
   0 C :   -0.357955
   1 C :   -0.108997
   2 O :   -0.057097
   3 C :    0.029692
   4 O :   -0.165854
   5 C :   -0.247543
   6 C :   -0.272416
   7 H :    0.153346
   8 C :    0.032521
   9 O :   -0.155517
  10 O :   -0.027711
  11 C :   -0.104855
  12 C :   -0.355087
  13 S :    0.097465
  14 P :    0.586181
  15 S :   -0.342628
  16 O :   -0.258643
  17 C :   -0.221316
  18 O :   -0.237841
  19 C :   -0.207551
  20 H :    0.131967
  21 H :    0.122126
  22 H :    0.132478
  23 H :    0.118894
  24 H :    0.121668
  25 H :    0.134765
  26 H :    0.151107
  27 H :    0.121519
  28 H :    0.126575
  29 H :    0.134754
  30 H :    0.131622
  31 H :    0.126563
  32 H :    0.103014
  33 H :    0.107645
  34 H :    0.120041
  35 H :    0.116476
  36 H :    0.109229
  37 H :    0.111367

  Mayer bond orders larger than 0.100000
B(  0-C ,  1-C ) :   1.1747 B(  0-C , 20-H ) :   0.9381 B(  0-C , 21-H ) :   0.9448
B(  0-C , 22-H ) :   0.9411 B(  1-C ,  2-O ) :   0.9170 B(  1-C , 23-H ) :   0.9375
B(  1-C , 24-H ) :   0.9149 B(  2-O ,  3-C ) :   1.2398 B(  3-C ,  4-O ) :   2.0388
B(  3-C ,  5-C ) :   1.0039 B(  5-C ,  6-C ) :   1.0518 B(  5-C , 25-H ) :   0.9072
B(  5-C , 26-H ) :   0.8773 B(  6-C ,  7-H ) :   0.8280 B(  6-C ,  8-C ) :   0.9072
B(  6-C , 13-S ) :   1.0343 B(  8-C ,  9-O ) :   1.9471 B(  8-C , 10-O ) :   1.2762
B(  9-O , 14-P ) :   0.1024 B( 10-O , 11-C ) :   0.8957 B( 11-C , 12-C ) :   1.1761
B( 11-C , 27-H ) :   0.9287 B( 11-C , 28-H ) :   0.9140 B( 12-C , 29-H ) :   0.9429
B( 12-C , 30-H ) :   0.9446 B( 12-C , 31-H ) :   0.9463 B( 13-S , 14-P ) :   0.9278
B( 13-S , 15-S ) :   0.1159 B( 14-P , 15-S ) :   1.5774 B( 14-P , 16-O ) :   1.0870
B( 14-P , 18-O ) :   1.1381 B( 16-O , 17-C ) :   0.9450 B( 17-C , 32-H ) :   0.9438
B( 17-C , 33-H ) :   0.9338 B( 17-C , 34-H ) :   0.9596 B( 18-O , 19-C ) :   0.9272
B( 19-C , 35-H ) :   0.9543 B( 19-C , 36-H ) :   0.9335 B( 19-C , 37-H ) :   0.9549

Dispersion correction           -0.051355183
FINAL SINGLE POINT ENERGY     -1979.016388107854

DIPOLE MOMENT
-------------

Method             : SCF
Type of density    : Electron Density
Multiplicity       :   1
Irrep              :   0
Energy             : -1979.1485780256389262 Eh
Relativity type    :
Basis              : AO
                                X                 Y                 Z
Electronic contribution:    -20.719280155      -3.070807072      -4.733432797
Nuclear contribution   :     22.626816957       2.655014903       5.657685040
                        -----------------------------------------
Total Dipole Moment    :      1.907536802      -0.415792170       0.924252243
                        -----------------------------------------
Magnitude (a.u.)       :      2.160051386
Magnitude (Debye)      :      5.490414293

Rotational constants in cm-1:             0.017190             0.005859             0.005064
Rotational constants in MHz :           515.358202           175.638791           151.829442

                             ****ORCA TERMINATED NORMALLY****
TOTAL RUN TIME: 0 days 0 hours 0 minutes 37 seconds 507 msec
