                         Program Version 6.0.1  -  RELEASE   -
|  1> ! pbe def2-sv(p) def2/J RI DEFGRID1 loosescf d4 GCP(DFT/SV(P)) printgap
|  2> %output
|  3>     printlevel normal
|  4> end
|  5> * xyz 0 1
|  6> C 1.5524285911 -3.8541694392 -1.965976361
|  7> C 2.2273350942 -3.625704751 -0.6225306962
|  8> O 1.8629956992 -2.3456495915 -0.0696047912
|  9> C 2.5083736853 -1.2775605047 -0.4956909968
| 10> O 3.4234811743 -1.2928978369 -1.2864225603
| 11> C 1.937733788 -0.0087833736 0.110277203
| 12> C 0.9353428489 0.597602725 -0.8776194993
| 13> H 1.4344107238 0.7940225553 -1.8309532272
| 14> C 0.3473642734 1.8915245891 -0.348697048
| 15> O -0.848235152 2.0462035075 -0.1835597232
| 16> O 1.253898572 2.7870951507 -0.0978556148
| 17> C 0.8198363781 4.051082943 0.4567532708
| 18> C 2.0523346942 4.8929804848 0.7146167387
| 19> S -0.4439694263 -0.5265448345 -1.2743964596
| 20> P -1.7144946766 -0.2668135662 0.4118168928
| 21> S -1.0001774463 0.2470078236 2.1750912148
| 22> O -3.0695487959 0.3974885418 -0.0721643538
| 23> C -3.5666454639 1.6726707652 0.3380199905
| 24> O -2.3298118238 -1.7467789057 0.4526254919
| 25> C -1.5404105534 -2.8472019251 0.9127785579
| 26> H 1.9151456946 -3.1318670645 -2.6933228005
| 27> H 1.7816760436 -4.8550274425 -2.3159450019
| 28> H 0.4750101677 -3.7427384055 -1.8751222021
| 29> H 3.3151839503 -3.659201208 -0.728662156
| 30> H 1.8948667851 -4.3487670882 0.1223966089
| 31> H 2.7436324492 0.708361961 0.2673807057
| 32> H 1.4464213599 -0.2418791436 1.0562769922
| 33> H 0.1445366798 4.5246734291 -0.2614743317
| 34> H 0.2632501562 3.8438434822 1.3756635419
| 35> H 1.7485840397 5.8554563535 1.1122179689
| 36> H 2.7001065377 4.3993349291 1.4323590255
| 37> H 2.6011167208 5.0438144808 -0.2099339284
| 38> H -4.6434625892 1.5555881775 0.4390007195
| 39> H -3.3244133533 2.4138987312 -0.4211939916
| 40> H -3.124470862 1.9665370639 1.2913438909
| 41> H -1.2758393845 -2.6998861362 1.9614017693
| 42> H -0.6299638635 -2.9407884144 0.3194343972
| 43> H -2.1683752414 -3.7262787899 0.7959650576
| 44> *
| 45>
| 46>                          ****END OF INPUT****

CARTESIAN COORDINATES (ANGSTROEM)
---------------------------------
  C      1.552429   -3.854169   -1.965976
  C      2.227335   -3.625705   -0.622531
  O      1.862996   -2.345650   -0.069605
  C      2.508374   -1.277561   -0.495691
  O      3.423481   -1.292898   -1.286423
  C      1.937734   -0.008783    0.110277
  C      0.935343    0.597603   -0.877619
  H      1.434411    0.794023   -1.830953
  C      0.347364    1.891525   -0.348697
  O     -0.848235    2.046204   -0.183560
  O      1.253899    2.787095   -0.097856
  C      0.819836    4.051083    0.456753
  C      2.052335    4.892980    0.714617
  S     -0.443969   -0.526545   -1.274396
  P     -1.714495   -0.266814    0.411817
  S     -1.000177    0.247008    2.175091
  O     -3.069549    0.397489   -0.072164
  C     -3.566645    1.672671    0.338020
  O     -2.329812   -1.746779    0.452625
  C     -1.540411   -2.847202    0.912779
  H      1.915146   -3.131867   -2.693323
  H      1.781676   -4.855027   -2.315945
  H      0.475010   -3.742738   -1.875122
  H      3.315184   -3.659201   -0.728662
  H      1.894867   -4.348767    0.122397
  H      2.743632    0.708362    0.267381
  H      1.446421   -0.241879    1.056277
  H      0.144537    4.524673   -0.261474
  H      0.263250    3.843843    1.375664
  H      1.748584    5.855456    1.112218
  H      2.700107    4.399335    1.432359
  H      2.601117    5.043814   -0.209934
  H     -4.643463    1.555588    0.439001
  H     -3.324413    2.413899   -0.421194
  H     -3.124471    1.966537    1.291344
  H     -1.275839   -2.699886    1.961402
  H     -0.629964   -2.940788    0.319434
  H     -2.168375   -3.726279    0.795965

 Total Charge           Charge          ....    0
 Multiplicity           Mult            ....    1
 Number of Electrons    NEL             ....  174
 Basis Dimension        Dim             ....  316

ORBITAL ENERGIES
----------------

  NO   OCC          E(Eh)            E(eV)
   0   2.0000     -88.036125     -2395.5848
   1   2.0000     -87.975879     -2393.9454
   2   2.0000     -76.421646     -2079.5387
   3   2.0000     -18.829115      -512.3663
   4   2.0000     -18.805264      -511.7172
   5   2.0000     -18.780594      -511.0460
   6   2.0000     -18.774576      -510.8822
   7   2.0000     -18.763410      -510.5784
   8   2.0000     -18.738956      -509.9129
   9   2.0000     -10.033577      -273.0275
  10   2.0000     -10.010978      -272.4126
  11   2.0000      -9.964374      -271.1444
  12   2.0000      -9.957145      -270.9477
  13   2.0000      -9.949429      -270.7377
  14   2.0000      -9.933409      -270.3018
  15   2.0000      -9.931151      -270.2404
  16   2.0000      -9.907517      -269.5972
  17   2.0000      -9.900396      -269.4035
  18   2.0000      -9.885869      -269.0082
  19   2.0000      -7.681112      -209.0137
  20   2.0000      -7.620954      -207.3767
  21   2.0000      -6.417208      -174.6211
  22   2.0000      -5.709281      -155.3574
  23   2.0000      -5.705678      -155.2594
  24   2.0000      -5.697678      -155.0417
  25   2.0000      -5.650035      -153.7453
  26   2.0000      -5.641924      -153.5246
  27   2.0000      -5.640563      -153.4875
  28   2.0000      -4.639600      -126.2499
  29   2.0000      -4.639404      -126.2446
  30   2.0000      -4.637832      -126.2018
  31   2.0000      -1.039521       -28.2868
  32   2.0000      -1.012490       -27.5513
  33   2.0000      -0.973720       -26.4963
  34   2.0000      -0.942266       -25.6404
  35   2.0000      -0.927876       -25.2488
  36   2.0000      -0.917461       -24.9654
  37   2.0000      -0.770244       -20.9594
  38   2.0000      -0.723874       -19.6976
  39   2.0000      -0.708605       -19.2821
  40   2.0000      -0.688326       -18.7303
  41   2.0000      -0.653372       -17.7792
  42   2.0000      -0.630641       -17.1606
  43   2.0000      -0.623077       -16.9548
  44   2.0000      -0.611603       -16.6426
  45   2.0000      -0.596355       -16.2276
  46   2.0000      -0.566721       -15.4213
  47   2.0000      -0.527074       -14.3424
  48   2.0000      -0.505966       -13.7680
  49   2.0000      -0.498026       -13.5520
  50   2.0000      -0.491256       -13.3678
  51   2.0000      -0.467554       -12.7228
  52   2.0000      -0.463661       -12.6169
  53   2.0000      -0.451153       -12.2765
  54   2.0000      -0.445330       -12.1181
  55   2.0000      -0.433146       -11.7865
  56   2.0000      -0.425667       -11.5830
  57   2.0000      -0.415482       -11.3058
  58   2.0000      -0.413488       -11.2516
  59   2.0000      -0.402951       -10.9648
  60   2.0000      -0.401823       -10.9341
  61   2.0000      -0.390678       -10.6309
  62   2.0000      -0.388702       -10.5771
  63   2.0000      -0.384422       -10.4607
  64   2.0000      -0.381971       -10.3940
  65   2.0000      -0.373387       -10.1604
  66   2.0000      -0.370488       -10.0815
  67   2.0000      -0.361461        -9.8358
  68   2.0000      -0.351071        -9.5531
  69   2.0000      -0.341866        -9.3026
  70   2.0000      -0.338398        -9.2083
  71   2.0000      -0.333290        -9.0693
  72   2.0000      -0.326573        -8.8865
  73   2.0000      -0.321592        -8.7510
  74   2.0000      -0.306804        -8.3485
  75   2.0000      -0.296915        -8.0795
  76   2.0000      -0.294759        -8.0208
  77   2.0000      -0.287304        -7.8179
  78   2.0000      -0.279084        -7.5943
  79   2.0000      -0.264423        -7.1953
  80   2.0000      -0.262248        -7.1361
  81   2.0000      -0.248976        -6.7750
  82   2.0000      -0.245148        -6.6708
  83   2.0000      -0.224276        -6.1029
  84   2.0000      -0.216927        -5.9029
  85   2.0000      -0.195688        -5.3250
  86   2.0000      -0.188653        -5.1335
  87   0.0000      -0.050766        -1.3814
  88   0.0000      -0.039022        -1.0618
  89   0.0000      -0.021094        -0.5740
  90   0.0000       0.002818         0.0767
  91   0.0000       0.030092         0.8188

MULLIKEN ATOMIC CHARGES
-----------------------
   0 C :   -0.311322
   1 C :   -0.008618
   2 O :   -0.222415
   3 C :    0.119086
   4 O :   -0.202619
   5 C :   -0.059515
   6 C :   -0.342207
   7 H :    0.155876
   8 C :    0.239229
   9 O :   -0.196376
  10 O :   -0.216248
  11 C :   -0.034143
  12 C :   -0.274703
  13 S :   -0.083871
  14 P :    0.622469
  15 S :   -0.353191
  16 O :   -0.366427
  17 C :   -0.084356
  18 O :   -0.372562
  19 C :   -0.128457
  20 H :    0.125675
  21 H :    0.112173
  22 H :    0.124129
  23 H :    0.110728
  24 H :    0.103259
  25 H :    0.113142
  26 H :    0.118878
  27 H :    0.111483
  28 H :    0.123413
  29 H :    0.117546
  30 H :    0.123492
  31 H :    0.120090
  32 H :    0.119002
  33 H :    0.115783
  34 H :    0.114487
  35 H :    0.113900
  36 H :    0.135147
  37 H :    0.118043
Sum of atomic charges:   -0.0000000

LOEWDIN ATOMIC CHARGES
----------------------
   0 C :   -0.357926
   1 C :   -0.111630
   2 O :   -0.051816
   3 C :    0.024853
   4 O :   -0.167768
   5 C :   -0.253202
   6 C :   -0.259027
   7 H :    0.152660
   8 C :    0.024849
   9 O :   -0.153910
  10 O :   -0.034732
  11 C :   -0.102257
  12 C :   -0.349999
  13 S :    0.109623
  14 P :    0.590306
  15 S :   -0.338536
  16 O :   -0.237238
  17 C :   -0.207106
  18 O :   -0.257719
  19 C :   -0.226082
  20 H :    0.130417
  21 H :    0.130114
  22 H :    0.124618
  23 H :    0.120677
  24 H :    0.116962
  25 H :    0.142053
  26 H :    0.130187
  27 H :    0.119987
  28 H :    0.125761
  29 H :    0.134623
  30 H :    0.130680
  31 H :    0.129290
  32 H :    0.117357
  33 H :    0.112873
  34 H :    0.108541
  35 H :    0.109637
  36 H :    0.104139
  37 H :    0.118740

  Mayer bond orders larger than 0.100000
B(  0-C ,  1-C ) :   1.1765 B(  0-C , 20-H ) :   0.9416 B(  0-C , 21-H ) :   0.9426
B(  0-C , 22-H ) :   0.9485 B(  1-C ,  2-O ) :   0.9026 B(  1-C , 23-H ) :   0.9148
B(  1-C , 24-H ) :   0.9359 B(  2-O ,  3-C ) :   1.2261 B(  3-C ,  4-O ) :   2.0507
B(  3-C ,  5-C ) :   1.0081 B(  5-C ,  6-C ) :   1.0588 B(  5-C , 25-H ) :   0.8783
B(  5-C , 26-H ) :   0.8702 B(  6-C ,  7-H ) :   0.8618 B(  6-C ,  8-C ) :   0.9184
B(  6-C , 13-S ) :   1.0388 B(  8-C ,  9-O ) :   1.9345 B(  8-C , 10-O ) :   1.2860
B(  9-O , 14-P ) :   0.1101 B( 10-O , 11-C ) :   0.8849 B( 11-C , 12-C ) :   1.1560
B( 11-C , 27-H ) :   0.9320 B( 11-C , 28-H ) :   0.9279 B( 12-C , 29-H ) :   0.9416
B( 12-C , 30-H ) :   0.9492 B( 12-C , 31-H ) :   0.9490 B( 13-S , 14-P ) :   0.9279
B( 13-S , 15-S ) :   0.1181 B( 14-P , 15-S ) :   1.5435 B( 14-P , 16-O ) :   1.1428
B( 14-P , 18-O ) :   1.0872 B( 16-O , 17-C ) :   0.9278 B( 17-C , 32-H ) :   0.9545
B( 17-C , 33-H ) :   0.9536 B( 17-C , 34-H ) :   0.9353 B( 18-O , 19-C ) :   0.9419
B( 19-C , 35-H ) :   0.9383 B( 19-C , 36-H ) :   0.9227 B( 19-C , 37-H ) :   0.9573

Dispersion correction           -0.052908384
FINAL SINGLE POINT ENERGY     -1979.014534648608

DIPOLE MOMENT
-------------

Method             : SCF
Type of density    : Electron Density
Multiplicity       :   1
Irrep              :   0
Energy             : -1979.1447054908835526 Eh
Relativity type    :
Basis              : AO
                                X                 Y                 Z
Electronic contribution:     -8.078589427      -1.206790711       0.418794129
Nuclear contribution   :      8.424280732       1.894537990      -0.565729638
                        -----------------------------------------
Total Dipole Moment    :      0.345691305       0.687747280      -0.146935509
                        -----------------------------------------
Magnitude (a.u.)       :      0.783638209
Magnitude (Debye)      :      1.991850032

Rotational constants in cm-1:             0.011420             0.008534             0.005739
Rotational constants in MHz :           342.350984           255.848047           172.045985

                             ****ORCA TERMINATED NORMALLY****
TOTAL RUN TIME: 0 days 0 hours 0 minutes 36 seconds 758 msec
