                         Program Version 6.0.0  -   RELEASE  -
|  1> ! pbe def2-sv(p) def2/J RI DEFGRID1 loosescf d4 GCP(DFT/SV(P)) printgap
|  2> %output
|  3>     printlevel normal
|  4> end
|  5> * xyz 0 1
|  6> C 2.7581190667 1.8005687838 -1.9329172806
|  7> C 3.417684504 1.9184835969 -0.5731583648
|  8> O 3.4531634554 0.6542612419 0.1131121539
|  9> P 2.2181643251 0.1092838645 0.9512444719
| 10> S 1.3313390688 1.4402155319 2.0729383353
| 11> O 2.8345838939 -1.0587899307 1.8122119694
| 12> C 3.6612216714 -2.1201092145 1.2698497266
| 13> C 5.1306455324 -1.768416002 1.3756750083
| 14> S 1.0428402963 -0.8998577908 -0.5286612824
| 15> C -0.1762821462 -1.6270396842 0.5980967215
| 16> S -1.4948106694 -0.4801815864 1.0781601127
| 17> P -2.2113056047 -0.098906579 -0.8979732083
| 18> S -2.002638115 -1.5734311624 -2.1674856382
| 19> O -1.4778635731 1.1830811081 -1.4414747977
| 20> C -1.1349936998 2.3895530044 -0.716122633
| 21> C -2.3082926735 3.0258229422 -0.0047508385
| 22> O -3.6864263584 0.4307435557 -0.6455592754
| 23> C -4.7274918179 -0.3209154943 0.005981553
| 24> C -5.3786269984 -1.3219235225 -0.9282022099
| 25> H 1.706937961 1.5366379655 -1.8301685331
| 26> H 2.8331562843 2.7520811417 -2.4493399222
| 27> H 3.2492300688 1.0319337959 -2.5237761974
| 28> H 2.8949288948 2.6437267202 0.0593329423
| 29> H 4.4672427268 2.2018112663 -0.6663797543
| 30> H 3.4179666235 -2.9908954791 1.8816753661
| 31> H 3.3706560806 -2.3014283099 0.2315033634
| 32> H 5.3596387267 -0.9078595855 0.7534057817
| 33> H 5.3838060247 -1.5343309517 2.4061171897
| 34> H 5.7216932886 -2.6169818442 1.0452577115
| 35> H 0.3071577866 -1.9470280258 1.5189284207
| 36> H -0.6149005251 -2.4669922841 0.0599004676
| 37> H -0.3428903065 2.1491268812 0.0004512691
| 38> H -0.7392165483 3.0403416254 -1.4976035749
| 39> H -1.9935166912 3.9870189948 0.3901887187
| 40> H -3.1363795258 3.1690005766 -0.6939197184
| 41> H -2.634760715 2.4002010023 0.8234034539
| 42> H -4.3085430209 -0.8178241563 0.8856181783
| 43> H -5.4405962622 0.4425852228 0.3234828998
| 44> H -6.2042508437 -1.8041685091 -0.4147741398
| 45> H -5.7519040316 -0.8174726576 -1.8154179664
| 46> H -4.6607754431 -2.0780548868 -1.2381134503
| 47> *
| 48>
| 49>                          ****END OF INPUT****

CARTESIAN COORDINATES (ANGSTROEM)
---------------------------------
  C      2.758119    1.800569   -1.932917
  C      3.417685    1.918484   -0.573158
  O      3.453163    0.654261    0.113112
  P      2.218164    0.109284    0.951244
  S      1.331339    1.440216    2.072938
  O      2.834584   -1.058790    1.812212
  C      3.661222   -2.120109    1.269850
  C      5.130646   -1.768416    1.375675
  S      1.042840   -0.899858   -0.528661
  C     -0.176282   -1.627040    0.598097
  S     -1.494811   -0.480182    1.078160
  P     -2.211306   -0.098907   -0.897973
  S     -2.002638   -1.573431   -2.167486
  O     -1.477864    1.183081   -1.441475
  C     -1.134994    2.389553   -0.716123
  C     -2.308293    3.025823   -0.004751
  O     -3.686426    0.430744   -0.645559
  C     -4.727492   -0.320915    0.005982
  C     -5.378627   -1.321924   -0.928202
  H      1.706938    1.536638   -1.830169
  H      2.833156    2.752081   -2.449340
  H      3.249230    1.031934   -2.523776
  H      2.894929    2.643727    0.059333
  H      4.467243    2.201811   -0.666380
  H      3.417967   -2.990895    1.881675
  H      3.370656   -2.301428    0.231503
  H      5.359639   -0.907860    0.753406
  H      5.383806   -1.534331    2.406117
  H      5.721693   -2.616982    1.045258
  H      0.307158   -1.947028    1.518928
  H     -0.614901   -2.466992    0.059900
  H     -0.342890    2.149127    0.000451
  H     -0.739217    3.040342   -1.497604
  H     -1.993517    3.987019    0.390189
  H     -3.136380    3.169001   -0.693920
  H     -2.634761    2.400201    0.823403
  H     -4.308543   -0.817824    0.885618
  H     -5.440596    0.442585    0.323483
  H     -6.204251   -1.804169   -0.414774
  H     -5.751904   -0.817473   -1.815418
  H     -4.660775   -2.078055   -1.238113

 Total Charge           Charge          ....    0
 Multiplicity           Mult            ....    1
 Number of Electrons    NEL             ....  202
 Basis Dimension        Dim             ....  334

ORBITAL ENERGIES
----------------

  NO   OCC          E(Eh)            E(eV)
   0   2.0000     -88.044751     -2395.8195
   1   2.0000     -88.040620     -2395.7071
   2   2.0000     -87.988214     -2394.2810
   3   2.0000     -87.980026     -2394.0582
   4   2.0000     -76.428994     -2079.7387
   5   2.0000     -76.424030     -2079.6036
   6   2.0000     -18.799842      -511.5697
   7   2.0000     -18.798371      -511.5297
   8   2.0000     -18.791318      -511.3378
   9   2.0000     -18.785280      -511.1734
  10   2.0000      -9.960360      -271.0352
  11   2.0000      -9.958022      -270.9716
  12   2.0000      -9.957615      -270.9605
  13   2.0000      -9.954436      -270.8740
  14   2.0000      -9.945505      -270.6310
  15   2.0000      -9.889489      -269.1067
  16   2.0000      -9.888930      -269.0915
  17   2.0000      -9.881296      -268.8837
  18   2.0000      -9.878622      -268.8110
  19   2.0000      -7.688781      -209.2224
  20   2.0000      -7.685343      -209.1288
  21   2.0000      -7.633208      -207.7102
  22   2.0000      -7.625325      -207.4956
  23   2.0000      -6.426652      -174.8781
  24   2.0000      -6.420964      -174.7233
  25   2.0000      -5.716513      -155.5542
  26   2.0000      -5.713390      -155.4692
  27   2.0000      -5.713051      -155.4600
  28   2.0000      -5.709855      -155.3731
  29   2.0000      -5.705965      -155.2672
  30   2.0000      -5.702537      -155.1739
  31   2.0000      -5.662132      -154.0744
  32   2.0000      -5.654307      -153.8615
  33   2.0000      -5.653846      -153.8490
  34   2.0000      -5.653318      -153.8346
  35   2.0000      -5.645837      -153.6310
  36   2.0000      -5.645467      -153.6210
  37   2.0000      -4.649777      -126.5269
  38   2.0000      -4.648399      -126.4894
  39   2.0000      -4.646579      -126.4398
  40   2.0000      -4.643633      -126.3597
  41   2.0000      -4.643130      -126.3460
  42   2.0000      -4.641084      -126.2903
  43   2.0000      -0.994027       -27.0488
  44   2.0000      -0.983278       -26.7563
  45   2.0000      -0.952425       -25.9168
  46   2.0000      -0.940820       -25.6010
  47   2.0000      -0.763888       -20.7865
  48   2.0000      -0.722298       -19.6547
  49   2.0000      -0.710623       -19.3370
  50   2.0000      -0.695431       -18.9236
  51   2.0000      -0.686689       -18.6858
  52   2.0000      -0.674299       -18.3486
  53   2.0000      -0.650857       -17.7107
  54   2.0000      -0.638748       -17.3812
  55   2.0000      -0.597684       -16.2638
  56   2.0000      -0.588468       -16.0130
  57   2.0000      -0.580877       -15.8065
  58   2.0000      -0.571459       -15.5502
  59   2.0000      -0.565157       -15.3787
  60   2.0000      -0.507633       -13.8134
  61   2.0000      -0.494096       -13.4450
  62   2.0000      -0.483696       -13.1620
  63   2.0000      -0.468806       -12.7569
  64   2.0000      -0.460547       -12.5321
  65   2.0000      -0.450544       -12.2599
  66   2.0000      -0.439080       -11.9480
  67   2.0000      -0.435949       -11.8628
  68   2.0000      -0.433432       -11.7943
  69   2.0000      -0.415587       -11.3087
  70   2.0000      -0.402846       -10.9620
  71   2.0000      -0.398683       -10.8487
  72   2.0000      -0.394198       -10.7267
  73   2.0000      -0.391761       -10.6604
  74   2.0000      -0.384362       -10.4590
  75   2.0000      -0.375846       -10.2273
  76   2.0000      -0.365057        -9.9337
  77   2.0000      -0.358633        -9.7589
  78   2.0000      -0.356620        -9.7041
  79   2.0000      -0.352659        -9.5963
  80   2.0000      -0.348524        -9.4838
  81   2.0000      -0.345891        -9.4122
  82   2.0000      -0.345604        -9.4044
  83   2.0000      -0.337060        -9.1719
  84   2.0000      -0.331489        -9.0203
  85   2.0000      -0.323263        -8.7964
  86   2.0000      -0.315150        -8.5757
  87   2.0000      -0.301109        -8.1936
  88   2.0000      -0.295750        -8.0478
  89   2.0000      -0.292543        -7.9605
  90   2.0000      -0.283460        -7.7133
  91   2.0000      -0.277294        -7.5456
  92   2.0000      -0.272075        -7.4035
  93   2.0000      -0.264512        -7.1977
  94   2.0000      -0.258904        -7.0451
  95   2.0000      -0.243336        -6.6215
  96   2.0000      -0.218400        -5.9430
  97   2.0000      -0.209806        -5.7091
  98   2.0000      -0.202268        -5.5040
  99   2.0000      -0.194908        -5.3037
 100   2.0000      -0.190989        -5.1971
 101   0.0000      -0.042177        -1.1477
 102   0.0000      -0.028212        -0.7677
 103   0.0000      -0.006096        -0.1659
 104   0.0000       0.001817         0.0494
 105   0.0000       0.016393         0.4461

MULLIKEN ATOMIC CHARGES
-----------------------
   0 C :   -0.337808
   1 C :   -0.006501
   2 O :   -0.379557
   3 P :    0.594189
   4 S :   -0.298109
   5 O :   -0.363125
   6 C :   -0.014276
   7 C :   -0.291202
   8 S :   -0.076245
   9 C :   -0.348098
  10 S :   -0.090646
  11 P :    0.605484
  12 S :   -0.321413
  13 O :   -0.359996
  14 C :   -0.032351
  15 C :   -0.290252
  16 O :   -0.370989
  17 C :   -0.013053
  18 C :   -0.298076
  19 H :    0.157950
  20 H :    0.115152
  21 H :    0.119078
  22 H :    0.108528
  23 H :    0.107245
  24 H :    0.108680
  25 H :    0.105268
  26 H :    0.124375
  27 H :    0.120736
  28 H :    0.111320
  29 H :    0.182643
  30 H :    0.194506
  31 H :    0.124489
  32 H :    0.102932
  33 H :    0.112556
  34 H :    0.118572
  35 H :    0.115246
  36 H :    0.104589
  37 H :    0.105946
  38 H :    0.106272
  39 H :    0.116855
  40 H :    0.129086
Sum of atomic charges:   -0.0000000

LOEWDIN ATOMIC CHARGES
----------------------
   0 C :   -0.369409
   1 C :   -0.119142
   2 O :   -0.245057
   3 P :    0.564062
   4 S :   -0.299081
   5 O :   -0.239382
   6 C :   -0.116436
   7 C :   -0.359280
   8 S :    0.091488
   9 C :   -0.480620
  10 S :    0.075293
  11 P :    0.565518
  12 S :   -0.315706
  13 O :   -0.232390
  14 C :   -0.122817
  15 C :   -0.362916
  16 O :   -0.239918
  17 C :   -0.116466
  18 C :   -0.366270
  19 H :    0.126075
  20 H :    0.132648
  21 H :    0.127684
  22 H :    0.108535
  23 H :    0.119315
  24 H :    0.120159
  25 H :    0.105275
  26 H :    0.126860
  27 H :    0.129174
  28 H :    0.130541
  29 H :    0.132638
  30 H :    0.132140
  31 H :    0.101047
  32 H :    0.118011
  33 H :    0.131801
  34 H :    0.125983
  35 H :    0.118974
  36 H :    0.104159
  37 H :    0.118626
  38 H :    0.128081
  39 H :    0.127919
  40 H :    0.122881

  Mayer bond orders larger than 0.100000
B(  0-C ,  1-C ) :   1.1647 B(  0-C , 19-H ) :   0.9273 B(  0-C , 20-H ) :   0.9386
B(  0-C , 21-H ) :   0.9454 B(  1-C ,  2-O ) :   0.9056 B(  1-C , 22-H ) :   0.9089
B(  1-C , 23-H ) :   0.9329 B(  2-O ,  3-P ) :   1.0800 B(  3-P ,  4-S ) :   1.6535
B(  3-P ,  5-O ) :   1.1206 B(  3-P ,  8-S ) :   0.9540 B(  4-S ,  8-S ) :   0.1108
B(  5-O ,  6-C ) :   0.8904 B(  6-C ,  7-C ) :   1.1687 B(  6-C , 24-H ) :   0.9354
B(  6-C , 25-H ) :   0.9085 B(  7-C , 26-H ) :   0.9414 B(  7-C , 27-H ) :   0.9471
B(  7-C , 28-H ) :   0.9393 B(  8-S ,  9-C ) :   0.9929 B(  9-C , 10-S ) :   1.0070
B(  9-C , 29-H ) :   0.8957 B(  9-C , 30-H ) :   0.8819 B( 10-S , 11-P ) :   0.9444
B( 10-S , 12-S ) :   0.1112 B( 11-P , 12-S ) :   1.6213 B( 11-P , 13-O ) :   1.1503
B( 11-P , 16-O ) :   1.0951 B( 13-O , 14-C ) :   0.8853 B( 14-C , 15-C ) :   1.1767
B( 14-C , 31-H ) :   0.8920 B( 14-C , 32-H ) :   0.9326 B( 15-C , 33-H ) :   0.9356
B( 15-C , 34-H ) :   0.9436 B( 15-C , 35-H ) :   0.9409 B( 16-O , 17-C ) :   0.9115
B( 17-C , 18-C ) :   1.1668 B( 17-C , 36-H ) :   0.9171 B( 17-C , 37-H ) :   0.9351
B( 18-C , 38-H ) :   0.9379 B( 18-C , 39-H ) :   0.9472 B( 18-C , 40-H ) :   0.9298

Dispersion correction           -0.065894605
FINAL SINGLE POINT ENERGY     -2929.519569733195

DIPOLE MOMENT
-------------

Method             : SCF
Type of density    : Electron Density
Multiplicity       :   1
Irrep              :   0
Energy             : -2929.6387580792284098 Eh
Relativity type    :
Basis              : AO
                                X                 Y                 Z
Electronic contribution:     -2.154428060      -4.728315547       2.876732746
Nuclear contribution   :      2.749351795       4.810313567      -2.643348551
                        -----------------------------------------
Total Dipole Moment    :      0.594923735       0.081998021       0.233384194
                        -----------------------------------------
Magnitude (a.u.)       :      0.644302808
Magnitude (Debye)      :      1.637687589

Rotational constants in cm-1:             0.013631             0.004774             0.004440
Rotational constants in MHz :           408.645173           143.110356           133.105688

                             ****ORCA TERMINATED NORMALLY****
TOTAL RUN TIME: 0 days 0 hours 0 minutes 21 seconds 205 msec
