                         Program Version 6.0.0  -   RELEASE  -
|  1> ! pbe def2-sv(p) def2/J RI DEFGRID1 loosescf d4 GCP(DFT/SV(P)) printgap
|  2> %output
|  3>     printlevel normal
|  4> end
|  5> * xyz 0 1
|  6> C 3.1322093597 1.5136668522 2.9475914475
|  7> C 1.7534106491 0.9922407446 2.6034825358
|  8> O 1.5711829221 0.8747684064 1.175877693
|  9> P 2.3199534529 -0.2268209917 0.3175714599
| 10> S 2.7143071101 -1.9145464394 1.2403783141
| 11> O 3.5830487761 0.5770578951 -0.2108150629
| 12> C 4.7284488106 -0.0757490578 -0.7848192374
| 13> C 4.4099875579 -0.7169065047 -2.1201088797
| 14> S 1.0158499026 -0.3284250127 -1.3467566219
| 15> C -0.1375016322 -1.5119896227 -0.5972086056
| 16> S -1.1969605274 -0.7646426191 0.6600706328
| 17> P -2.4650945688 0.2892031114 -0.69934278
| 18> S -2.8194112682 -0.6146559398 -2.3976627471
| 19> O -1.8075655771 1.6992722628 -0.9461409846
| 20> C -1.1506355397 2.5672774039 0.008202579
| 21> C -1.9512625679 2.7746995227 1.2753399036
| 22> O -3.7577010909 0.6393756971 0.155501998
| 23> C -4.8879562372 -0.2456760955 0.2429137767
| 24> C -4.5647230498 -1.5225071177 0.9917846286
| 25> H 3.1975714652 1.6805447981 4.0181252687
| 26> H 3.8866707524 0.7835729007 2.6568964082
| 27> H 3.3243753547 2.4451654705 2.4217968856
| 28> H 0.9674150744 1.6821121149 2.9127835999
| 29> H 1.5834534711 0.0098734511 3.0550381502
| 30> H 5.4627648919 0.7243989336 -0.8866592488
| 31> H 5.0900424758 -0.8272583528 -0.0755270086
| 32> H 3.9517337266 0.0079404488 -2.7885801697
| 33> H 5.3247374239 -1.0924946931 -2.5673630849
| 34> H 3.7189474897 -1.5475370719 -1.9802432783
| 35> H 0.4268606189 -2.3076678396 -0.1102175122
| 36> H -0.7583632483 -1.8983943403 -1.40652128
| 37> H -0.1671316789 2.1438917154 0.2288200219
| 38> H -1.028757448 3.4974528852 -0.5493541099
| 39> H -1.4455062272 3.5082963208 1.8960913044
| 40> H -2.9487004568 3.1337813383 1.0356259112
| 41> H -2.0372226189 1.8393504446 1.8256003036
| 42> H -5.6410798769 0.3468545439 0.7641886933
| 43> H -5.2289353068 -0.4720909261 -0.7721667088
| 44> H -3.8680360496 -2.1278340689 0.4139927111
| 45> H -4.1166923279 -1.2950498626 1.9556852285
| 46> H -5.4779108061 -2.0890061039 1.1433110559
| 47> *
| 48>
| 49>                          ****END OF INPUT****

CARTESIAN COORDINATES (ANGSTROEM)
---------------------------------
  C      3.132209    1.513667    2.947591
  C      1.753411    0.992241    2.603483
  O      1.571183    0.874768    1.175878
  P      2.319953   -0.226821    0.317571
  S      2.714307   -1.914546    1.240378
  O      3.583049    0.577058   -0.210815
  C      4.728449   -0.075749   -0.784819
  C      4.409988   -0.716907   -2.120109
  S      1.015850   -0.328425   -1.346757
  C     -0.137502   -1.511990   -0.597209
  S     -1.196961   -0.764643    0.660071
  P     -2.465095    0.289203   -0.699343
  S     -2.819411   -0.614656   -2.397663
  O     -1.807566    1.699272   -0.946141
  C     -1.150636    2.567277    0.008203
  C     -1.951263    2.774700    1.275340
  O     -3.757701    0.639376    0.155502
  C     -4.887956   -0.245676    0.242914
  C     -4.564723   -1.522507    0.991785
  H      3.197571    1.680545    4.018125
  H      3.886671    0.783573    2.656896
  H      3.324375    2.445165    2.421797
  H      0.967415    1.682112    2.912784
  H      1.583453    0.009873    3.055038
  H      5.462765    0.724399   -0.886659
  H      5.090042   -0.827258   -0.075527
  H      3.951734    0.007940   -2.788580
  H      5.324737   -1.092495   -2.567363
  H      3.718947   -1.547537   -1.980243
  H      0.426861   -2.307668   -0.110218
  H     -0.758363   -1.898394   -1.406521
  H     -0.167132    2.143892    0.228820
  H     -1.028757    3.497453   -0.549354
  H     -1.445506    3.508296    1.896091
  H     -2.948700    3.133781    1.035626
  H     -2.037223    1.839350    1.825600
  H     -5.641080    0.346855    0.764189
  H     -5.228935   -0.472091   -0.772167
  H     -3.868036   -2.127834    0.413993
  H     -4.116692   -1.295050    1.955685
  H     -5.477911   -2.089006    1.143311

 Total Charge           Charge          ....    0
 Multiplicity           Mult            ....    1
 Number of Electrons    NEL             ....  202
 Basis Dimension        Dim             ....  334

ORBITAL ENERGIES
----------------

  NO   OCC          E(Eh)            E(eV)
   0   2.0000     -88.044235     -2395.8054
   1   2.0000     -88.042022     -2395.7452
   2   2.0000     -87.995628     -2394.4828
   3   2.0000     -87.982475     -2394.1249
   4   2.0000     -76.431696     -2079.8122
   5   2.0000     -76.425372     -2079.6401
   6   2.0000     -18.799780      -511.5680
   7   2.0000     -18.797427      -511.5040
   8   2.0000     -18.793656      -511.4014
   9   2.0000     -18.787360      -511.2300
  10   2.0000      -9.957530      -270.9582
  11   2.0000      -9.957317      -270.9524
  12   2.0000      -9.952457      -270.8201
  13   2.0000      -9.951682      -270.7990
  14   2.0000      -9.949497      -270.7396
  15   2.0000      -9.889490      -269.1067
  16   2.0000      -9.887116      -269.0421
  17   2.0000      -9.886861      -269.0352
  18   2.0000      -9.883402      -268.9410
  19   2.0000      -7.689229      -209.2346
  20   2.0000      -7.686715      -209.1661
  21   2.0000      -7.640458      -207.9074
  22   2.0000      -7.627800      -207.5630
  23   2.0000      -6.429433      -174.9538
  24   2.0000      -6.422606      -174.7680
  25   2.0000      -5.717001      -155.5675
  26   2.0000      -5.714410      -155.4970
  27   2.0000      -5.713943      -155.4843
  28   2.0000      -5.711335      -155.4133
  29   2.0000      -5.706111      -155.2712
  30   2.0000      -5.703812      -155.2086
  31   2.0000      -5.669205      -154.2669
  32   2.0000      -5.661117      -154.0468
  33   2.0000      -5.660792      -154.0380
  34   2.0000      -5.656759      -153.9282
  35   2.0000      -5.648359      -153.6997
  36   2.0000      -5.647920      -153.6877
  37   2.0000      -4.651886      -126.5842
  38   2.0000      -4.651152      -126.5643
  39   2.0000      -4.649984      -126.5325
  40   2.0000      -4.645386      -126.4074
  41   2.0000      -4.644391      -126.3803
  42   2.0000      -4.642920      -126.3403
  43   2.0000      -0.993790       -27.0424
  44   2.0000      -0.985024       -26.8039
  45   2.0000      -0.953187       -25.9375
  46   2.0000      -0.943283       -25.6680
  47   2.0000      -0.765198       -20.8221
  48   2.0000      -0.723068       -19.6757
  49   2.0000      -0.710476       -19.3330
  50   2.0000      -0.691991       -18.8300
  51   2.0000      -0.689439       -18.7606
  52   2.0000      -0.678830       -18.4719
  53   2.0000      -0.653882       -17.7930
  54   2.0000      -0.638398       -17.3717
  55   2.0000      -0.606900       -16.5146
  56   2.0000      -0.596141       -16.2218
  57   2.0000      -0.577716       -15.7205
  58   2.0000      -0.575329       -15.6555
  59   2.0000      -0.560069       -15.2402
  60   2.0000      -0.500246       -13.6124
  61   2.0000      -0.489905       -13.3310
  62   2.0000      -0.479361       -13.0441
  63   2.0000      -0.469133       -12.7657
  64   2.0000      -0.461663       -12.5625
  65   2.0000      -0.445966       -12.1353
  66   2.0000      -0.443537       -12.0693
  67   2.0000      -0.441233       -12.0066
  68   2.0000      -0.430428       -11.7125
  69   2.0000      -0.422704       -11.5024
  70   2.0000      -0.410257       -11.1637
  71   2.0000      -0.399628       -10.8744
  72   2.0000      -0.396407       -10.7868
  73   2.0000      -0.391867       -10.6632
  74   2.0000      -0.380856       -10.3636
  75   2.0000      -0.375917       -10.2292
  76   2.0000      -0.368272       -10.0212
  77   2.0000      -0.363183        -9.8827
  78   2.0000      -0.359282        -9.7766
  79   2.0000      -0.353357        -9.6153
  80   2.0000      -0.351702        -9.5703
  81   2.0000      -0.349140        -9.5006
  82   2.0000      -0.344484        -9.3739
  83   2.0000      -0.341598        -9.2954
  84   2.0000      -0.335473        -9.1287
  85   2.0000      -0.322709        -8.7814
  86   2.0000      -0.311761        -8.4834
  87   2.0000      -0.300282        -8.1711
  88   2.0000      -0.292559        -7.9609
  89   2.0000      -0.290641        -7.9087
  90   2.0000      -0.289710        -7.8834
  91   2.0000      -0.280086        -7.6215
  92   2.0000      -0.270610        -7.3637
  93   2.0000      -0.264947        -7.2096
  94   2.0000      -0.260600        -7.0913
  95   2.0000      -0.236409        -6.4330
  96   2.0000      -0.219476        -5.9722
  97   2.0000      -0.216787        -5.8991
  98   2.0000      -0.207872        -5.6565
  99   2.0000      -0.202227        -5.5029
 100   2.0000      -0.198875        -5.4117
 101   0.0000      -0.045215        -1.2304
 102   0.0000      -0.026511        -0.7214
 103   0.0000      -0.004613        -0.1255
 104   0.0000      -0.000246        -0.0067
 105   0.0000       0.014427         0.3926

MULLIKEN ATOMIC CHARGES
-----------------------
   0 C :   -0.305899
   1 C :   -0.004366
   2 O :   -0.358833
   3 P :    0.611734
   4 S :   -0.333515
   5 O :   -0.370142
   6 C :   -0.006272
   7 C :   -0.318544
   8 S :   -0.059930
   9 C :   -0.373817
  10 S :   -0.100293
  11 P :    0.605351
  12 S :   -0.319662
  13 O :   -0.355568
  14 C :   -0.024872
  15 C :   -0.316292
  16 O :   -0.376314
  17 C :   -0.002005
  18 C :   -0.314802
  19 H :    0.114105
  20 H :    0.123357
  21 H :    0.116975
  22 H :    0.104574
  23 H :    0.114517
  24 H :    0.107701
  25 H :    0.112133
  26 H :    0.122260
  27 H :    0.115619
  28 H :    0.129575
  29 H :    0.192162
  30 H :    0.196342
  31 H :    0.141583
  32 H :    0.105943
  33 H :    0.111351
  34 H :    0.122438
  35 H :    0.118670
  36 H :    0.104159
  37 H :    0.114700
  38 H :    0.127733
  39 H :    0.114869
  40 H :    0.113274
Sum of atomic charges:    0.0000000

LOEWDIN ATOMIC CHARGES
----------------------
   0 C :   -0.363775
   1 C :   -0.117508
   2 O :   -0.235259
   3 P :    0.575245
   4 S :   -0.320294
   5 O :   -0.241723
   6 C :   -0.118626
   7 C :   -0.369463
   8 S :    0.102577
   9 C :   -0.490378
  10 S :    0.075137
  11 P :    0.574984
  12 S :   -0.314308
  13 O :   -0.232703
  14 C :   -0.118625
  15 C :   -0.367827
  16 O :   -0.242669
  17 C :   -0.117486
  18 C :   -0.370358
  19 H :    0.131423
  20 H :    0.123245
  21 H :    0.126682
  22 H :    0.116676
  23 H :    0.111718
  24 H :    0.119914
  25 H :    0.111121
  26 H :    0.126403
  27 H :    0.132512
  28 H :    0.122506
  29 H :    0.128135
  30 H :    0.128872
  31 H :    0.112469
  32 H :    0.121703
  33 H :    0.128833
  34 H :    0.127889
  35 H :    0.116009
  36 H :    0.118298
  37 H :    0.113173
  38 H :    0.121596
  39 H :    0.122648
  40 H :    0.131233

  Mayer bond orders larger than 0.100000
B(  0-C ,  1-C ) :   1.1640 B(  0-C , 19-H ) :   0.9391 B(  0-C , 20-H ) :   0.9367
B(  0-C , 21-H ) :   0.9462 B(  1-C ,  2-O ) :   0.8979 B(  1-C , 22-H ) :   0.9321
B(  1-C , 23-H ) :   0.9158 B(  2-O ,  3-P ) :   1.1104 B(  3-P ,  4-S ) :   1.5871
B(  3-P ,  5-O ) :   1.1158 B(  3-P ,  8-S ) :   0.9686 B(  4-S ,  8-S ) :   0.1091
B(  5-O ,  6-C ) :   0.9049 B(  6-C ,  7-C ) :   1.1661 B(  6-C , 24-H ) :   0.9335
B(  6-C , 25-H ) :   0.9169 B(  7-C , 26-H ) :   0.9444 B(  7-C , 27-H ) :   0.9375
B(  7-C , 28-H ) :   0.9351 B(  8-S ,  9-C ) :   1.0012 B(  9-C , 10-S ) :   1.0077
B(  9-C , 29-H ) :   0.8710 B(  9-C , 30-H ) :   0.8655 B( 10-S , 11-P ) :   0.9347
B( 10-S , 12-S ) :   0.1081 B( 11-P , 12-S ) :   1.6197 B( 11-P , 13-O ) :   1.1569
B( 11-P , 16-O ) :   1.0919 B( 13-O , 14-C ) :   0.8927 B( 14-C , 15-C ) :   1.1725
B( 14-C , 31-H ) :   0.9007 B( 14-C , 32-H ) :   0.9330 B( 15-C , 33-H ) :   0.9348
B( 15-C , 34-H ) :   0.9417 B( 15-C , 35-H ) :   0.9372 B( 16-O , 17-C ) :   0.9063
B( 17-C , 18-C ) :   1.1654 B( 17-C , 36-H ) :   0.9340 B( 17-C , 37-H ) :   0.9162
B( 18-C , 38-H ) :   0.9348 B( 18-C , 39-H ) :   0.9449 B( 18-C , 40-H ) :   0.9374

Dispersion correction           -0.066317766
FINAL SINGLE POINT ENERGY     -2929.523635763678

DIPOLE MOMENT
-------------

Method             : SCF
Type of density    : Electron Density
Multiplicity       :   1
Irrep              :   0
Energy             : -2929.6435699753183144 Eh
Relativity type    :
Basis              : AO
                                X                 Y                 Z
Electronic contribution:     -3.606385615      -6.844523714     -11.594346503
Nuclear contribution   :      4.087436373       7.747509278      12.772803188
                        -----------------------------------------
Total Dipole Moment    :      0.481050757       0.902985564       1.178456685
                        -----------------------------------------
Magnitude (a.u.)       :      1.560625810
Magnitude (Debye)      :      3.966795563

Rotational constants in cm-1:             0.013220             0.004792             0.004415
Rotational constants in MHz :           396.324101           143.650604           132.371853

                             ****ORCA TERMINATED NORMALLY****
TOTAL RUN TIME: 0 days 0 hours 0 minutes 21 seconds 623 msec
