                         Program Version 6.0.0  -   RELEASE  -
|  1> ! pbe def2-sv(p) def2/J RI DEFGRID1 loosescf d4 GCP(DFT/SV(P)) printgap
|  2> %output
|  3>     printlevel normal
|  4> end
|  5> * xyz 0 1
|  6> C -1.8426988815 -0.0002722605 0.0818136401
|  7> C -1.0585037184 1.2493352522 -0.3005980504
|  8> C 0.3072374445 1.2644916044 0.3955362452
|  9> C 1.0665496958 7.97796e-05 0.1001603324
| 10> O 2.1990670586 4.25772e-05 -0.3440433549
| 11> C 0.3073305377 -1.2643089031 0.3959803629
| 12> C -1.0579593415 -1.2494084585 -0.3010101617
| 13> H -2.8053967961 -0.0003465223 -0.4309906724
| 14> H -2.0319876682 -0.0005147792 1.1567443256
| 15> H -0.9083745969 1.2703205106 -1.3821305833
| 16> H -1.6115746006 2.1465917172 -0.0209291059
| 17> H 0.8989202429 2.1247005609 0.0791529884
| 18> H 0.1584954091 1.3204442333 1.4758292899
| 19> H 0.8992607481 -2.1246313817 0.0804640921
| 20> H 0.1578537262 -1.3195637619 1.4762208627
| 21> H -0.907169208 -1.2696428891 -1.3824606591
| 22> H -1.6108803668 -2.1470446288 -0.0222268354
| 23> *
| 24>
| 25>                          ****END OF INPUT****

CARTESIAN COORDINATES (ANGSTROEM)
---------------------------------
  C     -1.842699   -0.000272    0.081814
  C     -1.058504    1.249335   -0.300598
  C      0.307237    1.264492    0.395536
  C      1.066550    0.000080    0.100160
  O      2.199067    0.000043   -0.344043
  C      0.307331   -1.264309    0.395980
  C     -1.057959   -1.249408   -0.301010
  H     -2.805397   -0.000347   -0.430991
  H     -2.031988   -0.000515    1.156744
  H     -0.908375    1.270321   -1.382131
  H     -1.611575    2.146592   -0.020929
  H      0.898920    2.124701    0.079153
  H      0.158495    1.320444    1.475829
  H      0.899261   -2.124631    0.080464
  H      0.157854   -1.319564    1.476221
  H     -0.907169   -1.269643   -1.382461
  H     -1.610880   -2.147045   -0.022227

 Total Charge           Charge          ....    0
 Multiplicity           Mult            ....    1
 Number of Electrons    NEL             ....   54
 Basis Dimension        Dim             ....  118

ORBITAL ENERGIES
----------------

  NO   OCC          E(Eh)            E(eV)
   0   2.0000     -18.731950      -509.7223
   1   2.0000      -9.968654      -271.2609
   2   2.0000      -9.899301      -269.3737
   3   2.0000      -9.899274      -269.3729
   4   2.0000      -9.895472      -269.2695
   5   2.0000      -9.891977      -269.1744
   6   2.0000      -9.891966      -269.1741
   7   2.0000      -0.929330       -25.2884
   8   2.0000      -0.761490       -20.7212
   9   2.0000      -0.683917       -18.6103
  10   2.0000      -0.656145       -17.8546
  11   2.0000      -0.561795       -15.2872
  12   2.0000      -0.531924       -14.4744
  13   2.0000      -0.480469       -13.0742
  14   2.0000      -0.430174       -11.7056
  15   2.0000      -0.416718       -11.3395
  16   2.0000      -0.397199       -10.8083
  17   2.0000      -0.393585       -10.7100
  18   2.0000      -0.373462       -10.1624
  19   2.0000      -0.353063        -9.6073
  20   2.0000      -0.350031        -9.5248
  21   2.0000      -0.320448        -8.7198
  22   2.0000      -0.319234        -8.6868
  23   2.0000      -0.296504        -8.0683
  24   2.0000      -0.287669        -7.8279
  25   2.0000      -0.285306        -7.7636
  26   2.0000      -0.187752        -5.1090
  27   0.0000      -0.050353        -1.3702
  28   0.0000       0.035057         0.9539
  29   0.0000       0.048730         1.3260
  30   0.0000       0.065905         1.7934
  31   0.0000       0.081412         2.2153

MULLIKEN ATOMIC CHARGES
-----------------------
   0 C :   -0.169530
   1 C :   -0.170044
   2 C :   -0.110157
   3 C :   -0.042195
   4 O :   -0.161210
   5 C :   -0.110093
   6 C :   -0.170067
   7 H :    0.094851
   8 H :    0.083201
   9 H :    0.092323
  10 H :    0.096006
  11 H :    0.092461
  12 H :    0.096842
  13 H :    0.092444
  14 H :    0.096815
  15 H :    0.092331
  16 H :    0.096022
Sum of atomic charges:    0.0000000

LOEWDIN ATOMIC CHARGES
----------------------
   0 C :   -0.229765
   1 C :   -0.220534
   2 C :   -0.246464
   3 C :    0.042503
   4 O :   -0.129900
   5 C :   -0.246450
   6 C :   -0.220526
   7 H :    0.122184
   8 H :    0.115975
   9 H :    0.120931
  10 H :    0.121525
  11 H :    0.129114
  12 H :    0.134936
  13 H :    0.129106
  14 H :    0.134908
  15 H :    0.120931
  16 H :    0.121525

  Mayer bond orders larger than 0.100000
B(  0-C ,  1-C ) :   1.1233 B(  0-C ,  6-C ) :   1.1232 B(  0-C ,  7-H ) :   0.9150
B(  0-C ,  8-H ) :   0.9198 B(  1-C ,  2-C ) :   1.1078 B(  1-C ,  9-H ) :   0.9171
B(  1-C , 10-H ) :   0.9171 B(  2-C ,  3-C ) :   1.0234 B(  2-C , 11-H ) :   0.8974
B(  2-C , 12-H ) :   0.8892 B(  3-C ,  4-O ) :   2.2042 B(  3-C ,  5-C ) :   1.0233
B(  5-C ,  6-C ) :   1.1077 B(  5-C , 13-H ) :   0.8974 B(  5-C , 14-H ) :   0.8893
B(  6-C , 15-H ) :   0.9171 B(  6-C , 16-H ) :   0.9171

Dispersion correction           -0.014757613
FINAL SINGLE POINT ENERGY      -309.182011139558

DIPOLE MOMENT
-------------

Method             : SCF
Type of density    : Electron Density
Multiplicity       :   1
Irrep              :   0
Energy             :  -309.2396398691043942 Eh
Relativity type    :
Basis              : AO
                                X                 Y                 Z
Electronic contribution:      6.138664014      -0.000242668      -0.619003380
Nuclear contribution   :     -7.248368181       0.000294333       0.960904391
                        -----------------------------------------
Total Dipole Moment    :     -1.109704166       0.000051665       0.341901011
                        -----------------------------------------
Magnitude (a.u.)       :      1.161180279
Magnitude (Debye)      :      2.951485711

Rotational constants in cm-1:             0.141802             0.084508             0.059628
Rotational constants in MHz :          4251.111755          2533.478869          1787.606904

                             ****ORCA TERMINATED NORMALLY****
TOTAL RUN TIME: 0 days 0 hours 0 minutes 7 seconds 800 msec
