                         Program Version 6.0.0  -   RELEASE  -
|  1> ! pbe def2-sv(p) def2/J RI DEFGRID1 loosescf d4 GCP(DFT/SV(P)) printgap
|  2> %output
|  3>     printlevel normal
|  4> end
|  5> * xyz 0 1
|  6> C 3.8146416764 0.3093024061 -2.7953774899
|  7> C 2.52383106 0.2884009867 -2.0034224889
|  8> O 2.7963472568 -0.3372658337 -0.7348781485
|  9> P 1.8873448351 -0.1371510874 0.5487642886
| 10> S 1.41143436 1.7090473117 0.9755432416
| 11> O 2.7460123053 -0.7618016251 1.7121977103
| 12> C 3.3808387136 -2.064208492 1.6487621172
| 13> C 4.8171017576 -1.9409356995 1.1835821985
| 14> S 0.3618898014 -1.6037621506 0.215722708
| 15> C -0.6226979159 -1.3472590973 1.7074688767
| 16> S -1.5593271182 0.2225586099 1.7533471866
| 17> P -2.1431600418 0.4063393914 -0.2647245079
| 18> S -0.9241146913 0.8976582647 -1.7308812077
| 19> O -3.3587735126 1.4299011325 -0.1579589828
| 20> C -3.1885741664 2.8483577662 -0.3058447826
| 21> C -2.3972669481 3.4433990592 0.8413391992
| 22> O -2.8881336108 -0.9799949234 -0.4139424008
| 23> C -3.2933438253 -1.5147844626 -1.6972368149
| 24> C -2.3151427241 -2.5757135531 -2.1597854511
| 25> H 4.1766359868 -0.7040490115 -2.942902493
| 26> H 3.6278688773 0.768450167 -3.7603954744
| 27> H 4.5687720478 0.8839130471 -2.2647583129
| 28> H 1.7475813504 -0.2880756047 -2.5131733321
| 29> H 2.1406113162 1.2983622592 -1.8248221555
| 30> H 3.3269343857 -2.4403875777 2.6719537891
| 31> H 2.8022488754 -2.7091993743 0.9819590976
| 32> H 5.358736752 -1.2530321518 1.8270499083
| 33> H 5.2881580797 -2.9180543675 1.2252965604
| 34> H 4.8526994652 -1.5678863617 0.163818757
| 35> H 0.0232060245 -1.3309496105 2.5839078179
| 36> H -1.3258446697 -2.1758684838 1.749576223
| 37> H -2.6855107147 3.040665756 -1.2595472893
| 38> H -4.2082881394 3.2342260125 -0.3374171828
| 39> H -2.3717425735 4.5238179587 0.7432631908
| 40> H -2.8500676474 3.1757721462 1.7929883314
| 41> H -1.3723889907 3.0681398552 0.8265079642
| 42> H -4.2861404081 -1.9307166864 -1.5204746437
| 43> H -3.3581246771 -0.6995017096 -2.4226984228
| 44> H -1.3375140651 -2.1314011011 -2.3324781933
| 45> H -2.2156886217 -3.3510762463 -1.4058109743
| 46> H -2.6753304 -3.0134364462 -3.0850398493
| 47> *
| 48>
| 49>                          ****END OF INPUT****

CARTESIAN COORDINATES (ANGSTROEM)
---------------------------------
  C      3.814642    0.309302   -2.795377
  C      2.523831    0.288401   -2.003422
  O      2.796347   -0.337266   -0.734878
  P      1.887345   -0.137151    0.548764
  S      1.411434    1.709047    0.975543
  O      2.746012   -0.761802    1.712198
  C      3.380839   -2.064208    1.648762
  C      4.817102   -1.940936    1.183582
  S      0.361890   -1.603762    0.215723
  C     -0.622698   -1.347259    1.707469
  S     -1.559327    0.222559    1.753347
  P     -2.143160    0.406339   -0.264725
  S     -0.924115    0.897658   -1.730881
  O     -3.358774    1.429901   -0.157959
  C     -3.188574    2.848358   -0.305845
  C     -2.397267    3.443399    0.841339
  O     -2.888134   -0.979995   -0.413942
  C     -3.293344   -1.514784   -1.697237
  C     -2.315143   -2.575714   -2.159785
  H      4.176636   -0.704049   -2.942902
  H      3.627869    0.768450   -3.760395
  H      4.568772    0.883913   -2.264758
  H      1.747581   -0.288076   -2.513173
  H      2.140611    1.298362   -1.824822
  H      3.326934   -2.440388    2.671954
  H      2.802249   -2.709199    0.981959
  H      5.358737   -1.253032    1.827050
  H      5.288158   -2.918054    1.225297
  H      4.852699   -1.567886    0.163819
  H      0.023206   -1.330950    2.583908
  H     -1.325845   -2.175868    1.749576
  H     -2.685511    3.040666   -1.259547
  H     -4.208288    3.234226   -0.337417
  H     -2.371743    4.523818    0.743263
  H     -2.850068    3.175772    1.792988
  H     -1.372389    3.068140    0.826508
  H     -4.286140   -1.930717   -1.520475
  H     -3.358125   -0.699502   -2.422698
  H     -1.337514   -2.131401   -2.332478
  H     -2.215689   -3.351076   -1.405811
  H     -2.675330   -3.013436   -3.085040

 Total Charge           Charge          ....    0
 Multiplicity           Mult            ....    1
 Number of Electrons    NEL             ....  202
 Basis Dimension        Dim             ....  334

ORBITAL ENERGIES
----------------

  NO   OCC          E(Eh)            E(eV)
   0   2.0000     -88.042333     -2395.7537
   1   2.0000     -88.033985     -2395.5265
   2   2.0000     -87.977774     -2393.9969
   3   2.0000     -87.975886     -2393.9456
   4   2.0000     -76.422294     -2079.5563
   5   2.0000     -76.421055     -2079.5226
   6   2.0000     -18.792592      -511.3724
   7   2.0000     -18.790849      -511.3250
   8   2.0000     -18.786980      -511.2197
   9   2.0000     -18.783165      -511.1159
  10   2.0000      -9.959726      -271.0179
  11   2.0000      -9.955337      -270.8985
  12   2.0000      -9.950433      -270.7651
  13   2.0000      -9.946766      -270.6653
  14   2.0000      -9.942937      -270.5611
  15   2.0000      -9.885747      -269.0049
  16   2.0000      -9.885120      -268.9878
  17   2.0000      -9.880794      -268.8701
  18   2.0000      -9.874482      -268.6983
  19   2.0000      -7.686665      -209.1648
  20   2.0000      -7.679334      -208.9653
  21   2.0000      -7.622632      -207.4223
  22   2.0000      -7.620924      -207.3759
  23   2.0000      -6.419615      -174.6866
  24   2.0000      -6.418267      -174.6499
  25   2.0000      -5.714511      -155.4997
  26   2.0000      -5.711155      -155.4084
  27   2.0000      -5.707582      -155.3112
  28   2.0000      -5.703961      -155.2127
  29   2.0000      -5.703713      -155.2059
  30   2.0000      -5.695730      -154.9887
  31   2.0000      -5.651551      -153.7865
  32   2.0000      -5.650077      -153.7464
  33   2.0000      -5.643368      -153.5639
  34   2.0000      -5.642669      -153.5448
  35   2.0000      -5.641484      -153.5126
  36   2.0000      -5.640889      -153.4964
  37   2.0000      -4.642652      -126.3330
  38   2.0000      -4.641454      -126.3004
  39   2.0000      -4.641012      -126.2883
  40   2.0000      -4.640093      -126.2634
  41   2.0000      -4.639581      -126.2494
  42   2.0000      -4.638591      -126.2225
  43   2.0000      -0.986906       -26.8551
  44   2.0000      -0.980231       -26.6734
  45   2.0000      -0.944600       -25.7039
  46   2.0000      -0.939628       -25.5686
  47   2.0000      -0.761045       -20.7091
  48   2.0000      -0.718036       -19.5388
  49   2.0000      -0.707064       -19.2402
  50   2.0000      -0.690889       -18.8000
  51   2.0000      -0.679599       -18.4928
  52   2.0000      -0.666310       -18.1312
  53   2.0000      -0.647379       -17.6161
  54   2.0000      -0.634075       -17.2541
  55   2.0000      -0.591896       -16.1063
  56   2.0000      -0.583650       -15.8819
  57   2.0000      -0.570260       -15.5176
  58   2.0000      -0.569194       -15.4886
  59   2.0000      -0.560224       -15.2445
  60   2.0000      -0.507322       -13.8049
  61   2.0000      -0.494825       -13.4649
  62   2.0000      -0.481399       -13.0995
  63   2.0000      -0.463385       -12.6094
  64   2.0000      -0.454812       -12.3761
  65   2.0000      -0.442724       -12.0471
  66   2.0000      -0.435742       -11.8571
  67   2.0000      -0.431087       -11.7305
  68   2.0000      -0.427095       -11.6218
  69   2.0000      -0.412803       -11.2329
  70   2.0000      -0.405811       -11.0427
  71   2.0000      -0.392995       -10.6939
  72   2.0000      -0.390063       -10.6141
  73   2.0000      -0.381922       -10.3926
  74   2.0000      -0.375026       -10.2050
  75   2.0000      -0.370674       -10.0866
  76   2.0000      -0.365652        -9.9499
  77   2.0000      -0.356605        -9.7037
  78   2.0000      -0.352596        -9.5946
  79   2.0000      -0.350397        -9.5348
  80   2.0000      -0.348009        -9.4698
  81   2.0000      -0.343259        -9.3406
  82   2.0000      -0.340341        -9.2612
  83   2.0000      -0.338339        -9.2067
  84   2.0000      -0.327317        -8.9068
  85   2.0000      -0.316170        -8.6034
  86   2.0000      -0.303768        -8.2660
  87   2.0000      -0.296628        -8.0717
  88   2.0000      -0.292290        -7.9536
  89   2.0000      -0.289846        -7.8871
  90   2.0000      -0.280715        -7.6386
  91   2.0000      -0.274178        -7.4608
  92   2.0000      -0.267382        -7.2758
  93   2.0000      -0.256388        -6.9767
  94   2.0000      -0.254773        -6.9327
  95   2.0000      -0.245873        -6.6905
  96   2.0000      -0.220630        -6.0037
  97   2.0000      -0.207171        -5.6374
  98   2.0000      -0.185585        -5.0500
  99   2.0000      -0.180907        -4.9227
 100   2.0000      -0.180538        -4.9127
 101   0.0000      -0.050269        -1.3679
 102   0.0000      -0.027777        -0.7559
 103   0.0000      -0.010919        -0.2971
 104   0.0000       0.004912         0.1337
 105   0.0000       0.018447         0.5020

MULLIKEN ATOMIC CHARGES
-----------------------
   0 C :   -0.278882
   1 C :   -0.025121
   2 O :   -0.386895
   3 P :    0.607485
   4 S :   -0.284937
   5 O :   -0.360438
   6 C :   -0.012327
   7 C :   -0.292957
   8 S :   -0.117732
   9 C :   -0.316951
  10 S :   -0.084079
  11 P :    0.616888
  12 S :   -0.335393
  13 O :   -0.371088
  14 C :   -0.000409
  15 C :   -0.341154
  16 O :   -0.375316
  17 C :    0.001099
  18 C :   -0.293296
  19 H :    0.112339
  20 H :    0.113792
  21 H :    0.119169
  22 H :    0.112809
  23 H :    0.120952
  24 H :    0.105224
  25 H :    0.100204
  26 H :    0.120261
  27 H :    0.108031
  28 H :    0.125648
  29 H :    0.179939
  30 H :    0.187235
  31 H :    0.108710
  32 H :    0.101023
  33 H :    0.111701
  34 H :    0.117759
  35 H :    0.153549
  36 H :    0.105651
  37 H :    0.103547
  38 H :    0.130374
  39 H :    0.106761
  40 H :    0.106823
Sum of atomic charges:   -0.0000000

LOEWDIN ATOMIC CHARGES
----------------------
   0 C :   -0.351693
   1 C :   -0.120198
   2 O :   -0.247046
   3 P :    0.562953
   4 S :   -0.293974
   5 O :   -0.239096
   6 C :   -0.117974
   7 C :   -0.359863
   8 S :    0.078779
   9 C :   -0.469876
  10 S :    0.091473
  11 P :    0.569037
  12 S :   -0.319716
  13 O :   -0.247164
  14 C :   -0.122513
  15 C :   -0.373516
  16 O :   -0.247939
  17 C :   -0.112813
  18 C :   -0.362197
  19 H :    0.123499
  20 H :    0.131923
  21 H :    0.127842
  22 H :    0.109362
  23 H :    0.112336
  24 H :    0.118622
  25 H :    0.102165
  26 H :    0.128964
  27 H :    0.128794
  28 H :    0.126487
  29 H :    0.133029
  30 H :    0.134995
  31 H :    0.107989
  32 H :    0.116640
  33 H :    0.131056
  34 H :    0.123508
  35 H :    0.125864
  36 H :    0.118098
  37 H :    0.109953
  38 H :    0.123050
  39 H :    0.121150
  40 H :    0.128012

  Mayer bond orders larger than 0.100000
B(  0-C ,  1-C ) :   1.1533 B(  0-C , 19-H ) :   0.9500 B(  0-C , 20-H ) :   0.9423
B(  0-C , 21-H ) :   0.9498 B(  1-C ,  2-O ) :   0.8992 B(  1-C , 22-H ) :   0.9282
B(  1-C , 23-H ) :   0.9113 B(  2-O ,  3-P ) :   1.0868 B(  3-P ,  4-S ) :   1.7010
B(  3-P ,  5-O ) :   1.1220 B(  3-P ,  8-S ) :   0.9223 B(  4-S ,  8-S ) :   0.1162
B(  5-O ,  6-C ) :   0.8957 B(  6-C ,  7-C ) :   1.1661 B(  6-C , 24-H ) :   0.9361
B(  6-C , 25-H ) :   0.9086 B(  7-C , 26-H ) :   0.9469 B(  7-C , 27-H ) :   0.9396
B(  7-C , 28-H ) :   0.9412 B(  8-S ,  9-C ) :   1.0133 B(  9-C , 10-S ) :   0.9831
B(  9-C , 29-H ) :   0.9062 B(  9-C , 30-H ) :   0.9083 B( 10-S , 11-P ) :   0.9814
B( 10-S , 12-S ) :   0.1183 B( 11-P , 12-S ) :   1.5760 B( 11-P , 13-O ) :   1.1105
B( 11-P , 16-O ) :   1.1178 B( 13-O , 14-C ) :   0.9107 B( 14-C , 15-C ) :   1.1631
B( 14-C , 31-H ) :   0.9115 B( 14-C , 32-H ) :   0.9326 B( 15-C , 33-H ) :   0.9379
B( 15-C , 34-H ) :   0.9439 B( 15-C , 35-H ) :   0.9262 B( 16-O , 17-C ) :   0.8905
B( 17-C , 18-C ) :   1.1722 B( 17-C , 36-H ) :   0.9340 B( 17-C , 37-H ) :   0.9118
B( 18-C , 38-H ) :   0.9359 B( 18-C , 39-H ) :   0.9472 B( 18-C , 40-H ) :   0.9399

Dispersion correction           -0.067494120
FINAL SINGLE POINT ENERGY     -2929.510841494500

DIPOLE MOMENT
-------------

Method             : SCF
Type of density    : Electron Density
Multiplicity       :   1
Irrep              :   0
Energy             : -2929.6267856812273749 Eh
Relativity type    :
Basis              : AO
                                X                 Y                 Z
Electronic contribution:     -8.839733420       5.094345156      10.314139464
Nuclear contribution   :      8.895028703      -6.402760082     -10.699626990
                        -----------------------------------------
Total Dipole Moment    :      0.055295283      -1.308414927      -0.385487526
                        -----------------------------------------
Magnitude (a.u.)       :      1.365140220
Magnitude (Debye)      :      3.469910682

Rotational constants in cm-1:             0.011549             0.005468             0.005282
Rotational constants in MHz :           346.238535           163.937906           158.351257

                             ****ORCA TERMINATED NORMALLY****
TOTAL RUN TIME: 0 days 0 hours 0 minutes 21 seconds 387 msec
