                         Program Version 6.0.0  -   RELEASE  -
|  1> ! pbe def2-sv(p) def2/J RI DEFGRID1 loosescf d4 GCP(DFT/SV(P)) printgap
|  2> %output
|  3>     printlevel normal
|  4> end
|  5> * xyz 0 1
|  6> C 5.8444444829 -0.4069103224 -0.5406255266
|  7> C 4.4053957428 -0.7378736864 -0.879587039
|  8> O 3.5607702346 0.2195105756 -0.2087080045
|  9> P 2.034182543 0.4054527882 -0.6236209251
| 10> S 1.7417848504 0.7035107966 -2.532626582
| 11> O 1.6213380509 1.6022831745 0.3090559915
| 12> C 1.9160581437 1.6074085715 1.7315160591
| 13> C 1.0081224312 2.624585565 2.3887432538
| 14> S 1.1786320701 -1.3749053742 0.1724890241
| 15> C -0.0950808228 -1.7445405699 -1.0777885729
| 16> S -1.7382598411 -1.9359725156 -0.3582948024
| 17> P -1.9949307948 0.0678927232 0.3096314176
| 18> S -1.3680254352 1.4743689636 -0.9057258464
| 19> O -1.2836443149 0.1651377021 1.713577712
| 20> C -1.2497026546 -0.8537865566 2.747228356
| 21> C -2.6252705912 -1.3404774438 3.1447718336
| 22> O -3.5346252161 0.1624981126 0.6863298407
| 23> C -4.5466801393 0.5276159216 -0.2661072386
| 24> C -4.7279851794 -0.5215472245 -1.3441692501
| 25> H 6.0862667234 0.5958310817 -0.8817219389
| 26> H 5.9954076259 -0.4606548818 0.5334886073
| 27> H 6.4976704862 -1.1197653248 -1.0327339119
| 28> H 4.1311554224 -1.7366766532 -0.5291164302
| 29> H 4.2183895574 -0.6703002841 -1.9564010637
| 30> H 1.7440990979 0.6002262943 2.1240059112
| 31> H 2.9695013936 1.8677904644 1.848653585
| 32> H 1.2186317827 2.6566822655 3.4528041714
| 33> H 1.1752824877 3.6065121789 1.9550943429
| 34> H -0.0324290595 2.351012965 2.2310794755
| 35> H 0.1486950309 -2.6975044427 -1.5402539117
| 36> H -0.0933210503 -0.9360989864 -1.8146314112
| 37> H -0.6288228439 -1.6800153723 2.3883662239
| 38> H -0.7478812478 -0.3478898564 3.5735721402
| 39> H -3.0923081614 -1.8720026111 2.3184633828
| 40> H -2.5275400265 -2.0157408645 3.9892420834
| 41> H -3.2562439752 -0.501287144 3.4251033604
| 42> H -5.4455985527 0.6402875044 0.3416002315
| 43> H -4.2735436973 1.4904413976 -0.7095601342
| 44> H -5.5901849101 -0.2654296996 -1.9515360252
| 45> H -3.8469603571 -0.5547575582 -1.983446927
| 46> H -4.8773475655 -1.5018499541 -0.899014939
| 47> *
| 48>
| 49>                          ****END OF INPUT****

CARTESIAN COORDINATES (ANGSTROEM)
---------------------------------
  C      5.844444   -0.406910   -0.540626
  C      4.405396   -0.737874   -0.879587
  O      3.560770    0.219511   -0.208708
  P      2.034183    0.405453   -0.623621
  S      1.741785    0.703511   -2.532627
  O      1.621338    1.602283    0.309056
  C      1.916058    1.607409    1.731516
  C      1.008122    2.624586    2.388743
  S      1.178632   -1.374905    0.172489
  C     -0.095081   -1.744541   -1.077789
  S     -1.738260   -1.935973   -0.358295
  P     -1.994931    0.067893    0.309631
  S     -1.368025    1.474369   -0.905726
  O     -1.283644    0.165138    1.713578
  C     -1.249703   -0.853787    2.747228
  C     -2.625271   -1.340477    3.144772
  O     -3.534625    0.162498    0.686330
  C     -4.546680    0.527616   -0.266107
  C     -4.727985   -0.521547   -1.344169
  H      6.086267    0.595831   -0.881722
  H      5.995408   -0.460655    0.533489
  H      6.497670   -1.119765   -1.032734
  H      4.131155   -1.736677   -0.529116
  H      4.218390   -0.670300   -1.956401
  H      1.744099    0.600226    2.124006
  H      2.969501    1.867790    1.848654
  H      1.218632    2.656682    3.452804
  H      1.175282    3.606512    1.955094
  H     -0.032429    2.351013    2.231079
  H      0.148695   -2.697504   -1.540254
  H     -0.093321   -0.936099   -1.814631
  H     -0.628823   -1.680015    2.388366
  H     -0.747881   -0.347890    3.573572
  H     -3.092308   -1.872003    2.318463
  H     -2.527540   -2.015741    3.989242
  H     -3.256244   -0.501287    3.425103
  H     -5.445599    0.640288    0.341600
  H     -4.273544    1.490441   -0.709560
  H     -5.590185   -0.265430   -1.951536
  H     -3.846960   -0.554758   -1.983447
  H     -4.877348   -1.501850   -0.899015

 Total Charge           Charge          ....    0
 Multiplicity           Mult            ....    1
 Number of Electrons    NEL             ....  202
 Basis Dimension        Dim             ....  334

ORBITAL ENERGIES
----------------

  NO   OCC          E(Eh)            E(eV)
   0   2.0000     -88.046122     -2395.8568
   1   2.0000     -88.040868     -2395.7138
   2   2.0000     -87.978768     -2394.0240
   3   2.0000     -87.978420     -2394.0145
   4   2.0000     -76.424682     -2079.6213
   5   2.0000     -76.419783     -2079.4880
   6   2.0000     -18.792342      -511.3656
   7   2.0000     -18.792255      -511.3633
   8   2.0000     -18.787536      -511.2348
   9   2.0000     -18.784179      -511.1435
  10   2.0000      -9.957466      -270.9564
  11   2.0000      -9.954099      -270.8648
  12   2.0000      -9.952102      -270.8105
  13   2.0000      -9.950127      -270.7567
  14   2.0000      -9.948420      -270.7103
  15   2.0000      -9.889449      -269.1056
  16   2.0000      -9.886369      -269.0218
  17   2.0000      -9.883585      -268.9460
  18   2.0000      -9.877479      -268.7799
  19   2.0000      -7.690931      -209.2809
  20   2.0000      -7.685427      -209.1311
  21   2.0000      -7.623991      -207.4593
  22   2.0000      -7.623262      -207.4395
  23   2.0000      -6.421843      -174.7472
  24   2.0000      -6.417303      -174.6237
  25   2.0000      -5.718779      -155.6159
  26   2.0000      -5.715271      -155.5204
  27   2.0000      -5.713221      -155.4646
  28   2.0000      -5.709811      -155.3719
  29   2.0000      -5.708145      -155.3265
  30   2.0000      -5.702665      -155.1774
  31   2.0000      -5.653106      -153.8288
  32   2.0000      -5.652342      -153.8080
  33   2.0000      -5.644451      -153.5933
  34   2.0000      -5.644074      -153.5831
  35   2.0000      -5.643742      -153.5740
  36   2.0000      -5.643427      -153.5655
  37   2.0000      -4.644634      -126.3869
  38   2.0000      -4.643727      -126.3622
  39   2.0000      -4.642009      -126.3155
  40   2.0000      -4.640050      -126.2622
  41   2.0000      -4.639060      -126.2352
  42   2.0000      -4.637612      -126.1958
  43   2.0000      -0.987076       -26.8597
  44   2.0000      -0.983046       -26.7500
  45   2.0000      -0.945961       -25.7409
  46   2.0000      -0.937625       -25.5141
  47   2.0000      -0.761836       -20.7306
  48   2.0000      -0.718885       -19.5619
  49   2.0000      -0.710824       -19.3425
  50   2.0000      -0.691187       -18.8082
  51   2.0000      -0.686529       -18.6814
  52   2.0000      -0.676074       -18.3969
  53   2.0000      -0.646955       -17.6045
  54   2.0000      -0.630192       -17.1484
  55   2.0000      -0.596451       -16.2303
  56   2.0000      -0.581532       -15.8243
  57   2.0000      -0.576733       -15.6937
  58   2.0000      -0.563916       -15.3449
  59   2.0000      -0.563497       -15.3335
  60   2.0000      -0.507703       -13.8153
  61   2.0000      -0.492433       -13.3998
  62   2.0000      -0.477570       -12.9953
  63   2.0000      -0.472023       -12.8444
  64   2.0000      -0.451746       -12.2926
  65   2.0000      -0.448531       -12.2051
  66   2.0000      -0.441966       -12.0265
  67   2.0000      -0.435309       -11.8454
  68   2.0000      -0.432303       -11.7636
  69   2.0000      -0.418211       -11.3801
  70   2.0000      -0.410873       -11.1804
  71   2.0000      -0.398954       -10.8561
  72   2.0000      -0.394317       -10.7299
  73   2.0000      -0.379966       -10.3394
  74   2.0000      -0.373108       -10.1528
  75   2.0000      -0.366554        -9.9744
  76   2.0000      -0.362845        -9.8735
  77   2.0000      -0.361190        -9.8285
  78   2.0000      -0.354543        -9.6476
  79   2.0000      -0.349427        -9.5084
  80   2.0000      -0.347246        -9.4491
  81   2.0000      -0.345533        -9.4024
  82   2.0000      -0.337016        -9.1707
  83   2.0000      -0.335742        -9.1360
  84   2.0000      -0.331044        -9.0082
  85   2.0000      -0.313903        -8.5417
  86   2.0000      -0.310234        -8.4419
  87   2.0000      -0.297936        -8.1073
  88   2.0000      -0.295972        -8.0538
  89   2.0000      -0.292491        -7.9591
  90   2.0000      -0.290589        -7.9073
  91   2.0000      -0.275157        -7.4874
  92   2.0000      -0.265600        -7.2273
  93   2.0000      -0.260917        -7.0999
  94   2.0000      -0.254463        -6.9243
  95   2.0000      -0.237336        -6.4582
  96   2.0000      -0.221443        -6.0258
  97   2.0000      -0.211382        -5.7520
  98   2.0000      -0.198155        -5.3921
  99   2.0000      -0.190077        -5.1722
 100   2.0000      -0.182224        -4.9586
 101   0.0000      -0.041498        -1.1292
 102   0.0000      -0.031128        -0.8470
 103   0.0000      -0.007572        -0.2060
 104   0.0000       0.009157         0.2492
 105   0.0000       0.020487         0.5575

MULLIKEN ATOMIC CHARGES
-----------------------
   0 C :   -0.279988
   1 C :   -0.006553
   2 O :   -0.391266
   3 P :    0.611799
   4 S :   -0.289364
   5 O :   -0.345362
   6 C :   -0.016144
   7 C :   -0.288993
   8 S :   -0.139960
   9 C :   -0.335492
  10 S :   -0.116165
  11 P :    0.587601
  12 S :   -0.278496
  13 O :   -0.357257
  14 C :   -0.009086
  15 C :   -0.299008
  16 O :   -0.374649
  17 C :   -0.001115
  18 C :   -0.319275
  19 H :    0.121321
  20 H :    0.112154
  21 H :    0.110965
  22 H :    0.097070
  23 H :    0.102754
  24 H :    0.099836
  25 H :    0.106589
  26 H :    0.099623
  27 H :    0.119479
  28 H :    0.139897
  29 H :    0.179665
  30 H :    0.208082
  31 H :    0.113422
  32 H :    0.105689
  33 H :    0.119309
  34 H :    0.112630
  35 H :    0.121921
  36 H :    0.103502
  37 H :    0.114235
  38 H :    0.114459
  39 H :    0.131675
  40 H :    0.114491
Sum of atomic charges:    0.0000000

LOEWDIN ATOMIC CHARGES
----------------------
   0 C :   -0.350673
   1 C :   -0.123010
   2 O :   -0.254608
   3 P :    0.569516
   4 S :   -0.293647
   5 O :   -0.226052
   6 C :   -0.111315
   7 C :   -0.355583
   8 S :    0.055838
   9 C :   -0.478680
  10 S :    0.073202
  11 P :    0.562237
  12 S :   -0.286585
  13 O :   -0.233106
  14 C :   -0.117416
  15 C :   -0.365953
  16 O :   -0.243137
  17 C :   -0.118326
  18 C :   -0.371230
  19 H :    0.129224
  20 H :    0.124663
  21 H :    0.130322
  22 H :    0.105170
  23 H :    0.107609
  24 H :    0.101637
  25 H :    0.113450
  26 H :    0.125081
  27 H :    0.130039
  28 H :    0.131014
  29 H :    0.136445
  30 H :    0.125923
  31 H :    0.102570
  32 H :    0.118963
  33 H :    0.118219
  34 H :    0.131333
  35 H :    0.128744
  36 H :    0.117997
  37 H :    0.113181
  38 H :    0.131854
  39 H :    0.123092
  40 H :    0.121998

  Mayer bond orders larger than 0.100000
B(  0-C ,  1-C ) :   1.1595 B(  0-C , 19-H ) :   0.9509 B(  0-C , 20-H ) :   0.9513
B(  0-C , 21-H ) :   0.9423 B(  1-C ,  2-O ) :   0.9093 B(  1-C , 22-H ) :   0.9253
B(  1-C , 23-H ) :   0.9091 B(  2-O ,  3-P ) :   1.0673 B(  3-P ,  4-S ) :   1.6521
B(  3-P ,  5-O ) :   1.1478 B(  3-P ,  8-S ) :   0.9372 B(  4-S ,  8-S ) :   0.1139
B(  5-O ,  6-C ) :   0.8917 B(  6-C ,  7-C ) :   1.1659 B(  6-C , 24-H ) :   0.9147
B(  6-C , 25-H ) :   0.9306 B(  7-C , 26-H ) :   0.9397 B(  7-C , 27-H ) :   0.9478
B(  7-C , 28-H ) :   0.9342 B(  8-S ,  9-C ) :   0.9951 B(  9-C , 10-S ) :   1.0019
B(  9-C , 29-H ) :   0.9106 B(  9-C , 30-H ) :   0.8449 B( 10-S , 11-P ) :   0.9288
B( 10-S , 12-S ) :   0.1064 B( 11-P , 12-S ) :   1.6578 B( 11-P , 13-O ) :   1.1210
B( 11-P , 16-O ) :   1.0890 B( 13-O , 14-C ) :   0.8970 B( 14-C , 15-C ) :   1.1733
B( 14-C , 31-H ) :   0.9103 B( 14-C , 32-H ) :   0.9321 B( 15-C , 33-H ) :   0.9375
B( 15-C , 34-H ) :   0.9354 B( 15-C , 35-H ) :   0.9427 B( 16-O , 17-C ) :   0.9058
B( 17-C , 18-C ) :   1.1658 B( 17-C , 36-H ) :   0.9339 B( 17-C , 37-H ) :   0.9146
B( 18-C , 38-H ) :   0.9376 B( 18-C , 39-H ) :   0.9340 B( 18-C , 40-H ) :   0.9449

Dispersion correction           -0.067288987
FINAL SINGLE POINT ENERGY     -2929.517375229600

DIPOLE MOMENT
-------------

Method             : SCF
Type of density    : Electron Density
Multiplicity       :   1
Irrep              :   0
Energy             : -2929.6363069744097629 Eh
Relativity type    :
Basis              : AO
                                X                 Y                 Z
Electronic contribution:      0.116265808       1.580033119     -12.831390151
Nuclear contribution   :     -0.237344585      -2.751760143      14.385354162
                        -----------------------------------------
Total Dipole Moment    :     -0.121078777      -1.171727024       1.553964011
                        -----------------------------------------
Magnitude (a.u.)       :      1.949976521
Magnitude (Debye)      :      4.956446422

Rotational constants in cm-1:             0.013087             0.005173             0.004895
Rotational constants in MHz :           392.327971           155.088953           146.736224

                             ****ORCA TERMINATED NORMALLY****
TOTAL RUN TIME: 0 days 0 hours 0 minutes 21 seconds 746 msec
