                         Program Version 6.0.0  -   RELEASE  -
|  1> ! pbe def2-sv(p) def2/J RI DEFGRID1 loosescf d4 GCP(DFT/SV(P)) printgap
|  2> %output
|  3>     printlevel normal
|  4> end
|  5> * xyz 0 1
|  6> C 1.589354211 -2.8515672809 1.0977766175
|  7> C 1.5322680289 -1.4663126061 1.7094111992
|  8> O 2.5614002781 -0.6007454526 1.2049816766
|  9> P 2.616407744 0.0451330283 -0.2512026653
| 10> S 2.9307327012 -1.1300427078 -1.7863499743
| 11> O 3.8271158864 1.0364248724 -0.0903256897
| 12> C 4.1591044123 1.7969810915 1.09766036
| 13> C 3.0686328148 2.7712800363 1.4880787318
| 14> S 0.8520198192 1.25015398 -0.4084934827
| 15> C -0.0067099797 0.331163929 -1.7012998057
| 16> S -0.8673857344 -1.1444960847 -1.0845892691
| 17> P -2.3690388984 -0.108623091 -0.0304379909
| 18> S -3.0918631755 1.5293104308 -0.8405065592
| 19> O -1.6468369298 0.0631074721 1.3687069456
| 20> C -2.1123620653 0.9868679949 2.3813896727
| 21> C -0.9439525496 1.8270939376 2.8565592193
| 22> O -3.465481223 -1.2054632656 0.3230846519
| 23> C -4.5834461108 -1.4864718952 -0.5363113015
| 24> C -4.1529437238 -2.1399188193 -1.833649094
| 25> H 1.367471807 -2.809344308 0.0330802732
| 26> H 2.5798238582 -3.2798649551 1.2284739042
| 27> H 0.8544513198 -3.4860216337 1.5827869964
| 28> H 1.7311026558 -1.5026305539 2.7826969696
| 29> H 0.5561687491 -1.0036485165 1.5346527866
| 30> H 4.365426681 1.0929134561 1.9056097322
| 31> H 5.0762603578 2.3136700129 0.8109575198
| 32> H 3.4104592197 3.3707148152 2.3260665176
| 33> H 2.8267023539 3.4255685187 0.6543674129
| 34> H 2.168444269 2.2343980062 1.7819055095
| 35> H 0.7167623181 -0.019529148 -2.4382905932
| 36> H -0.7338184546 1.0133712419 -2.1409470743
| 37> H -2.8987108621 1.6168465021 1.953446243
| 38> H -2.5291907077 0.3804038961 3.1875301086
| 39> H -0.5496598103 2.4154479327 2.0311235993
| 40> H -1.2826658488 2.4948634831 3.6419134903
| 41> H -0.1563093509 1.1869874672 3.2439371244
| 42> H -5.2127744684 -2.1484572966 0.0598488003
| 43> H -5.1110275612 -0.5479156777 -0.7346632217
| 44> H -5.0318569219 -2.4405392104 -2.3948831554
| 45> H -3.576572792 -1.4356329856 -2.4325631584
| 46> H -3.5365165055 -3.0123375497 -1.6315322386
| 47> *
| 48>
| 49>                          ****END OF INPUT****

CARTESIAN COORDINATES (ANGSTROEM)
---------------------------------
  C      1.589354   -2.851567    1.097777
  C      1.532268   -1.466313    1.709411
  O      2.561400   -0.600745    1.204982
  P      2.616408    0.045133   -0.251203
  S      2.930733   -1.130043   -1.786350
  O      3.827116    1.036425   -0.090326
  C      4.159104    1.796981    1.097660
  C      3.068633    2.771280    1.488079
  S      0.852020    1.250154   -0.408493
  C     -0.006710    0.331164   -1.701300
  S     -0.867386   -1.144496   -1.084589
  P     -2.369039   -0.108623   -0.030438
  S     -3.091863    1.529310   -0.840507
  O     -1.646837    0.063107    1.368707
  C     -2.112362    0.986868    2.381390
  C     -0.943953    1.827094    2.856559
  O     -3.465481   -1.205463    0.323085
  C     -4.583446   -1.486472   -0.536311
  C     -4.152944   -2.139919   -1.833649
  H      1.367472   -2.809344    0.033080
  H      2.579824   -3.279865    1.228474
  H      0.854451   -3.486022    1.582787
  H      1.731103   -1.502631    2.782697
  H      0.556169   -1.003649    1.534653
  H      4.365427    1.092913    1.905610
  H      5.076260    2.313670    0.810958
  H      3.410459    3.370715    2.326067
  H      2.826702    3.425569    0.654367
  H      2.168444    2.234398    1.781906
  H      0.716762   -0.019529   -2.438291
  H     -0.733818    1.013371   -2.140947
  H     -2.898711    1.616847    1.953446
  H     -2.529191    0.380404    3.187530
  H     -0.549660    2.415448    2.031124
  H     -1.282666    2.494863    3.641913
  H     -0.156309    1.186987    3.243937
  H     -5.212774   -2.148457    0.059849
  H     -5.111028   -0.547916   -0.734663
  H     -5.031857   -2.440539   -2.394883
  H     -3.576573   -1.435633   -2.432563
  H     -3.536517   -3.012338   -1.631532

 Total Charge           Charge          ....    0
 Multiplicity           Mult            ....    1
 Number of Electrons    NEL             ....  202
 Basis Dimension        Dim             ....  334

ORBITAL ENERGIES
----------------

  NO   OCC          E(Eh)            E(eV)
   0   2.0000     -88.047338     -2395.8899
   1   2.0000     -88.041806     -2395.7393
   2   2.0000     -87.993770     -2394.4322
   3   2.0000     -87.983546     -2394.1540
   4   2.0000     -76.430995     -2079.7931
   5   2.0000     -76.426706     -2079.6764
   6   2.0000     -18.796781      -511.4864
   7   2.0000     -18.795624      -511.4549
   8   2.0000     -18.792587      -511.3723
   9   2.0000     -18.791827      -511.3516
  10   2.0000      -9.958956      -270.9970
  11   2.0000      -9.957045      -270.9450
  12   2.0000      -9.955494      -270.9028
  13   2.0000      -9.951879      -270.8044
  14   2.0000      -9.948990      -270.7258
  15   2.0000      -9.893838      -269.2250
  16   2.0000      -9.889941      -269.1190
  17   2.0000      -9.886585      -269.0277
  18   2.0000      -9.874966      -268.7115
  19   2.0000      -7.692197      -209.3153
  20   2.0000      -7.686295      -209.1547
  21   2.0000      -7.638664      -207.8586
  22   2.0000      -7.628740      -207.5886
  23   2.0000      -6.428736      -174.9348
  24   2.0000      -6.423814      -174.8009
  25   2.0000      -5.720002      -155.6492
  26   2.0000      -5.716807      -155.5622
  27   2.0000      -5.714230      -155.4921
  28   2.0000      -5.710726      -155.3968
  29   2.0000      -5.709137      -155.3535
  30   2.0000      -5.703395      -155.1973
  31   2.0000      -5.667415      -154.2182
  32   2.0000      -5.659391      -153.9998
  33   2.0000      -5.658921      -153.9871
  34   2.0000      -5.657810      -153.9568
  35   2.0000      -5.649105      -153.7200
  36   2.0000      -5.648953      -153.7158
  37   2.0000      -4.651245      -126.5668
  38   2.0000      -4.650463      -126.5455
  39   2.0000      -4.649235      -126.5121
  40   2.0000      -4.646707      -126.4433
  41   2.0000      -4.645583      -126.4127
  42   2.0000      -4.644062      -126.3714
  43   2.0000      -0.991230       -26.9727
  44   2.0000      -0.987999       -26.8848
  45   2.0000      -0.949763       -25.8444
  46   2.0000      -0.942873       -25.6569
  47   2.0000      -0.765660       -20.8347
  48   2.0000      -0.724863       -19.7245
  49   2.0000      -0.713680       -19.4202
  50   2.0000      -0.690834       -18.7985
  51   2.0000      -0.689424       -18.7602
  52   2.0000      -0.677330       -18.4311
  53   2.0000      -0.652840       -17.7647
  54   2.0000      -0.639766       -17.4089
  55   2.0000      -0.603253       -16.4154
  56   2.0000      -0.591216       -16.0878
  57   2.0000      -0.579216       -15.7613
  58   2.0000      -0.577080       -15.7032
  59   2.0000      -0.559152       -15.2153
  60   2.0000      -0.508300       -13.8315
  61   2.0000      -0.496081       -13.4991
  62   2.0000      -0.476767       -12.9735
  63   2.0000      -0.472795       -12.8654
  64   2.0000      -0.458983       -12.4896
  65   2.0000      -0.448384       -12.2011
  66   2.0000      -0.446045       -12.1375
  67   2.0000      -0.435949       -11.8628
  68   2.0000      -0.426061       -11.5937
  69   2.0000      -0.425763       -11.5856
  70   2.0000      -0.412452       -11.2234
  71   2.0000      -0.400850       -10.9077
  72   2.0000      -0.394323       -10.7301
  73   2.0000      -0.392671       -10.6851
  74   2.0000      -0.386578       -10.5193
  75   2.0000      -0.376263       -10.2386
  76   2.0000      -0.365403        -9.9431
  77   2.0000      -0.360050        -9.7975
  78   2.0000      -0.356790        -9.7088
  79   2.0000      -0.353766        -9.6265
  80   2.0000      -0.351083        -9.5535
  81   2.0000      -0.347216        -9.4482
  82   2.0000      -0.342092        -9.3088
  83   2.0000      -0.340255        -9.2588
  84   2.0000      -0.332395        -9.0449
  85   2.0000      -0.323250        -8.7961
  86   2.0000      -0.311473        -8.4756
  87   2.0000      -0.299984        -8.1630
  88   2.0000      -0.296745        -8.0748
  89   2.0000      -0.294357        -8.0099
  90   2.0000      -0.287012        -7.8100
  91   2.0000      -0.281063        -7.6481
  92   2.0000      -0.275377        -7.4934
  93   2.0000      -0.267759        -7.2861
  94   2.0000      -0.258231        -7.0268
  95   2.0000      -0.237730        -6.4690
  96   2.0000      -0.219419        -5.9707
  97   2.0000      -0.214414        -5.8345
  98   2.0000      -0.208115        -5.6631
  99   2.0000      -0.200955        -5.4683
 100   2.0000      -0.198251        -5.3947
 101   0.0000      -0.046583        -1.2676
 102   0.0000      -0.029258        -0.7961
 103   0.0000      -0.005141        -0.1399
 104   0.0000      -0.002690        -0.0732
 105   0.0000       0.006250         0.1701

MULLIKEN ATOMIC CHARGES
-----------------------
   0 C :   -0.299290
   1 C :   -0.049883
   2 O :   -0.383939
   3 P :    0.618031
   4 S :   -0.311592
   5 O :   -0.360726
   6 C :    0.008472
   7 C :   -0.347373
   8 S :   -0.116221
   9 C :   -0.351145
  10 S :   -0.075889
  11 P :    0.610590
  12 S :   -0.334363
  13 O :   -0.359803
  14 C :   -0.004746
  15 C :   -0.305826
  16 O :   -0.373169
  17 C :   -0.004214
  18 C :   -0.317850
  19 H :    0.134869
  20 H :    0.112590
  21 H :    0.104457
  22 H :    0.097775
  23 H :    0.143210
  24 H :    0.111107
  25 H :    0.112632
  26 H :    0.118285
  27 H :    0.131913
  28 H :    0.138107
  29 H :    0.196573
  30 H :    0.192435
  31 H :    0.107122
  32 H :    0.106110
  33 H :    0.139139
  34 H :    0.110392
  35 H :    0.121374
  36 H :    0.106083
  37 H :    0.112089
  38 H :    0.115055
  39 H :    0.127973
  40 H :    0.119644
Sum of atomic charges:   -0.0000000

LOEWDIN ATOMIC CHARGES
----------------------
   0 C :   -0.367305
   1 C :   -0.126670
   2 O :   -0.246492
   3 P :    0.569440
   4 S :   -0.299925
   5 O :   -0.235862
   6 C :   -0.107732
   7 C :   -0.372943
   8 S :    0.081253
   9 C :   -0.488339
  10 S :    0.108399
  11 P :    0.570015
  12 S :   -0.323168
  13 O :   -0.240311
  14 C :   -0.114647
  15 C :   -0.357106
  16 O :   -0.246725
  17 C :   -0.119328
  18 C :   -0.369228
  19 H :    0.116896
  20 H :    0.125185
  21 H :    0.128139
  22 H :    0.114801
  23 H :    0.105503
  24 H :    0.115497
  25 H :    0.123810
  26 H :    0.134098
  27 H :    0.130266
  28 H :    0.118431
  29 H :    0.129404
  30 H :    0.130257
  31 H :    0.108498
  32 H :    0.116075
  33 H :    0.126533
  34 H :    0.129799
  35 H :    0.124337
  36 H :    0.119138
  37 H :    0.110931
  38 H :    0.132073
  39 H :    0.121727
  40 H :    0.125274

  Mayer bond orders larger than 0.100000
B(  0-C ,  1-C ) :   1.1672 B(  0-C , 19-H ) :   0.9277 B(  0-C , 20-H ) :   0.9450
B(  0-C , 21-H ) :   0.9382 B(  1-C ,  2-O ) :   0.9065 B(  1-C , 22-H ) :   0.9341
B(  1-C , 23-H ) :   0.8939 B(  2-O ,  3-P ) :   1.0730 B(  3-P ,  4-S ) :   1.6506
B(  3-P ,  5-O ) :   1.1438 B(  3-P ,  8-S ) :   0.9330 B(  4-S ,  8-S ) :   0.1136
B(  5-O ,  6-C ) :   0.8999 B(  6-C ,  7-C ) :   1.1695 B(  6-C , 24-H ) :   0.9268
B(  6-C , 25-H ) :   0.9336 B(  7-C , 26-H ) :   0.9352 B(  7-C , 27-H ) :   0.9415
B(  7-C , 28-H ) :   0.9274 B(  8-S ,  9-C ) :   1.0170 B(  9-C , 10-S ) :   0.9965
B(  9-C , 29-H ) :   0.8623 B(  9-C , 30-H ) :   0.8746 B( 10-S , 11-P ) :   0.9699
B( 10-S , 12-S ) :   0.1075 B( 11-P , 12-S ) :   1.5948 B( 11-P , 13-O ) :   1.1203
B( 11-P , 16-O ) :   1.1149 B( 13-O , 14-C ) :   0.8917 B( 14-C , 15-C ) :   1.1673
B( 14-C , 31-H ) :   0.9036 B( 14-C , 32-H ) :   0.9338 B( 15-C , 33-H ) :   0.9383
B( 15-C , 34-H ) :   0.9384 B( 15-C , 35-H ) :   0.9467 B( 16-O , 17-C ) :   0.9081
B( 17-C , 18-C ) :   1.1645 B( 17-C , 36-H ) :   0.9337 B( 17-C , 37-H ) :   0.9159
B( 18-C , 38-H ) :   0.9379 B( 18-C , 39-H ) :   0.9356 B( 18-C , 40-H ) :   0.9449

Dispersion correction           -0.066377521
FINAL SINGLE POINT ENERGY     -2929.523098645580

DIPOLE MOMENT
-------------

Method             : SCF
Type of density    : Electron Density
Multiplicity       :   1
Irrep              :   0
Energy             : -2929.6425828402857405 Eh
Relativity type    :
Basis              : AO
                                X                 Y                 Z
Electronic contribution:      4.188292712       0.237191877     -14.616580734
Nuclear contribution   :     -4.856004639      -0.100388546      16.347805921
                        -----------------------------------------
Total Dipole Moment    :     -0.667711926       0.136803331       1.731225187
                        -----------------------------------------
Magnitude (a.u.)       :      1.860563091
Magnitude (Debye)      :      4.729175544

Rotational constants in cm-1:             0.012326             0.005228             0.004655
Rotational constants in MHz :           369.535626           156.719912           139.562291

                             ****ORCA TERMINATED NORMALLY****
TOTAL RUN TIME: 0 days 0 hours 0 minutes 21 seconds 922 msec
