                         Program Version 6.0.0  -   RELEASE  -
|  1> ! pbe def2-sv(p) def2/J RI DEFGRID1 loosescf d4 GCP(DFT/SV(P)) printgap
|  2> %output
|  3>     printlevel normal
|  4> end
|  5> * xyz 0 1
|  6> C 4.7084439862 -1.3909500467 -0.7338003584
|  7> C 4.6598171257 0.0207028413 -0.1856050294
|  8> O 3.4488957138 0.2804280017 0.5444757684
|  9> P 2.0260333398 0.3764224015 -0.1614087967
| 10> S 2.0554763913 1.2315762262 -1.9298653856
| 11> O 1.1661411387 1.0671557798 0.9775268679
| 12> C 1.0711309398 2.4960966777 1.1203384554
| 13> C 2.3904368769 3.1211497295 1.519763276
| 14> S 1.3165246724 -1.594269002 -0.0299055323
| 15> C 0.0700979386 -1.6108793499 -1.3636207688
| 16> S -1.5968951319 -1.9556336267 -0.7615050451
| 17> P -2.0375564415 -0.0497371986 0.0702159628
| 18> S -1.4542871135 1.4703294047 -1.0167786042
| 19> O -1.4889469399 0.0116242493 1.5428129934
| 20> C -1.8777948291 -0.9140902235 2.5956269312
| 21> C -0.7761831711 -1.9209558267 2.8564172632
| 22> O -3.6048290353 -0.1490462121 0.3097390145
| 23> C -4.5317188372 -0.1502425827 -0.7960333008
| 24> C -5.9099229214 0.1558607766 -0.246302259
| 25> H 3.9591124646 -1.5119858013 -1.5147467804
| 26> H 5.6903002943 -1.5764464616 -1.15727323
| 27> H 4.5119974004 -2.1107383643 0.0566801199
| 28> H 4.7350791392 0.7497497653 -0.9989971232
| 29> H 5.4486828935 0.1963882785 0.5470054202
| 30> H 0.7089248864 2.9146250973 0.1748625278
| 31> H 0.3053959993 2.6274142537 1.8869323567
| 32> H 2.2357031082 4.1744563518 1.732094184
| 33> H 2.7883900292 2.6253111333 2.4013055747
| 34> H 3.1074847455 3.0263904731 0.7052667822
| 35> H 0.3187015438 -2.42176218 -2.0429902498
| 36> H 0.0869703863 -0.6450843825 -1.8761570152
| 37> H -2.0451678455 -0.2751551845 3.4640481891
| 38> H -2.8110865865 -1.4032399617 2.3128164976
| 39> H 0.1663808434 -1.4065999608 3.0268912717
| 40> H -1.031693984 -2.5014797855 3.7371576299
| 41> H -0.6544342305 -2.5939281478 2.0110128866
| 42> H -4.2101559182 0.6055832525 -1.5200276242
| 43> H -4.4968781688 -1.1359333193 -1.2671935236
| 44> H -6.6254325255 0.1544714082 -1.0618660324
| 45> H -6.1946974485 -0.5956960782 0.4839967204
| 46> H -5.9127470659 1.1315136815 0.2315751664
| 47> *
| 48>
| 49>                          ****END OF INPUT****

CARTESIAN COORDINATES (ANGSTROEM)
---------------------------------
  C      4.708444   -1.390950   -0.733800
  C      4.659817    0.020703   -0.185605
  O      3.448896    0.280428    0.544476
  P      2.026033    0.376422   -0.161409
  S      2.055476    1.231576   -1.929865
  O      1.166141    1.067156    0.977527
  C      1.071131    2.496097    1.120338
  C      2.390437    3.121150    1.519763
  S      1.316525   -1.594269   -0.029906
  C      0.070098   -1.610879   -1.363621
  S     -1.596895   -1.955634   -0.761505
  P     -2.037556   -0.049737    0.070216
  S     -1.454287    1.470329   -1.016779
  O     -1.488947    0.011624    1.542813
  C     -1.877795   -0.914090    2.595627
  C     -0.776183   -1.920956    2.856417
  O     -3.604829   -0.149046    0.309739
  C     -4.531719   -0.150243   -0.796033
  C     -5.909923    0.155861   -0.246302
  H      3.959112   -1.511986   -1.514747
  H      5.690300   -1.576446   -1.157273
  H      4.511997   -2.110738    0.056680
  H      4.735079    0.749750   -0.998997
  H      5.448683    0.196388    0.547005
  H      0.708925    2.914625    0.174863
  H      0.305396    2.627414    1.886932
  H      2.235703    4.174456    1.732094
  H      2.788390    2.625311    2.401306
  H      3.107485    3.026390    0.705267
  H      0.318702   -2.421762   -2.042990
  H      0.086970   -0.645084   -1.876157
  H     -2.045168   -0.275155    3.464048
  H     -2.811087   -1.403240    2.312816
  H      0.166381   -1.406600    3.026891
  H     -1.031694   -2.501480    3.737158
  H     -0.654434   -2.593928    2.011013
  H     -4.210156    0.605583   -1.520028
  H     -4.496878   -1.135933   -1.267194
  H     -6.625433    0.154471   -1.061866
  H     -6.194697   -0.595696    0.483997
  H     -5.912747    1.131514    0.231575

 Total Charge           Charge          ....    0
 Multiplicity           Mult            ....    1
 Number of Electrons    NEL             ....  202
 Basis Dimension        Dim             ....  334

ORBITAL ENERGIES
----------------

  NO   OCC          E(Eh)            E(eV)
   0   2.0000     -88.043781     -2395.7931
   1   2.0000     -88.039661     -2395.6810
   2   2.0000     -87.980916     -2394.0824
   3   2.0000     -87.980509     -2394.0714
   4   2.0000     -76.423901     -2079.6001
   5   2.0000     -76.419863     -2079.4902
   6   2.0000     -18.795329      -511.4469
   7   2.0000     -18.790383      -511.3123
   8   2.0000     -18.788080      -511.2496
   9   2.0000     -18.778309      -510.9838
  10   2.0000      -9.955175      -270.8941
  11   2.0000      -9.954568      -270.8776
  12   2.0000      -9.954474      -270.8750
  13   2.0000      -9.948046      -270.7001
  14   2.0000      -9.936642      -270.3898
  15   2.0000      -9.890097      -269.1232
  16   2.0000      -9.880663      -268.8665
  17   2.0000      -9.880571      -268.8640
  18   2.0000      -9.874993      -268.7122
  19   2.0000      -7.689003      -209.2284
  20   2.0000      -7.684900      -209.1168
  21   2.0000      -7.625797      -207.5085
  22   2.0000      -7.625469      -207.4996
  23   2.0000      -6.421585      -174.7402
  24   2.0000      -6.417422      -174.6269
  25   2.0000      -5.716730      -155.5601
  26   2.0000      -5.713375      -155.4688
  27   2.0000      -5.712770      -155.4524
  28   2.0000      -5.709405      -155.3608
  29   2.0000      -5.706253      -155.2750
  30   2.0000      -5.701763      -155.1529
  31   2.0000      -5.654671      -153.8714
  32   2.0000      -5.654475      -153.8661
  33   2.0000      -5.646614      -153.6522
  34   2.0000      -5.645953      -153.6342
  35   2.0000      -5.645838      -153.6311
  36   2.0000      -5.645637      -153.6256
  37   2.0000      -4.644451      -126.3819
  38   2.0000      -4.643388      -126.3530
  39   2.0000      -4.641679      -126.3065
  40   2.0000      -4.639732      -126.2535
  41   2.0000      -4.639030      -126.2344
  42   2.0000      -4.638271      -126.2138
  43   2.0000      -0.988871       -26.9085
  44   2.0000      -0.979282       -26.6476
  45   2.0000      -0.944607       -25.7041
  46   2.0000      -0.936736       -25.4899
  47   2.0000      -0.761462       -20.7204
  48   2.0000      -0.720231       -19.5985
  49   2.0000      -0.706581       -19.2270
  50   2.0000      -0.691222       -18.8091
  51   2.0000      -0.681829       -18.5535
  52   2.0000      -0.671159       -18.2632
  53   2.0000      -0.646930       -17.6039
  54   2.0000      -0.631094       -17.1730
  55   2.0000      -0.597331       -16.2542
  56   2.0000      -0.584560       -15.9067
  57   2.0000      -0.572250       -15.5717
  58   2.0000      -0.565230       -15.3807
  59   2.0000      -0.560709       -15.2577
  60   2.0000      -0.509588       -13.8666
  61   2.0000      -0.485434       -13.2093
  62   2.0000      -0.478190       -13.0122
  63   2.0000      -0.464812       -12.6482
  64   2.0000      -0.450581       -12.2609
  65   2.0000      -0.446586       -12.1522
  66   2.0000      -0.436298       -11.8723
  67   2.0000      -0.434470       -11.8225
  68   2.0000      -0.432190       -11.7605
  69   2.0000      -0.414896       -11.2899
  70   2.0000      -0.408678       -11.1207
  71   2.0000      -0.387214       -10.5366
  72   2.0000      -0.385147       -10.4804
  73   2.0000      -0.382218       -10.4007
  74   2.0000      -0.380893       -10.3646
  75   2.0000      -0.375148       -10.2083
  76   2.0000      -0.367115        -9.9897
  77   2.0000      -0.353416        -9.6169
  78   2.0000      -0.350225        -9.5301
  79   2.0000      -0.348645        -9.4871
  80   2.0000      -0.343307        -9.3419
  81   2.0000      -0.341940        -9.3046
  82   2.0000      -0.338529        -9.2119
  83   2.0000      -0.334553        -9.1037
  84   2.0000      -0.330816        -9.0020
  85   2.0000      -0.315301        -8.5798
  86   2.0000      -0.306698        -8.3457
  87   2.0000      -0.303473        -8.2579
  88   2.0000      -0.296252        -8.0614
  89   2.0000      -0.290053        -7.8928
  90   2.0000      -0.275495        -7.4966
  91   2.0000      -0.269408        -7.3310
  92   2.0000      -0.263277        -7.1641
  93   2.0000      -0.261968        -7.1285
  94   2.0000      -0.256382        -6.9765
  95   2.0000      -0.235115        -6.3978
  96   2.0000      -0.219344        -5.9687
  97   2.0000      -0.213305        -5.8043
  98   2.0000      -0.201883        -5.4935
  99   2.0000      -0.192015        -5.2250
 100   2.0000      -0.184892        -5.0312
 101   0.0000      -0.039017        -1.0617
 102   0.0000      -0.030146        -0.8203
 103   0.0000      -0.008615        -0.2344
 104   0.0000       0.013668         0.3719
 105   0.0000       0.019202         0.5225

MULLIKEN ATOMIC CHARGES
-----------------------
   0 C :   -0.309820
   1 C :   -0.003782
   2 O :   -0.376115
   3 P :    0.612003
   4 S :   -0.320350
   5 O :   -0.354616
   6 C :   -0.002753
   7 C :   -0.301330
   8 S :   -0.091929
   9 C :   -0.355555
  10 S :   -0.119204
  11 P :    0.601064
  12 S :   -0.296991
  13 O :   -0.345030
  14 C :   -0.016828
  15 C :   -0.284468
  16 O :   -0.385454
  17 C :   -0.011567
  18 C :   -0.280515
  19 H :    0.121973
  20 H :    0.110847
  21 H :    0.116298
  22 H :    0.109235
  23 H :    0.102926
  24 H :    0.122314
  25 H :    0.099661
  26 H :    0.108678
  27 H :    0.111213
  28 H :    0.118904
  29 H :    0.182793
  30 H :    0.212345
  31 H :    0.108930
  32 H :    0.104462
  33 H :    0.123622
  34 H :    0.104447
  35 H :    0.123392
  36 H :    0.107260
  37 H :    0.104503
  38 H :    0.113540
  39 H :    0.113846
  40 H :    0.122053
Sum of atomic charges:   -0.0000000

LOEWDIN ATOMIC CHARGES
----------------------
   0 C :   -0.369435
   1 C :   -0.120536
   2 O :   -0.245593
   3 P :    0.569479
   4 S :   -0.315374
   5 O :   -0.232715
   6 C :   -0.120301
   7 C :   -0.365656
   8 S :    0.094332
   9 C :   -0.477806
  10 S :    0.061290
  11 P :    0.561618
  12 S :   -0.286688
  13 O :   -0.228078
  14 C :   -0.109320
  15 C :   -0.363290
  16 O :   -0.251771
  17 C :   -0.120407
  18 C :   -0.350248
  19 H :    0.120162
  20 H :    0.129793
  21 H :    0.123250
  22 H :    0.109275
  23 H :    0.117446
  24 H :    0.109150
  25 H :    0.116995
  26 H :    0.128748
  27 H :    0.123518
  28 H :    0.120859
  29 H :    0.137327
  30 H :    0.127648
  31 H :    0.121308
  32 H :    0.108971
  33 H :    0.128157
  34 H :    0.126849
  35 H :    0.115110
  36 H :    0.110430
  37 H :    0.108519
  38 H :    0.131721
  39 H :    0.125464
  40 H :    0.129798

  Mayer bond orders larger than 0.100000
B(  0-C ,  1-C ) :   1.1678 B(  0-C , 19-H ) :   0.9364 B(  0-C , 20-H ) :   0.9381
B(  0-C , 21-H ) :   0.9442 B(  1-C ,  2-O ) :   0.9119 B(  1-C , 22-H ) :   0.9137
B(  1-C , 23-H ) :   0.9340 B(  2-O ,  3-P ) :   1.0943 B(  3-P ,  4-S ) :   1.5974
B(  3-P ,  5-O ) :   1.1424 B(  3-P ,  8-S ) :   0.9684 B(  4-S ,  8-S ) :   0.1139
B(  5-O ,  6-C ) :   0.9040 B(  6-C ,  7-C ) :   1.1575 B(  6-C , 24-H ) :   0.9127
B(  6-C , 25-H ) :   0.9354 B(  7-C , 26-H ) :   0.9395 B(  7-C , 27-H ) :   0.9449
B(  7-C , 28-H ) :   0.9383 B(  8-S ,  9-C ) :   0.9932 B(  9-C , 10-S ) :   1.0100
B(  9-C , 29-H ) :   0.9113 B(  9-C , 30-H ) :   0.8468 B( 10-S , 11-P ) :   0.9372
B( 10-S , 12-S ) :   0.1066 B( 11-P , 12-S ) :   1.6557 B( 11-P , 13-O ) :   1.1513
B( 11-P , 16-O ) :   1.0811 B( 13-O , 14-C ) :   0.8905 B( 14-C , 15-C ) :   1.1686
B( 14-C , 31-H ) :   0.9351 B( 14-C , 32-H ) :   0.9188 B( 15-C , 33-H ) :   0.9429
B( 15-C , 34-H ) :   0.9371 B( 15-C , 35-H ) :   0.9325 B( 16-O , 17-C ) :   0.9022
B( 17-C , 18-C ) :   1.1604 B( 17-C , 36-H ) :   0.9092 B( 17-C , 37-H ) :   0.9287
B( 18-C , 38-H ) :   0.9417 B( 18-C , 39-H ) :   0.9514 B( 18-C , 40-H ) :   0.9506

Dispersion correction           -0.067307908
FINAL SINGLE POINT ENERGY     -2929.520968416608

DIPOLE MOMENT
-------------

Method             : SCF
Type of density    : Electron Density
Multiplicity       :   1
Irrep              :   0
Energy             : -2929.6392922022414496 Eh
Relativity type    :
Basis              : AO
                                X                 Y                 Z
Electronic contribution:     -0.491944965      -0.611584282      -9.908591686
Nuclear contribution   :      0.069751277      -0.223293163      10.871397673
                        -----------------------------------------
Total Dipole Moment    :     -0.422193688      -0.834877445       0.962805987
                        -----------------------------------------
Magnitude (a.u.)       :      1.342483977
Magnitude (Debye)      :      3.412323087

Rotational constants in cm-1:             0.013225             0.005138             0.004916
Rotational constants in MHz :           396.483860           154.028763           147.370437

                             ****ORCA TERMINATED NORMALLY****
TOTAL RUN TIME: 0 days 0 hours 0 minutes 21 seconds 944 msec
