                         Program Version 6.0.1  -  RELEASE   -
|  1> ! pbe def2-sv(p) def2/J RI DEFGRID1 loosescf d4 GCP(DFT/SV(P)) printgap
|  2> %output
|  3>     printlevel normal
|  4> end
|  5> * xyz 0 1
|  6> C 1.3837449686 -4.0616816429 0.7516787804
|  7> C 1.4815388098 -3.366166887 -0.5930972614
|  8> O 1.4480029438 -1.9433200221 -0.3741210741
|  9> C 2.1590493185 -1.1547077752 -1.1563979957
| 10> O 2.8606591751 -1.5323505162 -2.0666406377
| 11> C 1.9645171608 0.2967890752 -0.7652109578
| 12> C 0.69769472 0.8739353677 -1.4168812641
| 13> H 0.892882959 1.1319281287 -2.4601461301
| 14> C 0.2469830763 2.1020179749 -0.6434261048
| 15> O -0.8135251391 2.1407429185 -0.0541094362
| 16> O 1.1296494265 3.0592630984 -0.6859884278
| 17> C 0.8955811781 4.2398070738 0.1154977731
| 18> C 1.4087843509 4.0281481501 1.5301832582
| 19> S -0.7136852562 -0.2674736181 -1.4835752519
| 20> P -1.2316351312 -0.4053649466 0.5927107046
| 21> S -0.0677446203 0.1528185535 2.0641701888
| 22> O -2.757827764 0.0660931034 0.6827062397
| 23> C -3.2402983736 1.3453141357 1.0894977952
| 24> O -1.4524945221 -1.9749144976 0.7297338915
| 25> C -2.3525237326 -2.7142668435 -0.1095663846
| 26> H 0.5027520715 -3.7087386284 1.2816345509
| 27> H 1.3122689346 -5.1333138953 0.5994753701
| 28> H 2.2592915507 -3.8418827649 1.3561891267
| 29> H 0.6297804683 -3.6146410034 -1.2329860145
| 30> H 2.4089707327 -3.6109593528 -1.119321172
| 31> H 2.823775016 0.8800850173 -1.0940363309
| 32> H 1.8724106476 0.3401537253 0.3223155507
| 33> H 1.4458486352 5.0276405215 -0.3979977675
| 34> H -0.1759164257 4.4547326755 0.1165613665
| 35> H 0.8938538164 3.1907314196 1.9988141113
| 36> H 2.4740991445 3.816543127 1.5173570282
| 37> H 1.2286616385 4.923563029 2.1153589539
| 38> H -4.2324243016 1.1665966938 1.4983500213
| 39> H -3.2872347914 2.0117069851 0.2305143799
| 40> H -2.58444868 1.7729482856 1.8479720652
| 41> H -2.1290650468 -2.5235566578 -1.1600215181
| 42> H -3.3805456548 -2.4289633303 0.1066681706
| 43> H -2.1831757663 -3.7598847443 0.1357057733
| 44> *
| 45>
| 46>                          ****END OF INPUT****

CARTESIAN COORDINATES (ANGSTROEM)
---------------------------------
  C      1.383745   -4.061682    0.751679
  C      1.481539   -3.366167   -0.593097
  O      1.448003   -1.943320   -0.374121
  C      2.159049   -1.154708   -1.156398
  O      2.860659   -1.532351   -2.066641
  C      1.964517    0.296789   -0.765211
  C      0.697695    0.873935   -1.416881
  H      0.892883    1.131928   -2.460146
  C      0.246983    2.102018   -0.643426
  O     -0.813525    2.140743   -0.054109
  O      1.129649    3.059263   -0.685988
  C      0.895581    4.239807    0.115498
  C      1.408784    4.028148    1.530183
  S     -0.713685   -0.267474   -1.483575
  P     -1.231635   -0.405365    0.592711
  S     -0.067745    0.152819    2.064170
  O     -2.757828    0.066093    0.682706
  C     -3.240298    1.345314    1.089498
  O     -1.452495   -1.974914    0.729734
  C     -2.352524   -2.714267   -0.109566
  H      0.502752   -3.708739    1.281635
  H      1.312269   -5.133314    0.599475
  H      2.259292   -3.841883    1.356189
  H      0.629780   -3.614641   -1.232986
  H      2.408971   -3.610959   -1.119321
  H      2.823775    0.880085   -1.094036
  H      1.872411    0.340154    0.322316
  H      1.445849    5.027641   -0.397998
  H     -0.175916    4.454733    0.116561
  H      0.893854    3.190731    1.998814
  H      2.474099    3.816543    1.517357
  H      1.228662    4.923563    2.115359
  H     -4.232424    1.166597    1.498350
  H     -3.287235    2.011707    0.230514
  H     -2.584449    1.772948    1.847972
  H     -2.129065   -2.523557   -1.160022
  H     -3.380546   -2.428963    0.106668
  H     -2.183176   -3.759885    0.135706

 Total Charge           Charge          ....    0
 Multiplicity           Mult            ....    1
 Number of Electrons    NEL             ....  174
 Basis Dimension        Dim             ....  316

ORBITAL ENERGIES
----------------

  NO   OCC          E(Eh)            E(eV)
   0   2.0000     -88.035929     -2395.5794
   1   2.0000     -87.977245     -2393.9826
   2   2.0000     -76.424687     -2079.6215
   3   2.0000     -18.824213      -512.2329
   4   2.0000     -18.793739      -511.4036
   5   2.0000     -18.785324      -511.1747
   6   2.0000     -18.784007      -511.1388
   7   2.0000     -18.759610      -510.4749
   8   2.0000     -18.730097      -509.6718
   9   2.0000     -10.029364      -272.9129
  10   2.0000     -10.003578      -272.2112
  11   2.0000      -9.960075      -271.0274
  12   2.0000      -9.956433      -270.9283
  13   2.0000      -9.946442      -270.6564
  14   2.0000      -9.939002      -270.4540
  15   2.0000      -9.935730      -270.3650
  16   2.0000      -9.903821      -269.4967
  17   2.0000      -9.890633      -269.1378
  18   2.0000      -9.877188      -268.7719
  19   2.0000      -7.680750      -209.0038
  20   2.0000      -7.622606      -207.4216
  21   2.0000      -6.420466      -174.7098
  22   2.0000      -5.708904      -155.3472
  23   2.0000      -5.705541      -155.2557
  24   2.0000      -5.697124      -155.0266
  25   2.0000      -5.651923      -153.7966
  26   2.0000      -5.643235      -153.5602
  27   2.0000      -5.642216      -153.5325
  28   2.0000      -4.643306      -126.3508
  29   2.0000      -4.642402      -126.3262
  30   2.0000      -4.640938      -126.2863
  31   2.0000      -1.033959       -28.1355
  32   2.0000      -1.001997       -27.2657
  33   2.0000      -0.978946       -26.6385
  34   2.0000      -0.939882       -25.5755
  35   2.0000      -0.932913       -25.3859
  36   2.0000      -0.907918       -24.7057
  37   2.0000      -0.768174       -20.9031
  38   2.0000      -0.715787       -19.4776
  39   2.0000      -0.703431       -19.1413
  40   2.0000      -0.690860       -18.7993
  41   2.0000      -0.655496       -17.8369
  42   2.0000      -0.632584       -17.2135
  43   2.0000      -0.627026       -17.0622
  44   2.0000      -0.615545       -16.7498
  45   2.0000      -0.587601       -15.9894
  46   2.0000      -0.562176       -15.2976
  47   2.0000      -0.514344       -13.9960
  48   2.0000      -0.506817       -13.7912
  49   2.0000      -0.499614       -13.5952
  50   2.0000      -0.489394       -13.3171
  51   2.0000      -0.472569       -12.8593
  52   2.0000      -0.458941       -12.4884
  53   2.0000      -0.446427       -12.1479
  54   2.0000      -0.444058       -12.0834
  55   2.0000      -0.427628       -11.6364
  56   2.0000      -0.425352       -11.5744
  57   2.0000      -0.417412       -11.3584
  58   2.0000      -0.412792       -11.2326
  59   2.0000      -0.406997       -11.0750
  60   2.0000      -0.403941       -10.9918
  61   2.0000      -0.401052       -10.9132
  62   2.0000      -0.392042       -10.6680
  63   2.0000      -0.386931       -10.5289
  64   2.0000      -0.369366       -10.0510
  65   2.0000      -0.367633       -10.0038
  66   2.0000      -0.355243        -9.6667
  67   2.0000      -0.350658        -9.5419
  68   2.0000      -0.345511        -9.4018
  69   2.0000      -0.338105        -9.2003
  70   2.0000      -0.335647        -9.1334
  71   2.0000      -0.333470        -9.0742
  72   2.0000      -0.314699        -8.5634
  73   2.0000      -0.312004        -8.4901
  74   2.0000      -0.308991        -8.4081
  75   2.0000      -0.301406        -8.2017
  76   2.0000      -0.294405        -8.0112
  77   2.0000      -0.286400        -7.7933
  78   2.0000      -0.280189        -7.6243
  79   2.0000      -0.265628        -7.2281
  80   2.0000      -0.256417        -6.9775
  81   2.0000      -0.250421        -6.8143
  82   2.0000      -0.248862        -6.7719
  83   2.0000      -0.215392        -5.8611
  84   2.0000      -0.209561        -5.7024
  85   2.0000      -0.195360        -5.3160
  86   2.0000      -0.190671        -5.1884
  87   0.0000      -0.044684        -1.2159
  88   0.0000      -0.043443        -1.1821
  89   0.0000      -0.014196        -0.3863
  90   0.0000      -0.003653        -0.0994
  91   0.0000       0.025004         0.6804

MULLIKEN ATOMIC CHARGES
-----------------------
   0 C :   -0.295118
   1 C :   -0.022596
   2 O :   -0.223071
   3 C :    0.108231
   4 O :   -0.195541
   5 C :   -0.067279
   6 C :   -0.309902
   7 H :    0.152270
   8 C :    0.216123
   9 O :   -0.186547
  10 O :   -0.219533
  11 C :   -0.012076
  12 C :   -0.315614
  13 S :   -0.109723
  14 P :    0.651113
  15 S :   -0.320601
  16 O :   -0.398454
  17 C :   -0.081918
  18 O :   -0.367716
  19 C :   -0.117093
  20 H :    0.136384
  21 H :    0.102959
  22 H :    0.111959
  23 H :    0.095019
  24 H :    0.111841
  25 H :    0.110344
  26 H :    0.126890
  27 H :    0.109158
  28 H :    0.111471
  29 H :    0.143928
  30 H :    0.117763
  31 H :    0.114898
  32 H :    0.114825
  33 H :    0.116465
  34 H :    0.115408
  35 H :    0.124691
  36 H :    0.124331
  37 H :    0.126711
Sum of atomic charges:   -0.0000000

LOEWDIN ATOMIC CHARGES
----------------------
   0 C :   -0.355293
   1 C :   -0.109450
   2 O :   -0.055727
   3 C :    0.019478
   4 O :   -0.165032
   5 C :   -0.257764
   6 C :   -0.255966
   7 H :    0.151664
   8 C :    0.022272
   9 O :   -0.156833
  10 O :   -0.037473
  11 C :   -0.105728
  12 C :   -0.358816
  13 S :    0.099687
  14 P :    0.595732
  15 S :   -0.306400
  16 O :   -0.256012
  17 C :   -0.207369
  18 O :   -0.246757
  19 C :   -0.215622
  20 H :    0.131168
  21 H :    0.125767
  22 H :    0.126374
  23 H :    0.110764
  24 H :    0.118332
  25 H :    0.141438
  26 H :    0.132232
  27 H :    0.120977
  28 H :    0.121302
  29 H :    0.132541
  30 H :    0.127072
  31 H :    0.132294
  32 H :    0.115262
  33 H :    0.112893
  34 H :    0.110626
  35 H :    0.104709
  36 H :    0.115682
  37 H :    0.121974

  Mayer bond orders larger than 0.100000
B(  0-C ,  1-C ) :   1.1628 B(  0-C , 20-H ) :   0.9371 B(  0-C , 21-H ) :   0.9436
B(  0-C , 22-H ) :   0.9505 B(  1-C ,  2-O ) :   0.9036 B(  1-C , 23-H ) :   0.9292
B(  1-C , 24-H ) :   0.9147 B(  2-O ,  3-C ) :   1.2085 B(  3-C ,  4-O ) :   2.0845
B(  3-C ,  5-C ) :   1.0164 B(  5-C ,  6-C ) :   1.0424 B(  5-C , 25-H ) :   0.8839
B(  5-C , 26-H ) :   0.8627 B(  6-C ,  7-H ) :   0.8667 B(  6-C ,  8-C ) :   0.9060
B(  6-C , 13-S ) :   1.0653 B(  8-C ,  9-O ) :   1.9623 B(  8-C , 10-O ) :   1.2763
B( 10-O , 11-C ) :   0.8966 B( 11-C , 12-C ) :   1.1767 B( 11-C , 27-H ) :   0.9361
B( 11-C , 28-H ) :   0.9146 B( 12-C , 29-H ) :   0.9324 B( 12-C , 30-H ) :   0.9480
B( 12-C , 31-H ) :   0.9414 B( 13-S , 14-P ) :   0.9093 B( 13-S , 15-S ) :   0.1124
B( 14-P , 15-S ) :   1.5855 B( 14-P , 16-O ) :   1.0879 B( 14-P , 18-O ) :   1.0915
B( 16-O , 17-C ) :   0.9289 B( 17-C , 32-H ) :   0.9543 B( 17-C , 33-H ) :   0.9523
B( 17-C , 34-H ) :   0.9402 B( 18-O , 19-C ) :   0.9318 B( 19-C , 35-H ) :   0.9325
B( 19-C , 36-H ) :   0.9469 B( 19-C , 37-H ) :   0.9573

Dispersion correction           -0.055352725
FINAL SINGLE POINT ENERGY     -1979.008692100221

DIPOLE MOMENT
-------------

Method             : SCF
Type of density    : Electron Density
Multiplicity       :   1
Irrep              :   0
Energy             : -1979.1380480708576215 Eh
Relativity type    :
Basis              : AO
                                X                 Y                 Z
Electronic contribution:     -2.585034544       0.325647091      -4.943715905
Nuclear contribution   :      1.853300041       0.451617776       4.739719657
                        -----------------------------------------
Total Dipole Moment    :     -0.731734503       0.777264867      -0.203996248
                        -----------------------------------------
Magnitude (a.u.)       :      1.086825894
Magnitude (Debye)      :      2.762491884

Rotational constants in cm-1:             0.012692             0.008892             0.006637
Rotational constants in MHz :           380.484883           266.565683           198.959483

                             ****ORCA TERMINATED NORMALLY****
TOTAL RUN TIME: 0 days 0 hours 0 minutes 31 seconds 505 msec
