                         Program Version 6.0.0  -   RELEASE  -
|  1> ! pbe def2-sv(p) def2/J RI DEFGRID1 loosescf d4 GCP(DFT/SV(P)) printgap
|  2> %output
|  3>     printlevel normal
|  4> end
|  5> * xyz 0 1
|  6> C 2.7466681473 0.4347749427 -3.3510291466
|  7> C 2.8184046301 0.8273194091 -1.8910004942
|  8> O 2.3719433948 -0.3018218581 -1.1104880059
|  9> P 2.077394664 -0.1824429971 0.439644455
| 10> S 1.0634789302 1.4010670454 1.0209370909
| 11> O 3.5449095942 -0.2271781502 1.0528873554
| 12> C 3.8229736363 0.1505485297 2.4123705417
| 13> C 3.2152634871 -0.8218680702 3.402209924
| 14> S 1.3329908391 -2.1113835447 0.7862629572
| 15> C -0.2600457094 -2.0112536132 -0.0796471643
| 16> S -1.519425462 -1.0574366404 0.8161793392
| 17> P -1.9252094649 0.4932082046 -0.5981653933
| 18> S -0.7742110555 0.4982773962 -2.1815917488
| 19> O -1.894983462 1.9079547423 0.0833442599
| 20> C -2.8155067476 2.4027799668 1.0845540582
| 21> C -2.7043820829 1.6480752777 2.3922006338
| 22> O -3.4931320848 0.3373110683 -0.8551228504
| 23> C -4.1745196355 -0.8876566941 -1.1730192259
| 24> C -3.729415959 -1.4800495518 -2.4945379221
| 25> H 3.3421485386 -0.4566919101 -3.523632674
| 26> H 1.7138432358 0.2330885178 -3.625660582
| 27> H 3.1254609498 1.2504113172 -3.9578602931
| 28> H 2.1649810163 1.6798150919 -1.6746561792
| 29> H 3.8391512828 1.0696297236 -1.584464918
| 30> H 4.912363616 0.1571417636 2.4648492933
| 31> H 3.433845494 1.1609205714 2.5754964826
| 32> H 3.5252987347 -1.8381066862 3.1722632647
| 33> H 3.5357423101 -0.5624352352 4.406043031
| 34> H 2.1279946616 -0.7680165926 3.3524118567
| 35> H -0.6093783482 -3.0375058104 -0.1556747766
| 36> H -0.1118471665 -1.5586010898 -1.0648663133
| 37> H -2.5124459202 3.4447415256 1.1996817145
| 38> H -3.8268045182 2.3483825695 0.6765251301
| 39> H -3.0649038345 0.6267687073 2.2787542884
| 40> H -1.6656708307 1.6201213473 2.7149795443
| 41> H -3.3001361322 2.152781441 3.1461812323
| 42> H -4.0120176505 -1.5952297822 -0.3546685638
| 43> H -5.2252870825 -0.5938810995 -1.204621481
| 44> H -3.8353466582 -0.7482811281 -3.2917432315
| 45> H -2.6837976835 -1.7790270153 -2.4439765629
| 46> H -4.3372824682 -2.3499585845 -2.7210855657
| 47> *
| 48>
| 49>                          ****END OF INPUT****

CARTESIAN COORDINATES (ANGSTROEM)
---------------------------------
  C      2.746668    0.434775   -3.351029
  C      2.818405    0.827319   -1.891000
  O      2.371943   -0.301822   -1.110488
  P      2.077395   -0.182443    0.439644
  S      1.063479    1.401067    1.020937
  O      3.544910   -0.227178    1.052887
  C      3.822974    0.150549    2.412371
  C      3.215263   -0.821868    3.402210
  S      1.332991   -2.111384    0.786263
  C     -0.260046   -2.011254   -0.079647
  S     -1.519425   -1.057437    0.816179
  P     -1.925209    0.493208   -0.598165
  S     -0.774211    0.498277   -2.181592
  O     -1.894983    1.907955    0.083344
  C     -2.815507    2.402780    1.084554
  C     -2.704382    1.648075    2.392201
  O     -3.493132    0.337311   -0.855123
  C     -4.174520   -0.887657   -1.173019
  C     -3.729416   -1.480050   -2.494538
  H      3.342149   -0.456692   -3.523633
  H      1.713843    0.233089   -3.625661
  H      3.125461    1.250411   -3.957860
  H      2.164981    1.679815   -1.674656
  H      3.839151    1.069630   -1.584465
  H      4.912364    0.157142    2.464849
  H      3.433845    1.160921    2.575496
  H      3.525299   -1.838107    3.172263
  H      3.535742   -0.562435    4.406043
  H      2.127995   -0.768017    3.352412
  H     -0.609378   -3.037506   -0.155675
  H     -0.111847   -1.558601   -1.064866
  H     -2.512446    3.444742    1.199682
  H     -3.826805    2.348383    0.676525
  H     -3.064904    0.626769    2.278754
  H     -1.665671    1.620121    2.714980
  H     -3.300136    2.152781    3.146181
  H     -4.012018   -1.595230   -0.354669
  H     -5.225287   -0.593881   -1.204621
  H     -3.835347   -0.748281   -3.291743
  H     -2.683798   -1.779027   -2.443977
  H     -4.337282   -2.349959   -2.721086

 Total Charge           Charge          ....    0
 Multiplicity           Mult            ....    1
 Number of Electrons    NEL             ....  202
 Basis Dimension        Dim             ....  334

ORBITAL ENERGIES
----------------

  NO   OCC          E(Eh)            E(eV)
   0   2.0000     -88.041931     -2395.7427
   1   2.0000     -88.039822     -2395.6854
   2   2.0000     -87.980538     -2394.0721
   3   2.0000     -87.976919     -2393.9737
   4   2.0000     -76.424596     -2079.6190
   5   2.0000     -76.417679     -2079.4308
   6   2.0000     -18.789153      -511.2789
   7   2.0000     -18.786725      -511.2128
   8   2.0000     -18.784965      -511.1649
   9   2.0000     -18.779572      -511.0181
  10   2.0000      -9.954373      -270.8723
  11   2.0000      -9.954072      -270.8641
  12   2.0000      -9.953066      -270.8367
  13   2.0000      -9.947105      -270.6745
  14   2.0000      -9.939287      -270.4617
  15   2.0000      -9.885251      -268.9914
  16   2.0000      -9.882971      -268.9293
  17   2.0000      -9.881260      -268.8828
  18   2.0000      -9.874543      -268.7000
  19   2.0000      -7.686268      -209.1540
  20   2.0000      -7.685546      -209.1343
  21   2.0000      -7.625619      -207.5036
  22   2.0000      -7.621558      -207.3931
  23   2.0000      -6.421384      -174.7347
  24   2.0000      -6.415500      -174.5746
  25   2.0000      -5.714172      -155.4905
  26   2.0000      -5.713413      -155.4699
  27   2.0000      -5.710748      -155.3974
  28   2.0000      -5.710038      -155.3780
  29   2.0000      -5.703382      -155.1969
  30   2.0000      -5.702410      -155.1705
  31   2.0000      -5.654567      -153.8686
  32   2.0000      -5.650318      -153.7530
  33   2.0000      -5.646285      -153.6432
  34   2.0000      -5.645600      -153.6246
  35   2.0000      -5.642134      -153.5303
  36   2.0000      -5.641960      -153.5255
  37   2.0000      -4.644208      -126.3753
  38   2.0000      -4.643232      -126.3488
  39   2.0000      -4.641662      -126.3060
  40   2.0000      -4.638089      -126.2088
  41   2.0000      -4.637246      -126.1859
  42   2.0000      -4.635906      -126.1494
  43   2.0000      -0.984778       -26.7972
  44   2.0000      -0.978486       -26.6259
  45   2.0000      -0.939521       -25.5657
  46   2.0000      -0.936742       -25.4900
  47   2.0000      -0.759932       -20.6788
  48   2.0000      -0.718399       -19.5486
  49   2.0000      -0.706413       -19.2225
  50   2.0000      -0.688710       -18.7408
  51   2.0000      -0.681835       -18.5537
  52   2.0000      -0.672539       -18.3007
  53   2.0000      -0.647533       -17.6203
  54   2.0000      -0.631110       -17.1734
  55   2.0000      -0.593121       -16.1396
  56   2.0000      -0.585912       -15.9435
  57   2.0000      -0.579179       -15.7603
  58   2.0000      -0.564295       -15.3552
  59   2.0000      -0.555065       -15.1041
  60   2.0000      -0.496824       -13.5193
  61   2.0000      -0.495291       -13.4775
  62   2.0000      -0.469202       -12.7676
  63   2.0000      -0.466555       -12.6956
  64   2.0000      -0.449604       -12.2343
  65   2.0000      -0.444369       -12.0919
  66   2.0000      -0.437049       -11.8927
  67   2.0000      -0.431334       -11.7372
  68   2.0000      -0.424410       -11.5488
  69   2.0000      -0.420479       -11.4418
  70   2.0000      -0.409589       -11.1455
  71   2.0000      -0.405131       -11.0242
  72   2.0000      -0.389800       -10.6070
  73   2.0000      -0.385573       -10.4920
  74   2.0000      -0.377576       -10.2744
  75   2.0000      -0.363489        -9.8910
  76   2.0000      -0.355312        -9.6685
  77   2.0000      -0.353529        -9.6200
  78   2.0000      -0.350370        -9.5340
  79   2.0000      -0.349339        -9.5060
  80   2.0000      -0.344002        -9.3608
  81   2.0000      -0.342050        -9.3077
  82   2.0000      -0.337252        -9.1771
  83   2.0000      -0.332833        -9.0568
  84   2.0000      -0.325993        -8.8707
  85   2.0000      -0.313352        -8.5267
  86   2.0000      -0.308131        -8.3847
  87   2.0000      -0.295346        -8.0368
  88   2.0000      -0.291115        -7.9216
  89   2.0000      -0.287969        -7.8360
  90   2.0000      -0.280959        -7.6453
  91   2.0000      -0.272731        -7.4214
  92   2.0000      -0.264265        -7.1910
  93   2.0000      -0.258619        -7.0374
  94   2.0000      -0.254184        -6.9167
  95   2.0000      -0.237215        -6.4549
  96   2.0000      -0.220635        -6.0038
  97   2.0000      -0.202543        -5.5115
  98   2.0000      -0.198348        -5.3973
  99   2.0000      -0.189412        -5.1542
 100   2.0000      -0.183517        -4.9938
 101   0.0000      -0.037437        -1.0187
 102   0.0000      -0.032028        -0.8715
 103   0.0000      -0.010534        -0.2867
 104   0.0000       0.003103         0.0844
 105   0.0000       0.014647         0.3986

MULLIKEN ATOMIC CHARGES
-----------------------
   0 C :   -0.286241
   1 C :   -0.002910
   2 O :   -0.369227
   3 P :    0.610979
   4 S :   -0.323513
   5 O :   -0.377582
   6 C :   -0.000581
   7 C :   -0.323868
   8 S :   -0.082892
   9 C :   -0.350538
  10 S :   -0.115931
  11 P :    0.631068
  12 S :   -0.314247
  13 O :   -0.344933
  14 C :    0.001701
  15 C :   -0.331177
  16 O :   -0.383053
  17 C :   -0.006205
  18 C :   -0.305623
  19 H :    0.110676
  20 H :    0.131181
  21 H :    0.106222
  22 H :    0.115199
  23 H :    0.096854
  24 H :    0.102992
  25 H :    0.109164
  26 H :    0.118506
  27 H :    0.112708
  28 H :    0.129273
  29 H :    0.179113
  30 H :    0.203570
  31 H :    0.111543
  32 H :    0.108549
  33 H :    0.123335
  34 H :    0.141833
  35 H :    0.113435
  36 H :    0.103223
  37 H :    0.103957
  38 H :    0.124274
  39 H :    0.120892
  40 H :    0.108270
Sum of atomic charges:   -0.0000000

LOEWDIN ATOMIC CHARGES
----------------------
   0 C :   -0.352299
   1 C :   -0.117861
   2 O :   -0.241435
   3 P :    0.564699
   4 S :   -0.316444
   5 O :   -0.247665
   6 C :   -0.121347
   7 C :   -0.371627
   8 S :    0.090719
   9 C :   -0.485006
  10 S :    0.077481
  11 P :    0.574871
  12 S :   -0.290327
  13 O :   -0.221091
  14 C :   -0.108728
  15 C :   -0.369919
  16 O :   -0.250022
  17 C :   -0.120964
  18 C :   -0.367072
  19 H :    0.124501
  20 H :    0.124762
  21 H :    0.128718
  22 H :    0.111548
  23 H :    0.108835
  24 H :    0.117626
  25 H :    0.109049
  26 H :    0.123998
  27 H :    0.130971
  28 H :    0.121979
  29 H :    0.135770
  30 H :    0.123641
  31 H :    0.123905
  32 H :    0.112695
  33 H :    0.114370
  34 H :    0.132856
  35 H :    0.131453
  36 H :    0.101306
  37 H :    0.118384
  38 H :    0.130433
  39 H :    0.118899
  40 H :    0.128339

  Mayer bond orders larger than 0.100000
B(  0-C ,  1-C ) :   1.1650 B(  0-C , 19-H ) :   0.9493 B(  0-C , 20-H ) :   0.9448
B(  0-C , 21-H ) :   0.9414 B(  1-C ,  2-O ) :   0.8925 B(  1-C , 22-H ) :   0.9104
B(  1-C , 23-H ) :   0.9300 B(  2-O ,  3-P ) :   1.1289 B(  3-P ,  4-S ) :   1.6293
B(  3-P ,  5-O ) :   1.0965 B(  3-P ,  8-S ) :   0.9696 B(  4-S ,  8-S ) :   0.1179
B(  5-O ,  6-C ) :   0.9115 B(  6-C ,  7-C ) :   1.1637 B(  6-C , 24-H ) :   0.9332
B(  6-C , 25-H ) :   0.9122 B(  7-C , 26-H ) :   0.9445 B(  7-C , 27-H ) :   0.9383
B(  7-C , 28-H ) :   0.9333 B(  8-S ,  9-C ) :   0.9976 B(  9-C , 10-S ) :   0.9989
B(  9-C , 29-H ) :   0.9110 B(  9-C , 30-H ) :   0.8405 B( 10-S , 11-P ) :   0.9315
B( 10-S , 12-S ) :   0.1176 B( 11-P , 12-S ) :   1.6188 B( 11-P , 13-O ) :   1.1506
B( 11-P , 16-O ) :   1.0643 B( 12-S , 30-H ) :   0.1175 B( 13-O , 14-C ) :   0.8996
B( 14-C , 15-C ) :   1.1685 B( 14-C , 31-H ) :   0.9329 B( 14-C , 32-H ) :   0.9266
B( 15-C , 33-H ) :   0.9346 B( 15-C , 34-H ) :   0.9376 B( 15-C , 35-H ) :   0.9360
B( 16-O , 17-C ) :   0.9226 B( 17-C , 18-C ) :   1.1646 B( 17-C , 36-H ) :   0.9155
B( 17-C , 37-H ) :   0.9332 B( 18-C , 38-H ) :   0.9449 B( 18-C , 39-H ) :   0.9351
B( 18-C , 40-H ) :   0.9366

Dispersion correction           -0.067575505
FINAL SINGLE POINT ENERGY     -2929.515037059964

DIPOLE MOMENT
-------------

Method             : SCF
Type of density    : Electron Density
Multiplicity       :   1
Irrep              :   0
Energy             : -2929.6322761726737554 Eh
Relativity type    :
Basis              : AO
                                X                 Y                 Z
Electronic contribution:      2.766720451      -0.630562524       0.097033139
Nuclear contribution   :     -3.381034433       0.212365544       0.477083341
                        -----------------------------------------
Total Dipole Moment    :     -0.614313982      -0.418196980       0.574116480
                        -----------------------------------------
Magnitude (a.u.)       :      0.939084722
Magnitude (Debye)      :      2.386963668

Rotational constants in cm-1:             0.011332             0.005733             0.005129
Rotational constants in MHz :           339.710351           171.879850           153.774173

                             ****ORCA TERMINATED NORMALLY****
TOTAL RUN TIME: 0 days 0 hours 0 minutes 21 seconds 467 msec
