                         Program Version 6.0.1  -  RELEASE   -
|  1> ! pbe def2-sv(p) def2/J RI DEFGRID1 loosescf d4 GCP(DFT/SV(P)) printgap
|  2> %output
|  3>     printlevel normal
|  4> end
|  5> * xyz 0 1
|  6> C 3.9856821906 -2.6903534703 1.3030855372
|  7> C 2.7770917405 -1.781048266 1.3931336741
|  8> O 2.4741010953 -1.3150903515 0.0647087342
|  9> C 1.5391698106 -0.4151972278 -0.0802299319
| 10> O 0.9450373677 0.1262795767 0.8402441087
| 11> C 1.3067097284 -0.0420600338 -1.526674575
| 12> C 0.2231100249 1.0220630395 -1.6102360581
| 13> H 0.2578595655 1.5255431247 -2.5805408875
| 14> C 0.3776368838 2.0769981599 -0.52142614
| 15> O -0.5455585919 2.5317760281 0.115531802
| 16> O 1.6206571514 2.503966108 -0.4483451989
| 17> C 1.9131651318 3.5203682849 0.5322586714
| 18> C 3.3233341192 4.019257102 0.2882269652
| 19> S -1.4797704192 0.3720804624 -1.5652415369
| 20> P -1.6715568962 -0.924779312 0.1061505967
| 21> S -0.5678390418 -2.5418667721 0.1715382297
| 22> O -1.7276243092 -0.1529817024 1.4804534363
| 23> C -2.6558638934 0.9107411831 1.7700274681
| 24> O -3.2240169572 -1.2759685174 -0.0819231846
| 25> C -3.6790771755 -2.1121971399 -1.1515097247
| 26> H 4.2275178549 -3.0619620533 2.293041202
| 27> H 3.7639073973 -3.5281533513 0.6493225061
| 28> H 4.8353624149 -2.1446306626 0.9042647392
| 29> H 2.9581413727 -0.9112823661 2.032898515
| 30> H 1.8961067701 -2.3114063157 1.7700748459
| 31> H 1.0357178265 -0.9364743547 -2.0903473836
| 32> H 2.2451423533 0.3444426478 -1.9282937447
| 33> H 1.1715925166 4.3188704131 0.4305270265
| 34> H 1.8013540153 3.0694925874 1.5237821706
| 35> H 4.0321849268 3.2033365877 0.3912495135
| 36> H 3.4039521514 4.4321317822 -0.7127686575
| 37> H 3.5577557759 4.7904224691 1.0143255933
| 38> H -3.6489992363 0.6525826085 1.4085801784
| 39> H -2.3014687044 1.8310274823 1.3064465304
| 40> H -2.6474797351 1.0013836762 2.8530509991
| 41> H -4.6855094858 -2.4170082342 -0.8759595864
| 42> H -3.0292835852 -2.9836673463 -1.2459969786
| 43> H -3.6866018603 -1.5481875291 -2.0831562254
| 44> *
| 45>
| 46>                          ****END OF INPUT****

CARTESIAN COORDINATES (ANGSTROEM)
---------------------------------
  C      3.985682   -2.690353    1.303086
  C      2.777092   -1.781048    1.393134
  O      2.474101   -1.315090    0.064709
  C      1.539170   -0.415197   -0.080230
  O      0.945037    0.126280    0.840244
  C      1.306710   -0.042060   -1.526675
  C      0.223110    1.022063   -1.610236
  H      0.257860    1.525543   -2.580541
  C      0.377637    2.076998   -0.521426
  O     -0.545559    2.531776    0.115532
  O      1.620657    2.503966   -0.448345
  C      1.913165    3.520368    0.532259
  C      3.323334    4.019257    0.288227
  S     -1.479770    0.372080   -1.565242
  P     -1.671557   -0.924779    0.106151
  S     -0.567839   -2.541867    0.171538
  O     -1.727624   -0.152982    1.480453
  C     -2.655864    0.910741    1.770027
  O     -3.224017   -1.275969   -0.081923
  C     -3.679077   -2.112197   -1.151510
  H      4.227518   -3.061962    2.293041
  H      3.763907   -3.528153    0.649323
  H      4.835362   -2.144631    0.904265
  H      2.958141   -0.911282    2.032899
  H      1.896107   -2.311406    1.770075
  H      1.035718   -0.936474   -2.090347
  H      2.245142    0.344443   -1.928294
  H      1.171593    4.318870    0.430527
  H      1.801354    3.069493    1.523782
  H      4.032185    3.203337    0.391250
  H      3.403952    4.432132   -0.712769
  H      3.557756    4.790422    1.014326
  H     -3.648999    0.652583    1.408580
  H     -2.301469    1.831027    1.306447
  H     -2.647480    1.001384    2.853051
  H     -4.685509   -2.417008   -0.875960
  H     -3.029284   -2.983667   -1.245997
  H     -3.686602   -1.548188   -2.083156

 Total Charge           Charge          ....    0
 Multiplicity           Mult            ....    1
 Number of Electrons    NEL             ....  174
 Basis Dimension        Dim             ....  316

ORBITAL ENERGIES
----------------

  NO   OCC          E(Eh)            E(eV)
   0   2.0000     -88.032578     -2395.4882
   1   2.0000     -87.972476     -2393.8528
   2   2.0000     -76.418912     -2079.4643
   3   2.0000     -18.803571      -511.6712
   4   2.0000     -18.802529      -511.6428
   5   2.0000     -18.785464      -511.1785
   6   2.0000     -18.779476      -511.0155
   7   2.0000     -18.738440      -509.8989
   8   2.0000     -18.733178      -509.7557
   9   2.0000     -10.012701      -272.4594
  10   2.0000     -10.012522      -272.4546
  11   2.0000      -9.948613      -270.7155
  12   2.0000      -9.948500      -270.7125
  13   2.0000      -9.941638      -270.5257
  14   2.0000      -9.938863      -270.4502
  15   2.0000      -9.926869      -270.1238
  16   2.0000      -9.911253      -269.6989
  17   2.0000      -9.891451      -269.1601
  18   2.0000      -9.884866      -268.9809
  19   2.0000      -7.677436      -208.9136
  20   2.0000      -7.617874      -207.2929
  21   2.0000      -6.415592      -174.5771
  22   2.0000      -5.705563      -155.2563
  23   2.0000      -5.701875      -155.1559
  24   2.0000      -5.694215      -154.9475
  25   2.0000      -5.646910      -153.6602
  26   2.0000      -5.638235      -153.4242
  27   2.0000      -5.638021      -153.4184
  28   2.0000      -4.638642      -126.2239
  29   2.0000      -4.637517      -126.1933
  30   2.0000      -4.635683      -126.1433
  31   2.0000      -1.014694       -27.6112
  32   2.0000      -1.008852       -27.4522
  33   2.0000      -0.976422       -26.5698
  34   2.0000      -0.931561       -25.3491
  35   2.0000      -0.916252       -24.9325
  36   2.0000      -0.913003       -24.8441
  37   2.0000      -0.761632       -20.7251
  38   2.0000      -0.710920       -19.3451
  39   2.0000      -0.707617       -19.2552
  40   2.0000      -0.687751       -18.7147
  41   2.0000      -0.654793       -17.8178
  42   2.0000      -0.628791       -17.1103
  43   2.0000      -0.619392       -16.8545
  44   2.0000      -0.606905       -16.5147
  45   2.0000      -0.584717       -15.9109
  46   2.0000      -0.558388       -15.1945
  47   2.0000      -0.514524       -14.0009
  48   2.0000      -0.507430       -13.8079
  49   2.0000      -0.498715       -13.5707
  50   2.0000      -0.481061       -13.0903
  51   2.0000      -0.464478       -12.6391
  52   2.0000      -0.452929       -12.3248
  53   2.0000      -0.445368       -12.1191
  54   2.0000      -0.438997       -11.9457
  55   2.0000      -0.423955       -11.5364
  56   2.0000      -0.421753       -11.4765
  57   2.0000      -0.415035       -11.2937
  58   2.0000      -0.409076       -11.1315
  59   2.0000      -0.406544       -11.0626
  60   2.0000      -0.400148       -10.8886
  61   2.0000      -0.396962       -10.8019
  62   2.0000      -0.388734       -10.5780
  63   2.0000      -0.380498       -10.3539
  64   2.0000      -0.362148        -9.8545
  65   2.0000      -0.359681        -9.7874
  66   2.0000      -0.356503        -9.7009
  67   2.0000      -0.354409        -9.6440
  68   2.0000      -0.349289        -9.5046
  69   2.0000      -0.341356        -9.2888
  70   2.0000      -0.331191        -9.0122
  71   2.0000      -0.316876        -8.6226
  72   2.0000      -0.315301        -8.5798
  73   2.0000      -0.308444        -8.3932
  74   2.0000      -0.305390        -8.3101
  75   2.0000      -0.298378        -8.1193
  76   2.0000      -0.293621        -7.9898
  77   2.0000      -0.285514        -7.7692
  78   2.0000      -0.263110        -7.1596
  79   2.0000      -0.258761        -7.0412
  80   2.0000      -0.253351        -6.8940
  81   2.0000      -0.248867        -6.7720
  82   2.0000      -0.229025        -6.2321
  83   2.0000      -0.225845        -6.1455
  84   2.0000      -0.216398        -5.8885
  85   2.0000      -0.192483        -5.2377
  86   2.0000      -0.185052        -5.0355
  87   0.0000      -0.033879        -0.9219
  88   0.0000      -0.020228        -0.5504
  89   0.0000      -0.017250        -0.4694
  90   0.0000      -0.004727        -0.1286
  91   0.0000       0.031503         0.8572

MULLIKEN ATOMIC CHARGES
-----------------------
   0 C :   -0.274001
   1 C :   -0.030307
   2 O :   -0.211828
   3 C :    0.117006
   4 O :   -0.215995
   5 C :   -0.069996
   6 C :   -0.293829
   7 H :    0.143536
   8 C :    0.214580
   9 O :   -0.185493
  10 O :   -0.247609
  11 C :   -0.025597
  12 C :   -0.273824
  13 S :   -0.099965
  14 P :    0.633389
  15 S :   -0.341364
  16 O :   -0.348823
  17 C :   -0.124138
  18 O :   -0.392770
  19 C :   -0.103660
  20 H :    0.111246
  21 H :    0.119346
  22 H :    0.109703
  23 H :    0.100760
  24 H :    0.122430
  25 H :    0.138406
  26 H :    0.122348
  27 H :    0.107506
  28 H :    0.112853
  29 H :    0.114218
  30 H :    0.113149
  31 H :    0.112609
  32 H :    0.114454
  33 H :    0.152396
  34 H :    0.119705
  35 H :    0.123366
  36 H :    0.117977
  37 H :    0.118217
Sum of atomic charges:   -0.0000000

LOEWDIN ATOMIC CHARGES
----------------------
   0 C :   -0.350678
   1 C :   -0.108390
   2 O :   -0.041351
   3 C :    0.018595
   4 O :   -0.162048
   5 C :   -0.257213
   6 C :   -0.262199
   7 H :    0.150860
   8 C :    0.013475
   9 O :   -0.159582
  10 O :   -0.065703
  11 C :   -0.104302
  12 C :   -0.350879
  13 S :    0.102406
  14 P :    0.578434
  15 S :   -0.315045
  16 O :   -0.224003
  17 C :   -0.214511
  18 O :   -0.260199
  19 C :   -0.217247
  20 H :    0.130813
  21 H :    0.129055
  22 H :    0.123696
  23 H :    0.114070
  24 H :    0.118828
  25 H :    0.147561
  26 H :    0.148008
  27 H :    0.117132
  28 H :    0.120961
  29 H :    0.125996
  30 H :    0.125784
  31 H :    0.131492
  32 H :    0.110063
  33 H :    0.123592
  34 H :    0.121740
  35 H :    0.121516
  36 H :    0.110136
  37 H :    0.109138

  Mayer bond orders larger than 0.100000
B(  0-C ,  1-C ) :   1.1542 B(  0-C , 20-H ) :   0.9441 B(  0-C , 21-H ) :   0.9485
B(  0-C , 22-H ) :   0.9512 B(  1-C ,  2-O ) :   0.8994 B(  1-C , 23-H ) :   0.9293
B(  1-C , 24-H ) :   0.9191 B(  2-O ,  3-C ) :   1.2729 B(  3-C ,  4-O ) :   1.9091
B(  3-C ,  5-C ) :   1.0119 B(  4-O ,  8-C ) :   0.1006 B(  5-C ,  6-C ) :   1.0361
B(  5-C , 25-H ) :   0.8870 B(  5-C , 26-H ) :   0.8724 B(  6-C ,  7-H ) :   0.8658
B(  6-C ,  8-C ) :   0.8733 B(  6-C , 13-S ) :   1.0578 B(  8-C ,  9-O ) :   2.0465
B(  8-C , 10-O ) :   1.2196 B( 10-O , 11-C ) :   0.9048 B( 11-C , 12-C ) :   1.1522
B( 11-C , 27-H ) :   0.9286 B( 11-C , 28-H ) :   0.9309 B( 12-C , 29-H ) :   0.9493
B( 12-C , 30-H ) :   0.9508 B( 12-C , 31-H ) :   0.9438 B( 13-S , 14-P ) :   0.9717
B( 13-S , 15-S ) :   0.1134 B( 14-P , 15-S ) :   1.5961 B( 14-P , 16-O ) :   1.1568
B( 14-P , 18-O ) :   1.0519 B( 16-O , 17-C ) :   0.9093 B( 17-C , 32-H ) :   0.9427
B( 17-C , 33-H ) :   0.9241 B( 17-C , 34-H ) :   0.9590 B( 18-O , 19-C ) :   0.9341
B( 19-C , 35-H ) :   0.9586 B( 19-C , 36-H ) :   0.9307 B( 19-C , 37-H ) :   0.9493

Dispersion correction           -0.053641453
FINAL SINGLE POINT ENERGY     -1979.013223120236

DIPOLE MOMENT
-------------

Method             : SCF
Type of density    : Electron Density
Multiplicity       :   1
Irrep              :   0
Energy             : -1979.1436349359582891 Eh
Relativity type    :
Basis              : AO
                                X                 Y                 Z
Electronic contribution:    -15.045271905      -5.183269356      -5.108167454
Nuclear contribution   :     15.794293108       5.922052552       4.722301872
                        -----------------------------------------
Total Dipole Moment    :      0.749021203       0.738783195      -0.385865582
                        -----------------------------------------
Magnitude (a.u.)       :      1.120591638
Magnitude (Debye)      :      2.848317585

Rotational constants in cm-1:             0.012183             0.008435             0.006120
Rotational constants in MHz :           365.240496           252.867848           183.483135

                             ****ORCA TERMINATED NORMALLY****
TOTAL RUN TIME: 0 days 0 hours 0 minutes 46 seconds 78 msec
