                         Program Version 6.0.0  -   RELEASE  -
|  1> ! pbe def2-sv(p) def2/J RI DEFGRID1 loosescf d4 GCP(DFT/SV(P)) printgap
|  2> %output
|  3>     printlevel normal
|  4> end
|  5> * xyz 0 1
|  6> C 5.4892185057 1.4360491234 -1.5355370716
|  7> C 3.9826007793 1.2919653944 -1.4581879725
|  8> O 3.6863259401 0.2205634369 -0.5442024765
|  9> P 2.2656841783 0.0699755747 0.156491413
| 10> S 1.6390242852 1.7418361614 0.9680011482
| 11> O 2.5306772544 -1.1425227214 1.1261130346
| 12> C 2.579537563 -1.0315672386 2.5694508685
| 13> C 1.5776274304 -1.9870147897 3.1847852591
| 14> S 1.1107268459 -0.828940213 -1.3811447791
| 15> C -0.0198794561 -1.8291342805 -0.3632018391
| 16> S -1.0139606683 -0.8714438927 0.8006679024
| 17> P -2.2767409208 0.1300044398 -0.6007983213
| 18> S -2.3091887293 -0.6556938922 -2.3947819452
| 19> O -1.7997456904 1.6343553778 -0.6111695484
| 20> C -2.2152706682 2.6587630764 0.3262454727
| 21> C -1.9247239627 2.2989567138 1.7673463957
| 22> O -3.6944516824 0.2256025719 0.1127898729
| 23> C -4.6891981404 -0.8061216056 -0.0163554219
| 24> C -4.2704358723 -2.0977824984 0.6552468332
| 25> H 5.8895362246 1.6864422102 -0.5572298121
| 26> H 5.932293806 0.5025248267 -1.869807904
| 27> H 5.7358924281 2.225172691 -2.2381923468
| 28> H 3.553216016 1.0393059781 -2.4322774809
| 29> H 3.5111050075 2.209551726 -1.0880020809
| 30> H 3.6022757801 -1.2843430875 2.8542633429
| 31> H 2.3657527499 0.0044851254 2.852467842
| 32> H 0.5659038644 -1.7161603059 2.8886306819
| 33> H 1.7830384849 -3.0041826701 2.8636117123
| 34> H 1.6579944926 -1.9311263 4.2654153987
| 35> H 0.5547584494 -2.5428078308 0.2211509158
| 36> H -0.6715377599 -2.3277925408 -1.0809737509
| 37> H -1.63973059 3.5304613711 0.0110720276
| 38> H -3.281859073 2.8365473489 0.1738675246
| 39> H -0.8597691337 2.1309399264 1.908533206
| 40> H -2.2383041715 3.1203997955 2.4036899962
| 41> H -2.4680577081 1.3999818537 2.0515606409
| 42> H -5.5719604772 -0.3733485485 0.4563287948
| 43> H -4.8782004491 -0.9704891607 -1.0816428127
| 44> H -5.1043511244 -2.7921644802 0.6431853854
| 45> H -3.4353136702 -2.542827868 0.1166525635
| 46> H -3.9690097058 -1.9125430131 1.6829928669
| 47> *
| 48>
| 49>                          ****END OF INPUT****

CARTESIAN COORDINATES (ANGSTROEM)
---------------------------------
  C      5.489219    1.436049   -1.535537
  C      3.982601    1.291965   -1.458188
  O      3.686326    0.220563   -0.544202
  P      2.265684    0.069976    0.156491
  S      1.639024    1.741836    0.968001
  O      2.530677   -1.142523    1.126113
  C      2.579538   -1.031567    2.569451
  C      1.577627   -1.987015    3.184785
  S      1.110727   -0.828940   -1.381145
  C     -0.019879   -1.829134   -0.363202
  S     -1.013961   -0.871444    0.800668
  P     -2.276741    0.130004   -0.600798
  S     -2.309189   -0.655694   -2.394782
  O     -1.799746    1.634355   -0.611170
  C     -2.215271    2.658763    0.326245
  C     -1.924724    2.298957    1.767346
  O     -3.694452    0.225603    0.112790
  C     -4.689198   -0.806122   -0.016355
  C     -4.270436   -2.097782    0.655247
  H      5.889536    1.686442   -0.557230
  H      5.932294    0.502525   -1.869808
  H      5.735892    2.225173   -2.238192
  H      3.553216    1.039306   -2.432277
  H      3.511105    2.209552   -1.088002
  H      3.602276   -1.284343    2.854263
  H      2.365753    0.004485    2.852468
  H      0.565904   -1.716160    2.888631
  H      1.783038   -3.004183    2.863612
  H      1.657994   -1.931126    4.265415
  H      0.554758   -2.542808    0.221151
  H     -0.671538   -2.327793   -1.080974
  H     -1.639731    3.530461    0.011072
  H     -3.281859    2.836547    0.173868
  H     -0.859769    2.130940    1.908533
  H     -2.238304    3.120400    2.403690
  H     -2.468058    1.399982    2.051561
  H     -5.571960   -0.373349    0.456329
  H     -4.878200   -0.970489   -1.081643
  H     -5.104351   -2.792164    0.643185
  H     -3.435314   -2.542828    0.116653
  H     -3.969010   -1.912543    1.682993

 Total Charge           Charge          ....    0
 Multiplicity           Mult            ....    1
 Number of Electrons    NEL             ....  202
 Basis Dimension        Dim             ....  334

ORBITAL ENERGIES
----------------

  NO   OCC          E(Eh)            E(eV)
   0   2.0000     -88.041765     -2395.7382
   1   2.0000     -88.034109     -2395.5299
   2   2.0000     -87.984628     -2394.1834
   3   2.0000     -87.982642     -2394.1294
   4   2.0000     -76.425982     -2079.6567
   5   2.0000     -76.423535     -2079.5901
   6   2.0000     -18.795959      -511.4641
   7   2.0000     -18.795731      -511.4578
   8   2.0000     -18.785423      -511.1773
   9   2.0000     -18.784120      -511.1419
  10   2.0000      -9.955063      -270.8910
  11   2.0000      -9.954823      -270.8845
  12   2.0000      -9.954561      -270.8774
  13   2.0000      -9.949292      -270.7340
  14   2.0000      -9.949020      -270.7266
  15   2.0000      -9.889928      -269.1186
  16   2.0000      -9.886311      -269.0202
  17   2.0000      -9.884872      -268.9810
  18   2.0000      -9.876794      -268.7612
  19   2.0000      -7.685993      -209.1465
  20   2.0000      -7.679445      -208.9683
  21   2.0000      -7.629802      -207.6175
  22   2.0000      -7.627615      -207.5580
  23   2.0000      -6.423255      -174.7857
  24   2.0000      -6.421256      -174.7313
  25   2.0000      -5.713842      -155.4816
  26   2.0000      -5.710613      -155.3937
  27   2.0000      -5.707569      -155.3109
  28   2.0000      -5.704024      -155.2144
  29   2.0000      -5.703000      -155.1865
  30   2.0000      -5.696083      -154.9983
  31   2.0000      -5.658859      -153.9854
  32   2.0000      -5.656223      -153.9136
  33   2.0000      -5.650147      -153.7483
  34   2.0000      -5.650074      -153.7463
  35   2.0000      -5.648478      -153.7029
  36   2.0000      -5.647801      -153.6845
  37   2.0000      -4.646313      -126.4326
  38   2.0000      -4.644686      -126.3883
  39   2.0000      -4.643993      -126.3695
  40   2.0000      -4.643643      -126.3600
  41   2.0000      -4.643106      -126.3453
  42   2.0000      -4.641410      -126.2992
  43   2.0000      -0.986775       -26.8515
  44   2.0000      -0.986115       -26.8336
  45   2.0000      -0.944920       -25.7126
  46   2.0000      -0.940994       -25.6058
  47   2.0000      -0.760208       -20.6863
  48   2.0000      -0.721416       -19.6307
  49   2.0000      -0.708437       -19.2776
  50   2.0000      -0.689310       -18.7571
  51   2.0000      -0.688350       -18.7310
  52   2.0000      -0.670772       -18.2526
  53   2.0000      -0.648593       -17.6491
  54   2.0000      -0.635339       -17.2885
  55   2.0000      -0.598485       -16.2856
  56   2.0000      -0.591983       -16.1087
  57   2.0000      -0.575762       -15.6673
  58   2.0000      -0.565598       -15.3907
  59   2.0000      -0.559589       -15.2272
  60   2.0000      -0.505380       -13.7521
  61   2.0000      -0.493287       -13.4230
  62   2.0000      -0.480426       -13.0730
  63   2.0000      -0.466500       -12.6941
  64   2.0000      -0.460262       -12.5244
  65   2.0000      -0.447642       -12.1810
  66   2.0000      -0.439943       -11.9715
  67   2.0000      -0.433547       -11.7974
  68   2.0000      -0.424203       -11.5431
  69   2.0000      -0.420299       -11.4369
  70   2.0000      -0.407481       -11.0881
  71   2.0000      -0.397258       -10.8099
  72   2.0000      -0.391864       -10.6632
  73   2.0000      -0.381694       -10.3864
  74   2.0000      -0.376341       -10.2408
  75   2.0000      -0.373900       -10.1743
  76   2.0000      -0.369922       -10.0661
  77   2.0000      -0.358688        -9.7604
  78   2.0000      -0.355274        -9.6675
  79   2.0000      -0.352758        -9.5990
  80   2.0000      -0.345982        -9.4147
  81   2.0000      -0.343037        -9.3345
  82   2.0000      -0.341996        -9.3062
  83   2.0000      -0.335818        -9.1381
  84   2.0000      -0.333095        -9.0640
  85   2.0000      -0.322150        -8.7662
  86   2.0000      -0.306190        -8.3318
  87   2.0000      -0.298470        -8.1218
  88   2.0000      -0.295585        -8.0433
  89   2.0000      -0.290353        -7.9009
  90   2.0000      -0.288015        -7.8373
  91   2.0000      -0.274257        -7.4629
  92   2.0000      -0.272810        -7.4235
  93   2.0000      -0.258160        -7.0249
  94   2.0000      -0.255180        -6.9438
  95   2.0000      -0.236233        -6.4282
  96   2.0000      -0.214670        -5.8415
  97   2.0000      -0.205223        -5.5844
  98   2.0000      -0.203051        -5.5253
  99   2.0000      -0.196327        -5.3423
 100   2.0000      -0.189729        -5.1628
 101   0.0000      -0.047554        -1.2940
 102   0.0000      -0.024897        -0.6775
 103   0.0000      -0.013771        -0.3747
 104   0.0000      -0.002875        -0.0782
 105   0.0000       0.016392         0.4461

MULLIKEN ATOMIC CHARGES
-----------------------
   0 C :   -0.280251
   1 C :   -0.013632
   2 O :   -0.371357
   3 P :    0.614733
   4 S :   -0.329847
   5 O :   -0.371682
   6 C :   -0.005993
   7 C :   -0.311887
   8 S :   -0.078234
   9 C :   -0.351467
  10 S :   -0.118129
  11 P :    0.633156
  12 S :   -0.314989
  13 O :   -0.358135
  14 C :    0.021709
  15 C :   -0.352260
  16 O :   -0.384966
  17 C :   -0.000701
  18 C :   -0.312260
  19 H :    0.117381
  20 H :    0.117313
  21 H :    0.111260
  22 H :    0.104610
  23 H :    0.105852
  24 H :    0.107647
  25 H :    0.113143
  26 H :    0.133490
  27 H :    0.117994
  28 H :    0.114159
  29 H :    0.187445
  30 H :    0.190985
  31 H :    0.111265
  32 H :    0.102987
  33 H :    0.153702
  34 H :    0.108447
  35 H :    0.116281
  36 H :    0.104618
  37 H :    0.114476
  38 H :    0.113304
  39 H :    0.122778
  40 H :    0.117054
Sum of atomic charges:    0.0000000

LOEWDIN ATOMIC CHARGES
----------------------
   0 C :   -0.350474
   1 C :   -0.121257
   2 O :   -0.249778
   3 P :    0.565065
   4 S :   -0.311302
   5 O :   -0.239744
   6 C :   -0.115252
   7 C :   -0.360344
   8 S :    0.078811
   9 C :   -0.479254
  10 S :    0.082084
  11 P :    0.581247
  12 S :   -0.306229
  13 O :   -0.233709
  14 C :   -0.103684
  15 C :   -0.379587
  16 O :   -0.245513
  17 C :   -0.117385
  18 C :   -0.369305
  19 H :    0.127695
  20 H :    0.127096
  21 H :    0.130398
  22 H :    0.111095
  23 H :    0.106918
  24 H :    0.118127
  25 H :    0.108343
  26 H :    0.118375
  27 H :    0.125113
  28 H :    0.132885
  29 H :    0.132248
  30 H :    0.128305
  31 H :    0.124745
  32 H :    0.111834
  33 H :    0.122249
  34 H :    0.130432
  35 H :    0.113949
  36 H :    0.118543
  37 H :    0.112680
  38 H :    0.131138
  39 H :    0.119843
  40 H :    0.123600

  Mayer bond orders larger than 0.100000
B(  0-C ,  1-C ) :   1.1617 B(  0-C , 19-H ) :   0.9515 B(  0-C , 20-H ) :   0.9509
B(  0-C , 21-H ) :   0.9419 B(  1-C ,  2-O ) :   0.9117 B(  1-C , 22-H ) :   0.9292
B(  1-C , 23-H ) :   0.9072 B(  2-O ,  3-P ) :   1.1104 B(  3-P ,  4-S ) :   1.6232
B(  3-P ,  5-O ) :   1.1255 B(  3-P ,  8-S ) :   0.9702 B(  4-S ,  8-S ) :   0.1035
B(  5-O ,  6-C ) :   0.8948 B(  6-C ,  7-C ) :   1.1665 B(  6-C , 24-H ) :   0.9330
B(  6-C , 25-H ) :   0.8988 B(  7-C , 26-H ) :   0.9338 B(  7-C , 27-H ) :   0.9465
B(  7-C , 28-H ) :   0.9386 B(  8-S ,  9-C ) :   1.0049 B(  9-C , 10-S ) :   1.0163
B(  9-C , 29-H ) :   0.8969 B(  9-C , 30-H ) :   0.8796 B( 10-S , 11-P ) :   0.9252
B( 10-S , 12-S ) :   0.1102 B( 11-P , 12-S ) :   1.6279 B( 11-P , 13-O ) :   1.1547
B( 11-P , 16-O ) :   1.0710 B( 13-O , 14-C ) :   0.8930 B( 14-C , 15-C ) :   1.1701
B( 14-C , 31-H ) :   0.9316 B( 14-C , 32-H ) :   0.9318 B( 15-C , 33-H ) :   0.9203
B( 15-C , 34-H ) :   0.9350 B( 15-C , 35-H ) :   0.9356 B( 16-O , 17-C ) :   0.9057
B( 17-C , 18-C ) :   1.1663 B( 17-C , 36-H ) :   0.9340 B( 17-C , 37-H ) :   0.9157
B( 18-C , 38-H ) :   0.9368 B( 18-C , 39-H ) :   0.9353 B( 18-C , 40-H ) :   0.9445

Dispersion correction           -0.065340352
FINAL SINGLE POINT ENERGY     -2929.515854898965

DIPOLE MOMENT
-------------

Method             : SCF
Type of density    : Electron Density
Multiplicity       :   1
Irrep              :   0
Energy             : -2929.6349452362414922 Eh
Relativity type    :
Basis              : AO
                                X                 Y                 Z
Electronic contribution:     -1.116517732       0.481457321     -13.364628248
Nuclear contribution   :      1.006945636      -0.814963479      14.571405330
                        -----------------------------------------
Total Dipole Moment    :     -0.109572097      -0.333506158       1.206777082
                        -----------------------------------------
Magnitude (a.u.)       :      1.256798841
Magnitude (Debye)      :      3.194528781

Rotational constants in cm-1:             0.012188             0.004927             0.004739
Rotational constants in MHz :           365.375313           147.699655           142.059699

                             ****ORCA TERMINATED NORMALLY****
TOTAL RUN TIME: 0 days 0 hours 0 minutes 20 seconds 990 msec
