                         Program Version 6.0.0  -   RELEASE  -
|  1> ! pbe def2-sv(p) def2/J RI DEFGRID1 loosescf d4 GCP(DFT/SV(P)) printgap
|  2> %output
|  3>     printlevel normal
|  4> end
|  5> * xyz 0 1
|  6> C 2.7498097133 2.1634531694 -2.0485339336
|  7> C 3.3135966532 1.2517818106 -0.9784124646
|  8> O 2.2903898848 1.0453025878 0.0314282778
|  9> P 2.0973967646 -0.3213302011 0.7915401822
| 10> S 0.6375693727 -0.1429897148 2.0818765573
| 11> O 3.565626779 -0.5767733461 1.3425387126
| 12> C 4.085182247 -1.8425303415 1.7921826824
| 13> C 3.2204988346 -2.4861445332 2.8555174941
| 14> S 1.8843223187 -1.8533097151 -0.6811355819
| 15> C 0.113053989 -1.6886378408 -0.945505713
| 16> S -0.3010412449 -0.0591891528 -1.6677677513
| 17> P -2.1496583434 0.304670004 -0.7272533705
| 18> S -2.6956499781 -0.9064975427 0.7213964711
| 19> O -3.0934355628 0.2499337829 -1.9974864573
| 20> C -4.513169416 0.0276958851 -1.8915917074
| 21> C -5.2172487015 1.2119118706 -1.2640021878
| 22> O -2.1305268905 1.8718830528 -0.4550776529
| 23> C -1.2962657973 2.5489656021 0.4981932823
| 24> C -1.8946482071 2.5139944192 1.8902686044
| 25> H 2.440143586 3.1073477254 -1.6094014375
| 26> H 3.5145202238 2.3479821588 -2.7959290605
| 27> H 1.8886528907 1.6978017493 -2.5220483906
| 28> H 4.1709777685 1.700735321 -0.4743295766
| 29> H 3.6012312234 0.2819912484 -1.3941364893
| 30> H 4.1817565092 -2.4983241946 0.9227316651
| 31> H 5.0732412254 -1.5892916645 2.1803982148
| 32> H 3.0737777783 -1.8046413075 3.6903524776
| 33> H 2.2438129097 -2.7386799888 2.4443250976
| 34> H 3.6988204343 -3.3930439782 3.2109839208
| 35> H -0.4192585746 -1.7887104374 0.005523029
| 36> H -0.1682041909 -2.4748166921 -1.6416194822
| 37> H -4.8293817874 -0.1364445333 -2.9223546948
| 38> H -4.6786345079 -0.8780912671 -1.2993069334
| 39> H -6.2897766652 1.045539372 -1.2782485779
| 40> H -4.8888204586 1.3264076605 -0.2314287404
| 41> H -4.9814468457 2.1217484456 -1.8095396958
| 42> H -0.2974136342 2.1005690977 0.4957126995
| 43> H -1.2370964837 3.5701708947 0.1167856222
| 44> H -1.9162873041 1.4927834813 2.266818319
| 45> H -1.281280536 3.1116629276 2.5568597523
| 46> H -2.9068325539 2.908897597 1.8759543664
| 47> *
| 48>
| 49>                          ****END OF INPUT****

CARTESIAN COORDINATES (ANGSTROEM)
---------------------------------
  C      2.749810    2.163453   -2.048534
  C      3.313597    1.251782   -0.978412
  O      2.290390    1.045303    0.031428
  P      2.097397   -0.321330    0.791540
  S      0.637569   -0.142990    2.081877
  O      3.565627   -0.576773    1.342539
  C      4.085182   -1.842530    1.792183
  C      3.220499   -2.486145    2.855517
  S      1.884322   -1.853310   -0.681136
  C      0.113054   -1.688638   -0.945506
  S     -0.301041   -0.059189   -1.667768
  P     -2.149658    0.304670   -0.727253
  S     -2.695650   -0.906498    0.721396
  O     -3.093436    0.249934   -1.997486
  C     -4.513169    0.027696   -1.891592
  C     -5.217249    1.211912   -1.264002
  O     -2.130527    1.871883   -0.455078
  C     -1.296266    2.548966    0.498193
  C     -1.894648    2.513994    1.890269
  H      2.440144    3.107348   -1.609401
  H      3.514520    2.347982   -2.795929
  H      1.888653    1.697802   -2.522048
  H      4.170978    1.700735   -0.474330
  H      3.601231    0.281991   -1.394136
  H      4.181757   -2.498324    0.922732
  H      5.073241   -1.589292    2.180398
  H      3.073778   -1.804641    3.690352
  H      2.243813   -2.738680    2.444325
  H      3.698820   -3.393044    3.210984
  H     -0.419259   -1.788710    0.005523
  H     -0.168204   -2.474817   -1.641619
  H     -4.829382   -0.136445   -2.922355
  H     -4.678635   -0.878091   -1.299307
  H     -6.289777    1.045539   -1.278249
  H     -4.888820    1.326408   -0.231429
  H     -4.981447    2.121748   -1.809540
  H     -0.297414    2.100569    0.495713
  H     -1.237096    3.570171    0.116786
  H     -1.916287    1.492783    2.266818
  H     -1.281281    3.111663    2.556860
  H     -2.906833    2.908898    1.875954

 Total Charge           Charge          ....    0
 Multiplicity           Mult            ....    1
 Number of Electrons    NEL             ....  202
 Basis Dimension        Dim             ....  334

ORBITAL ENERGIES
----------------

  NO   OCC          E(Eh)            E(eV)
   0   2.0000     -88.050380     -2395.9726
   1   2.0000     -88.039112     -2395.6660
   2   2.0000     -87.983402     -2394.1501
   3   2.0000     -87.982467     -2394.1247
   4   2.0000     -76.427707     -2079.7036
   5   2.0000     -76.421109     -2079.5241
   6   2.0000     -18.797021      -511.4930
   7   2.0000     -18.792275      -511.3638
   8   2.0000     -18.785394      -511.1766
   9   2.0000     -18.780885      -511.0539
  10   2.0000      -9.961629      -271.0697
  11   2.0000      -9.955967      -270.9156
  12   2.0000      -9.954604      -270.8785
  13   2.0000      -9.945174      -270.6219
  14   2.0000      -9.939969      -270.4803
  15   2.0000      -9.886995      -269.0388
  16   2.0000      -9.884858      -268.9807
  17   2.0000      -9.878129      -268.7976
  18   2.0000      -9.868070      -268.5238
  19   2.0000      -7.695156      -209.3958
  20   2.0000      -7.684178      -209.0971
  21   2.0000      -7.628211      -207.5742
  22   2.0000      -7.627389      -207.5518
  23   2.0000      -6.424747      -174.8263
  24   2.0000      -6.418666      -174.6608
  25   2.0000      -5.722941      -155.7292
  26   2.0000      -5.719400      -155.6328
  27   2.0000      -5.712571      -155.4470
  28   2.0000      -5.712090      -155.4339
  29   2.0000      -5.708785      -155.3439
  30   2.0000      -5.700958      -155.1310
  31   2.0000      -5.657026      -153.9355
  32   2.0000      -5.656469      -153.9204
  33   2.0000      -5.649028      -153.7179
  34   2.0000      -5.648280      -153.6975
  35   2.0000      -5.647777      -153.6838
  36   2.0000      -5.647592      -153.6788
  37   2.0000      -4.647564      -126.4666
  38   2.0000      -4.646856      -126.4474
  39   2.0000      -4.644717      -126.3892
  40   2.0000      -4.640980      -126.2875
  41   2.0000      -4.640436      -126.2727
  42   2.0000      -4.639391      -126.2443
  43   2.0000      -0.990745       -26.9595
  44   2.0000      -0.979165       -26.6444
  45   2.0000      -0.946474       -25.7549
  46   2.0000      -0.936989       -25.4968
  47   2.0000      -0.763858       -20.7856
  48   2.0000      -0.721384       -19.6298
  49   2.0000      -0.708676       -19.2841
  50   2.0000      -0.692039       -18.8313
  51   2.0000      -0.677213       -18.4279
  52   2.0000      -0.672638       -18.3034
  53   2.0000      -0.650478       -17.7004
  54   2.0000      -0.634520       -17.2662
  55   2.0000      -0.593944       -16.1620
  56   2.0000      -0.589047       -16.0288
  57   2.0000      -0.573248       -15.5989
  58   2.0000      -0.566337       -15.4108
  59   2.0000      -0.560263       -15.2455
  60   2.0000      -0.509061       -13.8522
  61   2.0000      -0.490076       -13.3356
  62   2.0000      -0.476348       -12.9621
  63   2.0000      -0.465029       -12.6541
  64   2.0000      -0.454803       -12.3758
  65   2.0000      -0.444690       -12.1006
  66   2.0000      -0.437547       -11.9063
  67   2.0000      -0.432550       -11.7703
  68   2.0000      -0.428810       -11.6685
  69   2.0000      -0.417061       -11.3488
  70   2.0000      -0.405866       -11.0442
  71   2.0000      -0.397228       -10.8091
  72   2.0000      -0.394536       -10.7359
  73   2.0000      -0.387560       -10.5460
  74   2.0000      -0.384576       -10.4648
  75   2.0000      -0.366266        -9.9666
  76   2.0000      -0.360634        -9.8133
  77   2.0000      -0.352931        -9.6038
  78   2.0000      -0.350981        -9.5507
  79   2.0000      -0.348017        -9.4700
  80   2.0000      -0.344415        -9.3720
  81   2.0000      -0.342153        -9.3105
  82   2.0000      -0.335020        -9.1164
  83   2.0000      -0.333050        -9.0627
  84   2.0000      -0.324610        -8.8331
  85   2.0000      -0.320501        -8.7213
  86   2.0000      -0.307851        -8.3771
  87   2.0000      -0.299128        -8.1397
  88   2.0000      -0.296406        -8.0656
  89   2.0000      -0.286746        -7.8028
  90   2.0000      -0.279399        -7.6028
  91   2.0000      -0.278510        -7.5787
  92   2.0000      -0.268149        -7.2967
  93   2.0000      -0.263193        -7.1619
  94   2.0000      -0.256582        -6.9819
  95   2.0000      -0.237619        -6.4659
  96   2.0000      -0.220285        -5.9943
  97   2.0000      -0.211643        -5.7591
  98   2.0000      -0.199349        -5.4246
  99   2.0000      -0.195951        -5.3321
 100   2.0000      -0.187452        -5.1008
 101   0.0000      -0.043533        -1.1846
 102   0.0000      -0.033318        -0.9066
 103   0.0000      -0.012752        -0.3470
 104   0.0000       0.011766         0.3202
 105   0.0000       0.019097         0.5197

MULLIKEN ATOMIC CHARGES
-----------------------
   0 C :   -0.287762
   1 C :   -0.009515
   2 O :   -0.348436
   3 P :    0.590365
   4 S :   -0.293350
   5 O :   -0.379095
   6 C :   -0.011864
   7 C :   -0.309968
   8 S :   -0.122696
   9 C :   -0.346425
  10 S :   -0.106027
  11 P :    0.629550
  12 S :   -0.318816
  13 O :   -0.368427
  14 C :   -0.004733
  15 C :   -0.307022
  16 O :   -0.373744
  17 C :   -0.026041
  18 C :   -0.302202
  19 H :    0.118714
  20 H :    0.108768
  21 H :    0.130240
  22 H :    0.108868
  23 H :    0.098211
  24 H :    0.112973
  25 H :    0.110003
  26 H :    0.128381
  27 H :    0.129087
  28 H :    0.112127
  29 H :    0.214937
  30 H :    0.182929
  31 H :    0.102376
  32 H :    0.108977
  33 H :    0.108883
  34 H :    0.125955
  35 H :    0.115814
  36 H :    0.127927
  37 H :    0.097225
  38 H :    0.140335
  39 H :    0.106001
  40 H :    0.107477
Sum of atomic charges:    0.0000000

LOEWDIN ATOMIC CHARGES
----------------------
   0 C :   -0.353995
   1 C :   -0.115518
   2 O :   -0.234912
   3 P :    0.563021
   4 S :   -0.285205
   5 O :   -0.247513
   6 C :   -0.114661
   7 C :   -0.368616
   8 S :    0.066172
   9 C :   -0.477404
  10 S :    0.081758
  11 P :    0.568688
  12 S :   -0.297489
  13 O :   -0.246763
  14 C :   -0.118553
  15 C :   -0.365022
  16 O :   -0.240530
  17 C :   -0.121354
  18 C :   -0.364709
  19 H :    0.128308
  20 H :    0.129113
  21 H :    0.123430
  22 H :    0.116833
  23 H :    0.101791
  24 H :    0.107905
  25 H :    0.121762
  26 H :    0.131394
  27 H :    0.122728
  28 H :    0.130509
  29 H :    0.124418
  30 H :    0.135188
  31 H :    0.117426
  32 H :    0.108403
  33 H :    0.128768
  34 H :    0.123245
  35 H :    0.126004
  36 H :    0.107235
  37 H :    0.114589
  38 H :    0.123460
  39 H :    0.129066
  40 H :    0.121033

  Mayer bond orders larger than 0.100000
B(  0-C ,  1-C ) :   1.1646 B(  0-C , 19-H ) :   0.9493 B(  0-C , 20-H ) :   0.9406
B(  0-C , 21-H ) :   0.9415 B(  1-C ,  2-O ) :   0.8877 B(  1-C , 22-H ) :   0.9334
B(  1-C , 23-H ) :   0.9111 B(  2-O ,  3-P ) :   1.1246 B(  3-P ,  4-S ) :   1.6581
B(  3-P ,  5-O ) :   1.0874 B(  3-P ,  8-S ) :   0.9278 B(  4-S ,  8-S ) :   0.1085
B(  5-O ,  6-C ) :   0.9133 B(  6-C ,  7-C ) :   1.1667 B(  6-C , 24-H ) :   0.9268
B(  6-C , 25-H ) :   0.9333 B(  7-C , 26-H ) :   0.9429 B(  7-C , 27-H ) :   0.9325
B(  7-C , 28-H ) :   0.9349 B(  8-S ,  9-C ) :   1.0069 B(  9-C , 10-S ) :   0.9926
B(  9-C , 29-H ) :   0.8438 B(  9-C , 30-H ) :   0.9091 B( 10-S , 11-P ) :   0.9581
B( 10-S , 12-S ) :   0.1189 B( 11-P , 12-S ) :   1.6108 B( 11-P , 13-O ) :   1.1275
B( 11-P , 16-O ) :   1.1180 B( 13-O , 14-C ) :   0.9138 B( 14-C , 15-C ) :   1.1634
B( 14-C , 31-H ) :   0.9347 B( 14-C , 32-H ) :   0.9143 B( 15-C , 33-H ) :   0.9386
B( 15-C , 34-H ) :   0.9354 B( 15-C , 35-H ) :   0.9464 B( 16-O , 17-C ) :   0.9015
B( 17-C , 18-C ) :   1.1707 B( 17-C , 36-H ) :   0.9030 B( 17-C , 37-H ) :   0.9354
B( 18-C , 38-H ) :   0.9306 B( 18-C , 39-H ) :   0.9392 B( 18-C , 40-H ) :   0.9461

Dispersion correction           -0.066235154
FINAL SINGLE POINT ENERGY     -2929.520385852845

DIPOLE MOMENT
-------------

Method             : SCF
Type of density    : Electron Density
Multiplicity       :   1
Irrep              :   0
Energy             : -2929.6387710501448964 Eh
Relativity type    :
Basis              : AO
                                X                 Y                 Z
Electronic contribution:      1.054315910      -8.964850393      -2.343478923
Nuclear contribution   :      0.062765766       9.062499664       1.590979384
                        -----------------------------------------
Total Dipole Moment    :      1.117081677       0.097649271      -0.752499540
                        -----------------------------------------
Magnitude (a.u.)       :      1.350430454
Magnitude (Debye)      :      3.432521426

Rotational constants in cm-1:             0.013141             0.004917             0.004731
Rotational constants in MHz :           393.944436           147.418570           141.843828

                             ****ORCA TERMINATED NORMALLY****
TOTAL RUN TIME: 0 days 0 hours 0 minutes 21 seconds 558 msec
