                         Program Version 6.0.0  -   RELEASE  -
|  1> ! r2scan-3c def2/J RI DEFGRID2 scfconv6 printgap
|  2> %output
|  3>     printlevel normal
|  4> end
|  5> * xyz 0 1
|  6> C 4.6468709616 -1.3957575594 -0.8828381723
|  7> C 4.619575091 0.072698238 -0.5111691581
|  8> O 3.4669350548 0.4092022655 0.279999603
|  9> P 1.9868248058 0.3937056974 -0.3100994587
| 10> S 1.8820997495 1.0353270515 -2.1652946231
| 11> O 1.2309317676 1.2182920682 0.8088606206
| 12> C 1.3159866107 2.6578767025 0.8642838366
| 13> C 0.5050222129 3.1160806071 2.0571973147
| 14> S 1.2828916581 -1.5373259554 0.0991192588
| 15> C 0.0492875059 -1.7218206162 -1.2358551455
| 16> S -1.612249681 -2.0338313144 -0.6098927695
| 17> P -2.0099341988 -0.0938620396 0.1721052887
| 18> S -1.5018355556 1.4183383154 -0.9628769699
| 19> O -1.2937953717 0.0140599086 1.5695927376
| 20> C -1.4726857489 -0.9564127314 2.6345557359
| 21> C -0.2965544984 -0.8276871973 3.5793951738
| 22> O -3.5324676062 -0.2092196598 0.614802458
| 23> C -4.6053872197 -0.7176179791 -0.2003735147
| 24> C -4.7091698882 -0.017747684 -1.538916166
| 25> H 5.5910101609 -1.6251460058 -1.3661994485
| 26> H 4.5338939798 -2.013052608 0.0047387089
| 27> H 3.8342690114 -1.6175183619 -1.573344552
| 28> H 4.6132681846 0.6964769831 -1.4108025698
| 29> H 5.4619079357 0.3448262564 0.1262195839
| 30> H 2.3680955848 2.9418568481 0.9545465801
| 31> H 0.9129661941 3.0591627898 -0.0721824661
| 32> H 0.9199673957 2.6995064796 2.9702926084
| 33> H 0.5241610403 4.1997961162 2.1075012241
| 34> H -0.5226934498 2.7780979926 1.9477136818
| 35> H 0.3166401123 -2.5950104687 -1.8252735486
| 36> H 0.0560840426 -0.8143039368 -1.8465561301
| 37> H -2.4184456403 -0.7313164423 3.1306805481
| 38> H -1.5213634846 -1.9566445057 2.1935545535
| 39> H 0.632267513 -1.0177835415 3.0469986629
| 40> H -0.2605274438 0.1744726052 3.9966525498
| 41> H -0.4044787264 -1.5501937891 4.3817909234
| 42> H -4.448609947 -1.7910862074 -0.3360643435
| 43> H -5.4934259504 -0.5447543197 0.4101001646
| 44> H -5.5774182633 -0.3884953164 -2.0739553261
| 45> H -4.8022005739 1.0569510073 -1.4001333935
| 46> H -3.8172312703 -0.2091415974 -2.1341442312
| 47> *
| 48>
| 49>                          ****END OF INPUT****

CARTESIAN COORDINATES (ANGSTROEM)
---------------------------------
  C      4.646871   -1.395758   -0.882838
  C      4.619575    0.072698   -0.511169
  O      3.466935    0.409202    0.280000
  P      1.986825    0.393706   -0.310099
  S      1.882100    1.035327   -2.165295
  O      1.230932    1.218292    0.808861
  C      1.315987    2.657877    0.864284
  C      0.505022    3.116081    2.057197
  S      1.282892   -1.537326    0.099119
  C      0.049288   -1.721821   -1.235855
  S     -1.612250   -2.033831   -0.609893
  P     -2.009934   -0.093862    0.172105
  S     -1.501836    1.418338   -0.962877
  O     -1.293795    0.014060    1.569593
  C     -1.472686   -0.956413    2.634556
  C     -0.296554   -0.827687    3.579395
  O     -3.532468   -0.209220    0.614802
  C     -4.605387   -0.717618   -0.200374
  C     -4.709170   -0.017748   -1.538916
  H      5.591010   -1.625146   -1.366199
  H      4.533894   -2.013053    0.004739
  H      3.834269   -1.617518   -1.573345
  H      4.613268    0.696477   -1.410803
  H      5.461908    0.344826    0.126220
  H      2.368096    2.941857    0.954547
  H      0.912966    3.059163   -0.072182
  H      0.919967    2.699506    2.970293
  H      0.524161    4.199796    2.107501
  H     -0.522693    2.778098    1.947714
  H      0.316640   -2.595010   -1.825274
  H      0.056084   -0.814304   -1.846556
  H     -2.418446   -0.731316    3.130681
  H     -1.521363   -1.956645    2.193555
  H      0.632268   -1.017784    3.046999
  H     -0.260527    0.174473    3.996653
  H     -0.404479   -1.550194    4.381791
  H     -4.448610   -1.791086   -0.336064
  H     -5.493426   -0.544754    0.410100
  H     -5.577418   -0.388495   -2.073955
  H     -4.802201    1.056951   -1.400133
  H     -3.817231   -0.209142   -2.134144

 Total Charge           Charge          ....    0
 Multiplicity           Mult            ....    1
 Number of Electrons    NEL             ....  202
 Basis Dimension        Dim             ....  539

ORBITAL ENERGIES
----------------

  NO   OCC          E(Eh)            E(eV)
   0   2.0000     -88.578853     -2410.3531
   1   2.0000     -88.575028     -2410.2491
   2   2.0000     -88.512857     -2408.5573
   3   2.0000     -88.511168     -2408.5113
   4   2.0000     -76.910876     -2092.8513
   5   2.0000     -76.907187     -2092.7510
   6   2.0000     -18.992087      -516.8009
   7   2.0000     -18.986277      -516.6429
   8   2.0000     -18.985988      -516.6350
   9   2.0000     -18.977334      -516.3995
  10   2.0000     -10.108225      -275.0588
  11   2.0000     -10.104738      -274.9639
  12   2.0000     -10.097365      -274.7633
  13   2.0000     -10.092884      -274.6413
  14   2.0000     -10.085265      -274.4340
  15   2.0000     -10.028104      -272.8786
  16   2.0000     -10.026522      -272.8355
  17   2.0000     -10.025153      -272.7983
  18   2.0000     -10.018740      -272.6238
  19   2.0000      -7.873425      -214.2468
  20   2.0000      -7.869821      -214.1487
  21   2.0000      -7.807535      -212.4538
  22   2.0000      -7.805921      -212.4099
  23   2.0000      -6.589136      -179.2995
  24   2.0000      -6.585754      -179.2075
  25   2.0000      -5.820233      -158.3766
  26   2.0000      -5.816956      -158.2874
  27   2.0000      -5.816634      -158.2787
  28   2.0000      -5.813720      -158.1994
  29   2.0000      -5.810877      -158.1220
  30   2.0000      -5.806851      -158.0124
  31   2.0000      -5.755193      -156.6068
  32   2.0000      -5.753821      -156.5694
  33   2.0000      -5.748038      -156.4121
  34   2.0000      -5.747323      -156.3926
  35   2.0000      -5.746152      -156.3607
  36   2.0000      -5.745752      -156.3499
  37   2.0000      -4.734913      -128.8435
  38   2.0000      -4.734510      -128.8326
  39   2.0000      -4.732230      -128.7705
  40   2.0000      -4.731147      -128.7410
  41   2.0000      -4.730571      -128.7254
  42   2.0000      -4.729678      -128.7011
  43   2.0000      -1.049226       -28.5509
  44   2.0000      -1.041882       -28.3511
  45   2.0000      -1.007201       -27.4073
  46   2.0000      -1.000400       -27.2223
  47   2.0000      -0.801573       -21.8119
  48   2.0000      -0.757094       -20.6016
  49   2.0000      -0.747068       -20.3287
  50   2.0000      -0.732868       -19.9423
  51   2.0000      -0.724833       -19.7237
  52   2.0000      -0.709971       -19.3193
  53   2.0000      -0.682392       -18.5688
  54   2.0000      -0.661937       -18.0122
  55   2.0000      -0.625220       -17.0131
  56   2.0000      -0.617346       -16.7988
  57   2.0000      -0.601589       -16.3701
  58   2.0000      -0.598870       -16.2961
  59   2.0000      -0.588723       -16.0200
  60   2.0000      -0.529287       -14.4026
  61   2.0000      -0.520454       -14.1623
  62   2.0000      -0.492798       -13.4097
  63   2.0000      -0.485630       -13.2147
  64   2.0000      -0.471875       -12.8404
  65   2.0000      -0.463104       -12.6017
  66   2.0000      -0.452061       -12.3012
  67   2.0000      -0.449932       -12.2433
  68   2.0000      -0.440881       -11.9970
  69   2.0000      -0.436749       -11.8846
  70   2.0000      -0.432769       -11.7762
  71   2.0000      -0.414153       -11.2697
  72   2.0000      -0.405461       -11.0332
  73   2.0000      -0.400898       -10.9090
  74   2.0000      -0.398627       -10.8472
  75   2.0000      -0.380728       -10.3601
  76   2.0000      -0.371345       -10.1048
  77   2.0000      -0.365820        -9.9545
  78   2.0000      -0.362504        -9.8642
  79   2.0000      -0.360318        -9.8048
  80   2.0000      -0.358462        -9.7542
  81   2.0000      -0.355701        -9.6791
  82   2.0000      -0.352231        -9.5847
  83   2.0000      -0.348394        -9.4803
  84   2.0000      -0.339328        -9.2336
  85   2.0000      -0.332100        -9.0369
  86   2.0000      -0.321734        -8.7548
  87   2.0000      -0.312468        -8.5027
  88   2.0000      -0.310826        -8.4580
  89   2.0000      -0.304849        -8.2954
  90   2.0000      -0.293844        -7.9959
  91   2.0000      -0.287352        -7.8192
  92   2.0000      -0.278368        -7.5748
  93   2.0000      -0.275928        -7.5084
  94   2.0000      -0.269467        -7.3326
  95   2.0000      -0.251051        -6.8315
  96   2.0000      -0.232453        -6.3254
  97   2.0000      -0.224663        -6.1134
  98   2.0000      -0.213714        -5.8154
  99   2.0000      -0.204605        -5.5676
 100   2.0000      -0.194472        -5.2919
 101   0.0000      -0.044079        -1.1994
 102   0.0000      -0.031464        -0.8562
 103   0.0000      -0.013098        -0.3564
 104   0.0000       0.014470         0.3938
 105   0.0000       0.018783         0.5111

MULLIKEN ATOMIC CHARGES
-----------------------
   0 C :   -0.445666
   1 C :   -0.156420
   2 O :   -0.309986
   3 P :    0.647155
   4 S :   -0.464074
   5 O :   -0.238039
   6 C :   -0.130371
   7 C :   -0.471844
   8 S :   -0.128253
   9 C :   -0.222561
  10 S :   -0.179912
  11 P :    0.652432
  12 S :   -0.394227
  13 O :   -0.248785
  14 C :   -0.118354
  15 C :   -0.455924
  16 O :   -0.307077
  17 C :   -0.162207
  18 C :   -0.427760
  19 H :    0.146368
  20 H :    0.153018
  21 H :    0.172786
  22 H :    0.174639
  23 H :    0.145722
  24 H :    0.145331
  25 H :    0.175340
  26 H :    0.144337
  27 H :    0.142704
  28 H :    0.182215
  29 H :    0.196768
  30 H :    0.220031
  31 H :    0.154606
  32 H :    0.159083
  33 H :    0.170994
  34 H :    0.152442
  35 H :    0.142895
  36 H :    0.150021
  37 H :    0.149711
  38 H :    0.146246
  39 H :    0.165197
  40 H :    0.171416
Sum of atomic charges:   -0.0000000

LOEWDIN ATOMIC CHARGES
----------------------
   0 C :   -0.408026
   1 C :    0.017134
   2 O :   -0.666365
   3 P :    0.369592
   4 S :   -0.126778
   5 O :   -0.673746
   6 C :    0.018492
   7 C :   -0.389934
   8 S :    0.174044
   9 C :   -0.412376
  10 S :    0.117617
  11 P :    0.376766
  12 S :   -0.063147
  13 O :   -0.657931
  14 C :    0.019972
  15 C :   -0.389450
  16 O :   -0.662884
  17 C :    0.023042
  18 C :   -0.406227
  19 H :    0.158220
  20 H :    0.159448
  21 H :    0.163971
  22 H :    0.180366
  23 H :    0.178171
  24 H :    0.170209
  25 H :    0.183045
  26 H :    0.155993
  27 H :    0.157825
  28 H :    0.170540
  29 H :    0.180261
  30 H :    0.204055
  31 H :    0.174178
  32 H :    0.175996
  33 H :    0.166633
  34 H :    0.160319
  35 H :    0.157748
  36 H :    0.170356
  37 H :    0.181381
  38 H :    0.157768
  39 H :    0.166162
  40 H :    0.167558

  Mayer bond orders larger than 0.100000
B(  0-C ,  1-C ) :   0.9204 B(  0-C , 19-H ) :   0.9599 B(  0-C , 20-H ) :   0.9679
B(  0-C , 21-H ) :   0.9655 B(  1-C ,  2-O ) :   0.8271 B(  1-C , 22-H ) :   0.9671
B(  1-C , 23-H ) :   0.9595 B(  2-O ,  3-P ) :   1.0534 B(  3-P ,  4-S ) :   1.7516
B(  3-P ,  5-O ) :   1.1822 B(  3-P ,  8-S ) :   1.1288 B(  5-O ,  6-C ) :   0.7737
B(  6-C ,  7-C ) :   0.9341 B(  6-C , 24-H ) :   0.9444 B(  6-C , 25-H ) :   0.9516
B(  7-C , 26-H ) :   0.9718 B(  7-C , 27-H ) :   0.9657 B(  7-C , 28-H ) :   0.9709
B(  8-S ,  9-C ) :   0.8886 B(  9-C , 10-S ) :   0.9201 B(  9-C , 29-H ) :   0.9135
B(  9-C , 30-H ) :   0.9032 B( 10-S , 11-P ) :   0.9850 B( 11-P , 12-S ) :   1.8846
B( 11-P , 13-O ) :   1.1293 B( 11-P , 16-O ) :   1.0342 B( 13-O , 14-C ) :   0.7536
B( 14-C , 15-C ) :   0.9564 B( 14-C , 31-H ) :   0.9425 B( 14-C , 32-H ) :   0.9539
B( 15-C , 33-H ) :   0.9671 B( 15-C , 34-H ) :   0.9694 B( 15-C , 35-H ) :   0.9649
B( 16-O , 17-C ) :   0.8081 B( 17-C , 18-C ) :   0.9436 B( 17-C , 36-H ) :   0.9636
B( 17-C , 37-H ) :   0.9572 B( 18-C , 38-H ) :   0.9630 B( 18-C , 39-H ) :   0.9643
B( 18-C , 40-H ) :   0.9539

Dispersion correction           -0.022550346
FINAL SINGLE POINT ENERGY     -2932.457674253241

DIPOLE MOMENT
-------------

Method             : SCF
Type of density    : Electron Density
Multiplicity       :   1
Irrep              :   0
Energy             : -2932.4817120201701073 Eh
Relativity type    :
Basis              : AO
                                X                 Y                 Z
Electronic contribution:     -0.718642292      -1.845939594      -9.727601593
Nuclear contribution   :      0.484610668       0.814542510      10.814784610
                        -----------------------------------------
Total Dipole Moment    :     -0.234031624      -1.031397084       1.087183017
                        -----------------------------------------
Magnitude (a.u.)       :      1.516745746
Magnitude (Debye)      :      3.855261303

Rotational constants in cm-1:             0.012122             0.005557             0.005397
Rotational constants in MHz :           363.406810           166.582982           161.785868

                             ****ORCA TERMINATED NORMALLY****
TOTAL RUN TIME: 0 days 0 hours 1 minutes 27 seconds 6 msec
