                         Program Version 6.0.0  -   RELEASE  -
|  1> ! r2scan-3c def2/J RI DEFGRID2 scfconv6 printgap
|  2> %output
|  3>     printlevel normal
|  4> end
|  5> %cpcm
|  6>     smd true
|  7>     smdsolvent "water"
|  8> end
|  9> * xyz 0 1
| 10> C 4.6468709616 -1.3957575594 -0.8828381723
| 11> C 4.619575091 0.072698238 -0.5111691581
| 12> O 3.4669350548 0.4092022655 0.279999603
| 13> P 1.9868248058 0.3937056974 -0.3100994587
| 14> S 1.8820997495 1.0353270515 -2.1652946231
| 15> O 1.2309317676 1.2182920682 0.8088606206
| 16> C 1.3159866107 2.6578767025 0.8642838366
| 17> C 0.5050222129 3.1160806071 2.0571973147
| 18> S 1.2828916581 -1.5373259554 0.0991192588
| 19> C 0.0492875059 -1.7218206162 -1.2358551455
| 20> S -1.612249681 -2.0338313144 -0.6098927695
| 21> P -2.0099341988 -0.0938620396 0.1721052887
| 22> S -1.5018355556 1.4183383154 -0.9628769699
| 23> O -1.2937953717 0.0140599086 1.5695927376
| 24> C -1.4726857489 -0.9564127314 2.6345557359
| 25> C -0.2965544984 -0.8276871973 3.5793951738
| 26> O -3.5324676062 -0.2092196598 0.614802458
| 27> C -4.6053872197 -0.7176179791 -0.2003735147
| 28> C -4.7091698882 -0.017747684 -1.538916166
| 29> H 5.5910101609 -1.6251460058 -1.3661994485
| 30> H 4.5338939798 -2.013052608 0.0047387089
| 31> H 3.8342690114 -1.6175183619 -1.573344552
| 32> H 4.6132681846 0.6964769831 -1.4108025698
| 33> H 5.4619079357 0.3448262564 0.1262195839
| 34> H 2.3680955848 2.9418568481 0.9545465801
| 35> H 0.9129661941 3.0591627898 -0.0721824661
| 36> H 0.9199673957 2.6995064796 2.9702926084
| 37> H 0.5241610403 4.1997961162 2.1075012241
| 38> H -0.5226934498 2.7780979926 1.9477136818
| 39> H 0.3166401123 -2.5950104687 -1.8252735486
| 40> H 0.0560840426 -0.8143039368 -1.8465561301
| 41> H -2.4184456403 -0.7313164423 3.1306805481
| 42> H -1.5213634846 -1.9566445057 2.1935545535
| 43> H 0.632267513 -1.0177835415 3.0469986629
| 44> H -0.2605274438 0.1744726052 3.9966525498
| 45> H -0.4044787264 -1.5501937891 4.3817909234
| 46> H -4.448609947 -1.7910862074 -0.3360643435
| 47> H -5.4934259504 -0.5447543197 0.4101001646
| 48> H -5.5774182633 -0.3884953164 -2.0739553261
| 49> H -4.8022005739 1.0569510073 -1.4001333935
| 50> H -3.8172312703 -0.2091415974 -2.1341442312
| 51> *
| 52>
| 53>                          ****END OF INPUT****

CARTESIAN COORDINATES (ANGSTROEM)
---------------------------------
  C      4.646871   -1.395758   -0.882838
  C      4.619575    0.072698   -0.511169
  O      3.466935    0.409202    0.280000
  P      1.986825    0.393706   -0.310099
  S      1.882100    1.035327   -2.165295
  O      1.230932    1.218292    0.808861
  C      1.315987    2.657877    0.864284
  C      0.505022    3.116081    2.057197
  S      1.282892   -1.537326    0.099119
  C      0.049288   -1.721821   -1.235855
  S     -1.612250   -2.033831   -0.609893
  P     -2.009934   -0.093862    0.172105
  S     -1.501836    1.418338   -0.962877
  O     -1.293795    0.014060    1.569593
  C     -1.472686   -0.956413    2.634556
  C     -0.296554   -0.827687    3.579395
  O     -3.532468   -0.209220    0.614802
  C     -4.605387   -0.717618   -0.200374
  C     -4.709170   -0.017748   -1.538916
  H      5.591010   -1.625146   -1.366199
  H      4.533894   -2.013053    0.004739
  H      3.834269   -1.617518   -1.573345
  H      4.613268    0.696477   -1.410803
  H      5.461908    0.344826    0.126220
  H      2.368096    2.941857    0.954547
  H      0.912966    3.059163   -0.072182
  H      0.919967    2.699506    2.970293
  H      0.524161    4.199796    2.107501
  H     -0.522693    2.778098    1.947714
  H      0.316640   -2.595010   -1.825274
  H      0.056084   -0.814304   -1.846556
  H     -2.418446   -0.731316    3.130681
  H     -1.521363   -1.956645    2.193555
  H      0.632268   -1.017784    3.046999
  H     -0.260527    0.174473    3.996653
  H     -0.404479   -1.550194    4.381791
  H     -4.448610   -1.791086   -0.336064
  H     -5.493426   -0.544754    0.410100
  H     -5.577418   -0.388495   -2.073955
  H     -4.802201    1.056951   -1.400133
  H     -3.817231   -0.209142   -2.134144

 Total Charge           Charge          ....    0
 Multiplicity           Mult            ....    1
 Number of Electrons    NEL             ....  202
 Basis Dimension        Dim             ....  539

ORBITAL ENERGIES
----------------

  NO   OCC          E(Eh)            E(eV)
   0   2.0000     -88.580711     -2410.4037
   1   2.0000     -88.578807     -2410.3519
   2   2.0000     -88.524067     -2408.8623
   3   2.0000     -88.521218     -2408.7848
   4   2.0000     -76.917080     -2093.0202
   5   2.0000     -76.916005     -2092.9909
   6   2.0000     -18.993774      -516.8469
   7   2.0000     -18.991838      -516.7942
   8   2.0000     -18.991152      -516.7755
   9   2.0000     -18.986930      -516.6606
  10   2.0000     -10.106401      -275.0092
  11   2.0000     -10.093130      -274.6480
  12   2.0000     -10.089736      -274.5557
  13   2.0000     -10.087217      -274.4871
  14   2.0000     -10.086333      -274.4631
  15   2.0000     -10.018821      -272.6260
  16   2.0000     -10.018295      -272.6117
  17   2.0000     -10.017464      -272.5891
  18   2.0000     -10.017263      -272.5836
  19   2.0000      -7.875169      -214.2942
  20   2.0000      -7.873522      -214.2494
  21   2.0000      -7.819090      -212.7683
  22   2.0000      -7.816346      -212.6936
  23   2.0000      -6.595388      -179.4696
  24   2.0000      -6.594615      -179.4486
  25   2.0000      -5.822012      -158.4250
  26   2.0000      -5.820366      -158.3802
  27   2.0000      -5.818727      -158.3356
  28   2.0000      -5.817430      -158.3003
  29   2.0000      -5.812575      -158.1682
  30   2.0000      -5.810529      -158.1125
  31   2.0000      -5.766666      -156.9190
  32   2.0000      -5.764127      -156.8499
  33   2.0000      -5.759600      -156.7267
  34   2.0000      -5.758888      -156.7073
  35   2.0000      -5.756644      -156.6463
  36   2.0000      -5.756154      -156.6329
  37   2.0000      -4.741125      -129.0126
  38   2.0000      -4.740709      -129.0012
  39   2.0000      -4.739984      -128.9815
  40   2.0000      -4.739413      -128.9660
  41   2.0000      -4.738612      -128.9442
  42   2.0000      -4.738612      -128.9442
  43   2.0000      -1.052211       -28.6321
  44   2.0000      -1.049062       -28.5464
  45   2.0000      -1.009846       -27.4793
  46   2.0000      -1.007370       -27.4119
  47   2.0000      -0.802768       -21.8444
  48   2.0000      -0.756408       -20.5829
  49   2.0000      -0.745686       -20.2912
  50   2.0000      -0.725171       -19.7329
  51   2.0000      -0.721559       -19.6346
  52   2.0000      -0.711289       -19.3551
  53   2.0000      -0.687667       -18.7124
  54   2.0000      -0.669613       -18.2211
  55   2.0000      -0.627022       -17.0621
  56   2.0000      -0.614670       -16.7260
  57   2.0000      -0.598837       -16.2952
  58   2.0000      -0.595994       -16.2178
  59   2.0000      -0.589526       -16.0418
  60   2.0000      -0.526574       -14.3288
  61   2.0000      -0.522535       -14.2189
  62   2.0000      -0.489074       -13.3084
  63   2.0000      -0.487422       -13.2634
  64   2.0000      -0.470927       -12.8146
  65   2.0000      -0.465370       -12.6634
  66   2.0000      -0.451340       -12.2816
  67   2.0000      -0.443953       -12.0806
  68   2.0000      -0.438714       -11.9380
  69   2.0000      -0.436757       -11.8848
  70   2.0000      -0.430933       -11.7263
  71   2.0000      -0.414147       -11.2695
  72   2.0000      -0.407974       -11.1016
  73   2.0000      -0.398905       -10.8548
  74   2.0000      -0.396443       -10.7878
  75   2.0000      -0.383290       -10.4299
  76   2.0000      -0.369798       -10.0627
  77   2.0000      -0.362694        -9.8694
  78   2.0000      -0.357369        -9.7245
  79   2.0000      -0.356515        -9.7013
  80   2.0000      -0.355446        -9.6722
  81   2.0000      -0.352935        -9.6038
  82   2.0000      -0.348021        -9.4701
  83   2.0000      -0.345716        -9.4074
  84   2.0000      -0.339949        -9.2505
  85   2.0000      -0.329671        -8.9708
  86   2.0000      -0.322957        -8.7881
  87   2.0000      -0.314591        -8.5605
  88   2.0000      -0.307198        -8.3593
  89   2.0000      -0.303597        -8.2613
  90   2.0000      -0.298847        -8.1320
  91   2.0000      -0.286493        -7.7959
  92   2.0000      -0.281297        -7.6545
  93   2.0000      -0.279819        -7.6143
  94   2.0000      -0.272584        -7.4174
  95   2.0000      -0.253408        -6.8956
  96   2.0000      -0.238716        -6.4958
  97   2.0000      -0.235778        -6.4158
  98   2.0000      -0.224294        -6.1033
  99   2.0000      -0.214190        -5.8284
 100   2.0000      -0.205986        -5.6052
 101   0.0000      -0.047760        -1.2996
 102   0.0000      -0.037080        -1.0090
 103   0.0000      -0.016463        -0.4480
 104   0.0000       0.008280         0.2253
 105   0.0000       0.015927         0.4334

MULLIKEN ATOMIC CHARGES
-----------------------
   0 C :   -0.480274
   1 C :   -0.154958
   2 O :   -0.336758
   3 P :    0.684331
   4 S :   -0.523822
   5 O :   -0.265939
   6 C :   -0.132166
   7 C :   -0.511490
   8 S :   -0.123160
   9 C :   -0.220837
  10 S :   -0.173292
  11 P :    0.671400
  12 S :   -0.455586
  13 O :   -0.280536
  14 C :   -0.104843
  15 C :   -0.507513
  16 O :   -0.333721
  17 C :   -0.160954
  18 C :   -0.466672
  19 H :    0.171011
  20 H :    0.166491
  21 H :    0.171100
  22 H :    0.176652
  23 H :    0.172592
  24 H :    0.169507
  25 H :    0.174469
  26 H :    0.166634
  27 H :    0.169428
  28 H :    0.172109
  29 H :    0.239083
  30 H :    0.212052
  31 H :    0.174916
  32 H :    0.173362
  33 H :    0.170884
  34 H :    0.168949
  35 H :    0.170523
  36 H :    0.172217
  37 H :    0.177116
  38 H :    0.173137
  39 H :    0.169461
  40 H :    0.165097
Sum of atomic charges:   -0.0000000

LOEWDIN ATOMIC CHARGES
----------------------
   0 C :   -0.410476
   1 C :    0.022266
   2 O :   -0.677835
   3 P :    0.375067
   4 S :   -0.164591
   5 O :   -0.692622
   6 C :    0.019520
   7 C :   -0.393805
   8 S :    0.180765
   9 C :   -0.406201
  10 S :    0.131537
  11 P :    0.379503
  12 S :   -0.106238
  13 O :   -0.679090
  14 C :    0.026779
  15 C :   -0.394128
  16 O :   -0.673472
  17 C :    0.030149
  18 C :   -0.410372
  19 H :    0.167260
  20 H :    0.163116
  21 H :    0.161021
  22 H :    0.180926
  23 H :    0.189515
  24 H :    0.179396
  25 H :    0.182016
  26 H :    0.162711
  27 H :    0.167861
  28 H :    0.164567
  29 H :    0.197256
  30 H :    0.200736
  31 H :    0.183407
  32 H :    0.181779
  33 H :    0.163309
  34 H :    0.163454
  35 H :    0.168912
  36 H :    0.178961
  37 H :    0.193008
  38 H :    0.167942
  39 H :    0.164131
  40 H :    0.161963

  Mayer bond orders larger than 0.100000
B(  0-C ,  1-C ) :   0.9104 B(  0-C , 19-H ) :   0.9547 B(  0-C , 20-H ) :   0.9655
B(  0-C , 21-H ) :   0.9652 B(  1-C ,  2-O ) :   0.8143 B(  1-C , 22-H ) :   0.9647
B(  1-C , 23-H ) :   0.9498 B(  2-O ,  3-P ) :   1.0624 B(  3-P ,  4-S ) :   1.6964
B(  3-P ,  5-O ) :   1.1819 B(  3-P ,  8-S ) :   1.1552 B(  5-O ,  6-C ) :   0.7653
B(  6-C ,  7-C ) :   0.9262 B(  6-C , 24-H ) :   0.9364 B(  6-C , 25-H ) :   0.9489
B(  7-C , 26-H ) :   0.9680 B(  7-C , 27-H ) :   0.9598 B(  7-C , 28-H ) :   0.9726
B(  8-S ,  9-C ) :   0.8806 B(  9-C , 10-S ) :   0.9124 B(  9-C , 29-H ) :   0.8970
B(  9-C , 30-H ) :   0.9079 B( 10-S , 11-P ) :   1.0081 B( 11-P , 12-S ) :   1.8443
B( 11-P , 13-O ) :   1.1346 B( 11-P , 16-O ) :   1.0475 B( 13-O , 14-C ) :   0.7485
B( 14-C , 15-C ) :   0.9383 B( 14-C , 31-H ) :   0.9330 B( 14-C , 32-H ) :   0.9477
B( 15-C , 33-H ) :   0.9692 B( 15-C , 34-H ) :   0.9668 B( 15-C , 35-H ) :   0.9579
B( 16-O , 17-C ) :   0.7983 B( 17-C , 18-C ) :   0.9216 B( 17-C , 36-H ) :   0.9592
B( 17-C , 37-H ) :   0.9480 B( 18-C , 38-H ) :   0.9570 B( 18-C , 39-H ) :   0.9657
B( 18-C , 40-H ) :   0.9578

Dispersion correction           -0.022550346
FINAL SINGLE POINT ENERGY     -2932.467340242920

DIPOLE MOMENT
-------------

Method             : SCF
Type of density    : Electron Density
Multiplicity       :   1
Irrep              :   0
Energy             : -2932.4913780098490861 Eh
Relativity type    :
Basis              : AO
                                X                 Y                 Z
Electronic contribution:     -0.754602219      -2.556385504      -9.376050160
Nuclear contribution   :      0.484610668       0.814542510      10.814784610
                        -----------------------------------------
Total Dipole Moment    :     -0.269991551      -1.741842994       1.438734449
                        -----------------------------------------
Magnitude (a.u.)       :      2.275273450
Magnitude (Debye)      :      5.783285503

Rotational constants in cm-1:             0.012122             0.005557             0.005397
Rotational constants in MHz :           363.406810           166.582982           161.785868

                             ****ORCA TERMINATED NORMALLY****
TOTAL RUN TIME: 0 days 0 hours 1 minutes 59 seconds 981 msec
