                         Program Version 6.0.1  -  RELEASE   -
|  1> ! r2scan-3c def2/J RI DEFGRID2 scfconv6 printgap
|  2> %output
|  3>     printlevel normal
|  4> end
|  5> * xyz 0 1
|  6> C 5.4536066132 -1.8158061044 -0.8893639587
|  7> C 4.2208331757 -2.6981389145 -1.0042329144
|  8> O 3.1889373585 -2.0393220911 -1.7656692197
|  9> C 2.3642349485 -1.2313937175 -1.1366321436
| 10> O 2.3756084796 -1.0243584707 0.0594103383
| 11> C 1.3869106636 -0.5724239955 -2.08778163
| 12> C 0.3195342341 0.1625032411 -1.2888798941
| 13> H -0.2863388574 0.7991580866 -1.9414646024
| 14> C 0.9866784403 1.0571291784 -0.2547069698
| 15> O 1.9377088427 1.7536069471 -0.5302165731
| 16> O 0.3634881817 1.0416192822 0.9024220158
| 17> C 0.9136711265 1.7808576972 2.009883296
| 18> C 1.4669118934 0.8047523225 3.0331483761
| 19> S -0.8052330063 -1.0534740647 -0.5049772924
| 20> P -2.2003308501 0.2739076787 0.3176592315
| 21> S -2.3137594994 2.0945021431 -0.4278272826
| 22> O -3.5887645024 -0.5178289097 0.1726828484
| 23> C -4.2882351609 -0.5812355791 -1.0743642492
| 24> O -1.9935095043 0.1341277173 1.8854085868
| 25> C -2.8773241934 0.8192007818 2.789040001
| 26> H 6.2296888795 -2.3494606509 -0.3508652386
| 27> H 5.8185139143 -1.551406339 -1.877886829
| 28> H 5.2109354534 -0.9034963158 -0.3482106566
| 29> H 3.8227408396 -2.9410305105 -0.0150398703
| 30> H 4.4327253076 -3.6084738414 -1.564701887
| 31> H 0.9478047268 -1.3226318051 -2.7438281407
| 32> H 1.9458207611 0.1448188522 -2.6928939267
| 33> H 1.6904641957 2.4453516763 1.6216022745
| 34> H 0.0860079405 2.3676226972 2.4137462309
| 35> H 1.8828391536 1.3550994577 3.8702052292
| 36> H 0.6756804681 0.1472321639 3.3832900182
| 37> H 2.2438915431 0.1971324761 2.574407312
| 38> H -3.794490962 -1.2882509813 -1.7401342853
| 39> H -4.3191797606 0.4077466772 -1.5356768501
| 40> H -5.292623767 -0.91915871 -0.8323877331
| 41> H -3.8427001762 0.315425495 2.8143071142
| 42> H -3.0106011904 1.856028317 2.4741216272
| 43> H -2.3943366556 0.7749401423 3.7620364507
| 44> *
| 45>
| 46>                          ****END OF INPUT****

CARTESIAN COORDINATES (ANGSTROEM)
---------------------------------
  C      5.453607   -1.815806   -0.889364
  C      4.220833   -2.698139   -1.004233
  O      3.188937   -2.039322   -1.765669
  C      2.364235   -1.231394   -1.136632
  O      2.375608   -1.024358    0.059410
  C      1.386911   -0.572424   -2.087782
  C      0.319534    0.162503   -1.288880
  H     -0.286339    0.799158   -1.941465
  C      0.986678    1.057129   -0.254707
  O      1.937709    1.753607   -0.530217
  O      0.363488    1.041619    0.902422
  C      0.913671    1.780858    2.009883
  C      1.466912    0.804752    3.033148
  S     -0.805233   -1.053474   -0.504977
  P     -2.200331    0.273908    0.317659
  S     -2.313759    2.094502   -0.427827
  O     -3.588765   -0.517829    0.172683
  C     -4.288235   -0.581236   -1.074364
  O     -1.993510    0.134128    1.885409
  C     -2.877324    0.819201    2.789040
  H      6.229689   -2.349461   -0.350865
  H      5.818514   -1.551406   -1.877887
  H      5.210935   -0.903496   -0.348211
  H      3.822741   -2.941031   -0.015040
  H      4.432725   -3.608474   -1.564702
  H      0.947805   -1.322632   -2.743828
  H      1.945821    0.144819   -2.692894
  H      1.690464    2.445352    1.621602
  H      0.086008    2.367623    2.413746
  H      1.882839    1.355099    3.870205
  H      0.675680    0.147232    3.383290
  H      2.243892    0.197132    2.574407
  H     -3.794491   -1.288251   -1.740134
  H     -4.319180    0.407747   -1.535677
  H     -5.292624   -0.919159   -0.832388
  H     -3.842700    0.315425    2.814307
  H     -3.010601    1.856028    2.474122
  H     -2.394337    0.774940    3.762036

 Total Charge           Charge          ....    0
 Multiplicity           Mult            ....    1
 Number of Electrons    NEL             ....  174
 Basis Dimension        Dim             ....  510

ORBITAL ENERGIES
----------------

  NO   OCC          E(Eh)            E(eV)
   0   2.0000     -88.574295     -2410.2291
   1   2.0000     -88.513946     -2408.5869
   2   2.0000     -76.911536     -2092.8693
   3   2.0000     -19.009634      -517.2784
   4   2.0000     -18.990723      -516.7638
   5   2.0000     -18.988604      -516.7062
   6   2.0000     -18.985988      -516.6350
   7   2.0000     -18.943001      -515.4653
   8   2.0000     -18.924317      -514.9568
   9   2.0000     -10.167451      -276.6704
  10   2.0000     -10.155562      -276.3469
  11   2.0000     -10.099718      -274.8273
  12   2.0000     -10.093353      -274.6541
  13   2.0000     -10.092558      -274.6325
  14   2.0000     -10.087126      -274.4846
  15   2.0000     -10.083268      -274.3797
  16   2.0000     -10.066390      -273.9204
  17   2.0000     -10.033719      -273.0314
  18   2.0000     -10.019051      -272.6322
  19   2.0000      -7.868588      -214.1152
  20   2.0000      -7.808660      -212.4844
  21   2.0000      -6.589695      -179.3147
  22   2.0000      -5.815591      -158.2503
  23   2.0000      -5.812535      -158.1671
  24   2.0000      -5.805489      -157.9754
  25   2.0000      -5.756360      -156.6385
  26   2.0000      -5.749212      -156.4440
  27   2.0000      -5.748350      -156.4206
  28   2.0000      -4.735336      -128.8550
  29   2.0000      -4.734601      -128.8350
  30   2.0000      -4.733365      -128.8014
  31   2.0000      -1.087250       -29.5856
  32   2.0000      -1.070670       -29.1344
  33   2.0000      -1.045490       -28.4492
  34   2.0000      -1.003772       -27.3140
  35   2.0000      -0.992506       -27.0075
  36   2.0000      -0.975430       -26.5428
  37   2.0000      -0.810252       -22.0481
  38   2.0000      -0.759371       -20.6635
  39   2.0000      -0.735188       -20.0055
  40   2.0000      -0.733164       -19.9504
  41   2.0000      -0.692538       -18.8449
  42   2.0000      -0.669917       -18.2294
  43   2.0000      -0.660468       -17.9723
  44   2.0000      -0.647266       -17.6130
  45   2.0000      -0.630069       -17.1451
  46   2.0000      -0.593238       -16.1428
  47   2.0000      -0.536342       -14.5946
  48   2.0000      -0.534101       -14.5336
  49   2.0000      -0.520347       -14.1594
  50   2.0000      -0.503511       -13.7012
  51   2.0000      -0.488756       -13.2997
  52   2.0000      -0.485021       -13.1981
  53   2.0000      -0.465906       -12.6779
  54   2.0000      -0.455248       -12.3879
  55   2.0000      -0.450154       -12.2493
  56   2.0000      -0.446197       -12.1416
  57   2.0000      -0.443044       -12.0558
  58   2.0000      -0.430473       -11.7138
  59   2.0000      -0.426507       -11.6058
  60   2.0000      -0.418997       -11.4015
  61   2.0000      -0.416109       -11.3229
  62   2.0000      -0.407746       -11.0953
  63   2.0000      -0.401679       -10.9302
  64   2.0000      -0.390592       -10.6286
  65   2.0000      -0.386141       -10.5074
  66   2.0000      -0.374300       -10.1852
  67   2.0000      -0.365589        -9.9482
  68   2.0000      -0.363617        -9.8945
  69   2.0000      -0.350441        -9.5360
  70   2.0000      -0.347456        -9.4548
  71   2.0000      -0.341543        -9.2939
  72   2.0000      -0.333714        -9.0808
  73   2.0000      -0.325471        -8.8565
  74   2.0000      -0.318952        -8.6791
  75   2.0000      -0.316700        -8.6178
  76   2.0000      -0.310980        -8.4622
  77   2.0000      -0.299275        -8.1437
  78   2.0000      -0.285040        -7.7563
  79   2.0000      -0.283279        -7.7084
  80   2.0000      -0.274925        -7.4811
  81   2.0000      -0.264389        -7.1944
  82   2.0000      -0.255842        -6.9618
  83   2.0000      -0.249076        -6.7777
  84   2.0000      -0.222313        -6.0494
  85   2.0000      -0.215505        -5.8642
  86   2.0000      -0.208004        -5.6601
  87   0.0000      -0.042406        -1.1539
  88   0.0000      -0.023570        -0.6414
  89   0.0000      -0.009284        -0.2526
  90   0.0000       0.007974         0.2170
  91   0.0000       0.020745         0.5645

MULLIKEN ATOMIC CHARGES
-----------------------
   0 C :   -0.463665
   1 C :   -0.137344
   2 O :   -0.162946
   3 C :    0.403967
   4 O :   -0.391289
   5 C :   -0.468463
   6 C :    0.012681
   7 H :    0.244875
   8 C :    0.237892
   9 O :   -0.388501
  10 O :   -0.096495
  11 C :   -0.150672
  12 C :   -0.477220
  13 S :   -0.151059
  14 P :    0.805831
  15 S :   -0.496051
  16 O :   -0.353386
  17 C :   -0.298261
  18 O :   -0.342131
  19 C :   -0.301094
  20 H :    0.148947
  21 H :    0.153467
  22 H :    0.175018
  23 H :    0.168763
  24 H :    0.150835
  25 H :    0.190596
  26 H :    0.200589
  27 H :    0.184516
  28 H :    0.150231
  29 H :    0.145171
  30 H :    0.156895
  31 H :    0.173731
  32 H :    0.155820
  33 H :    0.176547
  34 H :    0.149602
  35 H :    0.162663
  36 H :    0.176393
  37 H :    0.153546
Sum of atomic charges:   -0.0000000

LOEWDIN ATOMIC CHARGES
----------------------
   0 C :   -0.387107
   1 C :    0.031613
   2 O :   -0.573455
   3 C :    0.369015
   4 O :   -0.430758
   5 C :   -0.206937
   6 C :   -0.191369
   7 H :    0.207009
   8 C :    0.354996
   9 O :   -0.425390
  10 O :   -0.623264
  11 C :    0.037950
  12 C :   -0.385380
  13 S :    0.250999
  14 P :    0.396639
  15 S :   -0.123228
  16 O :   -0.684347
  17 C :   -0.062521
  18 O :   -0.658178
  19 C :   -0.053331
  20 H :    0.160221
  21 H :    0.158374
  22 H :    0.167369
  23 H :    0.188968
  24 H :    0.179376
  25 H :    0.190160
  26 H :    0.205832
  27 H :    0.197126
  28 H :    0.179184
  29 H :    0.155412
  30 H :    0.160002
  31 H :    0.169767
  32 H :    0.167538
  33 H :    0.176874
  34 H :    0.175772
  35 H :    0.171579
  36 H :    0.176825
  37 H :    0.176668

  Mayer bond orders larger than 0.100000
B(  0-C ,  1-C ) :   0.9439 B(  0-C , 20-H ) :   0.9644 B(  0-C , 21-H ) :   0.9720
B(  0-C , 22-H ) :   0.9686 B(  1-C ,  2-O ) :   0.7999 B(  1-C , 23-H ) :   0.9667
B(  1-C , 24-H ) :   0.9612 B(  2-O ,  3-C ) :   1.1318 B(  3-C ,  4-O ) :   1.7945
B(  3-C ,  5-C ) :   0.9743 B(  4-O ,  8-C ) :   0.1329 B(  5-C ,  6-C ) :   0.9265
B(  5-C ,  9-O ) :   0.1201 B(  5-C , 25-H ) :   0.9724 B(  5-C , 26-H ) :   0.9119
B(  6-C ,  7-H ) :   0.9188 B(  6-C ,  8-C ) :   0.8148 B(  6-C , 13-S ) :   0.9031
B(  8-C ,  9-O ) :   1.8937 B(  8-C , 10-O ) :   1.1485 B( 10-O , 11-C ) :   0.7424
B( 11-C , 12-C ) :   0.9226 B( 11-C , 27-H ) :   0.9649 B( 11-C , 28-H ) :   0.9570
B( 12-C , 29-H ) :   0.9736 B( 12-C , 30-H ) :   0.9751 B( 12-C , 31-H ) :   0.9677
B( 13-S , 14-P ) :   1.1011 B( 14-P , 15-S ) :   1.7020 B( 14-P , 16-O ) :   1.0336
B( 14-P , 18-O ) :   1.1660 B( 16-O , 17-C ) :   0.8346 B( 17-C , 32-H ) :   0.9608
B( 17-C , 33-H ) :   0.9572 B( 17-C , 34-H ) :   0.9675 B( 18-O , 19-C ) :   0.8023
B( 19-C , 35-H ) :   0.9604 B( 19-C , 36-H ) :   0.9595 B( 19-C , 37-H ) :   0.9680

Dispersion correction           -0.017586485
FINAL SINGLE POINT ENERGY     -1981.452644796804

DIPOLE MOMENT
-------------

Method             : SCF
Type of density    : Electron Density
Multiplicity       :   1
Irrep              :   0
Energy             : -1981.4727474030510166 Eh
Relativity type    :
Basis              : AO
                                X                 Y                 Z
Electronic contribution:    -13.282690633       2.900302933      -6.383745372
Nuclear contribution   :     13.392120575      -4.106036427       6.574989139
                        -----------------------------------------
Total Dipole Moment    :      0.109429942      -1.205733494       0.191243767
                        -----------------------------------------
Magnitude (a.u.)       :      1.225700759
Magnitude (Debye)      :      3.115483737

Rotational constants in cm-1:             0.016864             0.006122             0.005431
Rotational constants in MHz :           505.577061           183.547149           162.827559

                             ****ORCA TERMINATED NORMALLY****
TOTAL RUN TIME: 0 days 0 hours 1 minutes 24 seconds 103 msec
