                         Program Version 6.0.1  -  RELEASE   -
|  1> ! r2scan-3c def2/J RI DEFGRID2 scfconv6 printgap
|  2> %output
|  3>     printlevel normal
|  4> end
|  5> %cpcm
|  6>     smd true
|  7>     smdsolvent "water"
|  8> end
|  9> * xyz 0 1
| 10> C 5.4536066132 -1.8158061044 -0.8893639587
| 11> C 4.2208331757 -2.6981389145 -1.0042329144
| 12> O 3.1889373585 -2.0393220911 -1.7656692197
| 13> C 2.3642349485 -1.2313937175 -1.1366321436
| 14> O 2.3756084796 -1.0243584707 0.0594103383
| 15> C 1.3869106636 -0.5724239955 -2.08778163
| 16> C 0.3195342341 0.1625032411 -1.2888798941
| 17> H -0.2863388574 0.7991580866 -1.9414646024
| 18> C 0.9866784403 1.0571291784 -0.2547069698
| 19> O 1.9377088427 1.7536069471 -0.5302165731
| 20> O 0.3634881817 1.0416192822 0.9024220158
| 21> C 0.9136711265 1.7808576972 2.009883296
| 22> C 1.4669118934 0.8047523225 3.0331483761
| 23> S -0.8052330063 -1.0534740647 -0.5049772924
| 24> P -2.2003308501 0.2739076787 0.3176592315
| 25> S -2.3137594994 2.0945021431 -0.4278272826
| 26> O -3.5887645024 -0.5178289097 0.1726828484
| 27> C -4.2882351609 -0.5812355791 -1.0743642492
| 28> O -1.9935095043 0.1341277173 1.8854085868
| 29> C -2.8773241934 0.8192007818 2.789040001
| 30> H 6.2296888795 -2.3494606509 -0.3508652386
| 31> H 5.8185139143 -1.551406339 -1.877886829
| 32> H 5.2109354534 -0.9034963158 -0.3482106566
| 33> H 3.8227408396 -2.9410305105 -0.0150398703
| 34> H 4.4327253076 -3.6084738414 -1.564701887
| 35> H 0.9478047268 -1.3226318051 -2.7438281407
| 36> H 1.9458207611 0.1448188522 -2.6928939267
| 37> H 1.6904641957 2.4453516763 1.6216022745
| 38> H 0.0860079405 2.3676226972 2.4137462309
| 39> H 1.8828391536 1.3550994577 3.8702052292
| 40> H 0.6756804681 0.1472321639 3.3832900182
| 41> H 2.2438915431 0.1971324761 2.574407312
| 42> H -3.794490962 -1.2882509813 -1.7401342853
| 43> H -4.3191797606 0.4077466772 -1.5356768501
| 44> H -5.292623767 -0.91915871 -0.8323877331
| 45> H -3.8427001762 0.315425495 2.8143071142
| 46> H -3.0106011904 1.856028317 2.4741216272
| 47> H -2.3943366556 0.7749401423 3.7620364507
| 48> *
| 49>
| 50>                          ****END OF INPUT****

CARTESIAN COORDINATES (ANGSTROEM)
---------------------------------
  C      5.453607   -1.815806   -0.889364
  C      4.220833   -2.698139   -1.004233
  O      3.188937   -2.039322   -1.765669
  C      2.364235   -1.231394   -1.136632
  O      2.375608   -1.024358    0.059410
  C      1.386911   -0.572424   -2.087782
  C      0.319534    0.162503   -1.288880
  H     -0.286339    0.799158   -1.941465
  C      0.986678    1.057129   -0.254707
  O      1.937709    1.753607   -0.530217
  O      0.363488    1.041619    0.902422
  C      0.913671    1.780858    2.009883
  C      1.466912    0.804752    3.033148
  S     -0.805233   -1.053474   -0.504977
  P     -2.200331    0.273908    0.317659
  S     -2.313759    2.094502   -0.427827
  O     -3.588765   -0.517829    0.172683
  C     -4.288235   -0.581236   -1.074364
  O     -1.993510    0.134128    1.885409
  C     -2.877324    0.819201    2.789040
  H      6.229689   -2.349461   -0.350865
  H      5.818514   -1.551406   -1.877887
  H      5.210935   -0.903496   -0.348211
  H      3.822741   -2.941031   -0.015040
  H      4.432725   -3.608474   -1.564702
  H      0.947805   -1.322632   -2.743828
  H      1.945821    0.144819   -2.692894
  H      1.690464    2.445352    1.621602
  H      0.086008    2.367623    2.413746
  H      1.882839    1.355099    3.870205
  H      0.675680    0.147232    3.383290
  H      2.243892    0.197132    2.574407
  H     -3.794491   -1.288251   -1.740134
  H     -4.319180    0.407747   -1.535677
  H     -5.292624   -0.919159   -0.832388
  H     -3.842700    0.315425    2.814307
  H     -3.010601    1.856028    2.474122
  H     -2.394337    0.774940    3.762036

 Total Charge           Charge          ....    0
 Multiplicity           Mult            ....    1
 Number of Electrons    NEL             ....  174
 Basis Dimension        Dim             ....  510

ORBITAL ENERGIES
----------------

  NO   OCC          E(Eh)            E(eV)
   0   2.0000     -88.582420     -2410.4502
   1   2.0000     -88.524867     -2408.8841
   2   2.0000     -76.919802     -2093.0942
   3   2.0000     -19.010070      -517.2903
   4   2.0000     -19.005699      -517.1714
   5   2.0000     -18.994160      -516.8574
   6   2.0000     -18.991538      -516.7860
   7   2.0000     -18.952804      -515.7320
   8   2.0000     -18.947255      -515.5810
   9   2.0000     -10.174439      -276.8606
  10   2.0000     -10.173442      -276.8334
  11   2.0000     -10.098034      -274.7815
  12   2.0000     -10.086956      -274.4800
  13   2.0000     -10.085724      -274.4465
  14   2.0000     -10.082629      -274.3623
  15   2.0000     -10.079548      -274.2784
  16   2.0000     -10.061450      -273.7860
  17   2.0000     -10.019672      -272.6491
  18   2.0000     -10.019105      -272.6337
  19   2.0000      -7.876727      -214.3366
  20   2.0000      -7.819878      -212.7897
  21   2.0000      -6.598058      -179.5423
  22   2.0000      -5.823734      -158.4719
  23   2.0000      -5.820655      -158.3881
  24   2.0000      -5.813649      -158.1974
  25   2.0000      -5.767506      -156.9418
  26   2.0000      -5.760385      -156.7481
  27   2.0000      -5.759628      -156.7274
  28   2.0000      -4.743649      -129.0812
  29   2.0000      -4.742955      -129.0624
  30   2.0000      -4.741810      -129.0312
  31   2.0000      -1.090877       -29.6843
  32   2.0000      -1.085878       -29.5482
  33   2.0000      -1.050775       -28.5930
  34   2.0000      -1.008349       -27.4386
  35   2.0000      -1.001442       -27.2506
  36   2.0000      -0.995627       -27.0924
  37   2.0000      -0.814547       -22.1649
  38   2.0000      -0.755093       -20.5471
  39   2.0000      -0.739206       -20.1148
  40   2.0000      -0.731368       -19.9015
  41   2.0000      -0.691008       -18.8033
  42   2.0000      -0.667278       -18.1576
  43   2.0000      -0.664122       -18.0717
  44   2.0000      -0.650861       -17.7108
  45   2.0000      -0.627822       -17.0839
  46   2.0000      -0.593551       -16.1513
  47   2.0000      -0.537938       -14.6380
  48   2.0000      -0.531376       -14.4595
  49   2.0000      -0.523730       -14.2514
  50   2.0000      -0.507812       -13.8183
  51   2.0000      -0.489730       -13.3262
  52   2.0000      -0.487113       -13.2550
  53   2.0000      -0.467139       -12.7115
  54   2.0000      -0.466693       -12.6994
  55   2.0000      -0.454576       -12.3696
  56   2.0000      -0.449218       -12.2238
  57   2.0000      -0.444737       -12.1019
  58   2.0000      -0.442045       -12.0287
  59   2.0000      -0.425143       -11.5687
  60   2.0000      -0.420086       -11.4311
  61   2.0000      -0.410970       -11.1831
  62   2.0000      -0.407147       -11.0790
  63   2.0000      -0.400969       -10.9109
  64   2.0000      -0.393644       -10.7116
  65   2.0000      -0.386879       -10.5275
  66   2.0000      -0.371047       -10.0967
  67   2.0000      -0.365808        -9.9541
  68   2.0000      -0.361802        -9.8451
  69   2.0000      -0.353671        -9.6239
  70   2.0000      -0.345631        -9.4051
  71   2.0000      -0.342933        -9.3317
  72   2.0000      -0.337835        -9.1930
  73   2.0000      -0.328784        -8.9467
  74   2.0000      -0.319842        -8.7033
  75   2.0000      -0.315406        -8.5826
  76   2.0000      -0.308505        -8.3949
  77   2.0000      -0.305683        -8.3181
  78   2.0000      -0.288459        -7.8494
  79   2.0000      -0.285406        -7.7663
  80   2.0000      -0.281824        -7.6688
  81   2.0000      -0.277532        -7.5520
  82   2.0000      -0.269905        -7.3445
  83   2.0000      -0.261759        -7.1228
  84   2.0000      -0.236184        -6.4269
  85   2.0000      -0.227162        -6.1814
  86   2.0000      -0.220266        -5.9937
  87   0.0000      -0.050684        -1.3792
  88   0.0000      -0.028578        -0.7777
  89   0.0000      -0.025140        -0.6841
  90   0.0000       0.002493         0.0678
  91   0.0000       0.012280         0.3341

MULLIKEN ATOMIC CHARGES
-----------------------
   0 C :   -0.495000
   1 C :   -0.137624
   2 O :   -0.172602
   3 C :    0.435682
   4 O :   -0.456337
   5 C :   -0.508201
   6 C :    0.029414
   7 H :    0.274941
   8 C :    0.225743
   9 O :   -0.454418
  10 O :   -0.115356
  11 C :   -0.135429
  12 C :   -0.516636
  13 S :   -0.162634
  14 P :    0.840430
  15 S :   -0.544869
  16 O :   -0.384840
  17 C :   -0.309826
  18 O :   -0.376232
  19 C :   -0.309887
  20 H :    0.172299
  21 H :    0.167118
  22 H :    0.169871
  23 H :    0.175238
  24 H :    0.177263
  25 H :    0.227465
  26 H :    0.235305
  27 H :    0.184556
  28 H :    0.178509
  29 H :    0.174028
  30 H :    0.171499
  31 H :    0.168892
  32 H :    0.175219
  33 H :    0.176214
  34 H :    0.177677
  35 H :    0.180549
  36 H :    0.179553
  37 H :    0.182427
Sum of atomic charges:   -0.0000000

LOEWDIN ATOMIC CHARGES
----------------------
   0 C :   -0.390600
   1 C :    0.037507
   2 O :   -0.572848
   3 C :    0.375776
   4 O :   -0.476429
   5 C :   -0.198279
   6 C :   -0.185746
   7 H :    0.217257
   8 C :    0.355287
   9 O :   -0.475507
  10 O :   -0.631460
  11 C :    0.042235
  12 C :   -0.387162
  13 S :    0.248762
  14 P :    0.400084
  15 S :   -0.153748
  16 O :   -0.696438
  17 C :   -0.057497
  18 O :   -0.675562
  19 C :   -0.046706
  20 H :    0.168893
  21 H :    0.162529
  22 H :    0.163395
  23 H :    0.191267
  24 H :    0.190912
  25 H :    0.205575
  26 H :    0.216592
  27 H :    0.197579
  28 H :    0.190495
  29 H :    0.167869
  30 H :    0.163134
  31 H :    0.164945
  32 H :    0.175522
  33 H :    0.177323
  34 H :    0.187540
  35 H :    0.178745
  36 H :    0.179393
  37 H :    0.189363

  Mayer bond orders larger than 0.100000
B(  0-C ,  1-C ) :   0.9372 B(  0-C , 20-H ) :   0.9590 B(  0-C , 21-H ) :   0.9689
B(  0-C , 22-H ) :   0.9691 B(  1-C ,  2-O ) :   0.7837 B(  1-C , 23-H ) :   0.9625
B(  1-C , 24-H ) :   0.9514 B(  2-O ,  3-C ) :   1.1462 B(  3-C ,  4-O ) :   1.7421
B(  3-C ,  5-C ) :   0.9499 B(  4-O ,  8-C ) :   0.1325 B(  5-C ,  6-C ) :   0.9004
B(  5-C ,  9-O ) :   0.1007 B(  5-C , 25-H ) :   0.9609 B(  5-C , 26-H ) :   0.9191
B(  6-C ,  7-H ) :   0.9050 B(  6-C ,  8-C ) :   0.8166 B(  6-C , 13-S ) :   0.8956
B(  8-C ,  9-O ) :   1.8335 B(  8-C , 10-O ) :   1.1598 B( 10-O , 11-C ) :   0.7322
B( 11-C , 12-C ) :   0.9079 B( 11-C , 27-H ) :   0.9558 B( 11-C , 28-H ) :   0.9474
B( 12-C , 29-H ) :   0.9646 B( 12-C , 30-H ) :   0.9737 B( 12-C , 31-H ) :   0.9702
B( 13-S , 14-P ) :   1.1125 B( 14-P , 15-S ) :   1.6606 B( 14-P , 16-O ) :   1.0423
B( 14-P , 18-O ) :   1.1680 B( 16-O , 17-C ) :   0.8263 B( 17-C , 32-H ) :   0.9530
B( 17-C , 33-H ) :   0.9547 B( 17-C , 34-H ) :   0.9576 B( 18-O , 19-C ) :   0.7930
B( 19-C , 35-H ) :   0.9526 B( 19-C , 36-H ) :   0.9537 B( 19-C , 37-H ) :   0.9572

Dispersion correction           -0.017586485
FINAL SINGLE POINT ENERGY     -1981.466580121991

DIPOLE MOMENT
-------------

Method             : SCF
Type of density    : Electron Density
Multiplicity       :   1
Irrep              :   0
Energy             : -1981.4866827282385202 Eh
Relativity type    :
Basis              : AO
                                X                 Y                 Z
Electronic contribution:    -13.507759802       2.523388511      -6.525563996
Nuclear contribution   :     13.392120575      -4.106036427       6.574989139
                        -----------------------------------------
Total Dipole Moment    :     -0.115639227      -1.582647917       0.049425143
                        -----------------------------------------
Magnitude (a.u.)       :      1.587636515
Magnitude (Debye)      :      4.035451318

Rotational constants in cm-1:             0.016864             0.006122             0.005431
Rotational constants in MHz :           505.577061           183.547149           162.827559

                             ****ORCA TERMINATED NORMALLY****
TOTAL RUN TIME: 0 days 0 hours 1 minutes 51 seconds 875 msec
