                         Program Version 6.0.0  -   RELEASE  -
|  1> ! pbe def2-sv(p) def2/J RI DEFGRID1 loosescf d4 GCP(DFT/SV(P)) printgap
|  2> %output
|  3>     printlevel normal
|  4> end
|  5> * xyz 0 1
|  6> C 2.5108432576 -0.4721348174 -3.1666697305
|  7> C 2.9040035111 0.5845067469 -2.154493101
|  8> O 3.2284190191 -0.0222022155 -0.8911474686
|  9> P 2.2564373359 -0.1200967125 0.3603313853
| 10> S 1.4211285911 1.5793131497 0.8983620324
| 11> O 3.2347675332 -0.7490174929 1.4361137608
| 12> C 4.2499496371 0.0361825177 2.1038613207
| 13> C 3.7937608609 0.4051255433 3.5015782876
| 14> S 1.0261073918 -1.7912942562 0.0584334834
| 15> C -0.2960899014 -1.3622043234 1.2520629404
| 16> S -1.9510014994 -1.4961863682 0.547443996
| 17> P -2.0061490655 0.3679082446 -0.4929117714
| 18> S -0.7000112143 0.5987678227 -1.9335415845
| 19> O -1.8648453756 1.4832921644 0.6126983994
| 20> C -2.9285503451 1.9977114588 1.4510759238
| 21> C -3.5060635548 0.9513688623 2.3808020819
| 22> O -3.5215872486 0.5025123726 -0.9449544926
| 23> C -4.0049550736 -0.041244757 -2.1867276372
| 24> C -3.9344300228 -1.5537867574 -2.2143401709
| 25> H 3.2841533199 -1.2323075487 -3.2300227711
| 26> H 1.5721847602 -0.9398666487 -2.8774790894
| 27> H 2.3788255572 -0.0021528594 -4.1355828091
| 28> H 2.0993373007 1.3130112142 -2.0132528618
| 29> H 3.8167466976 1.1028454029 -2.4548726697
| 30> H 5.1299580426 -0.6085021416 2.1257755146
| 31> H 4.4643734919 0.9289890085 1.5105832868
| 32> H 4.5948472978 0.9289432648 4.0131206231
| 33> H 2.9214003351 1.0532642753 3.4499554416
| 34> H 3.535607894 -0.4919463256 4.0569319702
| 35> H -0.1254771417 -0.3375231927 1.59333237
| 36> H -0.2564826977 -2.0719411835 2.0735031905
| 37> H -2.4353611243 2.80025955 2.0025576142
| 38> H -3.7013500807 2.4121512661 0.8012432642
| 39> H -2.72139407 0.5020554357 2.9843638095
| 40> H -4.2274790403 1.4290344984 3.0366286516
| 41> H -4.0056740102 0.1711433504 1.811238368
| 42> H -5.0336257454 0.3176793085 -2.2422993253
| 43> H -3.415044904 0.3862037005 -3.0034839779
| 44> H -2.8941952484 -1.8768166013 -2.2180858874
| 45> H -4.4276845615 -1.9739823591 -1.3415840628
| 46> H -4.4181339851 -1.9187119103 -3.1146469178
| 47> *
| 48>
| 49>                          ****END OF INPUT****

CARTESIAN COORDINATES (ANGSTROEM)
---------------------------------
  C      2.510843   -0.472135   -3.166670
  C      2.904004    0.584507   -2.154493
  O      3.228419   -0.022202   -0.891147
  P      2.256437   -0.120097    0.360331
  S      1.421129    1.579313    0.898362
  O      3.234768   -0.749017    1.436114
  C      4.249950    0.036183    2.103861
  C      3.793761    0.405126    3.501578
  S      1.026107   -1.791294    0.058433
  C     -0.296090   -1.362204    1.252063
  S     -1.951001   -1.496186    0.547444
  P     -2.006149    0.367908   -0.492912
  S     -0.700011    0.598768   -1.933542
  O     -1.864845    1.483292    0.612698
  C     -2.928550    1.997711    1.451076
  C     -3.506064    0.951369    2.380802
  O     -3.521587    0.502512   -0.944954
  C     -4.004955   -0.041245   -2.186728
  C     -3.934430   -1.553787   -2.214340
  H      3.284153   -1.232308   -3.230023
  H      1.572185   -0.939867   -2.877479
  H      2.378826   -0.002153   -4.135583
  H      2.099337    1.313011   -2.013253
  H      3.816747    1.102845   -2.454873
  H      5.129958   -0.608502    2.125776
  H      4.464373    0.928989    1.510583
  H      4.594847    0.928943    4.013121
  H      2.921400    1.053264    3.449955
  H      3.535608   -0.491946    4.056932
  H     -0.125477   -0.337523    1.593332
  H     -0.256483   -2.071941    2.073503
  H     -2.435361    2.800260    2.002558
  H     -3.701350    2.412151    0.801243
  H     -2.721394    0.502055    2.984364
  H     -4.227479    1.429034    3.036629
  H     -4.005674    0.171143    1.811238
  H     -5.033626    0.317679   -2.242299
  H     -3.415045    0.386204   -3.003484
  H     -2.894195   -1.876817   -2.218086
  H     -4.427685   -1.973982   -1.341584
  H     -4.418134   -1.918712   -3.114647

 Total Charge           Charge          ....    0
 Multiplicity           Mult            ....    1
 Number of Electrons    NEL             ....  202
 Basis Dimension        Dim             ....  334

ORBITAL ENERGIES
----------------

  NO   OCC          E(Eh)            E(eV)
   0   2.0000     -88.041536     -2395.7320
   1   2.0000     -88.034290     -2395.5348
   2   2.0000     -87.978648     -2394.0207
   3   2.0000     -87.976813     -2393.9708
   4   2.0000     -76.425420     -2079.6414
   5   2.0000     -76.417058     -2079.4139
   6   2.0000     -18.797170      -511.4970
   7   2.0000     -18.788441      -511.2595
   8   2.0000     -18.784365      -511.1486
   9   2.0000     -18.776779      -510.9421
  10   2.0000      -9.955825      -270.9118
  11   2.0000      -9.955451      -270.9016
  12   2.0000      -9.953428      -270.8465
  13   2.0000      -9.945841      -270.6401
  14   2.0000      -9.941683      -270.5269
  15   2.0000      -9.887268      -269.0462
  16   2.0000      -9.886573      -269.0273
  17   2.0000      -9.876342      -268.7489
  18   2.0000      -9.872503      -268.6445
  19   2.0000      -7.686431      -209.1584
  20   2.0000      -7.679821      -208.9785
  21   2.0000      -7.623646      -207.4500
  22   2.0000      -7.621703      -207.3971
  23   2.0000      -6.422575      -174.7672
  24   2.0000      -6.414794      -174.5554
  25   2.0000      -5.714142      -155.4897
  26   2.0000      -5.711091      -155.4067
  27   2.0000      -5.707744      -155.3156
  28   2.0000      -5.704524      -155.2280
  29   2.0000      -5.703435      -155.1984
  30   2.0000      -5.696448      -155.0082
  31   2.0000      -5.652538      -153.8134
  32   2.0000      -5.650564      -153.7597
  33   2.0000      -5.644378      -153.5913
  34   2.0000      -5.643676      -153.5722
  35   2.0000      -5.642564      -153.5420
  36   2.0000      -5.641679      -153.5179
  37   2.0000      -4.645843      -126.4198
  38   2.0000      -4.644206      -126.3753
  39   2.0000      -4.642576      -126.3309
  40   2.0000      -4.637357      -126.1889
  41   2.0000      -4.636486      -126.1652
  42   2.0000      -4.635298      -126.1329
  43   2.0000      -0.989273       -26.9195
  44   2.0000      -0.976959       -26.5844
  45   2.0000      -0.945153       -25.7189
  46   2.0000      -0.933855       -25.4115
  47   2.0000      -0.759053       -20.6549
  48   2.0000      -0.718210       -19.5435
  49   2.0000      -0.706441       -19.2232
  50   2.0000      -0.692515       -18.8443
  51   2.0000      -0.678515       -18.4633
  52   2.0000      -0.671960       -18.2850
  53   2.0000      -0.648201       -17.6384
  54   2.0000      -0.627406       -17.0726
  55   2.0000      -0.596012       -16.2183
  56   2.0000      -0.584909       -15.9162
  57   2.0000      -0.580571       -15.7981
  58   2.0000      -0.564327       -15.3561
  59   2.0000      -0.554392       -15.0858
  60   2.0000      -0.496818       -13.5191
  61   2.0000      -0.494136       -13.4461
  62   2.0000      -0.471254       -12.8235
  63   2.0000      -0.466496       -12.6940
  64   2.0000      -0.455539       -12.3959
  65   2.0000      -0.447901       -12.1880
  66   2.0000      -0.439768       -11.9667
  67   2.0000      -0.427926       -11.6444
  68   2.0000      -0.426411       -11.6032
  69   2.0000      -0.417794       -11.3687
  70   2.0000      -0.403953       -10.9921
  71   2.0000      -0.398837       -10.8529
  72   2.0000      -0.390077       -10.6145
  73   2.0000      -0.378905       -10.3105
  74   2.0000      -0.373731       -10.1697
  75   2.0000      -0.370608       -10.0847
  76   2.0000      -0.364311        -9.9134
  77   2.0000      -0.357055        -9.7160
  78   2.0000      -0.352953        -9.6043
  79   2.0000      -0.349936        -9.5222
  80   2.0000      -0.342340        -9.3155
  81   2.0000      -0.341424        -9.2906
  82   2.0000      -0.336955        -9.1690
  83   2.0000      -0.333335        -9.0705
  84   2.0000      -0.324352        -8.8261
  85   2.0000      -0.320349        -8.7171
  86   2.0000      -0.302087        -8.2202
  87   2.0000      -0.296809        -8.0766
  88   2.0000      -0.294623        -8.0171
  89   2.0000      -0.285683        -7.7738
  90   2.0000      -0.280371        -7.6293
  91   2.0000      -0.271768        -7.3952
  92   2.0000      -0.266281        -7.2459
  93   2.0000      -0.260578        -7.0907
  94   2.0000      -0.255448        -6.9511
  95   2.0000      -0.236323        -6.4307
  96   2.0000      -0.221053        -6.0152
  97   2.0000      -0.201346        -5.4789
  98   2.0000      -0.195631        -5.3234
  99   2.0000      -0.186407        -5.0724
 100   2.0000      -0.180450        -4.9103
 101   0.0000      -0.038320        -1.0427
 102   0.0000      -0.028446        -0.7741
 103   0.0000      -0.013340        -0.3630
 104   0.0000       0.003634         0.0989
 105   0.0000       0.027045         0.7359

MULLIKEN ATOMIC CHARGES
-----------------------
   0 C :   -0.307241
   1 C :   -0.012874
   2 O :   -0.376233
   3 P :    0.608985
   4 S :   -0.319884
   5 O :   -0.372500
   6 C :    0.001603
   7 C :   -0.288248
   8 S :   -0.068617
   9 C :   -0.359573
  10 S :   -0.105571
  11 P :    0.618839
  12 S :   -0.310326
  13 O :   -0.355705
  14 C :    0.008630
  15 C :   -0.318315
  16 O :   -0.384462
  17 C :    0.000883
  18 C :   -0.328437
  19 H :    0.109492
  20 H :    0.138951
  21 H :    0.107490
  22 H :    0.124671
  23 H :    0.099826
  24 H :    0.104008
  25 H :    0.101561
  26 H :    0.104748
  27 H :    0.120802
  28 H :    0.108996
  29 H :    0.194015
  30 H :    0.183858
  31 H :    0.113470
  32 H :    0.108419
  33 H :    0.120949
  34 H :    0.112502
  35 H :    0.124442
  36 H :    0.104515
  37 H :    0.114802
  38 H :    0.135755
  39 H :    0.118834
  40 H :    0.116939
Sum of atomic charges:   -0.0000000

LOEWDIN ATOMIC CHARGES
----------------------
   0 C :   -0.365501
   1 C :   -0.116900
   2 O :   -0.242844
   3 P :    0.565749
   4 S :   -0.313013
   5 O :   -0.252352
   6 C :   -0.112919
   7 C :   -0.361556
   8 S :    0.087944
   9 C :   -0.482057
  10 S :    0.077833
  11 P :    0.576287
  12 S :   -0.302544
  13 O :   -0.231547
  14 C :   -0.106534
  15 C :   -0.369023
  16 O :   -0.246162
  17 C :   -0.117534
  18 C :   -0.373311
  19 H :    0.123015
  20 H :    0.121654
  21 H :    0.129551
  22 H :    0.110199
  23 H :    0.115836
  24 H :    0.117410
  25 H :    0.109323
  26 H :    0.127000
  27 H :    0.123293
  28 H :    0.123710
  29 H :    0.121099
  30 H :    0.136762
  31 H :    0.124064
  32 H :    0.114617
  33 H :    0.125882
  34 H :    0.130730
  35 H :    0.118648
  36 H :    0.118351
  37 H :    0.113694
  38 H :    0.124350
  39 H :    0.123332
  40 H :    0.133465

  Mayer bond orders larger than 0.100000
B(  0-C ,  1-C ) :   1.1705 B(  0-C , 19-H ) :   0.9467 B(  0-C , 20-H ) :   0.9310
B(  0-C , 21-H ) :   0.9409 B(  1-C ,  2-O ) :   0.9003 B(  1-C , 22-H ) :   0.9056
B(  1-C , 23-H ) :   0.9344 B(  2-O ,  3-P ) :   1.1212 B(  3-P ,  4-S ) :   1.5997
B(  3-P ,  5-O ) :   1.1190 B(  3-P ,  8-S ) :   0.9728 B(  4-S ,  8-S ) :   0.1188
B(  4-S , 29-H ) :   0.1053 B(  5-O ,  6-C ) :   0.8962 B(  6-C ,  7-C ) :   1.1679
B(  6-C , 24-H ) :   0.9351 B(  6-C , 25-H ) :   0.9148 B(  7-C , 26-H ) :   0.9411
B(  7-C , 27-H ) :   0.9359 B(  7-C , 28-H ) :   0.9477 B(  8-S ,  9-C ) :   0.9876
B(  9-C , 10-S ) :   1.0034 B(  9-C , 29-H ) :   0.8490 B(  9-C , 30-H ) :   0.9109
B( 10-S , 11-P ) :   0.9409 B( 10-S , 12-S ) :   0.1138 B( 11-P , 12-S ) :   1.6582
B( 11-P , 13-O ) :   1.1280 B( 11-P , 16-O ) :   1.0748 B( 13-O , 14-C ) :   0.8986
B( 14-C , 15-C ) :   1.1700 B( 14-C , 31-H ) :   0.9336 B( 14-C , 32-H ) :   0.9278
B( 15-C , 33-H ) :   0.9453 B( 15-C , 34-H ) :   0.9356 B( 15-C , 35-H ) :   0.9383
B( 16-O , 17-C ) :   0.9018 B( 17-C , 18-C ) :   1.1657 B( 17-C , 36-H ) :   0.9334
B( 17-C , 37-H ) :   0.9159 B( 18-C , 38-H ) :   0.9307 B( 18-C , 39-H ) :   0.9434
B( 18-C , 40-H ) :   0.9368

Dispersion correction           -0.066442424
FINAL SINGLE POINT ENERGY     -2929.512225391557

DIPOLE MOMENT
-------------

Method             : SCF
Type of density    : Electron Density
Multiplicity       :   1
Irrep              :   0
Energy             : -2929.6302143970528959 Eh
Relativity type    :
Basis              : AO
                                X                 Y                 Z
Electronic contribution:      3.047976722      -1.725266862      -2.386638385
Nuclear contribution   :     -3.827323054       1.603542499       2.787116816
                        -----------------------------------------
Total Dipole Moment    :     -0.779346333      -0.121724363       0.400478431
                        -----------------------------------------
Magnitude (a.u.)       :      0.884635801
Magnitude (Debye)      :      2.248565510

Rotational constants in cm-1:             0.012022             0.005420             0.004682
Rotational constants in MHz :           360.398801           162.474165           140.367882

                             ****ORCA TERMINATED NORMALLY****
TOTAL RUN TIME: 0 days 0 hours 0 minutes 21 seconds 32 msec
