                         Program Version 6.0.0  -   RELEASE  -
|  1> ! pbe def2-sv(p) def2/J RI DEFGRID1 loosescf d4 GCP(DFT/SV(P)) printgap
|  2> %output
|  3>     printlevel normal
|  4> end
|  5> * xyz 0 1
|  6> C 5.2063602932 -1.3977427066 -0.2937754915
|  7> C 3.9277137829 -2.1612125725 -0.5749217932
|  8> O 2.9300159846 -1.3355193868 -1.2141621481
|  9> P 2.1518040165 -0.1697571384 -0.4765226753
| 10> S 3.0549317364 1.5451091827 -0.1644473662
| 11> O 1.6387001644 -0.894652604 0.8447395553
| 12> C 1.4695677433 -0.2600874572 2.123698273
| 13> C 2.3825518069 -0.9254157308 3.1348222319
| 14> S 0.5567477398 -0.1246278053 -1.8649393492
| 15> C -0.0412573252 1.5418087828 -1.4688856947
| 16> S -0.6383726669 1.6931926106 0.2366517557
| 17> P -2.1674707782 0.2376490327 0.0918157465
| 18> S -3.163755499 0.1409498477 -1.5963483928
| 19> O -3.049606926 0.4733423631 1.3907147784
| 20> C -4.1858361892 1.3558329605 1.4060319947
| 21> C -3.7824728117 2.8084948857 1.2569294556
| 22> O -1.3457004759 -1.0505867968 0.5152863958
| 23> C -1.726780983 -2.3772324608 0.1022563072
| 24> C -2.9978924055 -2.8304390358 0.7888545111
| 25> H 5.9459362237 -2.0746102183 0.1223911245
| 26> H 5.5933263001 -0.9610733387 -1.2110204072
| 27> H 5.0193725232 -0.5927835758 0.4152981463
| 28> H 3.5039614813 -2.5705979441 0.3453802683
| 29> H 4.093268166 -2.9641586974 -1.295316394
| 30> H 1.701667399 0.8061550977 2.0281663341
| 31> H 0.4166333573 -0.3786931331 2.3891033178
| 32> H 2.181017205 -1.9920286255 3.1802117366
| 33> H 3.4229115953 -0.770723486 2.8578972323
| 34> H 2.2077011203 -0.4856925248 4.1112503399
| 35> H -0.8538703584 1.7511161464 -2.163342556
| 36> H 0.7703909402 2.2611177657 -1.5753422396
| 37> H -4.8628090807 1.0606368541 0.5980681176
| 38> H -4.6528087894 1.1637478926 2.3728827404
| 39> H -3.3757794117 2.982176559 0.2614969587
| 40> H -4.6542898471 3.4398258658 1.3955447954
| 41> H -3.0256895935 3.0688888984 1.9926395215
| 42> H -1.8475609463 -2.3802782875 -0.9861637782
| 43> H -0.8696711329 -2.9939798767 0.3770807375
| 44> H -2.8934219987 -2.7487207463 1.8675162311
| 45> H -3.8312494296 -2.2066574422 0.4671967811
| 46> H -3.2048416901 -3.8616313968 0.5204513803
| 47> *
| 48>
| 49>                          ****END OF INPUT****

CARTESIAN COORDINATES (ANGSTROEM)
---------------------------------
  C      5.206360   -1.397743   -0.293775
  C      3.927714   -2.161213   -0.574922
  O      2.930016   -1.335519   -1.214162
  P      2.151804   -0.169757   -0.476523
  S      3.054932    1.545109   -0.164447
  O      1.638700   -0.894653    0.844740
  C      1.469568   -0.260087    2.123698
  C      2.382552   -0.925416    3.134822
  S      0.556748   -0.124628   -1.864939
  C     -0.041257    1.541809   -1.468886
  S     -0.638373    1.693193    0.236652
  P     -2.167471    0.237649    0.091816
  S     -3.163755    0.140950   -1.596348
  O     -3.049607    0.473342    1.390715
  C     -4.185836    1.355833    1.406032
  C     -3.782473    2.808495    1.256929
  O     -1.345700   -1.050587    0.515286
  C     -1.726781   -2.377232    0.102256
  C     -2.997892   -2.830439    0.788855
  H      5.945936   -2.074610    0.122391
  H      5.593326   -0.961073   -1.211020
  H      5.019373   -0.592784    0.415298
  H      3.503961   -2.570598    0.345380
  H      4.093268   -2.964159   -1.295316
  H      1.701667    0.806155    2.028166
  H      0.416633   -0.378693    2.389103
  H      2.181017   -1.992029    3.180212
  H      3.422912   -0.770723    2.857897
  H      2.207701   -0.485693    4.111250
  H     -0.853870    1.751116   -2.163343
  H      0.770391    2.261118   -1.575342
  H     -4.862809    1.060637    0.598068
  H     -4.652809    1.163748    2.372883
  H     -3.375779    2.982177    0.261497
  H     -4.654290    3.439826    1.395545
  H     -3.025690    3.068889    1.992640
  H     -1.847561   -2.380278   -0.986164
  H     -0.869671   -2.993980    0.377081
  H     -2.893422   -2.748721    1.867516
  H     -3.831249   -2.206657    0.467197
  H     -3.204842   -3.861631    0.520451

 Total Charge           Charge          ....    0
 Multiplicity           Mult            ....    1
 Number of Electrons    NEL             ....  202
 Basis Dimension        Dim             ....  334

ORBITAL ENERGIES
----------------

  NO   OCC          E(Eh)            E(eV)
   0   2.0000     -88.043823     -2395.7942
   1   2.0000     -88.037478     -2395.6216
   2   2.0000     -87.991714     -2394.3763
   3   2.0000     -87.986455     -2394.2332
   4   2.0000     -76.428672     -2079.7299
   5   2.0000     -76.425345     -2079.6394
   6   2.0000     -18.797492      -511.5058
   7   2.0000     -18.792822      -511.3787
   8   2.0000     -18.791081      -511.3313
   9   2.0000     -18.789964      -511.3009
  10   2.0000      -9.957131      -270.9473
  11   2.0000      -9.955538      -270.9040
  12   2.0000      -9.952173      -270.8124
  13   2.0000      -9.949758      -270.7467
  14   2.0000      -9.944570      -270.6055
  15   2.0000      -9.886200      -269.0172
  16   2.0000      -9.886115      -269.0149
  17   2.0000      -9.884484      -268.9705
  18   2.0000      -9.884062      -268.9590
  19   2.0000      -7.688466      -209.2138
  20   2.0000      -7.682538      -209.0525
  21   2.0000      -7.636617      -207.8029
  22   2.0000      -7.631406      -207.6611
  23   2.0000      -6.426092      -174.8628
  24   2.0000      -6.422731      -174.7714
  25   2.0000      -5.716279      -155.5479
  26   2.0000      -5.713118      -155.4618
  27   2.0000      -5.710539      -155.3917
  28   2.0000      -5.707148      -155.2994
  29   2.0000      -5.705388      -155.2515
  30   2.0000      -5.699266      -155.0849
  31   2.0000      -5.665389      -154.1631
  32   2.0000      -5.660209      -154.0221
  33   2.0000      -5.657273      -153.9422
  34   2.0000      -5.656930      -153.9329
  35   2.0000      -5.652219      -153.8047
  36   2.0000      -5.651492      -153.7849
  37   2.0000      -4.648464      -126.4911
  38   2.0000      -4.647861      -126.4747
  39   2.0000      -4.646732      -126.4440
  40   2.0000      -4.645554      -126.4120
  41   2.0000      -4.644240      -126.3762
  42   2.0000      -4.643237      -126.3489
  43   2.0000      -0.989411       -26.9233
  44   2.0000      -0.986218       -26.8363
  45   2.0000      -0.947825       -25.7916
  46   2.0000      -0.942521       -25.6473
  47   2.0000      -0.764422       -20.8010
  48   2.0000      -0.723026       -19.6745
  49   2.0000      -0.708453       -19.2780
  50   2.0000      -0.688193       -18.7267
  51   2.0000      -0.687891       -18.7185
  52   2.0000      -0.672610       -18.3026
  53   2.0000      -0.652680       -17.7603
  54   2.0000      -0.639233       -17.3944
  55   2.0000      -0.603659       -16.4264
  56   2.0000      -0.592363       -16.1190
  57   2.0000      -0.574941       -15.6449
  58   2.0000      -0.573061       -15.5938
  59   2.0000      -0.559637       -15.2285
  60   2.0000      -0.501092       -13.6354
  61   2.0000      -0.492654       -13.4058
  62   2.0000      -0.476363       -12.9625
  63   2.0000      -0.473700       -12.8900
  64   2.0000      -0.457389       -12.4462
  65   2.0000      -0.445124       -12.1124
  66   2.0000      -0.442319       -12.0361
  67   2.0000      -0.433684       -11.8011
  68   2.0000      -0.427962       -11.6454
  69   2.0000      -0.413141       -11.2421
  70   2.0000      -0.410494       -11.1701
  71   2.0000      -0.394146       -10.7253
  72   2.0000      -0.390227       -10.6186
  73   2.0000      -0.388477       -10.5710
  74   2.0000      -0.377427       -10.2703
  75   2.0000      -0.376925       -10.2567
  76   2.0000      -0.372806       -10.1446
  77   2.0000      -0.359338        -9.7781
  78   2.0000      -0.353478        -9.6186
  79   2.0000      -0.352266        -9.5856
  80   2.0000      -0.349306        -9.5051
  81   2.0000      -0.348476        -9.4825
  82   2.0000      -0.342213        -9.3121
  83   2.0000      -0.339376        -9.2349
  84   2.0000      -0.334610        -9.1052
  85   2.0000      -0.325024        -8.8443
  86   2.0000      -0.309609        -8.4249
  87   2.0000      -0.298161        -8.1134
  88   2.0000      -0.293426        -7.9845
  89   2.0000      -0.290638        -7.9087
  90   2.0000      -0.284008        -7.7283
  91   2.0000      -0.278684        -7.5834
  92   2.0000      -0.273743        -7.4489
  93   2.0000      -0.267129        -7.2690
  94   2.0000      -0.257146        -6.9973
  95   2.0000      -0.233345        -6.3496
  96   2.0000      -0.216124        -5.8810
  97   2.0000      -0.214990        -5.8502
  98   2.0000      -0.209634        -5.7044
  99   2.0000      -0.200111        -5.4453
 100   2.0000      -0.197501        -5.3743
 101   0.0000      -0.044881        -1.2213
 102   0.0000      -0.024631        -0.6702
 103   0.0000       0.000825         0.0224
 104   0.0000       0.003914         0.1065
 105   0.0000       0.011194         0.3046

MULLIKEN ATOMIC CHARGES
-----------------------
   0 C :   -0.316220
   1 C :   -0.010503
   2 O :   -0.377150
   3 P :    0.645437
   4 S :   -0.336102
   5 O :   -0.377378
   6 C :   -0.018008
   7 C :   -0.286859
   8 S :   -0.076268
   9 C :   -0.356791
  10 S :   -0.087665
  11 P :    0.616465
  12 S :   -0.330838
  13 O :   -0.372671
  14 C :   -0.004898
  15 C :   -0.315966
  16 O :   -0.359555
  17 C :   -0.000811
  18 C :   -0.304758
  19 H :    0.109186
  20 H :    0.123727
  21 H :    0.134757
  22 H :    0.108295
  23 H :    0.109123
  24 H :    0.114484
  25 H :    0.106309
  26 H :    0.111901
  27 H :    0.114165
  28 H :    0.111111
  29 H :    0.189453
  30 H :    0.194276
  31 H :    0.111751
  32 H :    0.106166
  33 H :    0.128018
  34 H :    0.114505
  35 H :    0.118995
  36 H :    0.114540
  37 H :    0.103124
  38 H :    0.113591
  39 H :    0.121161
  40 H :    0.111902
Sum of atomic charges:   -0.0000000

LOEWDIN ATOMIC CHARGES
----------------------
   0 C :   -0.366482
   1 C :   -0.111714
   2 O :   -0.246400
   3 P :    0.569696
   4 S :   -0.317657
   5 O :   -0.238823
   6 C :   -0.129122
   7 C :   -0.355818
   8 S :    0.096948
   9 C :   -0.481559
  10 S :    0.099449
  11 P :    0.572507
  12 S :   -0.321355
  13 O :   -0.244193
  14 C :   -0.118675
  15 C :   -0.369301
  16 O :   -0.233141
  17 C :   -0.117871
  18 C :   -0.364671
  19 H :    0.128938
  20 H :    0.130978
  21 H :    0.121397
  22 H :    0.110403
  23 H :    0.121235
  24 H :    0.103183
  25 H :    0.109709
  26 H :    0.122407
  27 H :    0.122689
  28 H :    0.130733
  29 H :    0.131188
  30 H :    0.131356
  31 H :    0.111088
  32 H :    0.119179
  33 H :    0.121739
  34 H :    0.131768
  35 H :    0.124789
  36 H :    0.111085
  37 H :    0.117569
  38 H :    0.124840
  39 H :    0.121696
  40 H :    0.130214

  Mayer bond orders larger than 0.100000
B(  0-C ,  1-C ) :   1.1643 B(  0-C , 19-H ) :   0.9374 B(  0-C , 20-H ) :   0.9453
B(  0-C , 21-H ) :   0.9322 B(  1-C ,  2-O ) :   0.9117 B(  1-C , 22-H ) :   0.9245
B(  1-C , 23-H ) :   0.9354 B(  2-O ,  3-P ) :   1.1235 B(  3-P ,  4-S ) :   1.6105
B(  3-P ,  5-O ) :   1.0923 B(  3-P ,  8-S ) :   0.9506 B(  4-S ,  8-S ) :   0.1092
B(  5-O ,  6-C ) :   0.9017 B(  6-C ,  7-C ) :   1.1591 B(  6-C , 24-H ) :   0.8997
B(  6-C , 25-H ) :   0.9232 B(  7-C , 26-H ) :   0.9487 B(  7-C , 27-H ) :   0.9446
B(  7-C , 28-H ) :   0.9415 B(  8-S ,  9-C ) :   1.0111 B(  9-C , 10-S ) :   0.9930
B(  9-C , 29-H ) :   0.8884 B(  9-C , 30-H ) :   0.8819 B( 10-S , 11-P ) :   0.9532
B( 10-S , 12-S ) :   0.1076 B( 11-P , 12-S ) :   1.5895 B( 11-P , 13-O ) :   1.1114
B( 11-P , 16-O ) :   1.1145 B( 13-O , 14-C ) :   0.9070 B( 14-C , 15-C ) :   1.1664
B( 14-C , 31-H ) :   0.9167 B( 14-C , 32-H ) :   0.9339 B( 15-C , 33-H ) :   0.9355
B( 15-C , 34-H ) :   0.9376 B( 15-C , 35-H ) :   0.9445 B( 16-O , 17-C ) :   0.9015
B( 17-C , 18-C ) :   1.1633 B( 17-C , 36-H ) :   0.9162 B( 17-C , 37-H ) :   0.9334
B( 18-C , 38-H ) :   0.9466 B( 18-C , 39-H ) :   0.9360 B( 18-C , 40-H ) :   0.9399

Dispersion correction           -0.067248715
FINAL SINGLE POINT ENERGY     -2929.527279941907

DIPOLE MOMENT
-------------

Method             : SCF
Type of density    : Electron Density
Multiplicity       :   1
Irrep              :   0
Energy             : -2929.6455458233581339 Eh
Relativity type    :
Basis              : AO
                                X                 Y                 Z
Electronic contribution:     -0.962125714       9.095899569     -16.170965901
Nuclear contribution   :      0.757788187      -9.998437914      17.418668149
                        -----------------------------------------
Total Dipole Moment    :     -0.204337527      -0.902538346       1.247702248
                        -----------------------------------------
Magnitude (a.u.)       :      1.553412434
Magnitude (Debye)      :      3.948460618

Rotational constants in cm-1:             0.013168             0.005033             0.004885
Rotational constants in MHz :           394.758003           150.894604           146.448255

                             ****ORCA TERMINATED NORMALLY****
TOTAL RUN TIME: 0 days 0 hours 0 minutes 21 seconds 292 msec
