                         Program Version 6.0.0  -   RELEASE  -
|  1> ! pbe def2-sv(p) def2/J RI DEFGRID1 loosescf d4 GCP(DFT/SV(P)) printgap
|  2> %output
|  3>     printlevel normal
|  4> end
|  5> * xyz 0 1
|  6> C 5.3853191943 -0.2621128312 -0.9772081369
|  7> C 4.028296353 0.287383073 -1.3642417986
|  8> O 3.2831655875 0.6891632943 -0.1840478121
|  9> P 2.2414515339 -0.2386097974 0.5434912613
| 10> S 1.6222002075 0.5262016291 2.2344630047
| 11> O 2.9909725246 -1.6311794914 0.6732439663
| 12> C 2.3781919178 -2.740777881 1.3627705741
| 13> C 3.4703836154 -3.7281661807 1.7205306902
| 14> S 0.7641570422 -0.6954827248 -0.9369803377
| 15> C 0.1845334677 0.9909213007 -1.2637984146
| 16> S -0.8522734404 1.6949539525 0.0506082307
| 17> P -2.6253250519 0.555639487 -0.2864797021
| 18> S -2.7261402635 -0.3771844124 -2.0121242002
| 19> O -3.8182111776 1.5553833729 -0.009499399
| 20> C -4.4340747542 2.3109729935 -1.0667259072
| 21> C -3.5286334604 3.4146087235 -1.576900343
| 22> O -2.8397673511 -0.2813725823 1.0411089611
| 23> C -1.8981659899 -1.1977865853 1.6192184924
| 24> C -1.8585099524 -2.5188564582 0.8753445172
| 25> H 5.9468741343 -0.4866804667 -1.8787158394
| 26> H 5.9297841334 0.471025611 -0.3883899511
| 27> H 5.2710114536 -1.1686357412 -0.3894353086
| 28> H 3.4449174962 -0.4521678462 -1.9190043662
| 29> H 4.1241168635 1.2034627024 -1.950046428
| 30> H 1.8734779197 -2.3589886019 2.2565289953
| 31> H 1.6383172034 -3.1868963518 0.6928249522
| 32> H 3.9695872692 -4.0747265281 0.8204135213
| 33> H 4.200929513 -3.2567819907 2.3719366367
| 34> H 3.028676991 -4.5756842999 2.2340444396
| 35> H -0.3946394768 0.9226925715 -2.184744122
| 36> H 1.0344477946 1.6603562318 -1.3708459216
| 37> H -4.7008581489 1.625020008 -1.8776395133
| 38> H -5.3390515705 2.7123368022 -0.6087690845
| 39> H -3.1771476589 4.025946755 -0.7494355284
| 40> H -2.6679056464 2.9838353851 -2.0865208996
| 41> H -4.0781763105 4.0356063522 -2.2769933137
| 42> H -0.9081187427 -0.7281568056 1.6552409427
| 43> H -2.2586843549 -1.3301611208 2.6412295908
| 44> H -1.21593259 -3.2103287775 1.4113836479
| 45> H -2.8601162312 -2.9353942921 0.8087484278
| 46> H -1.4720199544 -2.3808956314 -0.1329147821
| 47> *
| 48>
| 49>                          ****END OF INPUT****

CARTESIAN COORDINATES (ANGSTROEM)
---------------------------------
  C      5.385319   -0.262113   -0.977208
  C      4.028296    0.287383   -1.364242
  O      3.283166    0.689163   -0.184048
  P      2.241452   -0.238610    0.543491
  S      1.622200    0.526202    2.234463
  O      2.990973   -1.631179    0.673244
  C      2.378192   -2.740778    1.362771
  C      3.470384   -3.728166    1.720531
  S      0.764157   -0.695483   -0.936980
  C      0.184533    0.990921   -1.263798
  S     -0.852273    1.694954    0.050608
  P     -2.625325    0.555639   -0.286480
  S     -2.726140   -0.377184   -2.012124
  O     -3.818211    1.555383   -0.009499
  C     -4.434075    2.310973   -1.066726
  C     -3.528633    3.414609   -1.576900
  O     -2.839767   -0.281373    1.041109
  C     -1.898166   -1.197787    1.619218
  C     -1.858510   -2.518856    0.875345
  H      5.946874   -0.486680   -1.878716
  H      5.929784    0.471026   -0.388390
  H      5.271011   -1.168636   -0.389435
  H      3.444917   -0.452168   -1.919004
  H      4.124117    1.203463   -1.950046
  H      1.873478   -2.358989    2.256529
  H      1.638317   -3.186896    0.692825
  H      3.969587   -4.074727    0.820414
  H      4.200930   -3.256782    2.371937
  H      3.028677   -4.575684    2.234044
  H     -0.394639    0.922693   -2.184744
  H      1.034448    1.660356   -1.370846
  H     -4.700858    1.625020   -1.877640
  H     -5.339052    2.712337   -0.608769
  H     -3.177148    4.025947   -0.749436
  H     -2.667906    2.983835   -2.086521
  H     -4.078176    4.035606   -2.276993
  H     -0.908119   -0.728157    1.655241
  H     -2.258684   -1.330161    2.641230
  H     -1.215933   -3.210329    1.411384
  H     -2.860116   -2.935394    0.808748
  H     -1.472020   -2.380896   -0.132915

 Total Charge           Charge          ....    0
 Multiplicity           Mult            ....    1
 Number of Electrons    NEL             ....  202
 Basis Dimension        Dim             ....  334

ORBITAL ENERGIES
----------------

  NO   OCC          E(Eh)            E(eV)
   0   2.0000     -88.046075     -2395.8555
   1   2.0000     -88.040164     -2395.6947
   2   2.0000     -87.988017     -2394.2757
   3   2.0000     -87.987457     -2394.2604
   4   2.0000     -76.430704     -2079.7852
   5   2.0000     -76.423876     -2079.5994
   6   2.0000     -18.802748      -511.6488
   7   2.0000     -18.801905      -511.6258
   8   2.0000     -18.785750      -511.1862
   9   2.0000     -18.783289      -511.1193
  10   2.0000      -9.963800      -271.1288
  11   2.0000      -9.962332      -271.0888
  12   2.0000      -9.959738      -271.0182
  13   2.0000      -9.948169      -270.7034
  14   2.0000      -9.941681      -270.5269
  15   2.0000      -9.895870      -269.2803
  16   2.0000      -9.892183      -269.1800
  17   2.0000      -9.881361      -268.8855
  18   2.0000      -9.873819      -268.6803
  19   2.0000      -7.690521      -209.2697
  20   2.0000      -7.684912      -209.1171
  21   2.0000      -7.632956      -207.7033
  22   2.0000      -7.632379      -207.6876
  23   2.0000      -6.428292      -174.9227
  24   2.0000      -6.421088      -174.7267
  25   2.0000      -5.718148      -155.5987
  26   2.0000      -5.715097      -155.5157
  27   2.0000      -5.712809      -155.4534
  28   2.0000      -5.709410      -155.3610
  29   2.0000      -5.707768      -155.3163
  30   2.0000      -5.701893      -155.1564
  31   2.0000      -5.661692      -154.0625
  32   2.0000      -5.661413      -154.0549
  33   2.0000      -5.653530      -153.8404
  34   2.0000      -5.653356      -153.8356
  35   2.0000      -5.652992      -153.8257
  36   2.0000      -5.652444      -153.8108
  37   2.0000      -4.651446      -126.5723
  38   2.0000      -4.650106      -126.5358
  39   2.0000      -4.648109      -126.4815
  40   2.0000      -4.643334      -126.3516
  41   2.0000      -4.643151      -126.3466
  42   2.0000      -4.641580      -126.3038
  43   2.0000      -0.997737       -27.1498
  44   2.0000      -0.983889       -26.7730
  45   2.0000      -0.955799       -26.0086
  46   2.0000      -0.938736       -25.5443
  47   2.0000      -0.763322       -20.7710
  48   2.0000      -0.725255       -19.7352
  49   2.0000      -0.710552       -19.3351
  50   2.0000      -0.700727       -19.0677
  51   2.0000      -0.678719       -18.4689
  52   2.0000      -0.672896       -18.3104
  53   2.0000      -0.651847       -17.7376
  54   2.0000      -0.640845       -17.4383
  55   2.0000      -0.596542       -16.2327
  56   2.0000      -0.594031       -16.1644
  57   2.0000      -0.578423       -15.7397
  58   2.0000      -0.568546       -15.4709
  59   2.0000      -0.561870       -15.2893
  60   2.0000      -0.517289       -14.0761
  61   2.0000      -0.491651       -13.3785
  62   2.0000      -0.490481       -13.3467
  63   2.0000      -0.465116       -12.6564
  64   2.0000      -0.457776       -12.4567
  65   2.0000      -0.452971       -12.3260
  66   2.0000      -0.443425       -12.0662
  67   2.0000      -0.436403       -11.8751
  68   2.0000      -0.422813       -11.5053
  69   2.0000      -0.415463       -11.3053
  70   2.0000      -0.409607       -11.1460
  71   2.0000      -0.401668       -10.9300
  72   2.0000      -0.398538       -10.8448
  73   2.0000      -0.387695       -10.5497
  74   2.0000      -0.379357       -10.3228
  75   2.0000      -0.374917       -10.2020
  76   2.0000      -0.367514       -10.0006
  77   2.0000      -0.363745        -9.8980
  78   2.0000      -0.360622        -9.8130
  79   2.0000      -0.356431        -9.6990
  80   2.0000      -0.351881        -9.5752
  81   2.0000      -0.344970        -9.3871
  82   2.0000      -0.340556        -9.2670
  83   2.0000      -0.336582        -9.1589
  84   2.0000      -0.329759        -8.9732
  85   2.0000      -0.324474        -8.8294
  86   2.0000      -0.310505        -8.4493
  87   2.0000      -0.308275        -8.3886
  88   2.0000      -0.302272        -8.2252
  89   2.0000      -0.293218        -7.9789
  90   2.0000      -0.283820        -7.7231
  91   2.0000      -0.280682        -7.6378
  92   2.0000      -0.266213        -7.2440
  93   2.0000      -0.264989        -7.2107
  94   2.0000      -0.256402        -6.9771
  95   2.0000      -0.246368        -6.7040
  96   2.0000      -0.216727        -5.8974
  97   2.0000      -0.209832        -5.7098
  98   2.0000      -0.205273        -5.5858
  99   2.0000      -0.203087        -5.5263
 100   2.0000      -0.192131        -5.2282
 101   0.0000      -0.044907        -1.2220
 102   0.0000      -0.029905        -0.8138
 103   0.0000      -0.011149        -0.3034
 104   0.0000       0.000943         0.0257
 105   0.0000       0.012436         0.3384

MULLIKEN ATOMIC CHARGES
-----------------------
   0 C :   -0.291437
   1 C :   -0.016224
   2 O :   -0.360063
   3 P :    0.589344
   4 S :   -0.286029
   5 O :   -0.383741
   6 C :   -0.027536
   7 C :   -0.281614
   8 S :   -0.100767
   9 C :   -0.345480
  10 S :   -0.073663
  11 P :    0.603748
  12 S :   -0.340713
  13 O :   -0.356388
  14 C :   -0.004261
  15 C :   -0.309579
  16 O :   -0.351753
  17 C :   -0.025482
  18 C :   -0.315647
  19 H :    0.112029
  20 H :    0.122200
  21 H :    0.125522
  22 H :    0.104813
  23 H :    0.110191
  24 H :    0.110062
  25 H :    0.114050
  26 H :    0.118231
  27 H :    0.124642
  28 H :    0.115363
  29 H :    0.194526
  30 H :    0.180896
  31 H :    0.113139
  32 H :    0.106755
  33 H :    0.119402
  34 H :    0.117536
  35 H :    0.110628
  36 H :    0.121266
  37 H :    0.103057
  38 H :    0.100523
  39 H :    0.113702
  40 H :    0.138755
Sum of atomic charges:   -0.0000000

LOEWDIN ATOMIC CHARGES
----------------------
   0 C :   -0.358904
   1 C :   -0.115636
   2 O :   -0.235787
   3 P :    0.559897
   4 S :   -0.296913
   5 O :   -0.249254
   6 C :   -0.121280
   7 C :   -0.350056
   8 S :    0.077456
   9 C :   -0.481157
  10 S :    0.093965
  11 P :    0.569359
  12 S :   -0.318860
  13 O :   -0.233886
  14 C :   -0.119501
  15 C :   -0.367470
  16 O :   -0.229386
  17 C :   -0.123667
  18 C :   -0.369840
  19 H :    0.130984
  20 H :    0.129907
  21 H :    0.126944
  22 H :    0.106040
  23 H :    0.120498
  24 H :    0.110043
  25 H :    0.111739
  26 H :    0.126776
  27 H :    0.130760
  28 H :    0.132864
  29 H :    0.129214
  30 H :    0.132013
  31 H :    0.109613
  32 H :    0.119639
  33 H :    0.125878
  34 H :    0.117862
  35 H :    0.129489
  36 H :    0.096759
  37 H :    0.118998
  38 H :    0.122925
  39 H :    0.125796
  40 H :    0.116179

  Mayer bond orders larger than 0.100000
B(  0-C ,  1-C ) :   1.1695 B(  0-C , 19-H ) :   0.9392 B(  0-C , 20-H ) :   0.9467
B(  0-C , 21-H ) :   0.9410 B(  1-C ,  2-O ) :   0.8863 B(  1-C , 22-H ) :   0.9092
B(  1-C , 23-H ) :   0.9344 B(  2-O ,  3-P ) :   1.1291 B(  3-P ,  4-S ) :   1.6802
B(  3-P ,  5-O ) :   1.0715 B(  3-P ,  8-S ) :   0.9498 B(  4-S ,  8-S ) :   0.1113
B(  5-O ,  6-C ) :   0.9048 B(  6-C ,  7-C ) :   1.1615 B(  6-C , 24-H ) :   0.9073
B(  6-C , 25-H ) :   0.9261 B(  7-C , 26-H ) :   0.9504 B(  7-C , 27-H ) :   0.9503
B(  7-C , 28-H ) :   0.9410 B(  8-S ,  9-C ) :   0.9924 B(  9-C , 10-S ) :   1.0149
B(  9-C , 29-H ) :   0.8761 B(  9-C , 30-H ) :   0.8980 B( 10-S , 11-P ) :   0.9431
B( 10-S , 12-S ) :   0.1205 B( 11-P , 12-S ) :   1.5888 B( 11-P , 13-O ) :   1.1294
B( 11-P , 16-O ) :   1.1421 B( 13-O , 14-C ) :   0.9150 B( 14-C , 15-C ) :   1.1624
B( 14-C , 31-H ) :   0.9140 B( 14-C , 32-H ) :   0.9340 B( 15-C , 33-H ) :   0.9449
B( 15-C , 34-H ) :   0.9387 B( 15-C , 35-H ) :   0.9388 B( 16-O , 17-C ) :   0.9138
B( 17-C , 18-C ) :   1.1607 B( 17-C , 36-H ) :   0.8946 B( 17-C , 37-H ) :   0.9356
B( 18-C , 38-H ) :   0.9372 B( 18-C , 39-H ) :   0.9435 B( 18-C , 40-H ) :   0.9311

Dispersion correction           -0.064888228
FINAL SINGLE POINT ENERGY     -2929.521992612908

DIPOLE MOMENT
-------------

Method             : SCF
Type of density    : Electron Density
Multiplicity       :   1
Irrep              :   0
Energy             : -2929.6410338913219675 Eh
Relativity type    :
Basis              : AO
                                X                 Y                 Z
Electronic contribution:     -9.971074327       9.703370334       2.306260988
Nuclear contribution   :     11.057113365     -10.167293808      -2.928393111
                        -----------------------------------------
Total Dipole Moment    :      1.086039038      -0.463923474      -0.622132123
                        -----------------------------------------
Magnitude (a.u.)       :      1.334823644
Magnitude (Debye)      :      3.392852068

Rotational constants in cm-1:             0.013431             0.004616             0.004174
Rotational constants in MHz :           402.659402           138.389123           125.125125

                             ****ORCA TERMINATED NORMALLY****
TOTAL RUN TIME: 0 days 0 hours 0 minutes 20 seconds 872 msec
