                         Program Version 6.0.0  -   RELEASE  -
|  1> ! r2scan-3c def2/J RI DEFGRID2 scfconv6 printgap
|  2> %output
|  3>     printlevel normal
|  4> end
|  5> * xyz 0 1
|  6> C 3.0826332321 0.5984924286 3.1155190326
|  7> C 1.6798595052 0.2274599936 2.6848423381
|  8> O 1.467197996 0.4978931079 1.2804804773
|  9> P 2.1968225286 -0.3462618178 0.1598026872
| 10> S 2.6056805603 -2.2158734172 0.5985862912
| 11> O 3.4530968348 0.5662442496 -0.168445801
| 12> C 4.4848916883 0.135135795 -1.078665496
| 13> C 5.723558079 0.9645648347 -0.806101947
| 14> S 0.9286830523 -0.0396884913 -1.5047556396
| 15> C -0.1684552487 -1.4473076415 -1.1760611301
| 16> S -1.2078659287 -1.2044041267 0.2809077517
| 17> P -2.3880050259 0.3766190911 -0.5489276379
| 18> S -2.7563647755 0.2565053318 -2.4628636975
| 19> O -1.6204084912 1.7023297406 -0.1737262672
| 20> C -1.3492789217 2.106539481 1.1901212942
| 21> C -2.3579782391 3.1383956351 1.6503729688
| 22> O -3.657717141 0.4312330262 0.4057832442
| 23> C -4.8405506355 -0.354568652 0.1667681639
| 24> C -4.5858890904 -1.8414724985 0.3017831567
| 25> H 3.1771739951 0.4678234602 4.1889126827
| 26> H 3.8034176477 -0.0473894704 2.615451395
| 27> H 3.2958931862 1.631454312 2.8538784674
| 28> H 0.9261901389 0.8348189631 3.1872015755
| 29> H 1.4846882629 -0.834291492 2.8654857795
| 30> H 4.6713632026 -0.9318102759 -0.9148825579
| 31> H 4.1221181434 0.2812835868 -2.0997618416
| 32> H 6.5035672506 0.6779368935 -1.5037155787
| 33> H 5.4970939699 2.0192612371 -0.9322398924
| 34> H 6.0717127934 0.797323411 0.2091939322
| 35> H 0.4298954697 -2.3400173294 -0.9931348667
| 36> H -0.7989442427 -1.5592763739 -2.0580480428
| 37> H -1.3663938028 1.2200122524 1.83066857
| 38> H -0.338090595 2.5178037159 1.1581516288
| 39> H -2.0880875656 3.4811494708 2.6443725563
| 40> H -2.3614364153 3.9832754702 0.9672475545
| 41> H -3.3538953967 2.7044817847 1.677261564
| 42> H -5.54480689 0.0024883096 0.9195206393
| 43> H -5.2122563039 -0.1179293658 -0.8346530883
| 44> H -4.1061051174 -2.0609403436 1.2523592252
| 45> H -5.5307828181 -2.3720964692 0.2432792915
| 46> H -3.9401016525 -2.1841981958 -0.5052176759
| 47> *
| 48>
| 49>                          ****END OF INPUT****

CARTESIAN COORDINATES (ANGSTROEM)
---------------------------------
  C      3.082633    0.598492    3.115519
  C      1.679860    0.227460    2.684842
  O      1.467198    0.497893    1.280480
  P      2.196823   -0.346262    0.159803
  S      2.605681   -2.215873    0.598586
  O      3.453097    0.566244   -0.168446
  C      4.484892    0.135136   -1.078665
  C      5.723558    0.964565   -0.806102
  S      0.928683   -0.039688   -1.504756
  C     -0.168455   -1.447308   -1.176061
  S     -1.207866   -1.204404    0.280908
  P     -2.388005    0.376619   -0.548928
  S     -2.756365    0.256505   -2.462864
  O     -1.620408    1.702330   -0.173726
  C     -1.349279    2.106539    1.190121
  C     -2.357978    3.138396    1.650373
  O     -3.657717    0.431233    0.405783
  C     -4.840551   -0.354569    0.166768
  C     -4.585889   -1.841472    0.301783
  H      3.177174    0.467823    4.188913
  H      3.803418   -0.047389    2.615451
  H      3.295893    1.631454    2.853878
  H      0.926190    0.834819    3.187202
  H      1.484688   -0.834291    2.865486
  H      4.671363   -0.931810   -0.914883
  H      4.122118    0.281284   -2.099762
  H      6.503567    0.677937   -1.503716
  H      5.497094    2.019261   -0.932240
  H      6.071713    0.797323    0.209194
  H      0.429895   -2.340017   -0.993135
  H     -0.798944   -1.559276   -2.058048
  H     -1.366394    1.220012    1.830669
  H     -0.338091    2.517804    1.158152
  H     -2.088088    3.481149    2.644373
  H     -2.361436    3.983275    0.967248
  H     -3.353895    2.704482    1.677262
  H     -5.544807    0.002488    0.919521
  H     -5.212256   -0.117929   -0.834653
  H     -4.106105   -2.060940    1.252359
  H     -5.530783   -2.372096    0.243279
  H     -3.940102   -2.184198   -0.505218

 Total Charge           Charge          ....    0
 Multiplicity           Mult            ....    1
 Number of Electrons    NEL             ....  202
 Basis Dimension        Dim             ....  539

ORBITAL ENERGIES
----------------

  NO   OCC          E(Eh)            E(eV)
   0   2.0000     -88.572868     -2410.1903
   1   2.0000     -88.571501     -2410.1531
   2   2.0000     -88.521894     -2408.8032
   3   2.0000     -88.519746     -2408.7447
   4   2.0000     -76.914215     -2092.9422
   5   2.0000     -76.912968     -2092.9083
   6   2.0000     -18.995445      -516.8923
   7   2.0000     -18.994632      -516.8702
   8   2.0000     -18.993549      -516.8407
   9   2.0000     -18.987305      -516.6708
  10   2.0000     -10.101786      -274.8836
  11   2.0000     -10.101332      -274.8712
  12   2.0000     -10.100859      -274.8583
  13   2.0000     -10.100195      -274.8403
  14   2.0000     -10.099355      -274.8174
  15   2.0000     -10.034876      -273.0629
  16   2.0000     -10.032197      -272.9900
  17   2.0000     -10.030276      -272.9377
  18   2.0000     -10.029326      -272.9118
  19   2.0000      -7.866954      -214.0707
  20   2.0000      -7.865845      -214.0405
  21   2.0000      -7.816732      -212.7041
  22   2.0000      -7.814563      -212.6451
  23   2.0000      -6.592964      -179.4037
  24   2.0000      -6.591440      -179.3622
  25   2.0000      -5.813838      -158.2026
  26   2.0000      -5.812657      -158.1704
  27   2.0000      -5.810851      -158.1213
  28   2.0000      -5.809748      -158.0913
  29   2.0000      -5.804070      -157.9368
  30   2.0000      -5.802982      -157.9072
  31   2.0000      -5.764277      -156.8540
  32   2.0000      -5.762265      -156.7992
  33   2.0000      -5.757022      -156.6565
  34   2.0000      -5.756812      -156.6508
  35   2.0000      -5.754739      -156.5944
  36   2.0000      -5.754598      -156.5906
  37   2.0000      -4.738348      -128.9370
  38   2.0000      -4.737887      -128.9245
  39   2.0000      -4.737326      -128.9092
  40   2.0000      -4.736760      -128.8938
  41   2.0000      -4.736280      -128.8807
  42   2.0000      -4.734919      -128.8437
  43   2.0000      -1.052752       -28.6468
  44   2.0000      -1.051120       -28.6024
  45   2.0000      -1.014057       -27.5939
  46   2.0000      -1.009810       -27.4783
  47   2.0000      -0.799904       -21.7665
  48   2.0000      -0.759727       -20.6732
  49   2.0000      -0.750680       -20.4270
  50   2.0000      -0.735895       -20.0247
  51   2.0000      -0.735037       -20.0014
  52   2.0000      -0.709978       -19.3195
  53   2.0000      -0.685303       -18.6480
  54   2.0000      -0.668255       -18.1841
  55   2.0000      -0.633005       -17.2249
  56   2.0000      -0.624850       -17.0030
  57   2.0000      -0.607467       -16.5300
  58   2.0000      -0.602128       -16.3847
  59   2.0000      -0.591311       -16.0904
  60   2.0000      -0.532043       -14.4776
  61   2.0000      -0.522606       -14.2208
  62   2.0000      -0.499690       -13.5973
  63   2.0000      -0.494137       -13.4461
  64   2.0000      -0.476683       -12.9712
  65   2.0000      -0.468548       -12.7498
  66   2.0000      -0.458468       -12.4755
  67   2.0000      -0.453884       -12.3508
  68   2.0000      -0.444710       -12.1012
  69   2.0000      -0.437243       -11.8980
  70   2.0000      -0.425991       -11.5918
  71   2.0000      -0.416124       -11.3233
  72   2.0000      -0.409600       -11.1458
  73   2.0000      -0.398183       -10.8351
  74   2.0000      -0.394289       -10.7292
  75   2.0000      -0.389210       -10.5909
  76   2.0000      -0.383344       -10.4313
  77   2.0000      -0.376762       -10.2522
  78   2.0000      -0.374929       -10.2023
  79   2.0000      -0.368574       -10.0294
  80   2.0000      -0.364360        -9.9147
  81   2.0000      -0.362297        -9.8586
  82   2.0000      -0.359352        -9.7785
  83   2.0000      -0.357246        -9.7212
  84   2.0000      -0.349345        -9.5061
  85   2.0000      -0.335324        -9.1246
  86   2.0000      -0.324810        -8.8385
  87   2.0000      -0.317313        -8.6345
  88   2.0000      -0.312671        -8.5082
  89   2.0000      -0.308631        -8.3983
  90   2.0000      -0.303419        -8.2564
  91   2.0000      -0.293875        -7.9967
  92   2.0000      -0.283512        -7.7147
  93   2.0000      -0.278777        -7.5859
  94   2.0000      -0.272242        -7.4081
  95   2.0000      -0.245245        -6.6735
  96   2.0000      -0.229692        -6.2502
  97   2.0000      -0.227123        -6.1803
  98   2.0000      -0.218534        -5.9466
  99   2.0000      -0.214394        -5.8340
 100   2.0000      -0.212869        -5.7925
 101   0.0000      -0.044738        -1.2174
 102   0.0000      -0.023175        -0.6306
 103   0.0000      -0.000069        -0.0019
 104   0.0000       0.001745         0.0475
 105   0.0000       0.015164         0.4126

MULLIKEN ATOMIC CHARGES
-----------------------
   0 C :   -0.440933
   1 C :   -0.155664
   2 O :   -0.258311
   3 P :    0.696235
   4 S :   -0.496039
   5 O :   -0.288951
   6 C :   -0.155540
   7 C :   -0.440333
   8 S :   -0.123970
   9 C :   -0.240507
  10 S :   -0.162381
  11 P :    0.648820
  12 S :   -0.443186
  13 O :   -0.256099
  14 C :   -0.104541
  15 C :   -0.485782
  16 O :   -0.290682
  17 C :   -0.168758
  18 C :   -0.440464
  19 H :    0.147804
  20 H :    0.170845
  21 H :    0.155524
  22 H :    0.145992
  23 H :    0.177678
  24 H :    0.170886
  25 H :    0.154058
  26 H :    0.147882
  27 H :    0.154926
  28 H :    0.153858
  29 H :    0.213565
  30 H :    0.215990
  31 H :    0.155591
  32 H :    0.169675
  33 H :    0.143700
  34 H :    0.160286
  35 H :    0.165500
  36 H :    0.147432
  37 H :    0.175048
  38 H :    0.153457
  39 H :    0.147883
  40 H :    0.179506
Sum of atomic charges:    0.0000000

LOEWDIN ATOMIC CHARGES
----------------------
   0 C :   -0.399377
   1 C :    0.016263
   2 O :   -0.674680
   3 P :    0.374254
   4 S :   -0.139448
   5 O :   -0.664482
   6 C :    0.020712
   7 C :   -0.385583
   8 S :    0.178802
   9 C :   -0.425203
  10 S :    0.140781
  11 P :    0.383686
  12 S :   -0.099916
  13 O :   -0.649858
  14 C :    0.018556
  15 C :   -0.392751
  16 O :   -0.673528
  17 C :    0.022063
  18 C :   -0.408672
  19 H :    0.159787
  20 H :    0.166460
  21 H :    0.160739
  22 H :    0.177221
  23 H :    0.182487
  24 H :    0.180796
  25 H :    0.173048
  26 H :    0.160509
  27 H :    0.160368
  28 H :    0.159647
  29 H :    0.191615
  30 H :    0.191370
  31 H :    0.175259
  32 H :    0.187115
  33 H :    0.157625
  34 H :    0.162882
  35 H :    0.165391
  36 H :    0.178958
  37 H :    0.180814
  38 H :    0.160179
  39 H :    0.159430
  40 H :    0.166681

  Mayer bond orders larger than 0.100000
B(  0-C ,  1-C ) :   0.9257 B(  0-C , 19-H ) :   0.9622 B(  0-C , 20-H ) :   0.9591
B(  0-C , 21-H ) :   0.9714 B(  1-C ,  2-O ) :   0.7772 B(  1-C , 22-H ) :   0.9607
B(  1-C , 23-H ) :   0.9624 B(  2-O ,  3-P ) :   1.1490 B(  3-P ,  4-S ) :   1.7262
B(  3-P ,  5-O ) :   1.0946 B(  3-P ,  8-S ) :   1.0837 B(  5-O ,  6-C ) :   0.7783
B(  6-C ,  7-C ) :   0.9565 B(  6-C , 24-H ) :   0.9519 B(  6-C , 25-H ) :   0.9456
B(  7-C , 26-H ) :   0.9642 B(  7-C , 27-H ) :   0.9715 B(  7-C , 28-H ) :   0.9714
B(  8-S ,  9-C ) :   0.9166 B(  9-C , 10-S ) :   0.9082 B(  9-C , 29-H ) :   0.9043
B(  9-C , 30-H ) :   0.9077 B( 10-S , 11-P ) :   1.0122 B( 11-P , 12-S ) :   1.8354
B( 11-P , 13-O ) :   1.1430 B( 11-P , 16-O ) :   1.0322 B( 13-O , 14-C ) :   0.7349
B( 14-C , 15-C ) :   0.9295 B( 14-C , 31-H ) :   0.9693 B( 14-C , 32-H ) :   0.9543
B( 15-C , 33-H ) :   0.9660 B( 15-C , 34-H ) :   0.9739 B( 15-C , 35-H ) :   0.9707
B( 16-O , 17-C ) :   0.8180 B( 17-C , 18-C ) :   0.9183 B( 17-C , 36-H ) :   0.9615
B( 17-C , 37-H ) :   0.9685 B( 18-C , 38-H ) :   0.9669 B( 18-C , 39-H ) :   0.9564
B( 18-C , 40-H ) :   0.9634

Dispersion correction           -0.021280806
FINAL SINGLE POINT ENERGY     -2932.464749837883

DIPOLE MOMENT
-------------

Method             : SCF
Type of density    : Electron Density
Multiplicity       :   1
Irrep              :   0
Energy             : -2932.4898411606563968 Eh
Relativity type    :
Basis              : AO
                                X                 Y                 Z
Electronic contribution:     -4.996829551      -7.215616689     -14.764366926
Nuclear contribution   :      5.189880276       7.778920699      16.191374247
                        -----------------------------------------
Total Dipole Moment    :      0.193050725       0.563304010       1.427007321
                        -----------------------------------------
Magnitude (a.u.)       :      1.546263200
Magnitude (Debye)      :      3.930288709

Rotational constants in cm-1:             0.013198             0.004621             0.004383
Rotational constants in MHz :           395.656745           138.544767           131.386632

                             ****ORCA TERMINATED NORMALLY****
TOTAL RUN TIME: 0 days 0 hours 1 minutes 19 seconds 746 msec
