                         Program Version 6.0.0  -   RELEASE  -
|  1> ! r2scan-3c def2/J RI DEFGRID2 scfconv6 printgap
|  2> %output
|  3>     printlevel normal
|  4> end
|  5> %cpcm
|  6>     smd true
|  7>     smdsolvent "water"
|  8> end
|  9> * xyz 0 1
| 10> C 3.0826332321 0.5984924286 3.1155190326
| 11> C 1.6798595052 0.2274599936 2.6848423381
| 12> O 1.467197996 0.4978931079 1.2804804773
| 13> P 2.1968225286 -0.3462618178 0.1598026872
| 14> S 2.6056805603 -2.2158734172 0.5985862912
| 15> O 3.4530968348 0.5662442496 -0.168445801
| 16> C 4.4848916883 0.135135795 -1.078665496
| 17> C 5.723558079 0.9645648347 -0.806101947
| 18> S 0.9286830523 -0.0396884913 -1.5047556396
| 19> C -0.1684552487 -1.4473076415 -1.1760611301
| 20> S -1.2078659287 -1.2044041267 0.2809077517
| 21> P -2.3880050259 0.3766190911 -0.5489276379
| 22> S -2.7563647755 0.2565053318 -2.4628636975
| 23> O -1.6204084912 1.7023297406 -0.1737262672
| 24> C -1.3492789217 2.106539481 1.1901212942
| 25> C -2.3579782391 3.1383956351 1.6503729688
| 26> O -3.657717141 0.4312330262 0.4057832442
| 27> C -4.8405506355 -0.354568652 0.1667681639
| 28> C -4.5858890904 -1.8414724985 0.3017831567
| 29> H 3.1771739951 0.4678234602 4.1889126827
| 30> H 3.8034176477 -0.0473894704 2.615451395
| 31> H 3.2958931862 1.631454312 2.8538784674
| 32> H 0.9261901389 0.8348189631 3.1872015755
| 33> H 1.4846882629 -0.834291492 2.8654857795
| 34> H 4.6713632026 -0.9318102759 -0.9148825579
| 35> H 4.1221181434 0.2812835868 -2.0997618416
| 36> H 6.5035672506 0.6779368935 -1.5037155787
| 37> H 5.4970939699 2.0192612371 -0.9322398924
| 38> H 6.0717127934 0.797323411 0.2091939322
| 39> H 0.4298954697 -2.3400173294 -0.9931348667
| 40> H -0.7989442427 -1.5592763739 -2.0580480428
| 41> H -1.3663938028 1.2200122524 1.83066857
| 42> H -0.338090595 2.5178037159 1.1581516288
| 43> H -2.0880875656 3.4811494708 2.6443725563
| 44> H -2.3614364153 3.9832754702 0.9672475545
| 45> H -3.3538953967 2.7044817847 1.677261564
| 46> H -5.54480689 0.0024883096 0.9195206393
| 47> H -5.2122563039 -0.1179293658 -0.8346530883
| 48> H -4.1061051174 -2.0609403436 1.2523592252
| 49> H -5.5307828181 -2.3720964692 0.2432792915
| 50> H -3.9401016525 -2.1841981958 -0.5052176759
| 51> *
| 52>
| 53>                          ****END OF INPUT****

CARTESIAN COORDINATES (ANGSTROEM)
---------------------------------
  C      3.082633    0.598492    3.115519
  C      1.679860    0.227460    2.684842
  O      1.467198    0.497893    1.280480
  P      2.196823   -0.346262    0.159803
  S      2.605681   -2.215873    0.598586
  O      3.453097    0.566244   -0.168446
  C      4.484892    0.135136   -1.078665
  C      5.723558    0.964565   -0.806102
  S      0.928683   -0.039688   -1.504756
  C     -0.168455   -1.447308   -1.176061
  S     -1.207866   -1.204404    0.280908
  P     -2.388005    0.376619   -0.548928
  S     -2.756365    0.256505   -2.462864
  O     -1.620408    1.702330   -0.173726
  C     -1.349279    2.106539    1.190121
  C     -2.357978    3.138396    1.650373
  O     -3.657717    0.431233    0.405783
  C     -4.840551   -0.354569    0.166768
  C     -4.585889   -1.841472    0.301783
  H      3.177174    0.467823    4.188913
  H      3.803418   -0.047389    2.615451
  H      3.295893    1.631454    2.853878
  H      0.926190    0.834819    3.187202
  H      1.484688   -0.834291    2.865486
  H      4.671363   -0.931810   -0.914883
  H      4.122118    0.281284   -2.099762
  H      6.503567    0.677937   -1.503716
  H      5.497094    2.019261   -0.932240
  H      6.071713    0.797323    0.209194
  H      0.429895   -2.340017   -0.993135
  H     -0.798944   -1.559276   -2.058048
  H     -1.366394    1.220012    1.830669
  H     -0.338091    2.517804    1.158152
  H     -2.088088    3.481149    2.644373
  H     -2.361436    3.983275    0.967248
  H     -3.353895    2.704482    1.677262
  H     -5.544807    0.002488    0.919521
  H     -5.212256   -0.117929   -0.834653
  H     -4.106105   -2.060940    1.252359
  H     -5.530783   -2.372096    0.243279
  H     -3.940102   -2.184198   -0.505218

 Total Charge           Charge          ....    0
 Multiplicity           Mult            ....    1
 Number of Electrons    NEL             ....  202
 Basis Dimension        Dim             ....  539

ORBITAL ENERGIES
----------------

  NO   OCC          E(Eh)            E(eV)
   0   2.0000     -88.579165     -2410.3616
   1   2.0000     -88.575999     -2410.2755
   2   2.0000     -88.530992     -2409.0508
   3   2.0000     -88.528611     -2408.9860
   4   2.0000     -76.920224     -2093.1057
   5   2.0000     -76.918915     -2093.0701
   6   2.0000     -18.996646      -516.9250
   7   2.0000     -18.996412      -516.9187
   8   2.0000     -18.994039      -516.8541
   9   2.0000     -18.993219      -516.8318
  10   2.0000     -10.102949      -274.9152
  11   2.0000     -10.091285      -274.5978
  12   2.0000     -10.090996      -274.5900
  13   2.0000     -10.090527      -274.5772
  14   2.0000     -10.089755      -274.5562
  15   2.0000     -10.019812      -272.6529
  16   2.0000     -10.018866      -272.6272
  17   2.0000     -10.018528      -272.6180
  18   2.0000     -10.018243      -272.6103
  19   2.0000      -7.873374      -214.2454
  20   2.0000      -7.870319      -214.1623
  21   2.0000      -7.826164      -212.9607
  22   2.0000      -7.823724      -212.8944
  23   2.0000      -6.598729      -179.5606
  24   2.0000      -6.597686      -179.5322
  25   2.0000      -5.820193      -158.3755
  26   2.0000      -5.817240      -158.2952
  27   2.0000      -5.817153      -158.2928
  28   2.0000      -5.814254      -158.2139
  29   2.0000      -5.810587      -158.1141
  30   2.0000      -5.807411      -158.0277
  31   2.0000      -5.773754      -157.1118
  32   2.0000      -5.771223      -157.0430
  33   2.0000      -5.766319      -156.9095
  34   2.0000      -5.766264      -156.9080
  35   2.0000      -5.764005      -156.8465
  36   2.0000      -5.763810      -156.8412
  37   2.0000      -4.744542      -129.1055
  38   2.0000      -4.743544      -129.0784
  39   2.0000      -4.742998      -129.0635
  40   2.0000      -4.742610      -129.0530
  41   2.0000      -4.742343      -129.0457
  42   2.0000      -4.741588      -129.0252
  43   2.0000      -1.054252       -28.6876
  44   2.0000      -1.053474       -28.6665
  45   2.0000      -1.014059       -27.5940
  46   2.0000      -1.012621       -27.5548
  47   2.0000      -0.803828       -21.8733
  48   2.0000      -0.756105       -20.5747
  49   2.0000      -0.744832       -20.2679
  50   2.0000      -0.726298       -19.7636
  51   2.0000      -0.724771       -19.7220
  52   2.0000      -0.709735       -19.3129
  53   2.0000      -0.689116       -18.7518
  54   2.0000      -0.675107       -18.3706
  55   2.0000      -0.629882       -17.1400
  56   2.0000      -0.620775       -16.8922
  57   2.0000      -0.602456       -16.3936
  58   2.0000      -0.593300       -16.1445
  59   2.0000      -0.589988       -16.0544
  60   2.0000      -0.528541       -14.3823
  61   2.0000      -0.519178       -14.1275
  62   2.0000      -0.495271       -13.4770
  63   2.0000      -0.490463       -13.3462
  64   2.0000      -0.476548       -12.9675
  65   2.0000      -0.464759       -12.6467
  66   2.0000      -0.454327       -12.3629
  67   2.0000      -0.445508       -12.1229
  68   2.0000      -0.439757       -11.9664
  69   2.0000      -0.434139       -11.8135
  70   2.0000      -0.423364       -11.5203
  71   2.0000      -0.411116       -11.1870
  72   2.0000      -0.406039       -11.0489
  73   2.0000      -0.397140       -10.8067
  74   2.0000      -0.393434       -10.7059
  75   2.0000      -0.385085       -10.4787
  76   2.0000      -0.382275       -10.4022
  77   2.0000      -0.371888       -10.1196
  78   2.0000      -0.363609        -9.8943
  79   2.0000      -0.363026        -9.8784
  80   2.0000      -0.354088        -9.6352
  81   2.0000      -0.352962        -9.6046
  82   2.0000      -0.351862        -9.5747
  83   2.0000      -0.348683        -9.4881
  84   2.0000      -0.345194        -9.3932
  85   2.0000      -0.331212        -9.0127
  86   2.0000      -0.321995        -8.7619
  87   2.0000      -0.313275        -8.5246
  88   2.0000      -0.308418        -8.3925
  89   2.0000      -0.304179        -8.2771
  90   2.0000      -0.299784        -8.1575
  91   2.0000      -0.291240        -7.9250
  92   2.0000      -0.282795        -7.6952
  93   2.0000      -0.278435        -7.5766
  94   2.0000      -0.274728        -7.4757
  95   2.0000      -0.250938        -6.8284
  96   2.0000      -0.238408        -6.4874
  97   2.0000      -0.236663        -6.4399
  98   2.0000      -0.227489        -6.1903
  99   2.0000      -0.224072        -6.0973
 100   2.0000      -0.220563        -6.0018
 101   0.0000      -0.051412        -1.3990
 102   0.0000      -0.030914        -0.8412
 103   0.0000      -0.005571        -0.1516
 104   0.0000      -0.003027        -0.0824
 105   0.0000       0.013747         0.3741

MULLIKEN ATOMIC CHARGES
-----------------------
   0 C :   -0.483859
   1 C :   -0.148190
   2 O :   -0.281877
   3 P :    0.727856
   4 S :   -0.538030
   5 O :   -0.313481
   6 C :   -0.147268
   7 C :   -0.483031
   8 S :   -0.153465
   9 C :   -0.247315
  10 S :   -0.161216
  11 P :    0.664737
  12 S :   -0.497388
  13 O :   -0.291866
  14 C :   -0.089441
  15 C :   -0.531685
  16 O :   -0.307219
  17 C :   -0.161280
  18 C :   -0.478414
  19 H :    0.172993
  20 H :    0.168804
  21 H :    0.170416
  22 H :    0.180619
  23 H :    0.178123
  24 H :    0.172525
  25 H :    0.172137
  26 H :    0.169779
  27 H :    0.166377
  28 H :    0.166237
  29 H :    0.233132
  30 H :    0.233044
  31 H :    0.175713
  32 H :    0.181484
  33 H :    0.171245
  34 H :    0.168824
  35 H :    0.170471
  36 H :    0.176348
  37 H :    0.179673
  38 H :    0.168106
  39 H :    0.172685
  40 H :    0.173696
Sum of atomic charges:   -0.0000000

LOEWDIN ATOMIC CHARGES
----------------------
   0 C :   -0.402636
   1 C :    0.022670
   2 O :   -0.683127
   3 P :    0.378655
   4 S :   -0.165490
   5 O :   -0.676267
   6 C :    0.025063
   7 C :   -0.389170
   8 S :    0.159765
   9 C :   -0.420463
  10 S :    0.145568
  11 P :    0.386203
  12 S :   -0.140679
  13 O :   -0.675040
  14 C :    0.025274
  15 C :   -0.394836
  16 O :   -0.676108
  17 C :    0.028346
  18 C :   -0.411365
  19 H :    0.169224
  20 H :    0.163002
  21 H :    0.164374
  22 H :    0.191315
  23 H :    0.182676
  24 H :    0.181865
  25 H :    0.180069
  26 H :    0.169046
  27 H :    0.163441
  28 H :    0.162688
  29 H :    0.197170
  30 H :    0.196450
  31 H :    0.183714
  32 H :    0.192510
  33 H :    0.168930
  34 H :    0.164317
  35 H :    0.165505
  36 H :    0.191462
  37 H :    0.181899
  38 H :    0.163761
  39 H :    0.168481
  40 H :    0.161740

  Mayer bond orders larger than 0.100000
B(  0-C ,  1-C ) :   0.9123 B(  0-C , 19-H ) :   0.9561 B(  0-C , 20-H ) :   0.9590
B(  0-C , 21-H ) :   0.9709 B(  1-C ,  2-O ) :   0.7649 B(  1-C , 22-H ) :   0.9499
B(  1-C , 23-H ) :   0.9590 B(  2-O ,  3-P ) :   1.1599 B(  3-P ,  4-S ) :   1.6939
B(  3-P ,  5-O ) :   1.1022 B(  3-P ,  8-S ) :   1.0895 B(  5-O ,  6-C ) :   0.7707
B(  6-C ,  7-C ) :   0.9526 B(  6-C , 24-H ) :   0.9485 B(  6-C , 25-H ) :   0.9372
B(  7-C , 26-H ) :   0.9583 B(  7-C , 27-H ) :   0.9689 B(  7-C , 28-H ) :   0.9688
B(  8-S ,  9-C ) :   0.9035 B(  9-C , 10-S ) :   0.8984 B(  9-C , 29-H ) :   0.9011
B(  9-C , 30-H ) :   0.9031 B( 10-S , 11-P ) :   1.0210 B( 11-P , 12-S ) :   1.8124
B( 11-P , 13-O ) :   1.1483 B( 11-P , 16-O ) :   1.0473 B( 13-O , 14-C ) :   0.7227
B( 14-C , 15-C ) :   0.9265 B( 14-C , 31-H ) :   0.9558 B( 14-C , 32-H ) :   0.9456
B( 15-C , 33-H ) :   0.9587 B( 15-C , 34-H ) :   0.9725 B( 15-C , 35-H ) :   0.9695
B( 16-O , 17-C ) :   0.8055 B( 17-C , 18-C ) :   0.9057 B( 17-C , 36-H ) :   0.9505
B( 17-C , 37-H ) :   0.9674 B( 18-C , 38-H ) :   0.9642 B( 18-C , 39-H ) :   0.9512
B( 18-C , 40-H ) :   0.9654

Dispersion correction           -0.021280806
FINAL SINGLE POINT ENERGY     -2932.474407246060

DIPOLE MOMENT
-------------

Method             : SCF
Type of density    : Electron Density
Multiplicity       :   1
Irrep              :   0
Energy             : -2932.4994985688340421 Eh
Relativity type    :
Basis              : AO
                                X                 Y                 Z
Electronic contribution:     -5.034669704      -7.218500026     -14.098979532
Nuclear contribution   :      5.189880276       7.778920699      16.191374247
                        -----------------------------------------
Total Dipole Moment    :      0.155210572       0.560420673       2.092394715
                        -----------------------------------------
Magnitude (a.u.)       :      2.171699173
Magnitude (Debye)      :      5.520020614

Rotational constants in cm-1:             0.013198             0.004621             0.004383
Rotational constants in MHz :           395.656745           138.544767           131.386632

                             ****ORCA TERMINATED NORMALLY****
TOTAL RUN TIME: 0 days 0 hours 1 minutes 47 seconds 686 msec
