                         Program Version 6.0.0  -   RELEASE  -
|  1> ! pbe def2-sv(p) def2/J RI DEFGRID1 loosescf d4 GCP(DFT/SV(P)) printgap
|  2> %output
|  3>     printlevel normal
|  4> end
|  5> * xyz 0 1
|  6> C 2.4072904093 -2.7199671162 -1.8119559734
|  7> C 3.5440534378 -2.222710041 -0.9455348293
|  8> O 3.5427877812 -0.7807743966 -0.8049970379
|  9> P 2.4123605721 0.0856227284 -0.1298786306
| 10> S 3.0802915592 1.8126753607 0.4961308294
| 11> O 1.8399037933 -0.8868002031 0.995730038
| 12> C 1.3655996852 -0.4626074583 2.2857878344
| 13> C 2.14891098 -1.1900138951 3.3605274035
| 14> S 0.9068841088 0.2049310452 -1.6423464552
| 15> C 0.1645547743 1.7726302946 -1.1359104951
| 16> S -0.6290258635 1.6888531927 0.4906278627
| 17> P -2.0573717424 0.2047448803 -0.0124199858
| 18> S -2.7993817317 0.2681890315 -1.8299390995
| 19> O -3.073482284 0.253255398 1.2063611829
| 20> C -3.742276163 1.4263291587 1.7042253508
| 21> C -4.439098326 2.2173264249 0.6167023822
| 22> O -1.2756106365 -1.1313693515 0.3377504951
| 23> C -1.5467834652 -2.3785915555 -0.3293002686
| 24> C -2.8812585962 -2.9488611139 0.1019420695
| 25> H 2.5084698889 -3.791319774 -1.9545361352
| 26> H 1.4522658042 -2.5134302319 -1.3322925351
| 27> H 2.4220938516 -2.2255005028 -2.780220852
| 28> H 4.5154646603 -2.425333773 -1.3988142784
| 29> H 3.4975932558 -2.6639072489 0.0519454195
| 30> H 1.4916380682 0.6215143941 2.3767748406
| 31> H 0.3017739449 -0.7091092684 2.3255630232
| 32> H 2.050816491 -2.2646655454 3.2361275943
| 33> H 3.2005502131 -0.9192252596 3.3010738143
| 34> H 1.7632908907 -0.904264944 4.3337150122
| 35> H -0.5784647481 2.0184734374 -1.8940069866
| 36> H 0.9345413803 2.5401171734 -1.0622834039
| 37> H -4.4566540829 1.0265874744 2.4262727066
| 38> H -3.0019438434 2.0456639567 2.2184707119
| 39> H -5.1209081009 1.57961725 0.0589700105
| 40> H -4.9965292844 3.0331083083 1.0657045201
| 41> H -3.7069583028 2.6289543311 -0.0769066003
| 42> H -1.5253419411 -2.2098984628 -1.4111580629
| 43> H -0.7163559528 -3.0230052825 -0.0365351192
| 44> H -3.0356288599 -3.9116015733 -0.3747846332
| 45> H -2.9096871977 -3.0670149366 1.1817720817
| 46> H -3.6798121151 -2.2706285847 -0.1973777058
| 47> *
| 48>
| 49>                          ****END OF INPUT****

CARTESIAN COORDINATES (ANGSTROEM)
---------------------------------
  C      2.407290   -2.719967   -1.811956
  C      3.544053   -2.222710   -0.945535
  O      3.542788   -0.780774   -0.804997
  P      2.412361    0.085623   -0.129879
  S      3.080292    1.812675    0.496131
  O      1.839904   -0.886800    0.995730
  C      1.365600   -0.462607    2.285788
  C      2.148911   -1.190014    3.360527
  S      0.906884    0.204931   -1.642346
  C      0.164555    1.772630   -1.135910
  S     -0.629026    1.688853    0.490628
  P     -2.057372    0.204745   -0.012420
  S     -2.799382    0.268189   -1.829939
  O     -3.073482    0.253255    1.206361
  C     -3.742276    1.426329    1.704225
  C     -4.439098    2.217326    0.616702
  O     -1.275611   -1.131369    0.337750
  C     -1.546783   -2.378592   -0.329300
  C     -2.881259   -2.948861    0.101942
  H      2.508470   -3.791320   -1.954536
  H      1.452266   -2.513430   -1.332293
  H      2.422094   -2.225501   -2.780221
  H      4.515465   -2.425334   -1.398814
  H      3.497593   -2.663907    0.051945
  H      1.491638    0.621514    2.376775
  H      0.301774   -0.709109    2.325563
  H      2.050816   -2.264666    3.236128
  H      3.200550   -0.919225    3.301074
  H      1.763291   -0.904265    4.333715
  H     -0.578465    2.018473   -1.894007
  H      0.934541    2.540117   -1.062283
  H     -4.456654    1.026587    2.426273
  H     -3.001944    2.045664    2.218471
  H     -5.120908    1.579617    0.058970
  H     -4.996529    3.033108    1.065705
  H     -3.706958    2.628954   -0.076907
  H     -1.525342   -2.209898   -1.411158
  H     -0.716356   -3.023005   -0.036535
  H     -3.035629   -3.911602   -0.374785
  H     -2.909687   -3.067015    1.181772
  H     -3.679812   -2.270629   -0.197378

 Total Charge           Charge          ....    0
 Multiplicity           Mult            ....    1
 Number of Electrons    NEL             ....  202
 Basis Dimension        Dim             ....  334

ORBITAL ENERGIES
----------------

  NO   OCC          E(Eh)            E(eV)
   0   2.0000     -88.046521     -2395.8676
   1   2.0000     -88.038284     -2395.6435
   2   2.0000     -87.990285     -2394.3374
   3   2.0000     -87.983556     -2394.1543
   4   2.0000     -76.430617     -2079.7828
   5   2.0000     -76.425461     -2079.6425
   6   2.0000     -18.797058      -511.4939
   7   2.0000     -18.793200      -511.3890
   8   2.0000     -18.790862      -511.3254
   9   2.0000     -18.790109      -511.3049
  10   2.0000      -9.961629      -271.0697
  11   2.0000      -9.960176      -271.0302
  12   2.0000      -9.953144      -270.8388
  13   2.0000      -9.952009      -270.8079
  14   2.0000      -9.944323      -270.5988
  15   2.0000      -9.893225      -269.2083
  16   2.0000      -9.886209      -269.0174
  17   2.0000      -9.884476      -268.9703
  18   2.0000      -9.883597      -268.9463
  19   2.0000      -7.691092      -209.2853
  20   2.0000      -7.682903      -209.0624
  21   2.0000      -7.635189      -207.7640
  22   2.0000      -7.628815      -207.5906
  23   2.0000      -6.427609      -174.9041
  24   2.0000      -6.422803      -174.7733
  25   2.0000      -5.718879      -155.6186
  26   2.0000      -5.715626      -155.5301
  27   2.0000      -5.710901      -155.4015
  28   2.0000      -5.708192      -155.3278
  29   2.0000      -5.707436      -155.3072
  30   2.0000      -5.699804      -155.0995
  31   2.0000      -5.664095      -154.1279
  32   2.0000      -5.657798      -153.9565
  33   2.0000      -5.655872      -153.9041
  34   2.0000      -5.655332      -153.8894
  35   2.0000      -5.649218      -153.7230
  36   2.0000      -5.649072      -153.7191
  37   2.0000      -4.650080      -126.5351
  38   2.0000      -4.649554      -126.5208
  39   2.0000      -4.648070      -126.4804
  40   2.0000      -4.645798      -126.4186
  41   2.0000      -4.644236      -126.3761
  42   2.0000      -4.643233      -126.3488
  43   2.0000      -0.989843       -26.9350
  44   2.0000      -0.986082       -26.8327
  45   2.0000      -0.947988       -25.7961
  46   2.0000      -0.942137       -25.6368
  47   2.0000      -0.765022       -20.8173
  48   2.0000      -0.722798       -19.6683
  49   2.0000      -0.712236       -19.3809
  50   2.0000      -0.692569       -18.8458
  51   2.0000      -0.689129       -18.7521
  52   2.0000      -0.674722       -18.3601
  53   2.0000      -0.653293       -17.7770
  54   2.0000      -0.638825       -17.3833
  55   2.0000      -0.600845       -16.3498
  56   2.0000      -0.594966       -16.1898
  57   2.0000      -0.576549       -15.6887
  58   2.0000      -0.574995       -15.6464
  59   2.0000      -0.562615       -15.3095
  60   2.0000      -0.502698       -13.6791
  61   2.0000      -0.493846       -13.4382
  62   2.0000      -0.477600       -12.9962
  63   2.0000      -0.472443       -12.8558
  64   2.0000      -0.460285       -12.5250
  65   2.0000      -0.446903       -12.1608
  66   2.0000      -0.442781       -12.0487
  67   2.0000      -0.439812       -11.9679
  68   2.0000      -0.427360       -11.6291
  69   2.0000      -0.420352       -11.4383
  70   2.0000      -0.414358       -11.2752
  71   2.0000      -0.394755       -10.7418
  72   2.0000      -0.390202       -10.6179
  73   2.0000      -0.387912       -10.5556
  74   2.0000      -0.380845       -10.3633
  75   2.0000      -0.379994       -10.3402
  76   2.0000      -0.372893       -10.1469
  77   2.0000      -0.360389        -9.8067
  78   2.0000      -0.353644        -9.6231
  79   2.0000      -0.350971        -9.5504
  80   2.0000      -0.350419        -9.5354
  81   2.0000      -0.349500        -9.5104
  82   2.0000      -0.344178        -9.3655
  83   2.0000      -0.343481        -9.3466
  84   2.0000      -0.333682        -9.0799
  85   2.0000      -0.321694        -8.7537
  86   2.0000      -0.310351        -8.4451
  87   2.0000      -0.300280        -8.1710
  88   2.0000      -0.299454        -8.1486
  89   2.0000      -0.290481        -7.9044
  90   2.0000      -0.288824        -7.8593
  91   2.0000      -0.279994        -7.6190
  92   2.0000      -0.271223        -7.3804
  93   2.0000      -0.266302        -7.2464
  94   2.0000      -0.254501        -6.9253
  95   2.0000      -0.235532        -6.4092
  96   2.0000      -0.215961        -5.8766
  97   2.0000      -0.211511        -5.7555
  98   2.0000      -0.207259        -5.6398
  99   2.0000      -0.199664        -5.4331
 100   2.0000      -0.196207        -5.3391
 101   0.0000      -0.046716        -1.2712
 102   0.0000      -0.025478        -0.6933
 103   0.0000      -0.003549        -0.0966
 104   0.0000       0.000295         0.0080
 105   0.0000       0.005294         0.1440

MULLIKEN ATOMIC CHARGES
-----------------------
   0 C :   -0.362762
   1 C :    0.009254
   2 O :   -0.366386
   3 P :    0.629638
   4 S :   -0.319653
   5 O :   -0.390447
   6 C :   -0.023799
   7 C :   -0.276301
   8 S :   -0.105511
   9 C :   -0.339309
  10 S :   -0.098806
  11 P :    0.616231
  12 S :   -0.326936
  13 O :   -0.375345
  14 C :   -0.010050
  15 C :   -0.311622
  16 O :   -0.361079
  17 C :   -0.031695
  18 C :   -0.286056
  19 H :    0.117727
  20 H :    0.154588
  21 H :    0.132988
  22 H :    0.113099
  23 H :    0.107942
  24 H :    0.114026
  25 H :    0.108700
  26 H :    0.107782
  27 H :    0.115130
  28 H :    0.108571
  29 H :    0.189985
  30 H :    0.193670
  31 H :    0.109729
  32 H :    0.114237
  33 H :    0.126675
  34 H :    0.113036
  35 H :    0.126038
  36 H :    0.118107
  37 H :    0.113573
  38 H :    0.109950
  39 H :    0.112119
  40 H :    0.122960
Sum of atomic charges:   -0.0000000

LOEWDIN ATOMIC CHARGES
----------------------
   0 C :   -0.375569
   1 C :   -0.106848
   2 O :   -0.240391
   3 P :    0.573343
   4 S :   -0.310998
   5 O :   -0.248402
   6 C :   -0.128010
   7 C :   -0.354269
   8 S :    0.081438
   9 C :   -0.481033
  10 S :    0.090127
  11 P :    0.572665
  12 S :   -0.315658
  13 O :   -0.244896
  14 C :   -0.113609
  15 C :   -0.369788
  16 O :   -0.233880
  17 C :   -0.122881
  18 C :   -0.363389
  19 H :    0.133765
  20 H :    0.121941
  21 H :    0.130327
  22 H :    0.123723
  23 H :    0.113864
  24 H :    0.103350
  25 H :    0.108334
  26 H :    0.121275
  27 H :    0.125935
  28 H :    0.129480
  29 H :    0.131178
  30 H :    0.131539
  31 H :    0.121740
  32 H :    0.110314
  33 H :    0.129611
  34 H :    0.130789
  35 H :    0.121356
  36 H :    0.110014
  37 H :    0.115829
  38 H :    0.129804
  39 H :    0.124800
  40 H :    0.123082

  Mayer bond orders larger than 0.100000
B(  0-C ,  1-C ) :   1.1696 B(  0-C , 19-H ) :   0.9349 B(  0-C , 20-H ) :   0.9234
B(  0-C , 21-H ) :   0.9395 B(  1-C ,  2-O ) :   0.9007 B(  1-C , 22-H ) :   0.9339
B(  1-C , 23-H ) :   0.9265 B(  2-O ,  3-P ) :   1.1408 B(  3-P ,  4-S ) :   1.6392
B(  3-P ,  5-O ) :   1.0727 B(  3-P ,  8-S ) :   0.9353 B(  4-S ,  8-S ) :   0.1064
B(  5-O ,  6-C ) :   0.8986 B(  6-C ,  7-C ) :   1.1576 B(  6-C , 24-H ) :   0.9013
B(  6-C , 25-H ) :   0.9212 B(  7-C , 26-H ) :   0.9503 B(  7-C , 27-H ) :   0.9483
B(  7-C , 28-H ) :   0.9419 B(  8-S ,  9-C ) :   1.0193 B(  9-C , 10-S ) :   0.9945
B(  9-C , 29-H ) :   0.8843 B(  9-C , 30-H ) :   0.8792 B( 10-S , 11-P ) :   0.9481
B( 10-S , 12-S ) :   0.1086 B( 11-P , 12-S ) :   1.5949 B( 11-P , 13-O ) :   1.1120
B( 11-P , 16-O ) :   1.1055 B( 13-O , 14-C ) :   0.9133 B( 14-C , 15-C ) :   1.1654
B( 14-C , 31-H ) :   0.9340 B( 14-C , 32-H ) :   0.9281 B( 15-C , 33-H ) :   0.9424
B( 15-C , 34-H ) :   0.9346 B( 15-C , 35-H ) :   0.9335 B( 16-O , 17-C ) :   0.9021
B( 17-C , 18-C ) :   1.1606 B( 17-C , 36-H ) :   0.9115 B( 17-C , 37-H ) :   0.9236
B( 18-C , 38-H ) :   0.9400 B( 18-C , 39-H ) :   0.9459 B( 18-C , 40-H ) :   0.9330

Dispersion correction           -0.067517510
FINAL SINGLE POINT ENERGY     -2929.520525436170

DIPOLE MOMENT
-------------

Method             : SCF
Type of density    : Electron Density
Multiplicity       :   1
Irrep              :   0
Energy             : -2929.6392079613028727 Eh
Relativity type    :
Basis              : AO
                                X                 Y                 Z
Electronic contribution:      8.630475333      15.462039843      -8.830715826
Nuclear contribution   :     -9.314918176     -16.740959555       9.660425045
                        -----------------------------------------
Total Dipole Moment    :     -0.684442844      -1.278919711       0.829709219
                        -----------------------------------------
Magnitude (a.u.)       :      1.671081991
Magnitude (Debye)      :      4.247552863

Rotational constants in cm-1:             0.011633             0.005579             0.005208
Rotational constants in MHz :           348.739278           167.251263           156.134882

                             ****ORCA TERMINATED NORMALLY****
TOTAL RUN TIME: 0 days 0 hours 0 minutes 21 seconds 891 msec
