                         Program Version 6.0.0  -   RELEASE  -
|  1> ! pbe def2-sv(p) def2/J RI DEFGRID1 loosescf d4 GCP(DFT/SV(P)) printgap
|  2> %output
|  3>     printlevel normal
|  4> end
|  5> * xyz 0 1
|  6> C 1.9926376688 -1.1231992336 -2.8064829797
|  7> C 3.2528537716 -0.4837477365 -2.2599636379
|  8> O 3.4227028801 -0.7379075797 -0.8541091411
|  9> P 2.6146142999 0.0320929827 0.2757878014
| 10> S 2.415257164 1.9673479846 0.0519128493
| 11> O 3.4667013395 -0.2817023333 1.5672853163
| 12> C 4.1347422102 -1.5346958282 1.8684824074
| 13> C 3.218389263 -2.5057505778 2.5862084804
| 14> S 0.802693637 -1.0583336842 0.4752633216
| 15> C -0.0989397201 0.2108787191 1.430237814
| 16> S -1.8676585211 -0.1079797877 1.445942464
| 17> P -2.3749091478 0.5935347326 -0.5146171476
| 18> S -0.9186692502 1.1639197651 -1.6859703114
| 19> O -3.4046152408 1.7574625805 -0.2584376488
| 20> C -4.5609606106 1.6096991281 0.6088469786
| 21> C -4.4117439151 2.5090633098 1.8191867478
| 22> O -3.3235558914 -0.5384131284 -1.1091857281
| 23> C -2.8310725162 -1.6959507286 -1.8083015185
| 24> C -2.3223420743 -2.7627256968 -0.8590723012
| 25> H 1.9346991402 -2.1638356185 -2.4984878501
| 26> H 1.1121425937 -0.5940199008 -2.4463144458
| 27> H 2.0073209621 -1.0669490497 -3.8900899846
| 28> H 3.2413000302 0.5988500213 -2.4218276492
| 29> H 4.1485711501 -0.9157915135 -2.709651729
| 30> H 4.5184971047 -1.9596119864 0.9402405518
| 31> H 4.9655159613 -1.228909305 2.5068367541
| 32> H 3.8014976503 -3.3644773649 2.9041452917
| 33> H 2.7808195128 -2.0314645499 3.4607021976
| 34> H 2.4201971223 -2.843266931 1.9301539496
| 35> H 0.1065863614 1.1828481708 0.975267872
| 36> H 0.2295106066 0.1824064871 2.4665241595
| 37> H -5.4150909614 1.9023046959 -0.0034637303
| 38> H -4.6585614437 0.5619632548 0.9007628745
| 39> H -3.5708295537 2.1882464578 2.4290342652
| 40> H -4.2448726766 3.5346713982 1.5016541577
| 41> H -5.3195450084 2.4600367795 2.4118424249
| 42> H -3.6972360111 -2.0448099089 -2.3730821788
| 43> H -2.0443546938 -1.3757979581 -2.4988961049
| 44> H -3.0714134679 -2.9796979861 -0.1023855383
| 45> H -2.1100902488 -3.6649731987 -1.4232267943
| 46> H -1.4078211633 -2.4355703497 -0.3669557727
| 47> *
| 48>
| 49>                          ****END OF INPUT****

CARTESIAN COORDINATES (ANGSTROEM)
---------------------------------
  C      1.992638   -1.123199   -2.806483
  C      3.252854   -0.483748   -2.259964
  O      3.422703   -0.737908   -0.854109
  P      2.614614    0.032093    0.275788
  S      2.415257    1.967348    0.051913
  O      3.466701   -0.281702    1.567285
  C      4.134742   -1.534696    1.868482
  C      3.218389   -2.505751    2.586208
  S      0.802694   -1.058334    0.475263
  C     -0.098940    0.210879    1.430238
  S     -1.867659   -0.107980    1.445942
  P     -2.374909    0.593535   -0.514617
  S     -0.918669    1.163920   -1.685970
  O     -3.404615    1.757463   -0.258438
  C     -4.560961    1.609699    0.608847
  C     -4.411744    2.509063    1.819187
  O     -3.323556   -0.538413   -1.109186
  C     -2.831073   -1.695951   -1.808302
  C     -2.322342   -2.762726   -0.859072
  H      1.934699   -2.163836   -2.498488
  H      1.112143   -0.594020   -2.446314
  H      2.007321   -1.066949   -3.890090
  H      3.241300    0.598850   -2.421828
  H      4.148571   -0.915792   -2.709652
  H      4.518497   -1.959612    0.940241
  H      4.965516   -1.228909    2.506837
  H      3.801498   -3.364477    2.904145
  H      2.780820   -2.031465    3.460702
  H      2.420197   -2.843267    1.930154
  H      0.106586    1.182848    0.975268
  H      0.229511    0.182406    2.466524
  H     -5.415091    1.902305   -0.003464
  H     -4.658561    0.561963    0.900763
  H     -3.570830    2.188246    2.429034
  H     -4.244873    3.534671    1.501654
  H     -5.319545    2.460037    2.411842
  H     -3.697236   -2.044810   -2.373082
  H     -2.044355   -1.375798   -2.498896
  H     -3.071413   -2.979698   -0.102386
  H     -2.110090   -3.664973   -1.423227
  H     -1.407821   -2.435570   -0.366956

 Total Charge           Charge          ....    0
 Multiplicity           Mult            ....    1
 Number of Electrons    NEL             ....  202
 Basis Dimension        Dim             ....  334

ORBITAL ENERGIES
----------------

  NO   OCC          E(Eh)            E(eV)
   0   2.0000     -88.048120     -2395.9112
   1   2.0000     -88.038607     -2395.6523
   2   2.0000     -87.985403     -2394.2045
   3   2.0000     -87.978496     -2394.0166
   4   2.0000     -76.425295     -2079.6380
   5   2.0000     -76.422486     -2079.5616
   6   2.0000     -18.793844      -511.4065
   7   2.0000     -18.790519      -511.3160
   8   2.0000     -18.790300      -511.3100
   9   2.0000     -18.785827      -511.1883
  10   2.0000      -9.959333      -271.0072
  11   2.0000      -9.954389      -270.8727
  12   2.0000      -9.952762      -270.8284
  13   2.0000      -9.952461      -270.8202
  14   2.0000      -9.950858      -270.7766
  15   2.0000      -9.886955      -269.0377
  16   2.0000      -9.886002      -269.0118
  17   2.0000      -9.883569      -268.9456
  18   2.0000      -9.878030      -268.7949
  19   2.0000      -7.692773      -209.3310
  20   2.0000      -7.682802      -209.0597
  21   2.0000      -7.630201      -207.6283
  22   2.0000      -7.623707      -207.4516
  23   2.0000      -6.423037      -174.7797
  24   2.0000      -6.419936      -174.6953
  25   2.0000      -5.720603      -155.6655
  26   2.0000      -5.717258      -155.5745
  27   2.0000      -5.710625      -155.3940
  28   2.0000      -5.709863      -155.3733
  29   2.0000      -5.707655      -155.3132
  30   2.0000      -5.699622      -155.0946
  31   2.0000      -5.659288      -153.9971
  32   2.0000      -5.652733      -153.8187
  33   2.0000      -5.650531      -153.7588
  34   2.0000      -5.650463      -153.7569
  35   2.0000      -5.644457      -153.5935
  36   2.0000      -5.643609      -153.5704
  37   2.0000      -4.645701      -126.4160
  38   2.0000      -4.644766      -126.3905
  39   2.0000      -4.643415      -126.3537
  40   2.0000      -4.643032      -126.3433
  41   2.0000      -4.641494      -126.3015
  42   2.0000      -4.640104      -126.2637
  43   2.0000      -0.987248       -26.8644
  44   2.0000      -0.985578       -26.8189
  45   2.0000      -0.943482       -25.6735
  46   2.0000      -0.941430       -25.6176
  47   2.0000      -0.761889       -20.7321
  48   2.0000      -0.720663       -19.6102
  49   2.0000      -0.711754       -19.3678
  50   2.0000      -0.689357       -18.7584
  51   2.0000      -0.687609       -18.7108
  52   2.0000      -0.677320       -18.4308
  53   2.0000      -0.649110       -17.6632
  54   2.0000      -0.632086       -17.1999
  55   2.0000      -0.595643       -16.2083
  56   2.0000      -0.587872       -15.9968
  57   2.0000      -0.576508       -15.6876
  58   2.0000      -0.575465       -15.6592
  59   2.0000      -0.556985       -15.1563
  60   2.0000      -0.504448       -13.7267
  61   2.0000      -0.497368       -13.5341
  62   2.0000      -0.474896       -12.9226
  63   2.0000      -0.471948       -12.8424
  64   2.0000      -0.453260       -12.3338
  65   2.0000      -0.446028       -12.1370
  66   2.0000      -0.442392       -12.0381
  67   2.0000      -0.439702       -11.9649
  68   2.0000      -0.431444       -11.7402
  69   2.0000      -0.424144       -11.5415
  70   2.0000      -0.408463       -11.1148
  71   2.0000      -0.395253       -10.7554
  72   2.0000      -0.393025       -10.6948
  73   2.0000      -0.383795       -10.4436
  74   2.0000      -0.374296       -10.1851
  75   2.0000      -0.370649       -10.0859
  76   2.0000      -0.364492        -9.9183
  77   2.0000      -0.357490        -9.7278
  78   2.0000      -0.355888        -9.6842
  79   2.0000      -0.350497        -9.5375
  80   2.0000      -0.349055        -9.4983
  81   2.0000      -0.346897        -9.4395
  82   2.0000      -0.343769        -9.3544
  83   2.0000      -0.337554        -9.1853
  84   2.0000      -0.329297        -8.9606
  85   2.0000      -0.315372        -8.5817
  86   2.0000      -0.312200        -8.4954
  87   2.0000      -0.302773        -8.2389
  88   2.0000      -0.297382        -8.0922
  89   2.0000      -0.295437        -8.0393
  90   2.0000      -0.288246        -7.8436
  91   2.0000      -0.273556        -7.4438
  92   2.0000      -0.269139        -7.3236
  93   2.0000      -0.262000        -7.1294
  94   2.0000      -0.257695        -7.0122
  95   2.0000      -0.231841        -6.3087
  96   2.0000      -0.219216        -5.9652
  97   2.0000      -0.208171        -5.6646
  98   2.0000      -0.200475        -5.4552
  99   2.0000      -0.194139        -5.2828
 100   2.0000      -0.187487        -5.1018
 101   0.0000      -0.047094        -1.2815
 102   0.0000      -0.033116        -0.9011
 103   0.0000      -0.014758        -0.4016
 104   0.0000       0.008339         0.2269
 105   0.0000       0.016284         0.4431

MULLIKEN ATOMIC CHARGES
-----------------------
   0 C :   -0.343436
   1 C :    0.000332
   2 O :   -0.386463
   3 P :    0.634978
   4 S :   -0.302567
   5 O :   -0.366754
   6 C :   -0.010410
   7 C :   -0.302565
   8 S :   -0.131955
   9 C :   -0.334620
  10 S :   -0.126198
  11 P :    0.589887
  12 S :   -0.274417
  13 O :   -0.355252
  14 C :   -0.020326
  15 C :   -0.281436
  16 O :   -0.377858
  17 C :   -0.001048
  18 C :   -0.322537
  19 H :    0.106335
  20 H :    0.166360
  21 H :    0.110986
  22 H :    0.113414
  23 H :    0.102607
  24 H :    0.111366
  25 H :    0.109805
  26 H :    0.108832
  27 H :    0.114839
  28 H :    0.125324
  29 H :    0.208494
  30 H :    0.180308
  31 H :    0.115075
  32 H :    0.107858
  33 H :    0.119008
  34 H :    0.123475
  35 H :    0.109033
  36 H :    0.104492
  37 H :    0.109321
  38 H :    0.111832
  39 H :    0.108947
  40 H :    0.144937
Sum of atomic charges:    0.0000000

LOEWDIN ATOMIC CHARGES
----------------------
   0 C :   -0.376316
   1 C :   -0.114290
   2 O :   -0.245409
   3 P :    0.569144
   4 S :   -0.296235
   5 O :   -0.245470
   6 C :   -0.110364
   7 C :   -0.366532
   8 S :    0.070398
   9 C :   -0.478743
  10 S :    0.073448
  11 P :    0.562933
  12 S :   -0.270999
  13 O :   -0.238380
  14 C :   -0.112751
  15 C :   -0.357949
  16 O :   -0.250915
  17 C :   -0.115656
  18 C :   -0.370051
  19 H :    0.120674
  20 H :    0.120849
  21 H :    0.130986
  22 H :    0.113911
  23 H :    0.117006
  24 H :    0.113182
  25 H :    0.121492
  26 H :    0.129034
  27 H :    0.126218
  28 H :    0.117300
  29 H :    0.124118
  30 H :    0.133129
  31 H :    0.123393
  32 H :    0.106637
  33 H :    0.122001
  34 H :    0.131117
  35 H :    0.129273
  36 H :    0.118428
  37 H :    0.110027
  38 H :    0.124117
  39 H :    0.129781
  40 H :    0.111465

  Mayer bond orders larger than 0.100000
B(  0-C ,  1-C ) :   1.1678 B(  0-C , 19-H ) :   0.9450 B(  0-C , 20-H ) :   0.9175
B(  0-C , 21-H ) :   0.9376 B(  1-C ,  2-O ) :   0.9034 B(  1-C , 22-H ) :   0.9138
B(  1-C , 23-H ) :   0.9350 B(  2-O ,  3-P ) :   1.0898 B(  3-P ,  4-S ) :   1.6591
B(  3-P ,  5-O ) :   1.1260 B(  3-P ,  8-S ) :   0.9442 B(  4-S ,  8-S ) :   0.1136
B(  5-O ,  6-C ) :   0.9024 B(  6-C ,  7-C ) :   1.1669 B(  6-C , 24-H ) :   0.9206
B(  6-C , 25-H ) :   0.9363 B(  7-C , 26-H ) :   0.9378 B(  7-C , 27-H ) :   0.9480
B(  7-C , 28-H ) :   0.9346 B(  8-S ,  9-C ) :   0.9801 B(  9-C , 10-S ) :   1.0212
B(  9-C , 29-H ) :   0.8540 B(  9-C , 30-H ) :   0.9060 B( 10-S , 11-P ) :   0.9147
B( 10-S , 12-S ) :   0.1144 B( 11-P , 12-S ) :   1.6747 B( 11-P , 13-O ) :   1.1436
B( 11-P , 16-O ) :   1.0889 B( 13-O , 14-C ) :   0.8875 B( 14-C , 15-C ) :   1.1632
B( 14-C , 31-H ) :   0.9336 B( 14-C , 32-H ) :   0.9183 B( 15-C , 33-H ) :   0.9409
B( 15-C , 34-H ) :   0.9458 B( 15-C , 35-H ) :   0.9399 B( 16-O , 17-C ) :   0.9122
B( 17-C , 18-C ) :   1.1666 B( 17-C , 36-H ) :   0.9352 B( 17-C , 37-H ) :   0.9119
B( 18-C , 38-H ) :   0.9444 B( 18-C , 39-H ) :   0.9378 B( 18-C , 40-H ) :   0.9270

Dispersion correction           -0.064256644
FINAL SINGLE POINT ENERGY     -2929.512917736116

DIPOLE MOMENT
-------------

Method             : SCF
Type of density    : Electron Density
Multiplicity       :   1
Irrep              :   0
Energy             : -2929.6325962296809848 Eh
Relativity type    :
Basis              : AO
                                X                 Y                 Z
Electronic contribution:      3.652657391      13.914898836      -1.375809654
Nuclear contribution   :     -4.233239645     -15.677948488       1.783511561
                        -----------------------------------------
Total Dipole Moment    :     -0.580582254      -1.763049651       0.407701907
                        -----------------------------------------
Magnitude (a.u.)       :      1.900431707
Magnitude (Debye)      :      4.830513511

Rotational constants in cm-1:             0.012122             0.004668             0.004520
Rotational constants in MHz :           363.394169           139.956932           135.518172

                             ****ORCA TERMINATED NORMALLY****
TOTAL RUN TIME: 0 days 0 hours 0 minutes 20 seconds 985 msec
