                         Program Version 6.0.0  -   RELEASE  -
|  1> ! pbe def2-sv(p) def2/J RI DEFGRID1 loosescf d4 GCP(DFT/SV(P)) printgap
|  2> %output
|  3>     printlevel normal
|  4> end
|  5> * xyz 0 1
|  6> C 1.1239695255 -0.0688814366 2.9190396763
|  7> C 2.6269814835 -0.0637112551 2.7295759328
|  8> O 3.0141804771 0.5718448697 1.4986838074
|  9> P 2.727774038 -0.0795072314 0.0770515613
| 10> S 2.9412012504 -2.0316491164 0.0015306008
| 11> O 3.6807561914 0.7626353197 -0.8651072085
| 12> C 5.0505437709 0.383120592 -1.115069837
| 13> C 5.9126905078 0.49712227 0.1247835989
| 14> S 0.8872071818 0.7396590424 -0.5896197048
| 15> C 0.0272405491 -0.7938850398 -1.050408543
| 16> S -1.2901580669 -1.2270055128 0.106603252
| 17> P -2.7053280548 0.1919304189 -0.6265749261
| 18> S -2.7751976227 0.3523383213 -2.5740740121
| 19> O -2.3919465382 1.5640488489 0.0692479162
| 20> C -2.2983256434 1.7264466719 1.5098783843
| 21> C -1.371634982 2.8930114772 1.7817157996
| 22> O -4.0483340888 -0.2574341165 0.0915692885
| 23> C -4.7442659376 -1.4597559719 -0.3016000407
| 24> C -6.1344165519 -1.405515608 0.298208507
| 25> H 0.8870581391 -0.4604437189 3.9030572356
| 26> H 0.7311454457 0.9402703154 2.8278835604
| 27> H 0.6541755576 -0.7047342071 2.1682529643
| 28> H 3.0178481174 -1.0863834077 2.7294146256
| 29> H 3.1277271999 0.5264456874 3.4982082516
| 30> H 5.0593920455 -0.6419982271 -1.4992869238
| 31> H 5.3711288845 1.0736886398 -1.8962485776
| 32> H 6.9496415625 0.318637532 -0.1424908432
| 33> H 5.8153472205 1.4884471591 0.5594005411
| 34> H 5.6054024521 -0.2435103886 0.861725165
| 35> H 0.7403053406 -1.6209105364 -1.050306061
| 36> H -0.4151625812 -0.6471964389 -2.0364912374
| 37> H -3.3061526029 1.914246521 1.883523444
| 38> H -1.9179261594 0.7968884628 1.9436167524
| 39> H -1.7687865128 3.7965370373 1.3284862122
| 40> H -1.2830440328 3.0371596165 2.8538502644
| 41> H -0.3906351434 2.698529645 1.3542476013
| 42> H -4.7777639973 -1.5005200657 -1.3951782284
| 43> H -4.1787662237 -2.317535306 0.0719087226
| 44> H -6.6761108522 -2.3041286538 0.0221561654
| 45> H -6.0694097558 -1.3417692537 1.3803003165
| 46> H -6.6679873384 -0.5361651561 -0.0755341298
| 47> *
| 48>
| 49>                          ****END OF INPUT****

CARTESIAN COORDINATES (ANGSTROEM)
---------------------------------
  C      1.123970   -0.068881    2.919040
  C      2.626981   -0.063711    2.729576
  O      3.014180    0.571845    1.498684
  P      2.727774   -0.079507    0.077052
  S      2.941201   -2.031649    0.001531
  O      3.680756    0.762635   -0.865107
  C      5.050544    0.383121   -1.115070
  C      5.912691    0.497122    0.124784
  S      0.887207    0.739659   -0.589620
  C      0.027241   -0.793885   -1.050409
  S     -1.290158   -1.227006    0.106603
  P     -2.705328    0.191930   -0.626575
  S     -2.775198    0.352338   -2.574074
  O     -2.391947    1.564049    0.069248
  C     -2.298326    1.726447    1.509878
  C     -1.371635    2.893011    1.781716
  O     -4.048334   -0.257434    0.091569
  C     -4.744266   -1.459756   -0.301600
  C     -6.134417   -1.405516    0.298209
  H      0.887058   -0.460444    3.903057
  H      0.731145    0.940270    2.827884
  H      0.654176   -0.704734    2.168253
  H      3.017848   -1.086383    2.729415
  H      3.127727    0.526446    3.498208
  H      5.059392   -0.641998   -1.499287
  H      5.371129    1.073689   -1.896249
  H      6.949642    0.318638   -0.142491
  H      5.815347    1.488447    0.559401
  H      5.605402   -0.243510    0.861725
  H      0.740305   -1.620911   -1.050306
  H     -0.415163   -0.647196   -2.036491
  H     -3.306153    1.914247    1.883523
  H     -1.917926    0.796888    1.943617
  H     -1.768787    3.796537    1.328486
  H     -1.283044    3.037160    2.853850
  H     -0.390635    2.698530    1.354248
  H     -4.777764   -1.500520   -1.395178
  H     -4.178766   -2.317535    0.071909
  H     -6.676111   -2.304129    0.022156
  H     -6.069410   -1.341769    1.380300
  H     -6.667987   -0.536165   -0.075534

 Total Charge           Charge          ....    0
 Multiplicity           Mult            ....    1
 Number of Electrons    NEL             ....  202
 Basis Dimension        Dim             ....  334

ORBITAL ENERGIES
----------------

  NO   OCC          E(Eh)            E(eV)
   0   2.0000     -88.043327     -2395.7807
   1   2.0000     -88.042241     -2395.7512
   2   2.0000     -87.996785     -2394.5142
   3   2.0000     -87.984107     -2394.1693
   4   2.0000     -76.429862     -2079.7623
   5   2.0000     -76.425316     -2079.6386
   6   2.0000     -18.796467      -511.4779
   7   2.0000     -18.796043      -511.4663
   8   2.0000     -18.794851      -511.4339
   9   2.0000     -18.791738      -511.3492
  10   2.0000      -9.957016      -270.9442
  11   2.0000      -9.956468      -270.9293
  12   2.0000      -9.956087      -270.9189
  13   2.0000      -9.954231      -270.8684
  14   2.0000      -9.949136      -270.7298
  15   2.0000      -9.891030      -269.1486
  16   2.0000      -9.887641      -269.0564
  17   2.0000      -9.887628      -269.0560
  18   2.0000      -9.886516      -269.0258
  19   2.0000      -7.687991      -209.2009
  20   2.0000      -7.687285      -209.1817
  21   2.0000      -7.641563      -207.9375
  22   2.0000      -7.629437      -207.6075
  23   2.0000      -6.427757      -174.9082
  24   2.0000      -6.423280      -174.7863
  25   2.0000      -5.715537      -155.5277
  26   2.0000      -5.715120      -155.5163
  27   2.0000      -5.712557      -155.4466
  28   2.0000      -5.711946      -155.4299
  29   2.0000      -5.705315      -155.2495
  30   2.0000      -5.704112      -155.2168
  31   2.0000      -5.670248      -154.2953
  32   2.0000      -5.662438      -154.0828
  33   2.0000      -5.661731      -154.0635
  34   2.0000      -5.658440      -153.9740
  35   2.0000      -5.649981      -153.7438
  36   2.0000      -5.649546      -153.7320
  37   2.0000      -4.650036      -126.5339
  38   2.0000      -4.649367      -126.5157
  39   2.0000      -4.648571      -126.4940
  40   2.0000      -4.646156      -126.4283
  41   2.0000      -4.645055      -126.3984
  42   2.0000      -4.643359      -126.3522
  43   2.0000      -0.991421       -26.9780
  44   2.0000      -0.989895       -26.9364
  45   2.0000      -0.948628       -25.8135
  46   2.0000      -0.948201       -25.8018
  47   2.0000      -0.762422       -20.7465
  48   2.0000      -0.725431       -19.7400
  49   2.0000      -0.713688       -19.4204
  50   2.0000      -0.694179       -18.8896
  51   2.0000      -0.690693       -18.7947
  52   2.0000      -0.676663       -18.4129
  53   2.0000      -0.652337       -17.7510
  54   2.0000      -0.638780       -17.3821
  55   2.0000      -0.605997       -16.4900
  56   2.0000      -0.585381       -15.9290
  57   2.0000      -0.575868       -15.6702
  58   2.0000      -0.572178       -15.5698
  59   2.0000      -0.561460       -15.2781
  60   2.0000      -0.512767       -13.9531
  61   2.0000      -0.496077       -13.4989
  62   2.0000      -0.485838       -13.2203
  63   2.0000      -0.476431       -12.9643
  64   2.0000      -0.460903       -12.5418
  65   2.0000      -0.447051       -12.1649
  66   2.0000      -0.443227       -12.0608
  67   2.0000      -0.440452       -11.9853
  68   2.0000      -0.433460       -11.7951
  69   2.0000      -0.418679       -11.3928
  70   2.0000      -0.407423       -11.0866
  71   2.0000      -0.398036       -10.8311
  72   2.0000      -0.396278       -10.7833
  73   2.0000      -0.389355       -10.5949
  74   2.0000      -0.380815       -10.3625
  75   2.0000      -0.378340       -10.2952
  76   2.0000      -0.367470        -9.9994
  77   2.0000      -0.358850        -9.7648
  78   2.0000      -0.357117        -9.7177
  79   2.0000      -0.353925        -9.6308
  80   2.0000      -0.350903        -9.5486
  81   2.0000      -0.347569        -9.4578
  82   2.0000      -0.344017        -9.3612
  83   2.0000      -0.340032        -9.2527
  84   2.0000      -0.337008        -9.1704
  85   2.0000      -0.319578        -8.6962
  86   2.0000      -0.314842        -8.5673
  87   2.0000      -0.304421        -8.2837
  88   2.0000      -0.301414        -8.2019
  89   2.0000      -0.298873        -8.1327
  90   2.0000      -0.288451        -7.8492
  91   2.0000      -0.277433        -7.5493
  92   2.0000      -0.274158        -7.4602
  93   2.0000      -0.267568        -7.2809
  94   2.0000      -0.260184        -7.0800
  95   2.0000      -0.234101        -6.3702
  96   2.0000      -0.221685        -6.0323
  97   2.0000      -0.218162        -5.9365
  98   2.0000      -0.210311        -5.7229
  99   2.0000      -0.204363        -5.5610
 100   2.0000      -0.197783        -5.3820
 101   0.0000      -0.044216        -1.2032
 102   0.0000      -0.031066        -0.8453
 103   0.0000      -0.011360        -0.3091
 104   0.0000       0.006135         0.1669
 105   0.0000       0.017035         0.4635

MULLIKEN ATOMIC CHARGES
-----------------------
   0 C :   -0.344677
   1 C :    0.001691
   2 O :   -0.370807
   3 P :    0.612603
   4 S :   -0.332674
   5 O :   -0.365662
   6 C :   -0.002016
   7 C :   -0.309335
   8 S :   -0.068610
   9 C :   -0.371814
  10 S :   -0.108679
  11 P :    0.596442
  12 S :   -0.306857
  13 O :   -0.353384
  14 C :   -0.016897
  15 C :   -0.294028
  16 O :   -0.388064
  17 C :   -0.012779
  18 C :   -0.280562
  19 H :    0.111295
  20 H :    0.126116
  21 H :    0.136410
  22 H :    0.111501
  23 H :    0.104918
  24 H :    0.113091
  25 H :    0.109401
  26 H :    0.113294
  27 H :    0.119140
  28 H :    0.122281
  29 H :    0.196056
  30 H :    0.198606
  31 H :    0.109049
  32 H :    0.109398
  33 H :    0.121782
  34 H :    0.108524
  35 H :    0.139207
  36 H :    0.109028
  37 H :    0.105829
  38 H :    0.114239
  39 H :    0.114316
  40 H :    0.122628
Sum of atomic charges:    0.0000000

LOEWDIN ATOMIC CHARGES
----------------------
   0 C :   -0.372856
   1 C :   -0.118037
   2 O :   -0.243697
   3 P :    0.572593
   4 S :   -0.311263
   5 O :   -0.242537
   6 C :   -0.114038
   7 C :   -0.364926
   8 S :    0.097941
   9 C :   -0.489860
  10 S :    0.072405
  11 P :    0.562913
  12 S :   -0.306636
  13 O :   -0.232526
  14 C :   -0.113573
  15 C :   -0.355816
  16 O :   -0.252603
  17 C :   -0.118427
  18 C :   -0.350312
  19 H :    0.130870
  20 H :    0.125294
  21 H :    0.114756
  22 H :    0.109951
  23 H :    0.118770
  24 H :    0.112287
  25 H :    0.121221
  26 H :    0.130990
  27 H :    0.127515
  28 H :    0.122358
  29 H :    0.125496
  30 H :    0.127782
  31 H :    0.116659
  32 H :    0.104401
  33 H :    0.130551
  34 H :    0.128279
  35 H :    0.124845
  36 H :    0.111745
  37 H :    0.109514
  38 H :    0.132030
  39 H :    0.125924
  40 H :    0.130014

  Mayer bond orders larger than 0.100000
B(  0-C ,  1-C ) :   1.1629 B(  0-C , 19-H ) :   0.9365 B(  0-C , 20-H ) :   0.9361
B(  0-C , 21-H ) :   0.9263 B(  1-C ,  2-O ) :   0.9124 B(  1-C , 22-H ) :   0.9153
B(  1-C , 23-H ) :   0.9328 B(  2-O ,  3-P ) :   1.1038 B(  3-P ,  4-S ) :   1.5818
B(  3-P ,  5-O ) :   1.1407 B(  3-P ,  8-S ) :   0.9626 B(  4-S ,  8-S ) :   0.1166
B(  4-S , 29-H ) :   0.1068 B(  5-O ,  6-C ) :   0.9091 B(  6-C ,  7-C ) :   1.1627
B(  6-C , 24-H ) :   0.9200 B(  6-C , 25-H ) :   0.9352 B(  7-C , 26-H ) :   0.9381
B(  7-C , 27-H ) :   0.9457 B(  7-C , 28-H ) :   0.9383 B(  8-S ,  9-C ) :   1.0067
B(  9-C , 10-S ) :   1.0069 B(  9-C , 29-H ) :   0.8537 B(  9-C , 30-H ) :   0.8627
B( 10-S , 11-P ) :   0.9481 B( 10-S , 12-S ) :   0.1083 B( 11-P , 12-S ) :   1.6588
B( 11-P , 13-O ) :   1.1504 B( 11-P , 16-O ) :   1.0875 B( 13-O , 14-C ) :   0.8826
B( 14-C , 15-C ) :   1.1712 B( 14-C , 31-H ) :   0.9311 B( 14-C , 32-H ) :   0.9083
B( 15-C , 33-H ) :   0.9454 B( 15-C , 34-H ) :   0.9382 B( 15-C , 35-H ) :   0.9327
B( 16-O , 17-C ) :   0.9028 B( 17-C , 18-C ) :   1.1603 B( 17-C , 36-H ) :   0.9123
B( 17-C , 37-H ) :   0.9286 B( 18-C , 38-H ) :   0.9416 B( 18-C , 39-H ) :   0.9511
B( 18-C , 40-H ) :   0.9507

Dispersion correction           -0.062510921
FINAL SINGLE POINT ENERGY     -2929.523244603647

DIPOLE MOMENT
-------------

Method             : SCF
Type of density    : Electron Density
Multiplicity       :   1
Irrep              :   0
Energy             : -2929.6449461060947215 Eh
Relativity type    :
Basis              : AO
                                X                 Y                 Z
Electronic contribution:     -0.312618713      -2.935440289     -16.972093528
Nuclear contribution   :      0.466628345       2.989981216      18.689016397
                        -----------------------------------------
Total Dipole Moment    :      0.154009632       0.054540927       1.716922868
                        -----------------------------------------
Magnitude (a.u.)       :      1.724679047
Magnitude (Debye)      :      4.383785753

Rotational constants in cm-1:             0.014666             0.003925             0.003768
Rotational constants in MHz :           439.687678           117.665795           112.955374

                             ****ORCA TERMINATED NORMALLY****
TOTAL RUN TIME: 0 days 0 hours 0 minutes 20 seconds 511 msec
