                         Program Version 6.0.1  -  RELEASE   -
|  1> ! pbe def2-sv(p) def2/J RI DEFGRID1 loosescf d4 GCP(DFT/SV(P)) printgap
|  2> %output
|  3>     printlevel normal
|  4> end
|  5> * xyz 0 1
|  6> C 4.774253008 -3.6431455981 -1.737055255
|  7> C 3.7107530569 -3.0361974833 -0.8434578627
|  8> O 3.0491408252 -1.9910186558 -1.5851621739
|  9> C 2.3074024914 -1.1332902428 -0.9306714981
| 10> O 2.1255318047 -1.1557361483 0.2726555474
| 11> C 1.7077037552 -0.0770437667 -1.8336165147
| 12> C 0.4798896279 0.5146220386 -1.1547490128
| 13> H 0.1364806446 1.4130291503 -1.6744831263
| 14> C 0.7701846396 0.8809306082 0.2870321792
| 15> O 0.0196989086 0.5753097922 1.1981878462
| 16> O 1.8248012415 1.6365545248 0.4044976816
| 17> C 2.1482835359 2.1540896504 1.7135303163
| 18> C 1.3686500209 3.4289582733 1.9909637207
| 19> S -0.8937217835 -0.6943171309 -1.1508644635
| 20> P -2.1932566921 0.1622269271 0.2925125028
| 21> S -2.3270397757 2.1222177757 0.4349746386
| 22> O -3.5650823655 -0.4459507564 -0.2903890111
| 23> C -4.1176838123 0.0149898934 -1.5245225902
| 24> O -2.282299723 -0.7366554491 1.5983404272
| 25> C -1.8663453539 -0.3701145136 2.9132071859
| 26> H 4.3178188301 -4.0373497745 -2.6396464097
| 27> H 5.5059981967 -2.8902364592 -2.0136378625
| 28> H 5.2717947907 -4.4477091676 -1.2060148027
| 29> H 4.1355804228 -2.6010115938 0.0663506119
| 30> H 2.9564562072 -3.7741182913 -0.5543987975
| 31> H 1.4535499953 -0.5147054723 -2.7975633114
| 32> H 2.4538334332 0.7067594301 -1.9818500734
| 33> H 1.9250456544 1.383095829 2.4553296569
| 34> H 3.2210016457 2.3415146248 1.6699547488
| 35> H 0.2981218999 3.2329244545 1.9591235642
| 36> H 1.6286462769 3.802529061 2.9756037475
| 37> H 1.6039560973 4.183136574 1.2455117179
| 38> H -3.5263787905 -0.3529378054 -2.3636325432
| 39> H -4.144714683 1.1068343005 -1.5378912478
| 40> H -5.1263631286 -0.388490819 -1.561403823
| 41> H -2.5855211244 -0.8295435826 3.5882620375
| 42> H -1.873363392 0.714667034 3.028120293
| 43> H -0.8627095567 -0.7511894547 3.0948940921
| 44> *
| 45>
| 46>                          ****END OF INPUT****

CARTESIAN COORDINATES (ANGSTROEM)
---------------------------------
  C      4.774253   -3.643146   -1.737055
  C      3.710753   -3.036197   -0.843458
  O      3.049141   -1.991019   -1.585162
  C      2.307402   -1.133290   -0.930671
  O      2.125532   -1.155736    0.272656
  C      1.707704   -0.077044   -1.833617
  C      0.479890    0.514622   -1.154749
  H      0.136481    1.413029   -1.674483
  C      0.770185    0.880931    0.287032
  O      0.019699    0.575310    1.198188
  O      1.824801    1.636555    0.404498
  C      2.148284    2.154090    1.713530
  C      1.368650    3.428958    1.990964
  S     -0.893722   -0.694317   -1.150864
  P     -2.193257    0.162227    0.292513
  S     -2.327040    2.122218    0.434975
  O     -3.565082   -0.445951   -0.290389
  C     -4.117684    0.014990   -1.524523
  O     -2.282300   -0.736655    1.598340
  C     -1.866345   -0.370115    2.913207
  H      4.317819   -4.037350   -2.639646
  H      5.505998   -2.890236   -2.013638
  H      5.271795   -4.447709   -1.206015
  H      4.135580   -2.601012    0.066351
  H      2.956456   -3.774118   -0.554399
  H      1.453550   -0.514705   -2.797563
  H      2.453833    0.706759   -1.981850
  H      1.925046    1.383096    2.455330
  H      3.221002    2.341515    1.669955
  H      0.298122    3.232924    1.959124
  H      1.628646    3.802529    2.975604
  H      1.603956    4.183137    1.245512
  H     -3.526379   -0.352938   -2.363633
  H     -4.144715    1.106834   -1.537891
  H     -5.126363   -0.388491   -1.561404
  H     -2.585521   -0.829544    3.588262
  H     -1.873363    0.714667    3.028120
  H     -0.862710   -0.751189    3.094894

 Total Charge           Charge          ....    0
 Multiplicity           Mult            ....    1
 Number of Electrons    NEL             ....  174
 Basis Dimension        Dim             ....  316

ORBITAL ENERGIES
----------------

  NO   OCC          E(Eh)            E(eV)
   0   2.0000     -88.029366     -2395.4008
   1   2.0000     -87.963220     -2393.6009
   2   2.0000     -76.413042     -2079.3046
   3   2.0000     -18.819087      -512.0934
   4   2.0000     -18.814154      -511.9591
   5   2.0000     -18.770418      -510.7691
   6   2.0000     -18.762697      -510.5589
   7   2.0000     -18.753595      -510.3113
   8   2.0000     -18.749121      -510.1895
   9   2.0000     -10.025010      -272.7944
  10   2.0000     -10.023969      -272.7661
  11   2.0000      -9.960096      -271.0280
  12   2.0000      -9.952233      -270.8140
  13   2.0000      -9.948262      -270.7060
  14   2.0000      -9.925724      -270.0927
  15   2.0000      -9.925230      -270.0792
  16   2.0000      -9.922810      -270.0134
  17   2.0000      -9.898887      -269.3624
  18   2.0000      -9.883167      -268.9346
  19   2.0000      -7.674326      -208.8290
  20   2.0000      -7.608410      -207.0354
  21   2.0000      -6.407918      -174.3683
  22   2.0000      -5.702350      -155.1688
  23   2.0000      -5.698866      -155.0740
  24   2.0000      -5.691143      -154.8639
  25   2.0000      -5.637513      -153.4045
  26   2.0000      -5.629392      -153.1835
  27   2.0000      -5.627988      -153.1454
  28   2.0000      -4.630476      -126.0016
  29   2.0000      -4.630049      -125.9900
  30   2.0000      -4.628570      -125.9498
  31   2.0000      -1.028966       -27.9996
  32   2.0000      -1.023208       -27.8429
  33   2.0000      -0.963076       -26.2066
  34   2.0000      -0.931561       -25.3491
  35   2.0000      -0.928279       -25.2597
  36   2.0000      -0.915816       -24.9206
  37   2.0000      -0.767718       -20.8907
  38   2.0000      -0.724091       -19.7035
  39   2.0000      -0.706313       -19.2197
  40   2.0000      -0.686711       -18.6864
  41   2.0000      -0.655368       -17.8335
  42   2.0000      -0.623145       -16.9566
  43   2.0000      -0.612131       -16.6569
  44   2.0000      -0.601999       -16.3812
  45   2.0000      -0.597540       -16.2599
  46   2.0000      -0.563104       -15.3228
  47   2.0000      -0.522634       -14.2216
  48   2.0000      -0.507253       -13.8031
  49   2.0000      -0.497521       -13.5382
  50   2.0000      -0.487441       -13.2640
  51   2.0000      -0.470357       -12.7991
  52   2.0000      -0.456998       -12.4356
  53   2.0000      -0.452051       -12.3009
  54   2.0000      -0.439803       -11.9676
  55   2.0000      -0.432369       -11.7654
  56   2.0000      -0.422686       -11.5019
  57   2.0000      -0.418775       -11.3954
  58   2.0000      -0.411517       -11.1980
  59   2.0000      -0.404530       -11.0078
  60   2.0000      -0.395033       -10.7494
  61   2.0000      -0.391135       -10.6433
  62   2.0000      -0.388127       -10.5615
  63   2.0000      -0.378203       -10.2914
  64   2.0000      -0.372478       -10.1356
  65   2.0000      -0.368038       -10.0148
  66   2.0000      -0.366693        -9.9782
  67   2.0000      -0.358571        -9.7572
  68   2.0000      -0.352800        -9.6002
  69   2.0000      -0.341610        -9.2957
  70   2.0000      -0.336085        -9.1453
  71   2.0000      -0.331538        -9.0216
  72   2.0000      -0.326572        -8.8865
  73   2.0000      -0.313545        -8.5320
  74   2.0000      -0.304621        -8.2892
  75   2.0000      -0.297317        -8.0904
  76   2.0000      -0.285941        -7.7809
  77   2.0000      -0.279749        -7.6124
  78   2.0000      -0.273003        -7.4288
  79   2.0000      -0.265526        -7.2253
  80   2.0000      -0.252074        -6.8593
  81   2.0000      -0.239404        -6.5145
  82   2.0000      -0.238586        -6.4923
  83   2.0000      -0.232649        -6.3307
  84   2.0000      -0.212857        -5.7921
  85   2.0000      -0.185482        -5.0472
  86   2.0000      -0.175387        -4.7725
  87   0.0000      -0.041025        -1.1164
  88   0.0000      -0.032549        -0.8857
  89   0.0000      -0.024945        -0.6788
  90   0.0000       0.011951         0.3252
  91   0.0000       0.032635         0.8880

MULLIKEN ATOMIC CHARGES
-----------------------
   0 C :   -0.276156
   1 C :   -0.032704
   2 O :   -0.221308
   3 C :    0.118281
   4 O :   -0.197624
   5 C :   -0.098978
   6 C :   -0.277733
   7 H :    0.146747
   8 C :    0.248941
   9 O :   -0.209297
  10 O :   -0.229102
  11 C :   -0.009156
  12 C :   -0.313933
  13 S :   -0.103266
  14 P :    0.635084
  15 S :   -0.363258
  16 O :   -0.380852
  17 C :   -0.097411
  18 O :   -0.368096
  19 C :   -0.082048
  20 H :    0.119477
  21 H :    0.116559
  22 H :    0.116214
  23 H :    0.112799
  24 H :    0.116300
  25 H :    0.129793
  26 H :    0.139762
  27 H :    0.116021
  28 H :    0.101484
  29 H :    0.145681
  30 H :    0.110894
  31 H :    0.111595
  32 H :    0.103399
  33 H :    0.108541
  34 H :    0.117284
  35 H :    0.115650
  36 H :    0.112282
  37 H :    0.118134
Sum of atomic charges:   -0.0000000

LOEWDIN ATOMIC CHARGES
----------------------
   0 C :   -0.350258
   1 C :   -0.104963
   2 O :   -0.051352
   3 C :    0.036384
   4 O :   -0.146768
   5 C :   -0.250628
   6 C :   -0.259601
   7 H :    0.145986
   8 C :    0.027572
   9 O :   -0.155954
  10 O :   -0.040795
  11 C :   -0.103207
  12 C :   -0.359870
  13 S :    0.092816
  14 P :    0.592046
  15 S :   -0.359052
  16 O :   -0.263756
  17 C :   -0.223509
  18 O :   -0.237627
  19 C :   -0.207489
  20 H :    0.128940
  21 H :    0.127420
  22 H :    0.133105
  23 H :    0.119449
  24 H :    0.122360
  25 H :    0.143118
  26 H :    0.155222
  27 H :    0.123651
  28 H :    0.117524
  29 H :    0.133276
  30 H :    0.130143
  31 H :    0.124709
  32 H :    0.100424
  33 H :    0.104666
  34 H :    0.118228
  35 H :    0.115629
  36 H :    0.108574
  37 H :    0.113584

  Mayer bond orders larger than 0.100000
B(  0-C ,  1-C ) :   1.1558 B(  0-C , 20-H ) :   0.9482 B(  0-C , 21-H ) :   0.9512
B(  0-C , 22-H ) :   0.9433 B(  1-C ,  2-O ) :   0.8968 B(  1-C , 23-H ) :   0.9258
B(  1-C , 24-H ) :   0.9346 B(  2-O ,  3-C ) :   1.2616 B(  3-C ,  4-O ) :   1.9888
B(  3-C ,  5-C ) :   0.9963 B(  4-O ,  8-C ) :   0.1176 B(  5-C ,  6-C ) :   1.0569
B(  5-C , 25-H ) :   0.9033 B(  5-C , 26-H ) :   0.8745 B(  6-C ,  7-H ) :   0.8637
B(  6-C ,  8-C ) :   0.8916 B(  6-C , 13-S ) :   1.0336 B(  8-C ,  9-O ) :   1.8775
B(  8-C , 10-O ) :   1.2656 B(  9-O , 14-P ) :   0.1535 B( 10-O , 11-C ) :   0.8995
B( 11-C , 12-C ) :   1.1763 B( 11-C , 27-H ) :   0.9166 B( 11-C , 28-H ) :   0.9375
B( 12-C , 29-H ) :   0.9310 B( 12-C , 30-H ) :   0.9421 B( 12-C , 31-H ) :   0.9479
B( 13-S , 14-P ) :   0.9248 B( 13-S , 15-S ) :   0.1114 B( 14-P , 15-S ) :   1.5512
B( 14-P , 16-O ) :   1.0669 B( 14-P , 18-O ) :   1.1338 B( 16-O , 17-C ) :   0.9514
B( 17-C , 32-H ) :   0.9436 B( 17-C , 33-H ) :   0.9314 B( 17-C , 34-H ) :   0.9597
B( 18-O , 19-C ) :   0.9317 B( 19-C , 35-H ) :   0.9535 B( 19-C , 36-H ) :   0.9391
B( 19-C , 37-H ) :   0.9533

Dispersion correction           -0.051547407
FINAL SINGLE POINT ENERGY     -1979.010807202804

DIPOLE MOMENT
-------------

Method             : SCF
Type of density    : Electron Density
Multiplicity       :   1
Irrep              :   0
Energy             : -1979.1423772131120131 Eh
Relativity type    :
Basis              : AO
                                X                 Y                 Z
Electronic contribution:    -15.626022755       1.327755557      -1.913674773
Nuclear contribution   :     17.821457748      -1.815167114       1.427296504
                        -----------------------------------------
Total Dipole Moment    :      2.195434994      -0.487411557      -0.486378269
                        -----------------------------------------
Magnitude (a.u.)       :      2.300884321
Magnitude (Debye)      :      5.848383165

Rotational constants in cm-1:             0.013734             0.006529             0.005342
Rotational constants in MHz :           411.741534           195.739390           160.149534

                             ****ORCA TERMINATED NORMALLY****
TOTAL RUN TIME: 0 days 0 hours 0 minutes 32 seconds 838 msec
