                         Program Version 6.0.0  -   RELEASE  -
|  1> ! wb97x-v def2-tzvp def2/J RIJCOSX DEFGRID2 scfconv7 GCP(DFT/TZ) printgap
|  2> %output
|  3>     printlevel normal
|  4> end
|  5> %cpcm
|  6>     smd true
|  7>     smdsolvent "water"
|  8> end
|  9> * xyz 0 1
| 10> C -2.473711648883626 0.696005786035751 1.669107413242665e-05
| 11> C -2.473733170058754 -0.6959339662140417 1.3029801000414593e-05
| 12> C -1.2725056184578394 -1.3948347122007827 8.264475544685763e-06
| 13> C -0.06787474241153067 -0.6979756416871027 4.4437785120664045e-06
| 14> C -0.0678533501447226 0.6979736785701304 2.5797539041901724e-06
| 15> C -1.272462769135422 1.394869589864859 1.0083674969241064e-05
| 16> Cl 1.4308740402137403 1.5983533139877657 -1.188974857113569e-06
| 17> Cl 1.430824715448334 -1.5984016094865316 -5.169735110495522e-06
| 18> H -3.4081882903597553 1.2463726415714265 2.070464074285941e-05
| 19> H -3.4082267437613893 -1.2462721562739052 1.8804123270186012e-05
| 20> H -1.262046405636351 -2.4789013741272425 7.079272937901999e-06
| 21> H -1.261970333956305 2.478935906564976 1.0875681773738937e-05
| 22> *
| 23>
| 24>                          ****END OF INPUT****

CARTESIAN COORDINATES (ANGSTROEM)
---------------------------------
  C     -2.473712    0.696006    0.000017
  C     -2.473733   -0.695934    0.000013
  C     -1.272506   -1.394835    0.000008
  C     -0.067875   -0.697976    0.000004
  C     -0.067853    0.697974    0.000003
  C     -1.272463    1.394870    0.000010
  Cl     1.430874    1.598353   -0.000001
  Cl     1.430825   -1.598402   -0.000005
  H     -3.408188    1.246373    0.000021
  H     -3.408227   -1.246272    0.000019
  H     -1.262046   -2.478901    0.000007
  H     -1.261970    2.478936    0.000011

 Total Charge           Charge          ....    0
 Multiplicity           Mult            ....    1
 Number of Electrons    NEL             ....   74
 Basis Dimension        Dim             ....  284

ORBITAL ENERGIES
----------------

  NO   OCC          E(Eh)            E(eV)
   0   2.0000    -107.154394     -2915.8193
   1   2.0000    -107.154360     -2915.8184
   2   2.0000     -12.129505      -330.0606
   3   2.0000     -12.127336      -330.0016
   4   2.0000     -12.069173      -328.4189
   5   2.0000     -12.068969      -328.4133
   6   2.0000     -12.063641      -328.2684
   7   2.0000     -12.061598      -328.2128
   8   2.0000     -11.307529      -307.6935
   9   2.0000     -11.307485      -307.6923
  10   2.0000      -9.099410      -247.6075
  11   2.0000      -9.098767      -247.5900
  12   2.0000      -9.096802      -247.5366
  13   2.0000      -9.096419      -247.5261
  14   2.0000      -9.096335      -247.5239
  15   2.0000      -9.095926      -247.5127
  16   2.0000      -1.458170       -39.6788
  17   2.0000      -1.419580       -38.6287
  18   2.0000      -1.379735       -37.5445
  19   2.0000      -1.288704       -35.0674
  20   2.0000      -1.276155       -34.7259
  21   2.0000      -1.130933       -30.7742
  22   2.0000      -1.116922       -30.3930
  23   2.0000      -0.988777       -26.9060
  24   2.0000      -0.984873       -26.7998
  25   2.0000      -0.950775       -25.8719
  26   2.0000      -0.913754       -24.8645
  27   2.0000      -0.900001       -24.4903
  28   2.0000      -0.850761       -23.1504
  29   2.0000      -0.846435       -23.0327
  30   2.0000      -0.839180       -22.8353
  31   2.0000      -0.815300       -22.1854
  32   2.0000      -0.802763       -21.8443
  33   2.0000      -0.797288       -21.6953
  34   2.0000      -0.771529       -20.9944
  35   2.0000      -0.659627       -17.9494
  36   2.0000      -0.659367       -17.9423
  37   0.0000      -0.296286        -8.0624
  38   0.0000      -0.273156        -7.4330
  39   0.0000      -0.258735        -7.0405
  40   0.0000      -0.242599        -6.6015
  41   0.0000      -0.093673        -2.5490

MULLIKEN ATOMIC CHARGES
-----------------------
   0 C :   -0.153526
   1 C :   -0.153465
   2 C :   -0.196430
   3 C :    0.091533
   4 C :    0.091469
   5 C :   -0.196295
   6 Cl:   -0.088961
   7 Cl:   -0.088954
   8 H :    0.171742
   9 H :    0.171741
  10 H :    0.175567
  11 H :    0.175580
Sum of atomic charges:   -0.0000000

LOEWDIN ATOMIC CHARGES
----------------------
   0 C :   -0.128014
   1 C :   -0.128013
   2 C :   -0.135063
   3 C :   -0.431293
   4 C :   -0.431293
   5 C :   -0.135061
   6 Cl:    0.376491
   7 Cl:    0.376491
   8 H :    0.158037
   9 H :    0.158037
  10 H :    0.159841
  11 H :    0.159841

  Mayer bond orders larger than 0.100000
B(  0-C ,  1-C ) :   1.4045 B(  0-C ,  5-C ) :   1.4198 B(  0-C ,  8-H ) :   0.9688
B(  1-C ,  2-C ) :   1.4197 B(  1-C ,  9-H ) :   0.9688 B(  2-C ,  3-C ) :   1.3704
B(  2-C , 10-H ) :   0.9599 B(  3-C ,  4-C ) :   1.3028 B(  3-C ,  7-Cl) :   1.0699
B(  4-C ,  5-C ) :   1.3705 B(  4-C ,  6-Cl) :   1.0699 B(  5-C , 11-H ) :   0.9598

FINAL SINGLE POINT ENERGY     -1151.347942287748

DIPOLE MOMENT
-------------

Method             : SCF
Type of density    : Electron Density
Multiplicity       :   1
Irrep              :   0
Energy             : -1151.3537282050476733 Eh
Relativity type    :
Basis              : AO
                                X                 Y                 Z
Electronic contribution:     11.092791868      -0.000167225      -0.000052217
Nuclear contribution   :    -12.607011431       0.000193805       0.000058854
                        -----------------------------------------
Total Dipole Moment    :     -1.514219563       0.000026581       0.000006638
                        -----------------------------------------
Magnitude (a.u.)       :      1.514219563
Magnitude (Debye)      :      3.848840256

Rotational constants in cm-1:             0.063197             0.047115             0.026992
Rotational constants in MHz :          1894.600988          1412.461503           809.192740

                             ****ORCA TERMINATED NORMALLY****
TOTAL RUN TIME: 0 days 0 hours 2 minutes 15 seconds 74 msec
