                         Program Version 6.0.0  -   RELEASE  -
|  1> ! r2scan-3c def2/J RI DEFGRID2 scfconv6 printgap
|  2> %output
|  3>     printlevel normal
|  4> end
|  5> * xyz 0 1
|  6> C 4.0695449382 -2.6905873696 -0.3153137542
|  7> C 4.6182804526 -1.3600563437 0.1581934305
|  8> O 3.5949099046 -0.5214353514 0.7224139266
|  9> P 2.4215214576 0.0966208516 -0.1524330042
| 10> S 2.9417318125 0.7220438853 -1.9418827742
| 11> O 1.8323123592 1.195405944 0.8255722351
| 12> C 2.2593875772 2.5704368138 0.7867041267
| 13> C 3.6872370074 2.7269569209 1.2659494546
| 14> S 0.8720666275 -1.3313211939 -0.0487354319
| 15> C -0.1333045162 -0.6289517456 -1.376533983
| 16> S -0.9693069259 0.9293986966 -0.9281146449
| 17> P -2.6274648972 0.1384091845 0.0997623831
| 18> S -3.9693994682 1.4090693747 0.7500413675
| 19> O -2.0731990497 -0.8557759753 1.222090846
| 20> C -1.9389060602 -0.4582691859 2.5954303493
| 21> C -0.8723881511 0.6012242825 2.7808405374
| 22> O -3.1172666736 -0.8924221966 -1.0028112228
| 23> C -4.3194731722 -1.6703079696 -0.7913045557
| 24> C -4.7742174119 -2.1986360314 -2.1356604118
| 25> H 3.5057821831 -3.1715640784 0.4800310966
| 26> H 3.4110373652 -2.5390618182 -1.1696081276
| 27> H 4.8919066708 -3.3324029295 -0.6148165399
| 28> H 5.0878898176 -0.821816188 -0.6713493573
| 29> H 5.3329099021 -1.4848385436 0.9727796652
| 30> H 2.1485476908 2.9387936417 -0.2383641858
| 31> H 1.5519768873 3.0843091802 1.4388941986
| 32> H 3.8041636752 2.2796776089 2.2495187347
| 33> H 4.3664653566 2.2340808722 0.5712008543
| 34> H 3.9375873193 3.7820347055 1.3147517001
| 35> H -0.8771720079 -1.3693503185 -1.6524388908
| 36> H 0.5130869229 -0.3800625139 -2.2190711178
| 37> H -2.908179108 -0.0838616366 2.9403853696
| 38> H -1.6854472638 -1.3835888016 3.1139852322
| 39> H -0.7899884702 0.8503080527 3.8338315299
| 40> H 0.089972653 0.2481014736 2.4184622757
| 41> H -1.1489527433 1.4987671791 2.2259700868
| 42> H -4.0800810816 -2.4805976189 -0.0986287725
| 43> H -5.0760971784 -1.0211230623 -0.3376800984
| 44> H -4.9750225364 -1.3723827922 -2.811916777
| 45> H -4.0049264871 -2.8303205557 -2.5702009403
| 46> H -5.6810897391 -2.7789895556 -2.0002718455
| 47> *
| 48>
| 49>                          ****END OF INPUT****

CARTESIAN COORDINATES (ANGSTROEM)
---------------------------------
  C      4.069545   -2.690587   -0.315314
  C      4.618280   -1.360056    0.158193
  O      3.594910   -0.521435    0.722414
  P      2.421521    0.096621   -0.152433
  S      2.941732    0.722044   -1.941883
  O      1.832312    1.195406    0.825572
  C      2.259388    2.570437    0.786704
  C      3.687237    2.726957    1.265949
  S      0.872067   -1.331321   -0.048735
  C     -0.133305   -0.628952   -1.376534
  S     -0.969307    0.929399   -0.928115
  P     -2.627465    0.138409    0.099762
  S     -3.969399    1.409069    0.750041
  O     -2.073199   -0.855776    1.222091
  C     -1.938906   -0.458269    2.595430
  C     -0.872388    0.601224    2.780841
  O     -3.117267   -0.892422   -1.002811
  C     -4.319473   -1.670308   -0.791305
  C     -4.774217   -2.198636   -2.135660
  H      3.505782   -3.171564    0.480031
  H      3.411037   -2.539062   -1.169608
  H      4.891907   -3.332403   -0.614817
  H      5.087890   -0.821816   -0.671349
  H      5.332910   -1.484839    0.972780
  H      2.148548    2.938794   -0.238364
  H      1.551977    3.084309    1.438894
  H      3.804164    2.279678    2.249519
  H      4.366465    2.234081    0.571201
  H      3.937587    3.782035    1.314752
  H     -0.877172   -1.369350   -1.652439
  H      0.513087   -0.380063   -2.219071
  H     -2.908179   -0.083862    2.940385
  H     -1.685447   -1.383589    3.113985
  H     -0.789988    0.850308    3.833832
  H      0.089973    0.248101    2.418462
  H     -1.148953    1.498767    2.225970
  H     -4.080081   -2.480598   -0.098629
  H     -5.076097   -1.021123   -0.337680
  H     -4.975023   -1.372383   -2.811917
  H     -4.004926   -2.830321   -2.570201
  H     -5.681090   -2.778990   -2.000272

 Total Charge           Charge          ....    0
 Multiplicity           Mult            ....    1
 Number of Electrons    NEL             ....  202
 Basis Dimension        Dim             ....  539

ORBITAL ENERGIES
----------------

  NO   OCC          E(Eh)            E(eV)
   0   2.0000     -88.578705     -2410.3491
   1   2.0000     -88.574942     -2410.2467
   2   2.0000     -88.527299     -2408.9503
   3   2.0000     -88.518320     -2408.7059
   4   2.0000     -76.918531     -2093.0596
   5   2.0000     -76.912309     -2092.8903
   6   2.0000     -18.999103      -516.9919
   7   2.0000     -18.992447      -516.8108
   8   2.0000     -18.990066      -516.7460
   9   2.0000     -18.988092      -516.6922
  10   2.0000     -10.108045      -275.0539
  11   2.0000     -10.104103      -274.9466
  12   2.0000     -10.098717      -274.8001
  13   2.0000     -10.098300      -274.7887
  14   2.0000     -10.092629      -274.6344
  15   2.0000     -10.033830      -273.0344
  16   2.0000     -10.033422      -273.0233
  17   2.0000     -10.030451      -272.9424
  18   2.0000     -10.019214      -272.6367
  19   2.0000      -7.873266      -214.2425
  20   2.0000      -7.868955      -214.1251
  21   2.0000      -7.821941      -212.8458
  22   2.0000      -7.812938      -212.6009
  23   2.0000      -6.597183      -179.5185
  24   2.0000      -6.590667      -179.3412
  25   2.0000      -5.820097      -158.3729
  26   2.0000      -5.817152      -158.2928
  27   2.0000      -5.816292      -158.2694
  28   2.0000      -5.812579      -158.1683
  29   2.0000      -5.810338      -158.1073
  30   2.0000      -5.805891      -157.9863
  31   2.0000      -5.769477      -156.9955
  32   2.0000      -5.762286      -156.7998
  33   2.0000      -5.762014      -156.7924
  34   2.0000      -5.760596      -156.7538
  35   2.0000      -5.753374      -156.5573
  36   2.0000      -5.752799      -156.5416
  37   2.0000      -4.742569      -129.0519
  38   2.0000      -4.742022      -129.0370
  39   2.0000      -4.741082      -129.0114
  40   2.0000      -4.736129      -128.8766
  41   2.0000      -4.735717      -128.8654
  42   2.0000      -4.734339      -128.8279
  43   2.0000      -1.054795       -28.7024
  44   2.0000      -1.048018       -28.5180
  45   2.0000      -1.015990       -27.6465
  46   2.0000      -1.007706       -27.4211
  47   2.0000      -0.803429       -21.8624
  48   2.0000      -0.761346       -20.7173
  49   2.0000      -0.749793       -20.4029
  50   2.0000      -0.734729       -19.9930
  51   2.0000      -0.727328       -19.7916
  52   2.0000      -0.713317       -19.4104
  53   2.0000      -0.690290       -18.7837
  54   2.0000      -0.669929       -18.2297
  55   2.0000      -0.637002       -17.3337
  56   2.0000      -0.620561       -16.8863
  57   2.0000      -0.609250       -16.5785
  58   2.0000      -0.603720       -16.4280
  59   2.0000      -0.591770       -16.1029
  60   2.0000      -0.528938       -14.3931
  61   2.0000      -0.521700       -14.1962
  62   2.0000      -0.496916       -13.5218
  63   2.0000      -0.488969       -13.3055
  64   2.0000      -0.478190       -13.0122
  65   2.0000      -0.462677       -12.5901
  66   2.0000      -0.462078       -12.5738
  67   2.0000      -0.457195       -12.4409
  68   2.0000      -0.446072       -12.1382
  69   2.0000      -0.437260       -11.8985
  70   2.0000      -0.427211       -11.6250
  71   2.0000      -0.414057       -11.2671
  72   2.0000      -0.411670       -11.2021
  73   2.0000      -0.408711       -11.1216
  74   2.0000      -0.405086       -11.0230
  75   2.0000      -0.391062       -10.6413
  76   2.0000      -0.379264       -10.3203
  77   2.0000      -0.375838       -10.2271
  78   2.0000      -0.370845       -10.0912
  79   2.0000      -0.367745       -10.0069
  80   2.0000      -0.364822        -9.9273
  81   2.0000      -0.358425        -9.7532
  82   2.0000      -0.357987        -9.7413
  83   2.0000      -0.349622        -9.5137
  84   2.0000      -0.344608        -9.3773
  85   2.0000      -0.336120        -9.1463
  86   2.0000      -0.325717        -8.8632
  87   2.0000      -0.314845        -8.5674
  88   2.0000      -0.311648        -8.4804
  89   2.0000      -0.306756        -8.3473
  90   2.0000      -0.301192        -8.1958
  91   2.0000      -0.292903        -7.9703
  92   2.0000      -0.287298        -7.8178
  93   2.0000      -0.283988        -7.7277
  94   2.0000      -0.272387        -7.4120
  95   2.0000      -0.245256        -6.6738
  96   2.0000      -0.231274        -6.2933
  97   2.0000      -0.227977        -6.2036
  98   2.0000      -0.220910        -6.0113
  99   2.0000      -0.219463        -5.9719
 100   2.0000      -0.213190        -5.8012
 101   0.0000      -0.044420        -1.2087
 102   0.0000      -0.021642        -0.5889
 103   0.0000      -0.016861        -0.4588
 104   0.0000       0.005026         0.1368
 105   0.0000       0.007435         0.2023

MULLIKEN ATOMIC CHARGES
-----------------------
   0 C :   -0.455962
   1 C :   -0.148267
   2 O :   -0.305967
   3 P :    0.659245
   4 S :   -0.481253
   5 O :   -0.266576
   6 C :   -0.149810
   7 C :   -0.440283
   8 S :   -0.087716
   9 C :   -0.268120
  10 S :   -0.105062
  11 P :    0.683775
  12 S :   -0.467170
  13 O :   -0.274694
  14 C :   -0.145251
  15 C :   -0.458602
  16 O :   -0.307992
  17 C :   -0.145112
  18 C :   -0.446045
  19 H :    0.156119
  20 H :    0.178213
  21 H :    0.149131
  22 H :    0.171521
  23 H :    0.149707
  24 H :    0.173198
  25 H :    0.156017
  26 H :    0.156299
  27 H :    0.165284
  28 H :    0.148651
  29 H :    0.212237
  30 H :    0.214724
  31 H :    0.166438
  32 H :    0.145419
  33 H :    0.142983
  34 H :    0.177728
  35 H :    0.167274
  36 H :    0.152371
  37 H :    0.169850
  38 H :    0.161886
  39 H :    0.149032
  40 H :    0.146778
Sum of atomic charges:    0.0000000

LOEWDIN ATOMIC CHARGES
----------------------
   0 C :   -0.406761
   1 C :    0.020982
   2 O :   -0.659719
   3 P :    0.376253
   4 S :   -0.132567
   5 O :   -0.681742
   6 C :    0.021323
   7 C :   -0.398422
   8 S :    0.180074
   9 C :   -0.410173
  10 S :    0.193355
  11 P :    0.364660
  12 S :   -0.115706
  13 O :   -0.676203
  14 C :    0.016034
  15 C :   -0.408468
  16 O :   -0.694616
  17 C :    0.024160
  18 C :   -0.385661
  19 H :    0.160444
  20 H :    0.165884
  21 H :    0.160008
  22 H :    0.179634
  23 H :    0.180241
  24 H :    0.181311
  25 H :    0.182226
  26 H :    0.160859
  27 H :    0.163959
  28 H :    0.160146
  29 H :    0.195236
  30 H :    0.195497
  31 H :    0.179459
  32 H :    0.179000
  33 H :    0.157325
  34 H :    0.171909
  35 H :    0.165963
  36 H :    0.171280
  37 H :    0.181628
  38 H :    0.163308
  39 H :    0.157585
  40 H :    0.160296

  Mayer bond orders larger than 0.100000
B(  0-C ,  1-C ) :   0.9214 B(  0-C , 19-H ) :   0.9685 B(  0-C , 20-H ) :   0.9621
B(  0-C , 21-H ) :   0.9578 B(  1-C ,  2-O ) :   0.8142 B(  1-C , 22-H ) :   0.9666
B(  1-C , 23-H ) :   0.9581 B(  2-O ,  3-P ) :   1.0665 B(  3-P ,  4-S ) :   1.7524
B(  3-P ,  5-O ) :   1.1375 B(  3-P ,  8-S ) :   1.1032 B(  5-O ,  6-C ) :   0.7906
B(  6-C ,  7-C ) :   0.9209 B(  6-C , 24-H ) :   0.9633 B(  6-C , 25-H ) :   0.9615
B(  7-C , 26-H ) :   0.9724 B(  7-C , 27-H ) :   0.9601 B(  7-C , 28-H ) :   0.9620
B(  8-S ,  9-C ) :   0.9221 B(  9-C , 10-S ) :   0.9064 B(  9-C , 29-H ) :   0.9089
B(  9-C , 30-H ) :   0.9089 B( 10-S , 11-P ) :   1.0993 B( 11-P , 12-S ) :   1.8058
B( 11-P , 13-O ) :   1.0202 B( 11-P , 16-O ) :   1.1455 B( 13-O , 14-C ) :   0.7992
B( 14-C , 15-C ) :   0.9318 B( 14-C , 31-H ) :   0.9592 B( 14-C , 32-H ) :   0.9606
B( 15-C , 33-H ) :   0.9613 B( 15-C , 34-H ) :   0.9583 B( 15-C , 35-H ) :   0.9605
B( 16-O , 17-C ) :   0.7661 B( 17-C , 18-C ) :   0.9590 B( 17-C , 36-H ) :   0.9451
B( 17-C , 37-H ) :   0.9475 B( 18-C , 38-H ) :   0.9713 B( 18-C , 39-H ) :   0.9726
B( 18-C , 40-H ) :   0.9645

Dispersion correction           -0.021214122
FINAL SINGLE POINT ENERGY     -2932.464258974661

DIPOLE MOMENT
-------------

Method             : SCF
Type of density    : Electron Density
Multiplicity       :   1
Irrep              :   0
Energy             : -2932.4896712747668062 Eh
Relativity type    :
Basis              : AO
                                X                 Y                 Z
Electronic contribution:     -6.320401630       6.587033275      -6.180722241
Nuclear contribution   :      7.176033631      -7.906949376       6.867830803
                        -----------------------------------------
Total Dipole Moment    :      0.855632001      -1.319916101       0.687108562
                        -----------------------------------------
Magnitude (a.u.)       :      1.716508902
Magnitude (Debye)      :      4.363018894

Rotational constants in cm-1:             0.013035             0.004539             0.004136
Rotational constants in MHz :           390.784142           136.088766           124.002019

                             ****ORCA TERMINATED NORMALLY****
TOTAL RUN TIME: 0 days 0 hours 1 minutes 19 seconds 563 msec
