                         Program Version 6.0.0  -   RELEASE  -
|  1> ! r2scan-3c def2/J RI DEFGRID2 scfconv6 printgap
|  2> %output
|  3>     printlevel normal
|  4> end
|  5> %cpcm
|  6>     smd true
|  7>     smdsolvent "water"
|  8> end
|  9> * xyz 0 1
| 10> C 4.0695449382 -2.6905873696 -0.3153137542
| 11> C 4.6182804526 -1.3600563437 0.1581934305
| 12> O 3.5949099046 -0.5214353514 0.7224139266
| 13> P 2.4215214576 0.0966208516 -0.1524330042
| 14> S 2.9417318125 0.7220438853 -1.9418827742
| 15> O 1.8323123592 1.195405944 0.8255722351
| 16> C 2.2593875772 2.5704368138 0.7867041267
| 17> C 3.6872370074 2.7269569209 1.2659494546
| 18> S 0.8720666275 -1.3313211939 -0.0487354319
| 19> C -0.1333045162 -0.6289517456 -1.376533983
| 20> S -0.9693069259 0.9293986966 -0.9281146449
| 21> P -2.6274648972 0.1384091845 0.0997623831
| 22> S -3.9693994682 1.4090693747 0.7500413675
| 23> O -2.0731990497 -0.8557759753 1.222090846
| 24> C -1.9389060602 -0.4582691859 2.5954303493
| 25> C -0.8723881511 0.6012242825 2.7808405374
| 26> O -3.1172666736 -0.8924221966 -1.0028112228
| 27> C -4.3194731722 -1.6703079696 -0.7913045557
| 28> C -4.7742174119 -2.1986360314 -2.1356604118
| 29> H 3.5057821831 -3.1715640784 0.4800310966
| 30> H 3.4110373652 -2.5390618182 -1.1696081276
| 31> H 4.8919066708 -3.3324029295 -0.6148165399
| 32> H 5.0878898176 -0.821816188 -0.6713493573
| 33> H 5.3329099021 -1.4848385436 0.9727796652
| 34> H 2.1485476908 2.9387936417 -0.2383641858
| 35> H 1.5519768873 3.0843091802 1.4388941986
| 36> H 3.8041636752 2.2796776089 2.2495187347
| 37> H 4.3664653566 2.2340808722 0.5712008543
| 38> H 3.9375873193 3.7820347055 1.3147517001
| 39> H -0.8771720079 -1.3693503185 -1.6524388908
| 40> H 0.5130869229 -0.3800625139 -2.2190711178
| 41> H -2.908179108 -0.0838616366 2.9403853696
| 42> H -1.6854472638 -1.3835888016 3.1139852322
| 43> H -0.7899884702 0.8503080527 3.8338315299
| 44> H 0.089972653 0.2481014736 2.4184622757
| 45> H -1.1489527433 1.4987671791 2.2259700868
| 46> H -4.0800810816 -2.4805976189 -0.0986287725
| 47> H -5.0760971784 -1.0211230623 -0.3376800984
| 48> H -4.9750225364 -1.3723827922 -2.811916777
| 49> H -4.0049264871 -2.8303205557 -2.5702009403
| 50> H -5.6810897391 -2.7789895556 -2.0002718455
| 51> *
| 52>
| 53>                          ****END OF INPUT****

CARTESIAN COORDINATES (ANGSTROEM)
---------------------------------
  C      4.069545   -2.690587   -0.315314
  C      4.618280   -1.360056    0.158193
  O      3.594910   -0.521435    0.722414
  P      2.421521    0.096621   -0.152433
  S      2.941732    0.722044   -1.941883
  O      1.832312    1.195406    0.825572
  C      2.259388    2.570437    0.786704
  C      3.687237    2.726957    1.265949
  S      0.872067   -1.331321   -0.048735
  C     -0.133305   -0.628952   -1.376534
  S     -0.969307    0.929399   -0.928115
  P     -2.627465    0.138409    0.099762
  S     -3.969399    1.409069    0.750041
  O     -2.073199   -0.855776    1.222091
  C     -1.938906   -0.458269    2.595430
  C     -0.872388    0.601224    2.780841
  O     -3.117267   -0.892422   -1.002811
  C     -4.319473   -1.670308   -0.791305
  C     -4.774217   -2.198636   -2.135660
  H      3.505782   -3.171564    0.480031
  H      3.411037   -2.539062   -1.169608
  H      4.891907   -3.332403   -0.614817
  H      5.087890   -0.821816   -0.671349
  H      5.332910   -1.484839    0.972780
  H      2.148548    2.938794   -0.238364
  H      1.551977    3.084309    1.438894
  H      3.804164    2.279678    2.249519
  H      4.366465    2.234081    0.571201
  H      3.937587    3.782035    1.314752
  H     -0.877172   -1.369350   -1.652439
  H      0.513087   -0.380063   -2.219071
  H     -2.908179   -0.083862    2.940385
  H     -1.685447   -1.383589    3.113985
  H     -0.789988    0.850308    3.833832
  H      0.089973    0.248101    2.418462
  H     -1.148953    1.498767    2.225970
  H     -4.080081   -2.480598   -0.098629
  H     -5.076097   -1.021123   -0.337680
  H     -4.975023   -1.372383   -2.811917
  H     -4.004926   -2.830321   -2.570201
  H     -5.681090   -2.778990   -2.000272

 Total Charge           Charge          ....    0
 Multiplicity           Mult            ....    1
 Number of Electrons    NEL             ....  202
 Basis Dimension        Dim             ....  539

ORBITAL ENERGIES
----------------

  NO   OCC          E(Eh)            E(eV)
   0   2.0000     -88.580935     -2410.4098
   1   2.0000     -88.579713     -2410.3765
   2   2.0000     -88.530793     -2409.0454
   3   2.0000     -88.529591     -2409.0126
   4   2.0000     -76.919992     -2093.0994
   5   2.0000     -76.919608     -2093.0889
   6   2.0000     -18.997509      -516.9485
   7   2.0000     -18.992695      -516.8175
   8   2.0000     -18.992313      -516.8071
   9   2.0000     -18.992156      -516.8028
  10   2.0000     -10.106600      -275.0146
  11   2.0000     -10.090636      -274.5802
  12   2.0000     -10.089242      -274.5422
  13   2.0000     -10.089174      -274.5404
  14   2.0000     -10.087401      -274.4921
  15   2.0000     -10.019553      -272.6459
  16   2.0000     -10.019116      -272.6340
  17   2.0000     -10.018784      -272.6250
  18   2.0000     -10.015506      -272.5358
  19   2.0000      -7.875062      -214.2913
  20   2.0000      -7.874231      -214.2687
  21   2.0000      -7.825718      -212.9486
  22   2.0000      -7.824584      -212.9178
  23   2.0000      -6.598694      -179.5596
  24   2.0000      -6.598003      -179.5408
  25   2.0000      -5.822331      -158.4337
  26   2.0000      -5.821071      -158.3994
  27   2.0000      -5.818609      -158.3324
  28   2.0000      -5.818128      -158.3193
  29   2.0000      -5.812141      -158.1564
  30   2.0000      -5.811299      -158.1335
  31   2.0000      -5.773199      -157.0967
  32   2.0000      -5.772127      -157.0676
  33   2.0000      -5.766042      -156.9020
  34   2.0000      -5.765815      -156.8958
  35   2.0000      -5.764982      -156.8731
  36   2.0000      -5.764527      -156.8608
  37   2.0000      -4.744040      -129.0919
  38   2.0000      -4.743536      -129.0782
  39   2.0000      -4.743393      -129.0743
  40   2.0000      -4.743034      -129.0645
  41   2.0000      -4.742655      -129.0542
  42   2.0000      -4.741808      -129.0312
  43   2.0000      -1.053726       -28.6733
  44   2.0000      -1.050772       -28.5929
  45   2.0000      -1.014471       -27.6052
  46   2.0000      -1.009990       -27.4832
  47   2.0000      -0.804433       -21.8897
  48   2.0000      -0.758118       -20.6294
  49   2.0000      -0.742723       -20.2105
  50   2.0000      -0.723933       -19.6992
  51   2.0000      -0.721798       -19.6411
  52   2.0000      -0.711396       -19.3581
  53   2.0000      -0.693515       -18.8715
  54   2.0000      -0.675806       -18.3896
  55   2.0000      -0.633250       -17.2316
  56   2.0000      -0.618740       -16.8368
  57   2.0000      -0.600105       -16.3297
  58   2.0000      -0.597789       -16.2667
  59   2.0000      -0.589553       -16.0425
  60   2.0000      -0.526189       -14.3183
  61   2.0000      -0.515572       -14.0294
  62   2.0000      -0.491254       -13.3677
  63   2.0000      -0.487684       -13.2706
  64   2.0000      -0.476464       -12.9653
  65   2.0000      -0.459329       -12.4990
  66   2.0000      -0.455087       -12.3836
  67   2.0000      -0.453873       -12.3505
  68   2.0000      -0.439622       -11.9627
  69   2.0000      -0.432177       -11.7601
  70   2.0000      -0.424493       -11.5510
  71   2.0000      -0.411160       -11.1882
  72   2.0000      -0.408161       -11.1066
  73   2.0000      -0.405106       -11.0235
  74   2.0000      -0.402213       -10.9448
  75   2.0000      -0.386419       -10.5150
  76   2.0000      -0.378107       -10.2888
  77   2.0000      -0.367172        -9.9913
  78   2.0000      -0.362576        -9.8662
  79   2.0000      -0.360634        -9.8133
  80   2.0000      -0.354667        -9.6510
  81   2.0000      -0.352085        -9.5807
  82   2.0000      -0.348706        -9.4888
  83   2.0000      -0.344177        -9.3655
  84   2.0000      -0.342776        -9.3274
  85   2.0000      -0.332323        -9.0430
  86   2.0000      -0.322349        -8.7716
  87   2.0000      -0.311445        -8.4749
  88   2.0000      -0.305951        -8.3254
  89   2.0000      -0.305351        -8.3090
  90   2.0000      -0.298736        -8.1290
  91   2.0000      -0.289900        -7.8886
  92   2.0000      -0.284716        -7.7475
  93   2.0000      -0.280991        -7.6462
  94   2.0000      -0.274087        -7.4583
  95   2.0000      -0.247922        -6.7463
  96   2.0000      -0.237809        -6.4711
  97   2.0000      -0.232732        -6.3330
  98   2.0000      -0.231177        -6.2906
  99   2.0000      -0.226613        -6.1665
 100   2.0000      -0.222385        -6.0514
 101   0.0000      -0.047172        -1.2836
 102   0.0000      -0.029029        -0.7899
 103   0.0000      -0.020881        -0.5682
 104   0.0000       0.002314         0.0630
 105   0.0000       0.004136         0.1126

MULLIKEN ATOMIC CHARGES
-----------------------
   0 C :   -0.491342
   1 C :   -0.149063
   2 O :   -0.330855
   3 P :    0.697091
   4 S :   -0.529240
   5 O :   -0.291394
   6 C :   -0.149118
   7 C :   -0.481723
   8 S :   -0.089227
   9 C :   -0.275037
  10 S :   -0.137809
  11 P :    0.704897
  12 S :   -0.525620
  13 O :   -0.289171
  14 C :   -0.142872
  15 C :   -0.488857
  16 O :   -0.327385
  17 C :   -0.133403
  18 C :   -0.488028
  19 H :    0.170130
  20 H :    0.173873
  21 H :    0.173497
  22 H :    0.178322
  23 H :    0.176348
  24 H :    0.176938
  25 H :    0.178963
  26 H :    0.170256
  27 H :    0.167672
  28 H :    0.172200
  29 H :    0.245154
  30 H :    0.230212
  31 H :    0.171607
  32 H :    0.174545
  33 H :    0.170379
  34 H :    0.175635
  35 H :    0.165600
  36 H :    0.174053
  37 H :    0.170697
  38 H :    0.166419
  39 H :    0.166144
  40 H :    0.169510
Sum of atomic charges:    0.0000000

LOEWDIN ATOMIC CHARGES
----------------------
   0 C :   -0.409676
   1 C :    0.026672
   2 O :   -0.670191
   3 P :    0.381818
   4 S :   -0.161451
   5 O :   -0.694165
   6 C :    0.023923
   7 C :   -0.401879
   8 S :    0.182440
   9 C :   -0.402020
  10 S :    0.173201
  11 P :    0.367382
  12 S :   -0.157713
  13 O :   -0.680150
  14 C :    0.021233
  15 C :   -0.411021
  16 O :   -0.702327
  17 C :    0.030098
  18 C :   -0.389598
  19 H :    0.163901
  20 H :    0.161857
  21 H :    0.168899
  22 H :    0.181810
  23 H :    0.191548
  24 H :    0.182014
  25 H :    0.191060
  26 H :    0.164335
  27 H :    0.162628
  28 H :    0.168771
  29 H :    0.206849
  30 H :    0.200691
  31 H :    0.181384
  32 H :    0.190611
  33 H :    0.167065
  34 H :    0.169874
  35 H :    0.162412
  36 H :    0.180653
  37 H :    0.181927
  38 H :    0.163162
  39 H :    0.162790
  40 H :    0.169180

  Mayer bond orders larger than 0.100000
B(  0-C ,  1-C ) :   0.9076 B(  0-C , 19-H ) :   0.9655 B(  0-C , 20-H ) :   0.9632
B(  0-C , 21-H ) :   0.9526 B(  1-C ,  2-O ) :   0.8021 B(  1-C , 22-H ) :   0.9653
B(  1-C , 23-H ) :   0.9483 B(  2-O ,  3-P ) :   1.0758 B(  3-P ,  4-S ) :   1.7073
B(  3-P ,  5-O ) :   1.1444 B(  3-P ,  8-S ) :   1.1129 B(  5-O ,  6-C ) :   0.7787
B(  6-C ,  7-C ) :   0.9115 B(  6-C , 24-H ) :   0.9597 B(  6-C , 25-H ) :   0.9523
B(  7-C , 26-H ) :   0.9712 B(  7-C , 27-H ) :   0.9591 B(  7-C , 28-H ) :   0.9562
B(  8-S ,  9-C ) :   0.9204 B(  9-C , 10-S ) :   0.8997 B(  9-C , 29-H ) :   0.8976
B(  9-C , 30-H ) :   0.9037 B( 10-S , 11-P ) :   1.1129 B( 11-P , 12-S ) :   1.7660
B( 11-P , 13-O ) :   1.0297 B( 11-P , 16-O ) :   1.1568 B( 13-O , 14-C ) :   0.7878
B( 14-C , 15-C ) :   0.9191 B( 14-C , 31-H ) :   0.9576 B( 14-C , 32-H ) :   0.9511
B( 15-C , 33-H ) :   0.9563 B( 15-C , 34-H ) :   0.9585 B( 15-C , 35-H ) :   0.9626
B( 16-O , 17-C ) :   0.7582 B( 17-C , 18-C ) :   0.9522 B( 17-C , 36-H ) :   0.9357
B( 17-C , 37-H ) :   0.9454 B( 18-C , 38-H ) :   0.9701 B( 18-C , 39-H ) :   0.9689
B( 18-C , 40-H ) :   0.9586

Dispersion correction           -0.021214122
FINAL SINGLE POINT ENERGY     -2932.472664054867

DIPOLE MOMENT
-------------

Method             : SCF
Type of density    : Electron Density
Multiplicity       :   1
Irrep              :   0
Energy             : -2932.4980763549724543 Eh
Relativity type    :
Basis              : AO
                                X                 Y                 Z
Electronic contribution:     -6.051455141       6.000871344      -5.888553691
Nuclear contribution   :      7.176033631      -7.906949376       6.867830803
                        -----------------------------------------
Total Dipole Moment    :      1.124578490      -1.906078032       0.979277112
                        -----------------------------------------
Magnitude (a.u.)       :      2.420081384
Magnitude (Debye)      :      6.151358021

Rotational constants in cm-1:             0.013035             0.004539             0.004136
Rotational constants in MHz :           390.784142           136.088766           124.002019

                             ****ORCA TERMINATED NORMALLY****
TOTAL RUN TIME: 0 days 0 hours 1 minutes 51 seconds 112 msec
