                         Program Version 6.0.0  -   RELEASE  -
|  1> ! r2scan-3c def2/J RI DEFGRID2 scfconv6 printgap
|  2> %output
|  3>     printlevel normal
|  4> end
|  5> * xyz 0 1
|  6> C 4.7084439862 -1.3909500467 -0.7338003584
|  7> C 4.6598171257 0.0207028413 -0.1856050294
|  8> O 3.4488957138 0.2804280017 0.5444757684
|  9> P 2.0260333398 0.3764224015 -0.1614087967
| 10> S 2.0554763913 1.2315762262 -1.9298653856
| 11> O 1.1661411387 1.0671557798 0.9775268679
| 12> C 1.0711309398 2.4960966777 1.1203384554
| 13> C 2.3904368769 3.1211497295 1.519763276
| 14> S 1.3165246724 -1.594269002 -0.0299055323
| 15> C 0.0700979386 -1.6108793499 -1.3636207688
| 16> S -1.5968951319 -1.9556336267 -0.7615050451
| 17> P -2.0375564415 -0.0497371986 0.0702159628
| 18> S -1.4542871135 1.4703294047 -1.0167786042
| 19> O -1.4889469399 0.0116242493 1.5428129934
| 20> C -1.8777948291 -0.9140902235 2.5956269312
| 21> C -0.7761831711 -1.9209558267 2.8564172632
| 22> O -3.6048290353 -0.1490462121 0.3097390145
| 23> C -4.5317188372 -0.1502425827 -0.7960333008
| 24> C -5.9099229214 0.1558607766 -0.246302259
| 25> H 3.9591124646 -1.5119858013 -1.5147467804
| 26> H 5.6903002943 -1.5764464616 -1.15727323
| 27> H 4.5119974004 -2.1107383643 0.0566801199
| 28> H 4.7350791392 0.7497497653 -0.9989971232
| 29> H 5.4486828935 0.1963882785 0.5470054202
| 30> H 0.7089248864 2.9146250973 0.1748625278
| 31> H 0.3053959993 2.6274142537 1.8869323567
| 32> H 2.2357031082 4.1744563518 1.732094184
| 33> H 2.7883900292 2.6253111333 2.4013055747
| 34> H 3.1074847455 3.0263904731 0.7052667822
| 35> H 0.3187015438 -2.42176218 -2.0429902498
| 36> H 0.0869703863 -0.6450843825 -1.8761570152
| 37> H -2.0451678455 -0.2751551845 3.4640481891
| 38> H -2.8110865865 -1.4032399617 2.3128164976
| 39> H 0.1663808434 -1.4065999608 3.0268912717
| 40> H -1.031693984 -2.5014797855 3.7371576299
| 41> H -0.6544342305 -2.5939281478 2.0110128866
| 42> H -4.2101559182 0.6055832525 -1.5200276242
| 43> H -4.4968781688 -1.1359333193 -1.2671935236
| 44> H -6.6254325255 0.1544714082 -1.0618660324
| 45> H -6.1946974485 -0.5956960782 0.4839967204
| 46> H -5.9127470659 1.1315136815 0.2315751664
| 47> *
| 48>
| 49>                          ****END OF INPUT****

CARTESIAN COORDINATES (ANGSTROEM)
---------------------------------
  C      4.708444   -1.390950   -0.733800
  C      4.659817    0.020703   -0.185605
  O      3.448896    0.280428    0.544476
  P      2.026033    0.376422   -0.161409
  S      2.055476    1.231576   -1.929865
  O      1.166141    1.067156    0.977527
  C      1.071131    2.496097    1.120338
  C      2.390437    3.121150    1.519763
  S      1.316525   -1.594269   -0.029906
  C      0.070098   -1.610879   -1.363621
  S     -1.596895   -1.955634   -0.761505
  P     -2.037556   -0.049737    0.070216
  S     -1.454287    1.470329   -1.016779
  O     -1.488947    0.011624    1.542813
  C     -1.877795   -0.914090    2.595627
  C     -0.776183   -1.920956    2.856417
  O     -3.604829   -0.149046    0.309739
  C     -4.531719   -0.150243   -0.796033
  C     -5.909923    0.155861   -0.246302
  H      3.959112   -1.511986   -1.514747
  H      5.690300   -1.576446   -1.157273
  H      4.511997   -2.110738    0.056680
  H      4.735079    0.749750   -0.998997
  H      5.448683    0.196388    0.547005
  H      0.708925    2.914625    0.174863
  H      0.305396    2.627414    1.886932
  H      2.235703    4.174456    1.732094
  H      2.788390    2.625311    2.401306
  H      3.107485    3.026390    0.705267
  H      0.318702   -2.421762   -2.042990
  H      0.086970   -0.645084   -1.876157
  H     -2.045168   -0.275155    3.464048
  H     -2.811087   -1.403240    2.312816
  H      0.166381   -1.406600    3.026891
  H     -1.031694   -2.501480    3.737158
  H     -0.654434   -2.593928    2.011013
  H     -4.210156    0.605583   -1.520028
  H     -4.496878   -1.135933   -1.267194
  H     -6.625433    0.154471   -1.061866
  H     -6.194697   -0.595696    0.483997
  H     -5.912747    1.131514    0.231575

 Total Charge           Charge          ....    0
 Multiplicity           Mult            ....    1
 Number of Electrons    NEL             ....  202
 Basis Dimension        Dim             ....  539

ORBITAL ENERGIES
----------------

  NO   OCC          E(Eh)            E(eV)
   0   2.0000     -88.576272     -2410.2829
   1   2.0000     -88.571115     -2410.1426
   2   2.0000     -88.513210     -2408.5669
   3   2.0000     -88.513045     -2408.5624
   4   2.0000     -76.911209     -2092.8604
   5   2.0000     -76.907219     -2092.7518
   6   2.0000     -18.992605      -516.8151
   7   2.0000     -18.989659      -516.7349
   8   2.0000     -18.986185      -516.6404
   9   2.0000     -18.977725      -516.4102
  10   2.0000     -10.105809      -274.9930
  11   2.0000     -10.101796      -274.8839
  12   2.0000     -10.099409      -274.8189
  13   2.0000     -10.093579      -274.6603
  14   2.0000     -10.083085      -274.3747
  15   2.0000     -10.034188      -273.0441
  16   2.0000     -10.026212      -272.8271
  17   2.0000     -10.024714      -272.7863
  18   2.0000     -10.019612      -272.6475
  19   2.0000      -7.870773      -214.1746
  20   2.0000      -7.866004      -214.0449
  21   2.0000      -7.807869      -212.4629
  22   2.0000      -7.807845      -212.4623
  23   2.0000      -6.589691      -179.3146
  24   2.0000      -6.585630      -179.2041
  25   2.0000      -5.817556      -158.3037
  26   2.0000      -5.814453      -158.2193
  27   2.0000      -5.812831      -158.1752
  28   2.0000      -5.809850      -158.0941
  29   2.0000      -5.808130      -158.0472
  30   2.0000      -5.803046      -157.9089
  31   2.0000      -5.755686      -156.6202
  32   2.0000      -5.755496      -156.6150
  33   2.0000      -5.748338      -156.4202
  34   2.0000      -5.748010      -156.4113
  35   2.0000      -5.747830      -156.4064
  36   2.0000      -5.747661      -156.4018
  37   2.0000      -4.735526      -128.8602
  38   2.0000      -4.734710      -128.8380
  39   2.0000      -4.733019      -128.7920
  40   2.0000      -4.730969      -128.7362
  41   2.0000      -4.730449      -128.7221
  42   2.0000      -4.729625      -128.6996
  43   2.0000      -1.050721       -28.5916
  44   2.0000      -1.041669       -28.3453
  45   2.0000      -1.008945       -27.4548
  46   2.0000      -1.001473       -27.2515
  47   2.0000      -0.798655       -21.7325
  48   2.0000      -0.757693       -20.6179
  49   2.0000      -0.745455       -20.2849
  50   2.0000      -0.735127       -20.0038
  51   2.0000      -0.724678       -19.7195
  52   2.0000      -0.708271       -19.2730
  53   2.0000      -0.681737       -18.5510
  54   2.0000      -0.661459       -17.9992
  55   2.0000      -0.627965       -17.0878
  56   2.0000      -0.615679       -16.7535
  57   2.0000      -0.605785       -16.4842
  58   2.0000      -0.597964       -16.2714
  59   2.0000      -0.591380       -16.0923
  60   2.0000      -0.533757       -14.5243
  61   2.0000      -0.510285       -13.8856
  62   2.0000      -0.496847       -13.5199
  63   2.0000      -0.483695       -13.1620
  64   2.0000      -0.467928       -12.7330
  65   2.0000      -0.464923       -12.6512
  66   2.0000      -0.453803       -12.3486
  67   2.0000      -0.452072       -12.3015
  68   2.0000      -0.450000       -12.2451
  69   2.0000      -0.432020       -11.7559
  70   2.0000      -0.424936       -11.5631
  71   2.0000      -0.403909       -10.9909
  72   2.0000      -0.401876       -10.9356
  73   2.0000      -0.397626       -10.8199
  74   2.0000      -0.396912       -10.8005
  75   2.0000      -0.390862       -10.6359
  76   2.0000      -0.382974       -10.4212
  77   2.0000      -0.367982       -10.0133
  78   2.0000      -0.365657        -9.9500
  79   2.0000      -0.363847        -9.9008
  80   2.0000      -0.358287        -9.7495
  81   2.0000      -0.356560        -9.7025
  82   2.0000      -0.352584        -9.5943
  83   2.0000      -0.348725        -9.4893
  84   2.0000      -0.344970        -9.3871
  85   2.0000      -0.328189        -8.9305
  86   2.0000      -0.320234        -8.7140
  87   2.0000      -0.317638        -8.6434
  88   2.0000      -0.311066        -8.4645
  89   2.0000      -0.304014        -8.2726
  90   2.0000      -0.290329        -7.9002
  91   2.0000      -0.284850        -7.7512
  92   2.0000      -0.277518        -7.5516
  93   2.0000      -0.276296        -7.5184
  94   2.0000      -0.270463        -7.3597
  95   2.0000      -0.246774        -6.7151
  96   2.0000      -0.231107        -6.2887
  97   2.0000      -0.226352        -6.1594
  98   2.0000      -0.214470        -5.8360
  99   2.0000      -0.204495        -5.5646
 100   2.0000      -0.197485        -5.3738
 101   0.0000      -0.041248        -1.1224
 102   0.0000      -0.030885        -0.8404
 103   0.0000      -0.007968        -0.2168
 104   0.0000       0.013630         0.3709
 105   0.0000       0.018293         0.4978

MULLIKEN ATOMIC CHARGES
-----------------------
   0 C :   -0.449563
   1 C :   -0.157089
   2 O :   -0.299128
   3 P :    0.641604
   4 S :   -0.460829
   5 O :   -0.264375
   6 C :   -0.156712
   7 C :   -0.450590
   8 S :   -0.117301
   9 C :   -0.221230
  10 S :   -0.175435
  11 P :    0.706183
  12 S :   -0.427756
  13 O :   -0.258938
  14 C :   -0.134549
  15 C :   -0.437433
  16 O :   -0.310929
  17 C :   -0.163075
  18 C :   -0.439529
  19 H :    0.175732
  20 H :    0.146279
  21 H :    0.153493
  22 H :    0.173398
  23 H :    0.146694
  24 H :    0.183493
  25 H :    0.156363
  26 H :    0.145785
  27 H :    0.154015
  28 H :    0.164481
  29 H :    0.197629
  30 H :    0.218024
  31 H :    0.151610
  32 H :    0.158250
  33 H :    0.164861
  34 H :    0.141988
  35 H :    0.165649
  36 H :    0.172808
  37 H :    0.149365
  38 H :    0.147512
  39 H :    0.149972
  40 H :    0.159273
Sum of atomic charges:   -0.0000000

LOEWDIN ATOMIC CHARGES
----------------------
   0 C :   -0.408404
   1 C :    0.017321
   2 O :   -0.668166
   3 P :    0.369788
   4 S :   -0.126202
   5 O :   -0.671426
   6 C :    0.011061
   7 C :   -0.400621
   8 S :    0.171491
   9 C :   -0.412337
  10 S :    0.124875
  11 P :    0.376143
  12 S :   -0.074826
  13 O :   -0.641219
  14 C :    0.030069
  15 C :   -0.404634
  16 O :   -0.679577
  17 C :    0.019321
  18 C :   -0.385689
  19 H :    0.164810
  20 H :    0.158155
  21 H :    0.159711
  22 H :    0.179954
  23 H :    0.178461
  24 H :    0.184951
  25 H :    0.183148
  26 H :    0.158369
  27 H :    0.160053
  28 H :    0.163655
  29 H :    0.180189
  30 H :    0.203687
  31 H :    0.180899
  32 H :    0.177994
  33 H :    0.165757
  34 H :    0.156324
  35 H :    0.162890
  36 H :    0.181965
  37 H :    0.171234
  38 H :    0.160419
  39 H :    0.158156
  40 H :    0.162250

  Mayer bond orders larger than 0.100000
B(  0-C ,  1-C ) :   0.9208 B(  0-C , 19-H ) :   0.9654 B(  0-C , 20-H ) :   0.9593
B(  0-C , 21-H ) :   0.9681 B(  1-C ,  2-O ) :   0.8223 B(  1-C , 22-H ) :   0.9667
B(  1-C , 23-H ) :   0.9592 B(  2-O ,  3-P ) :   1.0545 B(  3-P ,  4-S ) :   1.7645
B(  3-P ,  5-O ) :   1.1614 B(  3-P ,  8-S ) :   1.1306 B(  5-O ,  6-C ) :   0.8035
B(  6-C ,  7-C ) :   0.9082 B(  6-C , 24-H ) :   0.9627 B(  6-C , 25-H ) :   0.9631
B(  7-C , 26-H ) :   0.9615 B(  7-C , 27-H ) :   0.9738 B(  7-C , 28-H ) :   0.9636
B(  8-S ,  9-C ) :   0.8928 B(  9-C , 10-S ) :   0.9171 B(  9-C , 29-H ) :   0.9133
B(  9-C , 30-H ) :   0.9047 B( 10-S , 11-P ) :   0.9717 B( 11-P , 12-S ) :   1.8278
B( 11-P , 13-O ) :   1.1422 B( 11-P , 16-O ) :   1.0706 B( 13-O , 14-C ) :   0.7408
B( 14-C , 15-C ) :   0.9537 B( 14-C , 31-H ) :   0.9611 B( 14-C , 32-H ) :   0.9751
B( 15-C , 33-H ) :   0.9644 B( 15-C , 34-H ) :   0.9623 B( 15-C , 35-H ) :   0.9604
B( 16-O , 17-C ) :   0.7884 B( 17-C , 18-C ) :   0.9571 B( 17-C , 36-H ) :   0.9495
B( 17-C , 37-H ) :   0.9422 B( 18-C , 38-H ) :   0.9641 B( 18-C , 39-H ) :   0.9717
B( 18-C , 40-H ) :   0.9710

Dispersion correction           -0.022141597
FINAL SINGLE POINT ENERGY     -2932.459228747422

DIPOLE MOMENT
-------------

Method             : SCF
Type of density    : Electron Density
Multiplicity       :   1
Irrep              :   0
Energy             : -2932.4836414705705465 Eh
Relativity type    :
Basis              : AO
                                X                 Y                 Z
Electronic contribution:     -0.476302530      -0.692229811      -9.795739413
Nuclear contribution   :      0.069751277      -0.223293163      10.871397673
                        -----------------------------------------
Total Dipole Moment    :     -0.406551254      -0.915522974       1.075658260
                        -----------------------------------------
Magnitude (a.u.)       :      1.469866297
Magnitude (Debye)      :      3.736103213

Rotational constants in cm-1:             0.013225             0.005138             0.004916
Rotational constants in MHz :           396.483860           154.028763           147.370437

                             ****ORCA TERMINATED NORMALLY****
TOTAL RUN TIME: 0 days 0 hours 1 minutes 22 seconds 770 msec
