                         Program Version 6.0.0  -   RELEASE  -
|  1> ! r2scan-3c def2/J RI DEFGRID2 scfconv6 printgap
|  2> %output
|  3>     printlevel normal
|  4> end
|  5> %cpcm
|  6>     smd true
|  7>     smdsolvent "water"
|  8> end
|  9> * xyz 0 1
| 10> C 4.7084439862 -1.3909500467 -0.7338003584
| 11> C 4.6598171257 0.0207028413 -0.1856050294
| 12> O 3.4488957138 0.2804280017 0.5444757684
| 13> P 2.0260333398 0.3764224015 -0.1614087967
| 14> S 2.0554763913 1.2315762262 -1.9298653856
| 15> O 1.1661411387 1.0671557798 0.9775268679
| 16> C 1.0711309398 2.4960966777 1.1203384554
| 17> C 2.3904368769 3.1211497295 1.519763276
| 18> S 1.3165246724 -1.594269002 -0.0299055323
| 19> C 0.0700979386 -1.6108793499 -1.3636207688
| 20> S -1.5968951319 -1.9556336267 -0.7615050451
| 21> P -2.0375564415 -0.0497371986 0.0702159628
| 22> S -1.4542871135 1.4703294047 -1.0167786042
| 23> O -1.4889469399 0.0116242493 1.5428129934
| 24> C -1.8777948291 -0.9140902235 2.5956269312
| 25> C -0.7761831711 -1.9209558267 2.8564172632
| 26> O -3.6048290353 -0.1490462121 0.3097390145
| 27> C -4.5317188372 -0.1502425827 -0.7960333008
| 28> C -5.9099229214 0.1558607766 -0.246302259
| 29> H 3.9591124646 -1.5119858013 -1.5147467804
| 30> H 5.6903002943 -1.5764464616 -1.15727323
| 31> H 4.5119974004 -2.1107383643 0.0566801199
| 32> H 4.7350791392 0.7497497653 -0.9989971232
| 33> H 5.4486828935 0.1963882785 0.5470054202
| 34> H 0.7089248864 2.9146250973 0.1748625278
| 35> H 0.3053959993 2.6274142537 1.8869323567
| 36> H 2.2357031082 4.1744563518 1.732094184
| 37> H 2.7883900292 2.6253111333 2.4013055747
| 38> H 3.1074847455 3.0263904731 0.7052667822
| 39> H 0.3187015438 -2.42176218 -2.0429902498
| 40> H 0.0869703863 -0.6450843825 -1.8761570152
| 41> H -2.0451678455 -0.2751551845 3.4640481891
| 42> H -2.8110865865 -1.4032399617 2.3128164976
| 43> H 0.1663808434 -1.4065999608 3.0268912717
| 44> H -1.031693984 -2.5014797855 3.7371576299
| 45> H -0.6544342305 -2.5939281478 2.0110128866
| 46> H -4.2101559182 0.6055832525 -1.5200276242
| 47> H -4.4968781688 -1.1359333193 -1.2671935236
| 48> H -6.6254325255 0.1544714082 -1.0618660324
| 49> H -6.1946974485 -0.5956960782 0.4839967204
| 50> H -5.9127470659 1.1315136815 0.2315751664
| 51> *
| 52>
| 53>                          ****END OF INPUT****

CARTESIAN COORDINATES (ANGSTROEM)
---------------------------------
  C      4.708444   -1.390950   -0.733800
  C      4.659817    0.020703   -0.185605
  O      3.448896    0.280428    0.544476
  P      2.026033    0.376422   -0.161409
  S      2.055476    1.231576   -1.929865
  O      1.166141    1.067156    0.977527
  C      1.071131    2.496097    1.120338
  C      2.390437    3.121150    1.519763
  S      1.316525   -1.594269   -0.029906
  C      0.070098   -1.610879   -1.363621
  S     -1.596895   -1.955634   -0.761505
  P     -2.037556   -0.049737    0.070216
  S     -1.454287    1.470329   -1.016779
  O     -1.488947    0.011624    1.542813
  C     -1.877795   -0.914090    2.595627
  C     -0.776183   -1.920956    2.856417
  O     -3.604829   -0.149046    0.309739
  C     -4.531719   -0.150243   -0.796033
  C     -5.909923    0.155861   -0.246302
  H      3.959112   -1.511986   -1.514747
  H      5.690300   -1.576446   -1.157273
  H      4.511997   -2.110738    0.056680
  H      4.735079    0.749750   -0.998997
  H      5.448683    0.196388    0.547005
  H      0.708925    2.914625    0.174863
  H      0.305396    2.627414    1.886932
  H      2.235703    4.174456    1.732094
  H      2.788390    2.625311    2.401306
  H      3.107485    3.026390    0.705267
  H      0.318702   -2.421762   -2.042990
  H      0.086970   -0.645084   -1.876157
  H     -2.045168   -0.275155    3.464048
  H     -2.811087   -1.403240    2.312816
  H      0.166381   -1.406600    3.026891
  H     -1.031694   -2.501480    3.737158
  H     -0.654434   -2.593928    2.011013
  H     -4.210156    0.605583   -1.520028
  H     -4.496878   -1.135933   -1.267194
  H     -6.625433    0.154471   -1.061866
  H     -6.194697   -0.595696    0.483997
  H     -5.912747    1.131514    0.231575

 Total Charge           Charge          ....    0
 Multiplicity           Mult            ....    1
 Number of Electrons    NEL             ....  202
 Basis Dimension        Dim             ....  539

ORBITAL ENERGIES
----------------

  NO   OCC          E(Eh)            E(eV)
   0   2.0000     -88.579451     -2410.3694
   1   2.0000     -88.576036     -2410.2765
   2   2.0000     -88.524650     -2408.8782
   3   2.0000     -88.523662     -2408.8513
   4   2.0000     -76.917815     -2093.0401
   5   2.0000     -76.916509     -2093.0046
   6   2.0000     -18.994485      -516.8662
   7   2.0000     -18.994423      -516.8645
   8   2.0000     -18.992342      -516.8079
   9   2.0000     -18.988072      -516.6917
  10   2.0000     -10.105371      -274.9811
  11   2.0000     -10.092289      -274.6251
  12   2.0000     -10.090387      -274.5734
  13   2.0000     -10.087883      -274.5053
  14   2.0000     -10.085217      -274.4327
  15   2.0000     -10.019709      -272.6501
  16   2.0000     -10.017239      -272.5829
  17   2.0000     -10.017141      -272.5803
  18   2.0000     -10.016879      -272.5731
  19   2.0000      -7.873865      -214.2588
  20   2.0000      -7.870843      -214.1765
  21   2.0000      -7.819627      -212.7829
  22   2.0000      -7.818845      -212.7616
  23   2.0000      -6.596337      -179.4955
  24   2.0000      -6.594975      -179.4584
  25   2.0000      -5.820664      -158.3883
  26   2.0000      -5.817689      -158.3074
  27   2.0000      -5.817566      -158.3040
  28   2.0000      -5.814696      -158.2259
  29   2.0000      -5.811199      -158.1308
  30   2.0000      -5.807877      -158.0404
  31   2.0000      -5.767204      -156.9336
  32   2.0000      -5.766544      -156.9156
  33   2.0000      -5.760113      -156.7406
  34   2.0000      -5.759458      -156.7228
  35   2.0000      -5.759009      -156.7106
  36   2.0000      -5.758833      -156.7058
  37   2.0000      -4.742125      -129.0398
  38   2.0000      -4.741316      -129.0178
  39   2.0000      -4.740293      -128.9899
  40   2.0000      -4.739792      -128.9763
  41   2.0000      -4.739791      -128.9763
  42   2.0000      -4.739020      -128.9553
  43   2.0000      -1.053823       -28.6760
  44   2.0000      -1.049310       -28.5532
  45   2.0000      -1.011640       -27.5281
  46   2.0000      -1.009051       -27.4577
  47   2.0000      -0.801014       -21.7967
  48   2.0000      -0.756054       -20.5733
  49   2.0000      -0.744130       -20.2488
  50   2.0000      -0.726090       -19.7579
  51   2.0000      -0.722026       -19.6473
  52   2.0000      -0.709848       -19.3160
  53   2.0000      -0.687638       -18.7116
  54   2.0000      -0.669368       -18.2144
  55   2.0000      -0.630922       -17.1683
  56   2.0000      -0.612943       -16.6790
  57   2.0000      -0.598958       -16.2985
  58   2.0000      -0.597533       -16.2597
  59   2.0000      -0.591335       -16.0910
  60   2.0000      -0.530764       -14.4428
  61   2.0000      -0.512248       -13.9390
  62   2.0000      -0.493689       -13.4340
  63   2.0000      -0.486493       -13.2381
  64   2.0000      -0.470018       -12.7898
  65   2.0000      -0.465339       -12.6625
  66   2.0000      -0.452416       -12.3109
  67   2.0000      -0.451001       -12.2724
  68   2.0000      -0.444678       -12.1003
  69   2.0000      -0.434032       -11.8106
  70   2.0000      -0.422921       -11.5083
  71   2.0000      -0.405326       -11.0295
  72   2.0000      -0.402188       -10.9441
  73   2.0000      -0.397929       -10.8282
  74   2.0000      -0.391984       -10.6664
  75   2.0000      -0.390603       -10.6288
  76   2.0000      -0.380581       -10.3561
  77   2.0000      -0.363674        -9.8961
  78   2.0000      -0.362798        -9.8722
  79   2.0000      -0.356955        -9.7132
  80   2.0000      -0.353589        -9.6216
  81   2.0000      -0.352100        -9.5811
  82   2.0000      -0.350385        -9.5345
  83   2.0000      -0.346263        -9.4223
  84   2.0000      -0.343531        -9.3480
  85   2.0000      -0.325514        -8.8577
  86   2.0000      -0.321441        -8.7469
  87   2.0000      -0.316095        -8.6014
  88   2.0000      -0.307229        -8.3601
  89   2.0000      -0.303099        -8.2477
  90   2.0000      -0.294700        -8.0192
  91   2.0000      -0.287731        -7.8296
  92   2.0000      -0.282578        -7.6893
  93   2.0000      -0.278262        -7.5719
  94   2.0000      -0.273561        -7.4440
  95   2.0000      -0.250659        -6.8208
  96   2.0000      -0.238550        -6.4913
  97   2.0000      -0.237934        -6.4745
  98   2.0000      -0.225543        -6.1373
  99   2.0000      -0.214107        -5.8262
 100   2.0000      -0.209460        -5.6997
 101   0.0000      -0.045887        -1.2487
 102   0.0000      -0.037677        -1.0253
 103   0.0000      -0.012124        -0.3299
 104   0.0000       0.009465         0.2576
 105   0.0000       0.012784         0.3479

MULLIKEN ATOMIC CHARGES
-----------------------
   0 C :   -0.483025
   1 C :   -0.157168
   2 O :   -0.325758
   3 P :    0.681134
   4 S :   -0.518920
   5 O :   -0.293698
   6 C :   -0.154527
   7 C :   -0.494386
   8 S :   -0.113308
   9 C :   -0.220786
  10 S :   -0.170477
  11 P :    0.715653
  12 S :   -0.482412
  13 O :   -0.292925
  14 C :   -0.126284
  15 C :   -0.475357
  16 O :   -0.331201
  17 C :   -0.152325
  18 C :   -0.481484
  19 H :    0.172578
  20 H :    0.171186
  21 H :    0.166485
  22 H :    0.177118
  23 H :    0.173752
  24 H :    0.181964
  25 H :    0.177214
  26 H :    0.170601
  27 H :    0.169088
  28 H :    0.168264
  29 H :    0.238622
  30 H :    0.210322
  31 H :    0.177592
  32 H :    0.177420
  33 H :    0.166314
  34 H :    0.168211
  35 H :    0.166596
  36 H :    0.173029
  37 H :    0.169055
  38 H :    0.169676
  39 H :    0.165913
  40 H :    0.166252
Sum of atomic charges:   -0.0000000

LOEWDIN ATOMIC CHARGES
----------------------
   0 C :   -0.410854
   1 C :    0.022932
   2 O :   -0.679970
   3 P :    0.374908
   4 S :   -0.161944
   5 O :   -0.690287
   6 C :    0.011604
   7 C :   -0.402806
   8 S :    0.176637
   9 C :   -0.406706
  10 S :    0.135955
  11 P :    0.377263
  12 S :   -0.116003
  13 O :   -0.662267
  14 C :    0.036749
  15 C :   -0.406096
  16 O :   -0.687802
  17 C :    0.023715
  18 C :   -0.389090
  19 H :    0.161275
  20 H :    0.167290
  21 H :    0.163174
  22 H :    0.181136
  23 H :    0.189929
  24 H :    0.183385
  25 H :    0.190238
  26 H :    0.167823
  27 H :    0.164103
  28 H :    0.162921
  29 H :    0.196694
  30 H :    0.200410
  31 H :    0.191859
  32 H :    0.185978
  33 H :    0.163824
  34 H :    0.166702
  35 H :    0.161045
  36 H :    0.181588
  37 H :    0.179310
  38 H :    0.169079
  39 H :    0.163056
  40 H :    0.163243

  Mayer bond orders larger than 0.100000
B(  0-C ,  1-C ) :   0.9098 B(  0-C , 19-H ) :   0.9658 B(  0-C , 20-H ) :   0.9541
B(  0-C , 21-H ) :   0.9654 B(  1-C ,  2-O ) :   0.8094 B(  1-C , 22-H ) :   0.9650
B(  1-C , 23-H ) :   0.9493 B(  2-O ,  3-P ) :   1.0639 B(  3-P ,  4-S ) :   1.7067
B(  3-P ,  5-O ) :   1.1588 B(  3-P ,  8-S ) :   1.1570 B(  5-O ,  6-C ) :   0.7879
B(  6-C ,  7-C ) :   0.9061 B(  6-C , 24-H ) :   0.9596 B(  6-C , 25-H ) :   0.9515
B(  7-C , 26-H ) :   0.9548 B(  7-C , 27-H ) :   0.9719 B(  7-C , 28-H ) :   0.9624
B(  8-S ,  9-C ) :   0.8867 B(  9-C , 10-S ) :   0.9104 B(  9-C , 29-H ) :   0.8972
B(  9-C , 30-H ) :   0.9094 B( 10-S , 11-P ) :   0.9966 B( 11-P , 12-S ) :   1.7989
B( 11-P , 13-O ) :   1.1427 B( 11-P , 16-O ) :   1.0789 B( 13-O , 14-C ) :   0.7305
B( 14-C , 15-C ) :   0.9422 B( 14-C , 31-H ) :   0.9506 B( 14-C , 32-H ) :   0.9652
B( 15-C , 33-H ) :   0.9654 B( 15-C , 34-H ) :   0.9569 B( 15-C , 35-H ) :   0.9610
B( 16-O , 17-C ) :   0.7803 B( 17-C , 18-C ) :   0.9548 B( 17-C , 36-H ) :   0.9463
B( 17-C , 37-H ) :   0.9333 B( 18-C , 38-H ) :   0.9583 B( 18-C , 39-H ) :   0.9685
B( 18-C , 40-H ) :   0.9691

Dispersion correction           -0.022141597
FINAL SINGLE POINT ENERGY     -2932.468722319563

DIPOLE MOMENT
-------------

Method             : SCF
Type of density    : Electron Density
Multiplicity       :   1
Irrep              :   0
Energy             : -2932.4931350427114012 Eh
Relativity type    :
Basis              : AO
                                X                 Y                 Z
Electronic contribution:     -0.554680314      -1.286795702      -9.498827197
Nuclear contribution   :      0.069751277      -0.223293163      10.871397673
                        -----------------------------------------
Total Dipole Moment    :     -0.484929037      -1.510088865       1.372570476
                        -----------------------------------------
Magnitude (a.u.)       :      2.097492375
Magnitude (Debye)      :      5.331401924

Rotational constants in cm-1:             0.013225             0.005138             0.004916
Rotational constants in MHz :           396.483860           154.028763           147.370437

                             ****ORCA TERMINATED NORMALLY****
TOTAL RUN TIME: 0 days 0 hours 1 minutes 57 seconds 632 msec
