                         Program Version 6.0.0  -   RELEASE  -
|  1> ! pbe def2-sv(p) def2/J RI DEFGRID1 loosescf d4 GCP(DFT/SV(P)) printgap
|  2> %output
|  3>     printlevel normal
|  4> end
|  5> * xyz 0 1
|  6> C 4.2025231539 1.1436964224 -1.731602196
|  7> C 2.8529637234 0.4593634159 -1.6722702447
|  8> O 2.1306325763 0.8491929382 -0.4787447913
|  9> P 2.1217888924 0.0159585883 0.8608469957
| 10> S 1.0463413289 0.883774726 2.2441806987
| 11> O 3.6671334454 -0.1585155941 1.1843489178
| 12> C 4.1501213826 -0.5372990942 2.4860406151
| 13> C 3.733031756 -1.9416648642 2.8708486852
| 14> S 1.4981916499 -1.9441234695 0.2910274006
| 15> C -0.2570867293 -1.5747587105 0.171919401
| 16> S -0.6539257761 -0.7208277223 -1.406723299
| 17> P -2.4028422054 0.2837074895 -0.7486945948
| 18> S -3.3958712179 1.2143095462 -2.1555748792
| 19> O -1.9599975618 1.1515086518 0.5002999543
| 20> C -1.7949486953 2.5770474793 0.4077993506
| 21> C -0.6332891419 2.9642418962 -0.4846497109
| 22> O -3.1687571148 -0.8360759104 0.0804340305
| 23> C -3.8074467248 -1.9462222345 -0.585171541
| 24> C -5.2710778285 -1.6513231212 -0.849205799
| 25> H 4.8286392215 0.8155658729 -0.9063473894
| 26> H 4.6849213397 0.8910610886 -2.6706025215
| 27> H 4.0773421526 2.221357087 -1.6718051382
| 28> H 2.9580912616 -0.6289912988 -1.6843477585
| 29> H 2.2062430391 0.7713987245 -2.4948037931
| 30> H 5.233803349 -0.4502223793 2.3958186785
| 31> H 3.7787444364 0.1888350564 3.215537911
| 32> H 3.9947724624 -2.6442212545 2.0836256395
| 33> H 4.2369940879 -2.2246779549 3.7894462525
| 34> H 2.6572190117 -1.981195717 3.0336131258
| 35> H -0.5507953629 -0.9285824876 1.0018966862
| 36> H -0.7787953865 -2.5275977032 0.1987373834
| 37> H -2.7267901837 3.0099273349 0.0315855852
| 38> H -1.6255512908 2.8856192907 1.4407001645
| 39> H 0.2904562095 2.5191698626 -0.1215957985
| 40> H -0.8164912353 2.6194881216 -1.5024127189
| 41> H -0.5297730023 4.0444002853 -0.489796346
| 42> H -3.279310009 -2.1631053738 -1.5201320146
| 43> H -3.6942630511 -2.7848210276 0.1051500689
| 44> H -5.3692178844 -0.8148018531 -1.5374982023
| 45> H -5.7392920359 -2.527337674 -1.2864113622
| 46> H -5.7728052228 -1.3991036966 0.080697093
| 47> *
| 48>
| 49>                          ****END OF INPUT****

CARTESIAN COORDINATES (ANGSTROEM)
---------------------------------
  C      4.202523    1.143696   -1.731602
  C      2.852964    0.459363   -1.672270
  O      2.130633    0.849193   -0.478745
  P      2.121789    0.015959    0.860847
  S      1.046341    0.883775    2.244181
  O      3.667133   -0.158516    1.184349
  C      4.150121   -0.537299    2.486041
  C      3.733032   -1.941665    2.870849
  S      1.498192   -1.944123    0.291027
  C     -0.257087   -1.574759    0.171919
  S     -0.653926   -0.720828   -1.406723
  P     -2.402842    0.283707   -0.748695
  S     -3.395871    1.214310   -2.155575
  O     -1.959998    1.151509    0.500300
  C     -1.794949    2.577047    0.407799
  C     -0.633289    2.964242   -0.484650
  O     -3.168757   -0.836076    0.080434
  C     -3.807447   -1.946222   -0.585172
  C     -5.271078   -1.651323   -0.849206
  H      4.828639    0.815566   -0.906347
  H      4.684921    0.891061   -2.670603
  H      4.077342    2.221357   -1.671805
  H      2.958091   -0.628991   -1.684348
  H      2.206243    0.771399   -2.494804
  H      5.233803   -0.450222    2.395819
  H      3.778744    0.188835    3.215538
  H      3.994772   -2.644221    2.083626
  H      4.236994   -2.224678    3.789446
  H      2.657219   -1.981196    3.033613
  H     -0.550795   -0.928582    1.001897
  H     -0.778795   -2.527598    0.198737
  H     -2.726790    3.009927    0.031586
  H     -1.625551    2.885619    1.440700
  H      0.290456    2.519170   -0.121596
  H     -0.816491    2.619488   -1.502413
  H     -0.529773    4.044400   -0.489796
  H     -3.279310   -2.163105   -1.520132
  H     -3.694263   -2.784821    0.105150
  H     -5.369218   -0.814802   -1.537498
  H     -5.739292   -2.527338   -1.286411
  H     -5.772805   -1.399104    0.080697

 Total Charge           Charge          ....    0
 Multiplicity           Mult            ....    1
 Number of Electrons    NEL             ....  202
 Basis Dimension        Dim             ....  334

ORBITAL ENERGIES
----------------

  NO   OCC          E(Eh)            E(eV)
   0   2.0000     -88.053589     -2396.0600
   1   2.0000     -88.039789     -2395.6845
   2   2.0000     -87.993412     -2394.4225
   3   2.0000     -87.984406     -2394.1774
   4   2.0000     -76.433838     -2079.8705
   5   2.0000     -76.422305     -2079.5566
   6   2.0000     -18.804980      -511.7095
   7   2.0000     -18.797731      -511.5123
   8   2.0000     -18.788472      -511.2603
   9   2.0000     -18.781885      -511.0811
  10   2.0000      -9.962066      -271.0816
  11   2.0000      -9.958216      -270.9768
  12   2.0000      -9.957652      -270.9615
  13   2.0000      -9.954614      -270.8788
  14   2.0000      -9.939313      -270.4625
  15   2.0000      -9.892235      -269.1814
  16   2.0000      -9.888965      -269.0924
  17   2.0000      -9.879167      -268.8258
  18   2.0000      -9.864240      -268.4196
  19   2.0000      -7.698448      -209.4854
  20   2.0000      -7.684702      -209.1114
  21   2.0000      -7.638284      -207.8483
  22   2.0000      -7.629553      -207.6107
  23   2.0000      -6.431351      -175.0060
  24   2.0000      -6.419771      -174.6908
  25   2.0000      -5.726223      -155.8184
  26   2.0000      -5.722920      -155.7286
  27   2.0000      -5.715595      -155.5292
  28   2.0000      -5.712912      -155.4562
  29   2.0000      -5.709061      -155.3514
  30   2.0000      -5.701587      -155.1481
  31   2.0000      -5.667259      -154.2140
  32   2.0000      -5.658765      -153.9828
  33   2.0000      -5.658516      -153.9760
  34   2.0000      -5.658515      -153.9760
  35   2.0000      -5.649979      -153.7437
  36   2.0000      -5.649870      -153.7408
  37   2.0000      -4.654259      -126.6488
  38   2.0000      -4.653068      -126.6164
  39   2.0000      -4.651539      -126.5748
  40   2.0000      -4.642139      -126.3190
  41   2.0000      -4.641892      -126.3123
  42   2.0000      -4.640124      -126.2642
  43   2.0000      -0.996689       -27.1213
  44   2.0000      -0.983413       -26.7600
  45   2.0000      -0.953999       -25.9596
  46   2.0000      -0.939540       -25.5662
  47   2.0000      -0.765729       -20.8365
  48   2.0000      -0.723253       -19.6807
  49   2.0000      -0.709705       -19.3121
  50   2.0000      -0.697081       -18.9685
  51   2.0000      -0.679514       -18.4905
  52   2.0000      -0.672095       -18.2886
  53   2.0000      -0.655901       -17.8480
  54   2.0000      -0.640329       -17.4242
  55   2.0000      -0.602498       -16.3948
  56   2.0000      -0.588122       -16.0036
  57   2.0000      -0.580536       -15.7972
  58   2.0000      -0.566003       -15.4017
  59   2.0000      -0.558543       -15.1987
  60   2.0000      -0.505943       -13.7674
  61   2.0000      -0.497369       -13.5341
  62   2.0000      -0.482070       -13.1178
  63   2.0000      -0.461800       -12.5662
  64   2.0000      -0.457551       -12.4506
  65   2.0000      -0.451677       -12.2907
  66   2.0000      -0.440480       -11.9861
  67   2.0000      -0.434816       -11.8319
  68   2.0000      -0.431216       -11.7340
  69   2.0000      -0.422036       -11.4842
  70   2.0000      -0.414723       -11.2852
  71   2.0000      -0.397593       -10.8191
  72   2.0000      -0.396703       -10.7948
  73   2.0000      -0.387383       -10.5412
  74   2.0000      -0.380580       -10.3561
  75   2.0000      -0.372631       -10.1398
  76   2.0000      -0.366726        -9.9791
  77   2.0000      -0.359485        -9.7821
  78   2.0000      -0.358106        -9.7446
  79   2.0000      -0.353961        -9.6318
  80   2.0000      -0.351278        -9.5588
  81   2.0000      -0.344763        -9.3815
  82   2.0000      -0.338848        -9.2205
  83   2.0000      -0.327172        -8.9028
  84   2.0000      -0.324832        -8.8391
  85   2.0000      -0.322948        -8.7879
  86   2.0000      -0.313573        -8.5327
  87   2.0000      -0.303246        -8.2517
  88   2.0000      -0.298245        -8.1157
  89   2.0000      -0.295358        -8.0371
  90   2.0000      -0.281791        -7.6679
  91   2.0000      -0.277636        -7.5549
  92   2.0000      -0.271284        -7.3820
  93   2.0000      -0.264239        -7.1903
  94   2.0000      -0.256596        -6.9823
  95   2.0000      -0.239154        -6.5077
  96   2.0000      -0.221412        -6.0249
  97   2.0000      -0.212569        -5.7843
  98   2.0000      -0.208893        -5.6843
  99   2.0000      -0.201205        -5.4751
 100   2.0000      -0.198993        -5.4149
 101   0.0000      -0.043590        -1.1861
 102   0.0000      -0.026142        -0.7114
 103   0.0000      -0.022444        -0.6107
 104   0.0000       0.003763         0.1024
 105   0.0000       0.012520         0.3407

MULLIKEN ATOMIC CHARGES
-----------------------
   0 C :   -0.288847
   1 C :   -0.013628
   2 O :   -0.346360
   3 P :    0.607782
   4 S :   -0.300724
   5 O :   -0.378582
   6 C :   -0.000947
   7 C :   -0.324710
   8 S :   -0.095216
   9 C :   -0.368172
  10 S :   -0.088416
  11 P :    0.576954
  12 S :   -0.316011
  13 O :   -0.359117
  14 C :    0.011997
  15 C :   -0.339943
  16 O :   -0.366037
  17 C :   -0.024252
  18 C :   -0.282508
  19 H :    0.120036
  20 H :    0.111633
  21 H :    0.121078
  22 H :    0.101709
  23 H :    0.116999
  24 H :    0.108019
  25 H :    0.115745
  26 H :    0.119493
  27 H :    0.118573
  28 H :    0.132309
  29 H :    0.214540
  30 H :    0.185193
  31 H :    0.106837
  32 H :    0.105413
  33 H :    0.144630
  34 H :    0.113578
  35 H :    0.102131
  36 H :    0.102927
  37 H :    0.105037
  38 H :    0.130329
  39 H :    0.105515
  40 H :    0.115011
Sum of atomic charges:    0.0000000

LOEWDIN ATOMIC CHARGES
----------------------
   0 C :   -0.359328
   1 C :   -0.117949
   2 O :   -0.225922
   3 P :    0.577617
   4 S :   -0.293412
   5 O :   -0.244386
   6 C :   -0.116068
   7 C :   -0.372028
   8 S :    0.087663
   9 C :   -0.480436
  10 S :    0.060380
  11 P :    0.567902
  12 S :   -0.315579
  13 O :   -0.230788
  14 C :   -0.116019
  15 C :   -0.378409
  16 O :   -0.242454
  17 C :   -0.120103
  18 C :   -0.362036
  19 H :    0.125195
  20 H :    0.130713
  21 H :    0.129314
  22 H :    0.102521
  23 H :    0.122379
  24 H :    0.119986
  25 H :    0.114791
  26 H :    0.123840
  27 H :    0.134046
  28 H :    0.122990
  29 H :    0.128867
  30 H :    0.132492
  31 H :    0.108194
  32 H :    0.119354
  33 H :    0.121707
  34 H :    0.115369
  35 H :    0.127421
  36 H :    0.106199
  37 H :    0.115530
  38 H :    0.125552
  39 H :    0.128021
  40 H :    0.126874

  Mayer bond orders larger than 0.100000
B(  0-C ,  1-C ) :   1.1641 B(  0-C , 19-H ) :   0.9420 B(  0-C , 20-H ) :   0.9396
B(  0-C , 21-H ) :   0.9473 B(  1-C ,  2-O ) :   0.8860 B(  1-C , 22-H ) :   0.9103
B(  1-C , 23-H ) :   0.9320 B(  2-O ,  3-P ) :   1.1368 B(  3-P ,  4-S ) :   1.6403
B(  3-P ,  5-O ) :   1.0903 B(  3-P ,  8-S ) :   0.9390 B(  4-S ,  8-S ) :   0.1064
B(  5-O ,  6-C ) :   0.9015 B(  6-C ,  7-C ) :   1.1662 B(  6-C , 24-H ) :   0.9336
B(  6-C , 25-H ) :   0.9188 B(  7-C , 26-H ) :   0.9432 B(  7-C , 27-H ) :   0.9367
B(  7-C , 28-H ) :   0.9343 B(  8-S ,  9-C ) :   1.0165 B(  9-C , 10-S ) :   0.9527
B(  9-C , 29-H ) :   0.8555 B(  9-C , 30-H ) :   0.9066 B( 10-S , 11-P ) :   0.9750
B( 11-P , 12-S ) :   1.6360 B( 11-P , 13-O ) :   1.1237 B( 11-P , 16-O ) :   1.0840
B( 13-O , 14-C ) :   0.8961 B( 14-C , 15-C ) :   1.1673 B( 14-C , 31-H ) :   0.9204
B( 14-C , 32-H ) :   0.9295 B( 15-C , 33-H ) :   0.9230 B( 15-C , 34-H ) :   0.9329
B( 15-C , 35-H ) :   0.9373 B( 16-O , 17-C ) :   0.9088 B( 17-C , 18-C ) :   1.1705
B( 17-C , 36-H ) :   0.9091 B( 17-C , 37-H ) :   0.9335 B( 18-C , 38-H ) :   0.9316
B( 18-C , 39-H ) :   0.9393 B( 18-C , 40-H ) :   0.9471

Dispersion correction           -0.065455087
FINAL SINGLE POINT ENERGY     -2929.521671750317

DIPOLE MOMENT
-------------

Method             : SCF
Type of density    : Electron Density
Multiplicity       :   1
Irrep              :   0
Energy             : -2929.6430293312619142 Eh
Relativity type    :
Basis              : AO
                                X                 Y                 Z
Electronic contribution:     -6.450918004       0.188418454      -1.040350547
Nuclear contribution   :      7.870154612      -1.275783505       1.347439756
                        -----------------------------------------
Total Dipole Moment    :      1.419236608      -1.087365051       0.307089209
                        -----------------------------------------
Magnitude (a.u.)       :      1.814083539
Magnitude (Debye)      :      4.611033911

Rotational constants in cm-1:             0.013295             0.004702             0.004386
Rotational constants in MHz :           398.566300           140.950250           131.493693

                             ****ORCA TERMINATED NORMALLY****
TOTAL RUN TIME: 0 days 0 hours 0 minutes 21 seconds 173 msec
