                         Program Version 6.0.0  -   RELEASE  -
|  1> ! pbe def2-sv(p) def2/J RI DEFGRID1 loosescf d4 GCP(DFT/SV(P)) printgap
|  2> %output
|  3>     printlevel normal
|  4> end
|  5> * xyz 0 1
|  6> C 4.4849791986 -1.644863089 -2.9326291405
|  7> C 4.1127027854 -0.4522184638 -2.0758672704
|  8> O 3.2198886281 -0.910406879 -1.0356607542
|  9> P 2.155452878 0.0423631558 -0.3527809875
| 10> S 1.1279750015 1.1166903251 -1.6441006333
| 11> O 3.0858868374 0.8612882341 0.6376746539
| 12> C 2.6796182945 1.9562931061 1.4775677512
| 13> C 2.4353096616 1.4765679346 2.8938347152
| 14> S 1.1441654182 -1.4023144858 0.7819869118
| 15> C -0.1605492922 -1.7942227783 -0.4391629897
| 16> S -1.8262316328 -1.7592636847 0.2555161331
| 17> P -2.1197573581 0.3520621972 0.3834567624
| 18> S -0.8388313234 1.4022182996 1.4241725635
| 19> O -3.6404946912 0.4375621908 0.834086528
| 20> C -4.229423367 -0.3087420585 1.9168357649
| 21> C -3.4617836058 -0.167046919 3.2138997872
| 22> O -2.1808859301 0.9302388493 -1.079183308
| 23> C -3.1220627614 0.5384052897 -2.1089420144
| 24> C -2.5002737022 -0.4657166874 -3.0601577117
| 25> H 5.1910596479 -1.3291556053 -3.6937356156
| 26> H 4.9385509641 -2.414802752 -2.3154220424
| 27> H 3.5995244489 -2.0528971637 -3.4116595548
| 28> H 3.600125862 0.3198065823 -2.6603555652
| 29> H 4.9887640681 -0.0140457586 -1.5927500041
| 30> H 3.5127268353 2.6605752902 1.4333279808
| 31> H 1.7821660484 2.423404412 1.0608659108
| 32> H 2.2427067995 2.3343783427 3.5294506569
| 33> H 1.5674675761 0.8213349206 2.9237594637
| 34> H 3.3045827741 0.9373406224 3.2593020813
| 35> H -0.0066245776 -2.8112435423 -0.7895638732
| 36> H -0.0890058572 -1.0704600844 -1.2552218791
| 37> H -5.2336450851 0.1109510678 1.998891012
| 38> H -4.2858754445 -1.3577078851 1.6135003143
| 39> H -3.3526177734 0.882348122 3.4780881348
| 40> H -3.9929009814 -0.6852587144 4.0056803872
| 41> H -2.4672694099 -0.5998164353 3.1112260195
| 42> H -4.0239103554 0.1442959236 -1.6372283386
| 43> H -3.3511959655 1.4740205441 -2.621620258
| 44> H -2.3733829592 -1.4319930822 -2.5781024207
| 45> H -3.150179262 -0.5846092834 -3.9212477342
| 46> H -1.5313233733 -0.1009210509 -3.3948128387
| 47> *
| 48>
| 49>                          ****END OF INPUT****

CARTESIAN COORDINATES (ANGSTROEM)
---------------------------------
  C      4.484979   -1.644863   -2.932629
  C      4.112703   -0.452218   -2.075867
  O      3.219889   -0.910407   -1.035661
  P      2.155453    0.042363   -0.352781
  S      1.127975    1.116690   -1.644101
  O      3.085887    0.861288    0.637675
  C      2.679618    1.956293    1.477568
  C      2.435310    1.476568    2.893835
  S      1.144165   -1.402314    0.781987
  C     -0.160549   -1.794223   -0.439163
  S     -1.826232   -1.759264    0.255516
  P     -2.119757    0.352062    0.383457
  S     -0.838831    1.402218    1.424173
  O     -3.640495    0.437562    0.834087
  C     -4.229423   -0.308742    1.916836
  C     -3.461784   -0.167047    3.213900
  O     -2.180886    0.930239   -1.079183
  C     -3.122063    0.538405   -2.108942
  C     -2.500274   -0.465717   -3.060158
  H      5.191060   -1.329156   -3.693736
  H      4.938551   -2.414803   -2.315422
  H      3.599524   -2.052897   -3.411660
  H      3.600126    0.319807   -2.660356
  H      4.988764   -0.014046   -1.592750
  H      3.512727    2.660575    1.433328
  H      1.782166    2.423404    1.060866
  H      2.242707    2.334378    3.529451
  H      1.567468    0.821335    2.923759
  H      3.304583    0.937341    3.259302
  H     -0.006625   -2.811244   -0.789564
  H     -0.089006   -1.070460   -1.255222
  H     -5.233645    0.110951    1.998891
  H     -4.285875   -1.357708    1.613500
  H     -3.352618    0.882348    3.478088
  H     -3.992901   -0.685259    4.005680
  H     -2.467269   -0.599816    3.111226
  H     -4.023910    0.144296   -1.637228
  H     -3.351196    1.474021   -2.621620
  H     -2.373383   -1.431993   -2.578102
  H     -3.150179   -0.584609   -3.921248
  H     -1.531323   -0.100921   -3.394813

 Total Charge           Charge          ....    0
 Multiplicity           Mult            ....    1
 Number of Electrons    NEL             ....  202
 Basis Dimension        Dim             ....  334

ORBITAL ENERGIES
----------------

  NO   OCC          E(Eh)            E(eV)
   0   2.0000     -88.046374     -2395.8636
   1   2.0000     -88.036645     -2395.5989
   2   2.0000     -87.977620     -2393.9928
   3   2.0000     -87.975010     -2393.9217
   4   2.0000     -76.423851     -2079.5987
   5   2.0000     -76.418221     -2079.4455
   6   2.0000     -18.792559      -511.3715
   7   2.0000     -18.786252      -511.1999
   8   2.0000     -18.786015      -511.1935
   9   2.0000     -18.778251      -510.9822
  10   2.0000      -9.959834      -271.0209
  11   2.0000      -9.956920      -270.9416
  12   2.0000      -9.952984      -270.8345
  13   2.0000      -9.944071      -270.5919
  14   2.0000      -9.943219      -270.5687
  15   2.0000      -9.883961      -268.9562
  16   2.0000      -9.882809      -268.9249
  17   2.0000      -9.882639      -268.9203
  18   2.0000      -9.873750      -268.6784
  19   2.0000      -7.691185      -209.2878
  20   2.0000      -7.682167      -209.0424
  21   2.0000      -7.622496      -207.4187
  22   2.0000      -7.620126      -207.3542
  23   2.0000      -6.420822      -174.7194
  24   2.0000      -6.416014      -174.5886
  25   2.0000      -5.718784      -155.6160
  26   2.0000      -5.715694      -155.5320
  27   2.0000      -5.710087      -155.3794
  28   2.0000      -5.708486      -155.3358
  29   2.0000      -5.706889      -155.2924
  30   2.0000      -5.698772      -155.0715
  31   2.0000      -5.651325      -153.7804
  32   2.0000      -5.649214      -153.7229
  33   2.0000      -5.643281      -153.5615
  34   2.0000      -5.642566      -153.5420
  35   2.0000      -5.640564      -153.4876
  36   2.0000      -5.640234      -153.4786
  37   2.0000      -4.643801      -126.3642
  38   2.0000      -4.642983      -126.3420
  39   2.0000      -4.640637      -126.2781
  40   2.0000      -4.638559      -126.2216
  41   2.0000      -4.637717      -126.1987
  42   2.0000      -4.636490      -126.1653
  43   2.0000      -0.986119       -26.8337
  44   2.0000      -0.978194       -26.6180
  45   2.0000      -0.942288       -25.6410
  46   2.0000      -0.935388       -25.4532
  47   2.0000      -0.761662       -20.7259
  48   2.0000      -0.719430       -19.5767
  49   2.0000      -0.709453       -19.3052
  50   2.0000      -0.689541       -18.7634
  51   2.0000      -0.680780       -18.5250
  52   2.0000      -0.673632       -18.3304
  53   2.0000      -0.647265       -17.6130
  54   2.0000      -0.628507       -17.1025
  55   2.0000      -0.591070       -16.0838
  56   2.0000      -0.585018       -15.9191
  57   2.0000      -0.575508       -15.6604
  58   2.0000      -0.565182       -15.3794
  59   2.0000      -0.559206       -15.2168
  60   2.0000      -0.502086       -13.6624
  61   2.0000      -0.496872       -13.5206
  62   2.0000      -0.471787       -12.8380
  63   2.0000      -0.469935       -12.7876
  64   2.0000      -0.454051       -12.3554
  65   2.0000      -0.444599       -12.0982
  66   2.0000      -0.436434       -11.8760
  67   2.0000      -0.434383       -11.8202
  68   2.0000      -0.430135       -11.7046
  69   2.0000      -0.413995       -11.2654
  70   2.0000      -0.410231       -11.1630
  71   2.0000      -0.397969       -10.8293
  72   2.0000      -0.387378       -10.5411
  73   2.0000      -0.382734       -10.4147
  74   2.0000      -0.378972       -10.3123
  75   2.0000      -0.367242        -9.9932
  76   2.0000      -0.354889        -9.6570
  77   2.0000      -0.353821        -9.6280
  78   2.0000      -0.351935        -9.5766
  79   2.0000      -0.346391        -9.4258
  80   2.0000      -0.343423        -9.3450
  81   2.0000      -0.341737        -9.2991
  82   2.0000      -0.339912        -9.2495
  83   2.0000      -0.334239        -9.0951
  84   2.0000      -0.328024        -8.9260
  85   2.0000      -0.317719        -8.6456
  86   2.0000      -0.306148        -8.3307
  87   2.0000      -0.296419        -8.0660
  88   2.0000      -0.291433        -7.9303
  89   2.0000      -0.287628        -7.8268
  90   2.0000      -0.280632        -7.6364
  91   2.0000      -0.274216        -7.4618
  92   2.0000      -0.265497        -7.2245
  93   2.0000      -0.262063        -7.1311
  94   2.0000      -0.256091        -6.9686
  95   2.0000      -0.240481        -6.5438
  96   2.0000      -0.221212        -6.0195
  97   2.0000      -0.201901        -5.4940
  98   2.0000      -0.196757        -5.3540
  99   2.0000      -0.183559        -4.9949
 100   2.0000      -0.178408        -4.8547
 101   0.0000      -0.040028        -1.0892
 102   0.0000      -0.029859        -0.8125
 103   0.0000      -0.015233        -0.4145
 104   0.0000       0.002689         0.0732
 105   0.0000       0.022409         0.6098

MULLIKEN ATOMIC CHARGES
-----------------------
   0 C :   -0.278790
   1 C :   -0.005564
   2 O :   -0.373377
   3 P :    0.613604
   4 S :   -0.320716
   5 O :   -0.378565
   6 C :   -0.013263
   7 C :   -0.307920
   8 S :   -0.064262
   9 C :   -0.359352
  10 S :   -0.132765
  11 P :    0.607977
  12 S :   -0.305801
  13 O :   -0.380089
  14 C :   -0.014872
  15 C :   -0.310168
  16 O :   -0.344560
  17 C :   -0.004707
  18 C :   -0.310490
  19 H :    0.108566
  20 H :    0.116256
  21 H :    0.113328
  22 H :    0.100441
  23 H :    0.100625
  24 H :    0.100671
  25 H :    0.127166
  26 H :    0.109115
  27 H :    0.138523
  28 H :    0.109858
  29 H :    0.184474
  30 H :    0.204863
  31 H :    0.110761
  32 H :    0.114286
  33 H :    0.128684
  34 H :    0.110593
  35 H :    0.129088
  36 H :    0.100425
  37 H :    0.111598
  38 H :    0.117959
  39 H :    0.109731
  40 H :    0.136670
Sum of atomic charges:    0.0000000

LOEWDIN ATOMIC CHARGES
----------------------
   0 C :   -0.351371
   1 C :   -0.119309
   2 O :   -0.252982
   3 P :    0.568204
   4 S :   -0.313088
   5 O :   -0.241802
   6 C :   -0.115834
   7 C :   -0.365242
   8 S :    0.091493
   9 C :   -0.478840
  10 S :    0.060315
  11 P :    0.566896
  12 S :   -0.297410
  13 O :   -0.245747
  14 C :   -0.115002
  15 C :   -0.370804
  16 O :   -0.226044
  17 C :   -0.110110
  18 C :   -0.366822
  19 H :    0.129028
  20 H :    0.126536
  21 H :    0.125839
  22 H :    0.104535
  23 H :    0.112396
  24 H :    0.116400
  25 H :    0.111153
  26 H :    0.130369
  27 H :    0.121938
  28 H :    0.123146
  29 H :    0.137445
  30 H :    0.122187
  31 H :    0.122065
  32 H :    0.107419
  33 H :    0.131111
  34 H :    0.129742
  35 H :    0.122352
  36 H :    0.108251
  37 H :    0.123343
  38 H :    0.116978
  39 H :    0.129519
  40 H :    0.131746

  Mayer bond orders larger than 0.100000
B(  0-C ,  1-C ) :   1.1618 B(  0-C , 19-H ) :   0.9424 B(  0-C , 20-H ) :   0.9508
B(  0-C , 21-H ) :   0.9513 B(  1-C ,  2-O ) :   0.9065 B(  1-C , 22-H ) :   0.9042
B(  1-C , 23-H ) :   0.9320 B(  2-O ,  3-P ) :   1.1151 B(  3-P ,  4-S ) :   1.6071
B(  3-P ,  5-O ) :   1.1246 B(  3-P ,  8-S ) :   0.9704 B(  4-S ,  8-S ) :   0.1181
B(  4-S , 30-H ) :   0.1030 B(  5-O ,  6-C ) :   0.8985 B(  6-C ,  7-C ) :   1.1705
B(  6-C , 24-H ) :   0.9340 B(  6-C , 25-H ) :   0.9062 B(  7-C , 26-H ) :   0.9408
B(  7-C , 27-H ) :   0.9312 B(  7-C , 28-H ) :   0.9468 B(  8-S ,  9-C ) :   0.9978
B(  9-C , 10-S ) :   0.9955 B(  9-C , 29-H ) :   0.9105 B(  9-C , 30-H ) :   0.8435
B( 10-S , 11-P ) :   0.9302 B( 10-S , 12-S ) :   0.1155 B( 11-P , 12-S ) :   1.6667
B( 11-P , 13-O ) :   1.0849 B( 11-P , 16-O ) :   1.1401 B( 13-O , 14-C ) :   0.9126
B( 14-C , 15-C ) :   1.1679 B( 14-C , 31-H ) :   0.9332 B( 14-C , 32-H ) :   0.9259
B( 15-C , 33-H ) :   0.9416 B( 15-C , 34-H ) :   0.9339 B( 15-C , 35-H ) :   0.9312
B( 16-O , 17-C ) :   0.8999 B( 17-C , 18-C ) :   1.1706 B( 17-C , 36-H ) :   0.9192
B( 17-C , 37-H ) :   0.9348 B( 18-C , 38-H ) :   0.9338 B( 18-C , 39-H ) :   0.9384
B( 18-C , 40-H ) :   0.9355

Dispersion correction           -0.066160600
FINAL SINGLE POINT ENERGY     -2929.510313798232

DIPOLE MOMENT
-------------

Method             : SCF
Type of density    : Electron Density
Multiplicity       :   1
Irrep              :   0
Energy             : -2929.6280842471628603 Eh
Relativity type    :
Basis              : AO
                                X                 Y                 Z
Electronic contribution:     -1.344236717       1.726560709       3.011711546
Nuclear contribution   :      0.802623042      -2.513789698      -3.304448785
                        -----------------------------------------
Total Dipole Moment    :     -0.541613675      -0.787228989      -0.292737239
                        -----------------------------------------
Magnitude (a.u.)       :      0.999384783
Magnitude (Debye)      :      2.540234243

Rotational constants in cm-1:             0.011759             0.005482             0.004691
Rotational constants in MHz :           352.521106           164.339451           140.632577

                             ****ORCA TERMINATED NORMALLY****
TOTAL RUN TIME: 0 days 0 hours 0 minutes 21 seconds 64 msec
