                         Program Version 6.0.0  -   RELEASE  -
|  1> ! pbe def2-sv(p) def2/J RI DEFGRID1 loosescf d4 GCP(DFT/SV(P)) printgap
|  2> %output
|  3>     printlevel normal
|  4> end
|  5> * xyz 0 1
|  6> C 2.1775276714 -2.550672595 -2.9513130782
|  7> C 2.6932643336 -1.3392176666 -2.2030801725
|  8> O 2.1770196183 -1.4023219448 -0.8523382086
|  9> P 2.2157656517 -0.1425039017 0.1039025232
| 10> S 1.3640906231 1.4928100809 -0.585706338
| 11> O 3.7812234007 0.0088914819 0.3529652308
| 12> C 4.3619982716 1.1941467137 0.9221203259
| 13> C 3.9580257579 1.3858441815 2.3695943958
| 14> S 1.4596336672 -1.0267325975 1.8556589952
| 15> C -0.2690031717 -0.5238757668 1.7110591927
| 16> S -1.0742444229 -1.2382121877 0.2342687198
| 17> P -2.4666716741 0.328620009 -0.1757157609
| 18> S -2.1086759183 2.047642723 0.7100790433
| 19> O -3.8885015028 -0.3254142464 0.0573962123
| 20> C -4.2607906979 -1.0782386463 1.224691605
| 21> C -4.2950211641 -0.2257764937 2.478033108
| 22> O -2.6195185947 0.4046729539 -1.7463946884
| 23> C -1.712768239 1.1244205383 -2.597980148
| 24> C -0.7692343253 0.1595914246 -3.2878710217
| 25> H 2.5139705132 -3.4584240612 -2.4593635595
| 26> H 1.0911570617 -2.5469733139 -2.970530592
| 27> H 2.5545883735 -2.5284313194 -3.9684613817
| 28> H 2.3579071717 -0.4031770337 -2.6626432476
| 29> H 3.7843322072 -1.3367861803 -2.1459956589
| 30> H 5.4361754316 1.0345021499 0.8198317918
| 31> H 4.0535645413 2.054131543 0.3186781222
| 32> H 4.1610007054 0.4836940707 2.9411748335
| 33> H 4.5151743194 2.2158857366 2.7920394064
| 34> H 2.8933695203 1.6090956721 2.4323743652
| 35> H -0.3441162068 0.5660126713 1.6427003369
| 36> H -0.7555913515 -0.8990018278 2.6082197875
| 37> H -5.2531464693 -1.459465318 0.9774448461
| 38> H -3.5643883571 -1.9151410898 1.3372809428
| 39> H -4.6421418077 -0.8256935377 3.3131719433
| 40> H -3.3018886549 0.1609376405 2.701789873
| 41> H -4.9639765688 0.6197652388 2.3389225867
| 42> H -2.3481898581 1.6424153908 -3.3188312443
| 43> H -1.1602154223 1.8644063286 -2.0074156976
| 44> H -1.3363253448 -0.5893152998 -3.8331114656
| 45> H -0.1343102231 0.710370017 -3.974435593
| 46> H -0.1449776788 -0.3382378307 -2.5489615654
| 47> *
| 48>
| 49>                          ****END OF INPUT****

CARTESIAN COORDINATES (ANGSTROEM)
---------------------------------
  C      2.177528   -2.550673   -2.951313
  C      2.693264   -1.339218   -2.203080
  O      2.177020   -1.402322   -0.852338
  P      2.215766   -0.142504    0.103903
  S      1.364091    1.492810   -0.585706
  O      3.781223    0.008891    0.352965
  C      4.361998    1.194147    0.922120
  C      3.958026    1.385844    2.369594
  S      1.459634   -1.026733    1.855659
  C     -0.269003   -0.523876    1.711059
  S     -1.074244   -1.238212    0.234269
  P     -2.466672    0.328620   -0.175716
  S     -2.108676    2.047643    0.710079
  O     -3.888502   -0.325414    0.057396
  C     -4.260791   -1.078239    1.224692
  C     -4.295021   -0.225776    2.478033
  O     -2.619519    0.404673   -1.746395
  C     -1.712768    1.124421   -2.597980
  C     -0.769234    0.159591   -3.287871
  H      2.513971   -3.458424   -2.459364
  H      1.091157   -2.546973   -2.970531
  H      2.554588   -2.528431   -3.968461
  H      2.357907   -0.403177   -2.662643
  H      3.784332   -1.336786   -2.145996
  H      5.436175    1.034502    0.819832
  H      4.053565    2.054132    0.318678
  H      4.161001    0.483694    2.941175
  H      4.515174    2.215886    2.792039
  H      2.893370    1.609096    2.432374
  H     -0.344116    0.566013    1.642700
  H     -0.755591   -0.899002    2.608220
  H     -5.253146   -1.459465    0.977445
  H     -3.564388   -1.915141    1.337281
  H     -4.642142   -0.825694    3.313172
  H     -3.301889    0.160938    2.701790
  H     -4.963977    0.619765    2.338923
  H     -2.348190    1.642415   -3.318831
  H     -1.160215    1.864406   -2.007416
  H     -1.336325   -0.589315   -3.833111
  H     -0.134310    0.710370   -3.974436
  H     -0.144978   -0.338238   -2.548962

 Total Charge           Charge          ....    0
 Multiplicity           Mult            ....    1
 Number of Electrons    NEL             ....  202
 Basis Dimension        Dim             ....  334

ORBITAL ENERGIES
----------------

  NO   OCC          E(Eh)            E(eV)
   0   2.0000     -88.049331     -2395.9441
   1   2.0000     -88.043651     -2395.7895
   2   2.0000     -87.987414     -2394.2592
   3   2.0000     -87.982263     -2394.1191
   4   2.0000     -76.427655     -2079.7022
   5   2.0000     -76.423257     -2079.5826
   6   2.0000     -18.795240      -511.4445
   7   2.0000     -18.790716      -511.3214
   8   2.0000     -18.785856      -511.1891
   9   2.0000     -18.785684      -511.1845
  10   2.0000      -9.955677      -270.9077
  11   2.0000      -9.953597      -270.8511
  12   2.0000      -9.953570      -270.8504
  13   2.0000      -9.953050      -270.8363
  14   2.0000      -9.942908      -270.5603
  15   2.0000      -9.887959      -269.0650
  16   2.0000      -9.885391      -268.9952
  17   2.0000      -9.882950      -268.9287
  18   2.0000      -9.876904      -268.7642
  19   2.0000      -7.694800      -209.3862
  20   2.0000      -7.687737      -209.1940
  21   2.0000      -7.632055      -207.6788
  22   2.0000      -7.627298      -207.5493
  23   2.0000      -6.425297      -174.8412
  24   2.0000      -6.420402      -174.7080
  25   2.0000      -5.722807      -155.7255
  26   2.0000      -5.719225      -155.6280
  27   2.0000      -5.715557      -155.5282
  28   2.0000      -5.712326      -155.4403
  29   2.0000      -5.711645      -155.4218
  30   2.0000      -5.704865      -155.2373
  31   2.0000      -5.660824      -154.0389
  32   2.0000      -5.656183      -153.9126
  33   2.0000      -5.652824      -153.8212
  34   2.0000      -5.652257      -153.8057
  35   2.0000      -5.647908      -153.6874
  36   2.0000      -5.647487      -153.6759
  37   2.0000      -4.647881      -126.4753
  38   2.0000      -4.646978      -126.4507
  39   2.0000      -4.645784      -126.4182
  40   2.0000      -4.642687      -126.3339
  41   2.0000      -4.642583      -126.3311
  42   2.0000      -4.640737      -126.2809
  43   2.0000      -0.988731       -26.9047
  44   2.0000      -0.985026       -26.8039
  45   2.0000      -0.945877       -25.7386
  46   2.0000      -0.939913       -25.5763
  47   2.0000      -0.764828       -20.8120
  48   2.0000      -0.721115       -19.6225
  49   2.0000      -0.710637       -19.3374
  50   2.0000      -0.689183       -18.7536
  51   2.0000      -0.681198       -18.5363
  52   2.0000      -0.676307       -18.4033
  53   2.0000      -0.650787       -17.7088
  54   2.0000      -0.633989       -17.2517
  55   2.0000      -0.599651       -16.3173
  56   2.0000      -0.592401       -16.1200
  57   2.0000      -0.575720       -15.6661
  58   2.0000      -0.565112       -15.3775
  59   2.0000      -0.556561       -15.1448
  60   2.0000      -0.506238       -13.7754
  61   2.0000      -0.495740       -13.4898
  62   2.0000      -0.474931       -12.9235
  63   2.0000      -0.467106       -12.7106
  64   2.0000      -0.451756       -12.2929
  65   2.0000      -0.447773       -12.1845
  66   2.0000      -0.442517       -12.0415
  67   2.0000      -0.430554       -11.7160
  68   2.0000      -0.422623       -11.5001
  69   2.0000      -0.417667       -11.3653
  70   2.0000      -0.412508       -11.2249
  71   2.0000      -0.409663       -11.1475
  72   2.0000      -0.392701       -10.6859
  73   2.0000      -0.385194       -10.4817
  74   2.0000      -0.382525       -10.4090
  75   2.0000      -0.373074       -10.1519
  76   2.0000      -0.362606        -9.8670
  77   2.0000      -0.357030        -9.7153
  78   2.0000      -0.352578        -9.5941
  79   2.0000      -0.348951        -9.4954
  80   2.0000      -0.347830        -9.4649
  81   2.0000      -0.343433        -9.3453
  82   2.0000      -0.340834        -9.2746
  83   2.0000      -0.336022        -9.1436
  84   2.0000      -0.329371        -8.9627
  85   2.0000      -0.317259        -8.6330
  86   2.0000      -0.313333        -8.5262
  87   2.0000      -0.298349        -8.1185
  88   2.0000      -0.294102        -8.0029
  89   2.0000      -0.291875        -7.9423
  90   2.0000      -0.283978        -7.7274
  91   2.0000      -0.275932        -7.5085
  92   2.0000      -0.266706        -7.2574
  93   2.0000      -0.264837        -7.2066
  94   2.0000      -0.256938        -6.9916
  95   2.0000      -0.236685        -6.4405
  96   2.0000      -0.224914        -6.1202
  97   2.0000      -0.212765        -5.7896
  98   2.0000      -0.201960        -5.4956
  99   2.0000      -0.198280        -5.3955
 100   2.0000      -0.189400        -5.1538
 101   0.0000      -0.046755        -1.2723
 102   0.0000      -0.034803        -0.9470
 103   0.0000      -0.014100        -0.3837
 104   0.0000       0.012567         0.3420
 105   0.0000       0.014990         0.4079

MULLIKEN ATOMIC CHARGES
-----------------------
   0 C :   -0.282104
   1 C :   -0.012984
   2 O :   -0.368689
   3 P :    0.614850
   4 S :   -0.323253
   5 O :   -0.380035
   6 C :   -0.003092
   7 C :   -0.319222
   8 S :   -0.078796
   9 C :   -0.365129
  10 S :   -0.115803
  11 P :    0.603793
  12 S :   -0.309069
  13 O :   -0.354176
  14 C :   -0.008961
  15 C :   -0.311661
  16 O :   -0.355563
  17 C :   -0.006072
  18 C :   -0.329584
  19 H :    0.117623
  20 H :    0.125975
  21 H :    0.110054
  22 H :    0.105951
  23 H :    0.105448
  24 H :    0.104515
  25 H :    0.112237
  26 H :    0.117946
  27 H :    0.114821
  28 H :    0.130302
  29 H :    0.213305
  30 H :    0.181650
  31 H :    0.108700
  32 H :    0.105582
  33 H :    0.108338
  34 H :    0.123358
  35 H :    0.124805
  36 H :    0.103404
  37 H :    0.121866
  38 H :    0.109161
  39 H :    0.108214
  40 H :    0.152298
Sum of atomic charges:    0.0000000

LOEWDIN ATOMIC CHARGES
----------------------
   0 C :   -0.350027
   1 C :   -0.116151
   2 O :   -0.244576
   3 P :    0.565629
   4 S :   -0.305668
   5 O :   -0.247866
   6 C :   -0.119935
   7 C :   -0.369232
   8 S :    0.101617
   9 C :   -0.483684
  10 S :    0.067581
  11 P :    0.567840
  12 S :   -0.294813
  13 O :   -0.235005
  14 C :   -0.119188
  15 C :   -0.367179
  16 O :   -0.230667
  17 C :   -0.117005
  18 C :   -0.366521
  19 H :    0.128479
  20 H :    0.128925
  21 H :    0.130338
  22 H :    0.107655
  23 H :    0.113106
  24 H :    0.118359
  25 H :    0.110972
  26 H :    0.124170
  27 H :    0.131913
  28 H :    0.122412
  29 H :    0.122696
  30 H :    0.131673
  31 H :    0.121087
  32 H :    0.102101
  33 H :    0.128053
  34 H :    0.117945
  35 H :    0.131148
  36 H :    0.117394
  37 H :    0.107512
  38 H :    0.122022
  39 H :    0.128074
  40 H :    0.118815

  Mayer bond orders larger than 0.100000
B(  0-C ,  1-C ) :   1.1666 B(  0-C , 19-H ) :   0.9475 B(  0-C , 20-H ) :   0.9489
B(  0-C , 21-H ) :   0.9412 B(  1-C ,  2-O ) :   0.8918 B(  1-C , 22-H ) :   0.9098
B(  1-C , 23-H ) :   0.9303 B(  2-O ,  3-P ) :   1.1265 B(  3-P ,  4-S ) :   1.6216
B(  3-P ,  5-O ) :   1.0965 B(  3-P ,  8-S ) :   0.9577 B(  4-S ,  8-S ) :   0.1169
B(  5-O ,  6-C ) :   0.9089 B(  6-C ,  7-C ) :   1.1652 B(  6-C , 24-H ) :   0.9335
B(  6-C , 25-H ) :   0.9146 B(  7-C , 26-H ) :   0.9447 B(  7-C , 27-H ) :   0.9379
B(  7-C , 28-H ) :   0.9356 B(  8-S ,  9-C ) :   1.0077 B(  9-C , 10-S ) :   0.9891
B(  9-C , 29-H ) :   0.8439 B(  9-C , 30-H ) :   0.9042 B( 10-S , 11-P ) :   0.9264
B( 10-S , 12-S ) :   0.1297 B( 11-P , 12-S ) :   1.6264 B( 11-P , 13-O ) :   1.1180
B( 11-P , 16-O ) :   1.1425 B( 12-S , 29-H ) :   0.1037 B( 13-O , 14-C ) :   0.9270
B( 14-C , 15-C ) :   1.1593 B( 14-C , 31-H ) :   0.9343 B( 14-C , 32-H ) :   0.9152
B( 15-C , 33-H ) :   0.9375 B( 15-C , 34-H ) :   0.9329 B( 15-C , 35-H ) :   0.9449
B( 16-O , 17-C ) :   0.9056 B( 17-C , 18-C ) :   1.1680 B( 17-C , 36-H ) :   0.9339
B( 17-C , 37-H ) :   0.9011 B( 18-C , 38-H ) :   0.9449 B( 18-C , 39-H ) :   0.9387
B( 18-C , 40-H ) :   0.9215

Dispersion correction           -0.065927830
FINAL SINGLE POINT ENERGY     -2929.521312582543

DIPOLE MOMENT
-------------

Method             : SCF
Type of density    : Electron Density
Multiplicity       :   1
Irrep              :   0
Energy             : -2929.6392760543722034 Eh
Relativity type    :
Basis              : AO
                                X                 Y                 Z
Electronic contribution:     -4.529286349       2.504217524       5.308416601
Nuclear contribution   :      5.303800772      -3.355640653      -5.348137663
                        -----------------------------------------
Total Dipole Moment    :      0.774514423      -0.851423129      -0.039721062
                        -----------------------------------------
Magnitude (a.u.)       :      1.151682117
Magnitude (Debye)      :      2.927343301

Rotational constants in cm-1:             0.011321             0.005397             0.004763
Rotational constants in MHz :           339.387920           161.806142           142.785979

                             ****ORCA TERMINATED NORMALLY****
TOTAL RUN TIME: 0 days 0 hours 0 minutes 20 seconds 918 msec
