                         Program Version 6.0.0  -   RELEASE  -
|  1> ! pbe def2-sv(p) def2/J RI DEFGRID1 loosescf d4 GCP(DFT/SV(P)) printgap
|  2> %output
|  3>     printlevel normal
|  4> end
|  5> * xyz 0 1
|  6> C 2.9150319334 -1.4036410704 -3.1944581597
|  7> C 3.7466758631 -0.4854607415 -2.3223908231
|  8> O 3.3716985408 -0.5911382056 -0.9415691452
|  9> P 1.956538511 -0.0796606619 -0.4057240049
| 10> S 1.4676195804 1.6281297369 -1.2510805074
| 11> O 2.2075316521 -0.0819662514 1.1565242259
| 12> C 2.8981872869 1.0106877913 1.8027471572
| 13> C 2.6374343691 0.9095358468 3.2903774764
| 14> S 0.7783408557 -1.8280120319 -0.5593719295
| 15> C -0.1923153456 -1.8996893772 0.9842920782
| 16> S -1.9651833274 -1.6436043586 0.7338906269
| 17> P -1.8635202221 0.4526948582 0.4100581945
| 18> S -0.6812869637 1.4257810252 1.6240718971
| 19> O -3.3819717502 0.9209754599 0.4156255377
| 20> C -4.0883525013 1.2836272541 1.6170716354
| 21> C -4.2741142553 0.1096701412 2.555975105
| 22> O -1.4839989451 0.6133919188 -1.1107304349
| 23> C -2.3213832486 0.0986894094 -2.1819016496
| 24> C -1.4251293406 -0.4610662657 -3.2666371048
| 25> H 3.2618104679 -1.3446179034 -4.220877446
| 26> H 2.9867962974 -2.4293877654 -2.8425183346
| 27> H 1.8705359058 -1.0925950905 -3.1537704989
| 28> H 3.6248178274 0.5575807807 -2.6338391938
| 29> H 4.8026922728 -0.7576260308 -2.3330501752
| 30> H 3.9613556625 0.919296152 1.5678279102
| 31> H 2.5173582683 1.952907336 1.3933798836
| 32> H 1.5753038952 1.035434711 3.4871027543
| 33> H 2.9589417947 -0.0601559055 3.6589996294
| 34> H 3.1884491256 1.6929670293 3.7997866721
| 35> H 0.188124682 -1.1531471491 1.6804946342
| 36> H -0.0804298109 -2.906830113 1.3762186552
| 37> H -3.5358840175 2.0890043189 2.1107379615
| 38> H -5.0429894528 1.6610587646 1.2477562477
| 39> H -3.3134588645 -0.1950825527 2.9676732887
| 40> H -4.9268903878 0.4063097528 3.3706286746
| 41> H -4.7139346023 -0.7326480241 2.0280143143
| 42> H -2.9864410124 -0.6678655113 -1.773924059
| 43> H -2.9128832151 0.9411288355 -2.5437748776
| 44> H -2.0315442451 -0.730243627 -4.1251448991
| 45> H -0.6959124405 0.290299482 -3.5608788487
| 46> H -0.8979986517 -1.3423823363 -2.9080800967
| 47> *
| 48>
| 49>                          ****END OF INPUT****

CARTESIAN COORDINATES (ANGSTROEM)
---------------------------------
  C      2.915032   -1.403641   -3.194458
  C      3.746676   -0.485461   -2.322391
  O      3.371699   -0.591138   -0.941569
  P      1.956539   -0.079661   -0.405724
  S      1.467620    1.628130   -1.251081
  O      2.207532   -0.081966    1.156524
  C      2.898187    1.010688    1.802747
  C      2.637434    0.909536    3.290377
  S      0.778341   -1.828012   -0.559372
  C     -0.192315   -1.899689    0.984292
  S     -1.965183   -1.643604    0.733891
  P     -1.863520    0.452695    0.410058
  S     -0.681287    1.425781    1.624072
  O     -3.381972    0.920975    0.415626
  C     -4.088353    1.283627    1.617072
  C     -4.274114    0.109670    2.555975
  O     -1.483999    0.613392   -1.110730
  C     -2.321383    0.098689   -2.181902
  C     -1.425129   -0.461066   -3.266637
  H      3.261810   -1.344618   -4.220877
  H      2.986796   -2.429388   -2.842518
  H      1.870536   -1.092595   -3.153770
  H      3.624818    0.557581   -2.633839
  H      4.802692   -0.757626   -2.333050
  H      3.961356    0.919296    1.567828
  H      2.517358    1.952907    1.393380
  H      1.575304    1.035435    3.487103
  H      2.958942   -0.060156    3.659000
  H      3.188449    1.692967    3.799787
  H      0.188125   -1.153147    1.680495
  H     -0.080430   -2.906830    1.376219
  H     -3.535884    2.089004    2.110738
  H     -5.042989    1.661059    1.247756
  H     -3.313459   -0.195083    2.967673
  H     -4.926890    0.406310    3.370629
  H     -4.713935   -0.732648    2.028014
  H     -2.986441   -0.667866   -1.773924
  H     -2.912883    0.941129   -2.543775
  H     -2.031544   -0.730244   -4.125145
  H     -0.695912    0.290299   -3.560879
  H     -0.897999   -1.342382   -2.908080

 Total Charge           Charge          ....    0
 Multiplicity           Mult            ....    1
 Number of Electrons    NEL             ....  202
 Basis Dimension        Dim             ....  334

ORBITAL ENERGIES
----------------

  NO   OCC          E(Eh)            E(eV)
   0   2.0000     -88.042592     -2395.7607
   1   2.0000     -88.037970     -2395.6349
   2   2.0000     -87.985134     -2394.1972
   3   2.0000     -87.972866     -2393.8634
   4   2.0000     -76.424500     -2079.6164
   5   2.0000     -76.416847     -2079.4081
   6   2.0000     -18.794130      -511.4143
   7   2.0000     -18.784814      -511.1608
   8   2.0000     -18.784178      -511.1435
   9   2.0000     -18.779355      -511.0122
  10   2.0000      -9.956857      -270.9398
  11   2.0000      -9.954382      -270.8725
  12   2.0000      -9.950068      -270.7551
  13   2.0000      -9.943643      -270.5803
  14   2.0000      -9.943558      -270.5780
  15   2.0000      -9.885775      -269.0056
  16   2.0000      -9.882119      -268.9061
  17   2.0000      -9.878624      -268.8110
  18   2.0000      -9.877278      -268.7744
  19   2.0000      -7.687810      -209.1959
  20   2.0000      -7.683221      -209.0711
  21   2.0000      -7.630123      -207.6262
  22   2.0000      -7.617773      -207.2901
  23   2.0000      -6.422018      -174.7520
  24   2.0000      -6.414499      -174.5474
  25   2.0000      -5.715520      -155.5272
  26   2.0000      -5.712279      -155.4390
  27   2.0000      -5.711535      -155.4188
  28   2.0000      -5.707496      -155.3089
  29   2.0000      -5.704958      -155.2398
  30   2.0000      -5.699896      -155.1021
  31   2.0000      -5.658967      -153.9883
  32   2.0000      -5.650647      -153.7619
  33   2.0000      -5.650384      -153.7548
  34   2.0000      -5.646760      -153.6561
  35   2.0000      -5.638657      -153.4357
  36   2.0000      -5.637617      -153.4074
  37   2.0000      -4.644909      -126.3944
  38   2.0000      -4.643714      -126.3619
  39   2.0000      -4.642265      -126.3225
  40   2.0000      -4.637145      -126.1831
  41   2.0000      -4.636347      -126.1614
  42   2.0000      -4.634776      -126.1187
  43   2.0000      -0.986344       -26.8398
  44   2.0000      -0.978030       -26.6136
  45   2.0000      -0.941462       -25.6185
  46   2.0000      -0.936369       -25.4799
  47   2.0000      -0.760695       -20.6996
  48   2.0000      -0.717382       -19.5210
  49   2.0000      -0.706393       -19.2219
  50   2.0000      -0.687829       -18.7168
  51   2.0000      -0.681185       -18.5360
  52   2.0000      -0.671312       -18.2673
  53   2.0000      -0.648765       -17.6538
  54   2.0000      -0.629132       -17.1196
  55   2.0000      -0.596895       -16.2423
  56   2.0000      -0.584693       -15.9103
  57   2.0000      -0.567822       -15.4512
  58   2.0000      -0.563946       -15.3458
  59   2.0000      -0.558339       -15.1932
  60   2.0000      -0.501989       -13.6598
  61   2.0000      -0.496347       -13.5063
  62   2.0000      -0.472438       -12.8557
  63   2.0000      -0.465091       -12.6558
  64   2.0000      -0.450598       -12.2614
  65   2.0000      -0.444275       -12.0893
  66   2.0000      -0.438635       -11.9359
  67   2.0000      -0.433099       -11.7852
  68   2.0000      -0.424833       -11.5603
  69   2.0000      -0.421390       -11.4666
  70   2.0000      -0.413077       -11.2404
  71   2.0000      -0.390596       -10.6286
  72   2.0000      -0.385420       -10.4878
  73   2.0000      -0.382331       -10.4037
  74   2.0000      -0.378686       -10.3046
  75   2.0000      -0.365966        -9.9584
  76   2.0000      -0.363598        -9.8940
  77   2.0000      -0.353810        -9.6277
  78   2.0000      -0.350025        -9.5247
  79   2.0000      -0.349248        -9.5035
  80   2.0000      -0.347415        -9.4536
  81   2.0000      -0.339177        -9.2295
  82   2.0000      -0.337061        -9.1719
  83   2.0000      -0.331531        -9.0214
  84   2.0000      -0.326252        -8.8778
  85   2.0000      -0.312933        -8.5154
  86   2.0000      -0.304488        -8.2855
  87   2.0000      -0.298994        -8.1360
  88   2.0000      -0.294684        -8.0187
  89   2.0000      -0.289982        -7.8908
  90   2.0000      -0.282579        -7.6894
  91   2.0000      -0.267036        -7.2664
  92   2.0000      -0.266289        -7.2461
  93   2.0000      -0.260922        -7.1001
  94   2.0000      -0.252739        -6.8774
  95   2.0000      -0.235254        -6.4016
  96   2.0000      -0.218835        -5.9548
  97   2.0000      -0.210587        -5.7304
  98   2.0000      -0.201363        -5.4794
  99   2.0000      -0.188474        -5.1286
 100   2.0000      -0.176428        -4.8008
 101   0.0000      -0.041996        -1.1428
 102   0.0000      -0.027857        -0.7580
 103   0.0000      -0.021756        -0.5920
 104   0.0000       0.003168         0.0862
 105   0.0000       0.018338         0.4990

MULLIKEN ATOMIC CHARGES
-----------------------
   0 C :   -0.337148
   1 C :    0.000870
   2 O :   -0.377481
   3 P :    0.612600
   4 S :   -0.305455
   5 O :   -0.376288
   6 C :   -0.002222
   7 C :   -0.290068
   8 S :   -0.107287
   9 C :   -0.356201
  10 S :   -0.100575
  11 P :    0.597834
  12 S :   -0.305092
  13 O :   -0.381022
  14 C :    0.001558
  15 C :   -0.320212
  16 O :   -0.337964
  17 C :   -0.004176
  18 C :   -0.304748
  19 H :    0.113550
  20 H :    0.120764
  21 H :    0.134967
  22 H :    0.106503
  23 H :    0.101259
  24 H :    0.101095
  25 H :    0.114326
  26 H :    0.131695
  27 H :    0.110665
  28 H :    0.108349
  29 H :    0.213695
  30 H :    0.183529
  31 H :    0.113043
  32 H :    0.105463
  33 H :    0.127952
  34 H :    0.114526
  35 H :    0.117316
  36 H :    0.097323
  37 H :    0.108366
  38 H :    0.102136
  39 H :    0.133487
  40 H :    0.133067
Sum of atomic charges:   -0.0000000

LOEWDIN ATOMIC CHARGES
----------------------
   0 C :   -0.371681
   1 C :   -0.124660
   2 O :   -0.250799
   3 P :    0.564472
   4 S :   -0.300512
   5 O :   -0.241930
   6 C :   -0.116329
   7 C :   -0.354388
   8 S :    0.082178
   9 C :   -0.477671
  10 S :    0.068539
  11 P :    0.570169
  12 S :   -0.292782
  13 O :   -0.247999
  14 C :   -0.115544
  15 C :   -0.371844
  16 O :   -0.226852
  17 C :   -0.110049
  18 C :   -0.360796
  19 H :    0.131393
  20 H :    0.124914
  21 H :    0.120451
  22 H :    0.106394
  23 H :    0.116982
  24 H :    0.111522
  25 H :    0.111394
  26 H :    0.125036
  27 H :    0.124094
  28 H :    0.129598
  29 H :    0.132381
  30 H :    0.139155
  31 H :    0.113351
  32 H :    0.119057
  33 H :    0.121378
  34 H :    0.131889
  35 H :    0.123145
  36 H :    0.101881
  37 H :    0.117869
  38 H :    0.126177
  39 H :    0.130695
  40 H :    0.119721

  Mayer bond orders larger than 0.100000
B(  0-C ,  1-C ) :   1.1618 B(  0-C , 19-H ) :   0.9385 B(  0-C , 20-H ) :   0.9431
B(  0-C , 21-H ) :   0.9284 B(  1-C ,  2-O ) :   0.9212 B(  1-C , 22-H ) :   0.9076
B(  1-C , 23-H ) :   0.9318 B(  2-O ,  3-P ) :   1.0779 B(  3-P ,  4-S ) :   1.6447
B(  3-P ,  5-O ) :   1.1177 B(  3-P ,  8-S ) :   0.9478 B(  4-S ,  8-S ) :   0.1088
B(  5-O ,  6-C ) :   0.8895 B(  6-C ,  7-C ) :   1.1638 B(  6-C , 24-H ) :   0.9313
B(  6-C , 25-H ) :   0.9100 B(  7-C , 26-H ) :   0.9436 B(  7-C , 27-H ) :   0.9492
B(  7-C , 28-H ) :   0.9412 B(  8-S ,  9-C ) :   0.9954 B(  9-C , 10-S ) :   1.0022
B(  9-C , 29-H ) :   0.8606 B(  9-C , 30-H ) :   0.9108 B( 10-S , 11-P ) :   0.9394
B( 10-S , 12-S ) :   0.1059 B( 11-P , 12-S ) :   1.6314 B( 11-P , 13-O ) :   1.0894
B( 11-P , 16-O ) :   1.1564 B( 13-O , 14-C ) :   0.9063 B( 14-C , 15-C ) :   1.1660
B( 14-C , 31-H ) :   0.9185 B( 14-C , 32-H ) :   0.9344 B( 15-C , 33-H ) :   0.9343
B( 15-C , 34-H ) :   0.9370 B( 15-C , 35-H ) :   0.9437 B( 16-O , 17-C ) :   0.8859
B( 17-C , 18-C ) :   1.1646 B( 17-C , 36-H ) :   0.9129 B( 17-C , 37-H ) :   0.9339
B( 18-C , 38-H ) :   0.9365 B( 18-C , 39-H ) :   0.9407 B( 18-C , 40-H ) :   0.9349

Dispersion correction           -0.068704755
FINAL SINGLE POINT ENERGY     -2929.512650838661

DIPOLE MOMENT
-------------

Method             : SCF
Type of density    : Electron Density
Multiplicity       :   1
Irrep              :   0
Energy             : -2929.6297479935333286 Eh
Relativity type    :
Basis              : AO
                                X                 Y                 Z
Electronic contribution:     -0.238936548       1.314051017       1.414096978
Nuclear contribution   :     -0.250635329      -2.059647691      -1.347063545
                        -----------------------------------------
Total Dipole Moment    :     -0.489571877      -0.745596673       0.067033434
                        -----------------------------------------
Magnitude (a.u.)       :      0.894476665
Magnitude (Debye)      :      2.273578997

Rotational constants in cm-1:             0.011566             0.006175             0.005183
Rotational constants in MHz :           346.727259           185.115492           155.393375

                             ****ORCA TERMINATED NORMALLY****
TOTAL RUN TIME: 0 days 0 hours 0 minutes 21 seconds 950 msec
