                         Program Version 6.0.0  -   RELEASE  -
|  1> ! pbe def2-sv(p) def2/J RI DEFGRID1 loosescf d4 GCP(DFT/SV(P)) printgap
|  2> %output
|  3>     printlevel normal
|  4> end
|  5> * xyz 0 1
|  6> C 3.3654099325 -2.1383936934 -2.1706184701
|  7> C 3.9964064921 -0.8337533015 -1.7267705652
|  8> O 3.5780323831 -0.4457744077 -0.4090961138
|  9> P 2.0872436401 0.0062345479 -0.0630119041
| 10> S 1.2676645547 1.0942868284 -1.4788826275
| 11> O 2.3194672058 0.641546813 1.3639565774
| 12> C 2.5873783569 2.0410085294 1.5685405234
| 13> C 3.9058465221 2.467236579 0.9580494088
| 14> S 1.1001470069 -1.7676978382 0.5088496551
| 15> C -0.2444316022 -1.7979728134 -0.7324582488
| 16> S -1.9075773614 -1.7225960528 -0.0233844804
| 17> P -2.0559992639 0.3634447622 0.3632379911
| 18> S -0.8061938197 1.1650132813 1.6402418087
| 19> O -3.5892112216 0.5193360263 0.7582798649
| 20> C -4.0633787003 0.3775952 2.1085933503
| 21> C -3.9008864343 -1.0360450013 2.6280129041
| 22> O -1.9921349668 1.0837556219 -1.0353923772
| 23> C -2.9482285287 0.8927856273 -2.1124274786
| 24> C -2.3802538983 -0.0174817987 -3.1834923047
| 25> H 3.5140283454 -2.9054336431 -1.4148203362
| 26> H 2.2968838563 -1.998446717 -2.3276236088
| 27> H 3.819708258 -2.4567224921 -3.1033895933
| 28> H 3.7395919439 -0.0272319857 -2.4214594835
| 29> H 5.0804918835 -0.9194403034 -1.641173322
| 30> H 1.7532302596 2.6156573709 1.151706657
| 31> H 2.5848345482 2.145957664 2.6544777724
| 32> H 4.7088871151 1.8325625219 1.3237652599
| 33> H 3.8569479496 2.3855014658 -0.1274679609
| 34> H 4.106535769 3.4999207896 1.2256219974
| 35> H -0.1926657035 -2.7527882253 -1.2485607018
| 36> H -0.1008437148 -0.9562345253 -1.4163006669
| 37> H -3.5189683226 1.0858586 2.7409996978
| 38> H -5.1132417836 0.667166783 2.0447510624
| 39> H -4.3885927915 -1.120938239 3.5937814567
| 40> H -4.3416986139 -1.7481424453 1.934877746
| 41> H -2.8435766155 -1.2696388734 2.7467797011
| 42> H -3.8776790624 0.5001958971 -1.6973169708
| 43> H -3.1106988489 1.9001134651 -2.4989969966
| 44> H -2.3230171753 -1.044069423 -2.8307646615
| 45> H -3.0264643073 0.0203354755 -4.0546941319
| 46> H -1.3858690817 0.3228782178 -3.4641773789
| 47> *
| 48>
| 49>                          ****END OF INPUT****

CARTESIAN COORDINATES (ANGSTROEM)
---------------------------------
  C      3.365410   -2.138394   -2.170618
  C      3.996406   -0.833753   -1.726771
  O      3.578032   -0.445774   -0.409096
  P      2.087244    0.006235   -0.063012
  S      1.267665    1.094287   -1.478883
  O      2.319467    0.641547    1.363957
  C      2.587378    2.041009    1.568541
  C      3.905847    2.467237    0.958049
  S      1.100147   -1.767698    0.508850
  C     -0.244432   -1.797973   -0.732458
  S     -1.907577   -1.722596   -0.023384
  P     -2.055999    0.363445    0.363238
  S     -0.806194    1.165013    1.640242
  O     -3.589211    0.519336    0.758280
  C     -4.063379    0.377595    2.108593
  C     -3.900886   -1.036045    2.628013
  O     -1.992135    1.083756   -1.035392
  C     -2.948229    0.892786   -2.112427
  C     -2.380254   -0.017482   -3.183492
  H      3.514028   -2.905434   -1.414820
  H      2.296884   -1.998447   -2.327624
  H      3.819708   -2.456722   -3.103390
  H      3.739592   -0.027232   -2.421459
  H      5.080492   -0.919440   -1.641173
  H      1.753230    2.615657    1.151707
  H      2.584835    2.145958    2.654478
  H      4.708887    1.832563    1.323765
  H      3.856948    2.385501   -0.127468
  H      4.106536    3.499921    1.225622
  H     -0.192666   -2.752788   -1.248561
  H     -0.100844   -0.956235   -1.416301
  H     -3.518968    1.085859    2.741000
  H     -5.113242    0.667167    2.044751
  H     -4.388593   -1.120938    3.593781
  H     -4.341699   -1.748142    1.934878
  H     -2.843577   -1.269639    2.746780
  H     -3.877679    0.500196   -1.697317
  H     -3.110699    1.900113   -2.498997
  H     -2.323017   -1.044069   -2.830765
  H     -3.026464    0.020335   -4.054694
  H     -1.385869    0.322878   -3.464177

 Total Charge           Charge          ....    0
 Multiplicity           Mult            ....    1
 Number of Electrons    NEL             ....  202
 Basis Dimension        Dim             ....  334

ORBITAL ENERGIES
----------------

  NO   OCC          E(Eh)            E(eV)
   0   2.0000     -88.041484     -2395.7306
   1   2.0000     -88.035699     -2395.5731
   2   2.0000     -87.985379     -2394.2039
   3   2.0000     -87.976362     -2393.9585
   4   2.0000     -76.421260     -2079.5282
   5   2.0000     -76.420319     -2079.5026
   6   2.0000     -18.789824      -511.2971
   7   2.0000     -18.785774      -511.1869
   8   2.0000     -18.780551      -511.0448
   9   2.0000     -18.780369      -511.0398
  10   2.0000      -9.955723      -270.9090
  11   2.0000      -9.953645      -270.8525
  12   2.0000      -9.951299      -270.7886
  13   2.0000      -9.947659      -270.6896
  14   2.0000      -9.942778      -270.5567
  15   2.0000      -9.884984      -268.9841
  16   2.0000      -9.883895      -268.9544
  17   2.0000      -9.883051      -268.9315
  18   2.0000      -9.876586      -268.7556
  19   2.0000      -7.686517      -209.1608
  20   2.0000      -7.681096      -209.0132
  21   2.0000      -7.630146      -207.6268
  22   2.0000      -7.621313      -207.3865
  23   2.0000      -6.418676      -174.6610
  24   2.0000      -6.417690      -174.6342
  25   2.0000      -5.714206      -155.4915
  26   2.0000      -5.711000      -155.4042
  27   2.0000      -5.708976      -155.3491
  28   2.0000      -5.705830      -155.2635
  29   2.0000      -5.703701      -155.2056
  30   2.0000      -5.697759      -155.0439
  31   2.0000      -5.658845      -153.9850
  32   2.0000      -5.651307      -153.7799
  33   2.0000      -5.650348      -153.7538
  34   2.0000      -5.649978      -153.7437
  35   2.0000      -5.641900      -153.5239
  36   2.0000      -5.641392      -153.5101
  37   2.0000      -4.641734      -126.3080
  38   2.0000      -4.640429      -126.2725
  39   2.0000      -4.639853      -126.2568
  40   2.0000      -4.639346      -126.2430
  41   2.0000      -4.638719      -126.2260
  42   2.0000      -4.638655      -126.2242
  43   2.0000      -0.984200       -26.7815
  44   2.0000      -0.978035       -26.6137
  45   2.0000      -0.940940       -25.6043
  46   2.0000      -0.935607       -25.4592
  47   2.0000      -0.758227       -20.6324
  48   2.0000      -0.716716       -19.5028
  49   2.0000      -0.706752       -19.2317
  50   2.0000      -0.687881       -18.7182
  51   2.0000      -0.682424       -18.5697
  52   2.0000      -0.672353       -18.2956
  53   2.0000      -0.648796       -17.6546
  54   2.0000      -0.631496       -17.1839
  55   2.0000      -0.599278       -16.3072
  56   2.0000      -0.586935       -15.9713
  57   2.0000      -0.575271       -15.6539
  58   2.0000      -0.566897       -15.4261
  59   2.0000      -0.556930       -15.1548
  60   2.0000      -0.498739       -13.5714
  61   2.0000      -0.486054       -13.2262
  62   2.0000      -0.469586       -12.7781
  63   2.0000      -0.464768       -12.6470
  64   2.0000      -0.453075       -12.3288
  65   2.0000      -0.442060       -12.0291
  66   2.0000      -0.439413       -11.9570
  67   2.0000      -0.433991       -11.8095
  68   2.0000      -0.427971       -11.6457
  69   2.0000      -0.417656       -11.3650
  70   2.0000      -0.408046       -11.1035
  71   2.0000      -0.391875       -10.6635
  72   2.0000      -0.387655       -10.5486
  73   2.0000      -0.382939       -10.4203
  74   2.0000      -0.378666       -10.3040
  75   2.0000      -0.374722       -10.1967
  76   2.0000      -0.364967        -9.9313
  77   2.0000      -0.354652        -9.6506
  78   2.0000      -0.350037        -9.5250
  79   2.0000      -0.349010        -9.4970
  80   2.0000      -0.344570        -9.3762
  81   2.0000      -0.343168        -9.3381
  82   2.0000      -0.337462        -9.1828
  83   2.0000      -0.333702        -9.0805
  84   2.0000      -0.329888        -8.9767
  85   2.0000      -0.315299        -8.5797
  86   2.0000      -0.306554        -8.3418
  87   2.0000      -0.298163        -8.1134
  88   2.0000      -0.289867        -7.8877
  89   2.0000      -0.289467        -7.8768
  90   2.0000      -0.277395        -7.5483
  91   2.0000      -0.266787        -7.2596
  92   2.0000      -0.264652        -7.2016
  93   2.0000      -0.259315        -7.0563
  94   2.0000      -0.255980        -6.9656
  95   2.0000      -0.234210        -6.3732
  96   2.0000      -0.216998        -5.9048
  97   2.0000      -0.207101        -5.6355
  98   2.0000      -0.202148        -5.5007
  99   2.0000      -0.187050        -5.0899
 100   2.0000      -0.185205        -5.0397
 101   0.0000      -0.036923        -1.0047
 102   0.0000      -0.028733        -0.7819
 103   0.0000      -0.012330        -0.3355
 104   0.0000       0.004816         0.1311
 105   0.0000       0.025829         0.7028

MULLIKEN ATOMIC CHARGES
-----------------------
   0 C :   -0.318281
   1 C :    0.001715
   2 O :   -0.371796
   3 P :    0.614896
   4 S :   -0.321692
   5 O :   -0.362928
   6 C :   -0.002487
   7 C :   -0.305042
   8 S :   -0.060999
   9 C :   -0.393958
  10 S :   -0.102256
  11 P :    0.604670
  12 S :   -0.303990
  13 O :   -0.384634
  14 C :    0.002190
  15 C :   -0.327604
  16 O :   -0.350676
  17 C :   -0.010408
  18 C :   -0.305787
  19 H :    0.121275
  20 H :    0.118453
  21 H :    0.110576
  22 H :    0.105309
  23 H :    0.103216
  24 H :    0.122371
  25 H :    0.105253
  26 H :    0.115307
  27 H :    0.122088
  28 H :    0.109550
  29 H :    0.183822
  30 H :    0.214588
  31 H :    0.112981
  32 H :    0.103214
  33 H :    0.115014
  34 H :    0.117869
  35 H :    0.136315
  36 H :    0.108662
  37 H :    0.111233
  38 H :    0.118301
  39 H :    0.110298
  40 H :    0.133373
Sum of atomic charges:    0.0000000

LOEWDIN ATOMIC CHARGES
----------------------
   0 C :   -0.368917
   1 C :   -0.120173
   2 O :   -0.249622
   3 P :    0.574378
   4 S :   -0.304157
   5 O :   -0.232479
   6 C :   -0.114800
   7 C :   -0.366188
   8 S :    0.090911
   9 C :   -0.486570
  10 S :    0.073850
  11 P :    0.566098
  12 S :   -0.301434
  13 O :   -0.249806
  14 C :   -0.117316
  15 C :   -0.373350
  16 O :   -0.231528
  17 C :   -0.109402
  18 C :   -0.365665
  19 H :    0.125898
  20 H :    0.117694
  21 H :    0.129426
  22 H :    0.106795
  23 H :    0.117936
  24 H :    0.112734
  25 H :    0.120015
  26 H :    0.125661
  27 H :    0.121449
  28 H :    0.129422
  29 H :    0.135175
  30 H :    0.120794
  31 H :    0.112747
  32 H :    0.117778
  33 H :    0.132329
  34 H :    0.122650
  35 H :    0.124936
  36 H :    0.111353
  37 H :    0.122960
  38 H :    0.117917
  39 H :    0.129765
  40 H :    0.130735

  Mayer bond orders larger than 0.100000
B(  0-C ,  1-C ) :   1.1637 B(  0-C , 19-H ) :   0.9425 B(  0-C , 20-H ) :   0.9384
B(  0-C , 21-H ) :   0.9379 B(  1-C ,  2-O ) :   0.9252 B(  1-C , 22-H ) :   0.9138
B(  1-C , 23-H ) :   0.9341 B(  2-O ,  3-P ) :   1.0858 B(  3-P ,  4-S ) :   1.5775
B(  3-P ,  5-O ) :   1.1473 B(  3-P ,  8-S ) :   0.9596 B(  4-S ,  8-S ) :   0.1163
B(  4-S , 30-H ) :   0.1020 B(  5-O ,  6-C ) :   0.9021 B(  6-C ,  7-C ) :   1.1629
B(  6-C , 24-H ) :   0.9169 B(  6-C , 25-H ) :   0.9360 B(  7-C , 26-H ) :   0.9450
B(  7-C , 27-H ) :   0.9362 B(  7-C , 28-H ) :   0.9385 B(  8-S ,  9-C ) :   1.0097
B(  9-C , 10-S ) :   0.9895 B(  9-C , 29-H ) :   0.9086 B(  9-C , 30-H ) :   0.8368
B( 10-S , 11-P ) :   0.9464 B( 10-S , 12-S ) :   0.1118 B( 11-P , 12-S ) :   1.6594
B( 11-P , 13-O ) :   1.0789 B( 11-P , 16-O ) :   1.1358 B( 13-O , 14-C ) :   0.9069
B( 14-C , 15-C ) :   1.1657 B( 14-C , 31-H ) :   0.9162 B( 14-C , 32-H ) :   0.9339
B( 15-C , 33-H ) :   0.9373 B( 15-C , 34-H ) :   0.9427 B( 15-C , 35-H ) :   0.9327
B( 16-O , 17-C ) :   0.8970 B( 17-C , 18-C ) :   1.1702 B( 17-C , 36-H ) :   0.9184
B( 17-C , 37-H ) :   0.9350 B( 18-C , 38-H ) :   0.9333 B( 18-C , 39-H ) :   0.9381
B( 18-C , 40-H ) :   0.9366

Dispersion correction           -0.068270867
FINAL SINGLE POINT ENERGY     -2929.515782687258

DIPOLE MOMENT
-------------

Method             : SCF
Type of density    : Electron Density
Multiplicity       :   1
Irrep              :   0
Energy             : -2929.6328245676927509 Eh
Relativity type    :
Basis              : AO
                                X                 Y                 Z
Electronic contribution:     -1.581928040       0.023521904       7.860550276
Nuclear contribution   :      1.148071267      -0.477189719      -8.560982115
                        -----------------------------------------
Total Dipole Moment    :     -0.433856773      -0.453667815      -0.700431839
                        -----------------------------------------
Magnitude (a.u.)       :      0.940558848
Magnitude (Debye)      :      2.390710598

Rotational constants in cm-1:             0.012053             0.005517             0.005029
Rotational constants in MHz :           361.332996           165.391840           150.773165

                             ****ORCA TERMINATED NORMALLY****
TOTAL RUN TIME: 0 days 0 hours 0 minutes 21 seconds 210 msec
