                         Program Version 6.0.0  -   RELEASE  -
|  1> ! pbe def2-sv(p) def2/J RI DEFGRID1 loosescf d4 GCP(DFT/SV(P)) printgap
|  2> %output
|  3>     printlevel normal
|  4> end
|  5> * xyz 0 1
|  6> C 2.7317684354 -3.1418474605 -1.4843666636
|  7> C 3.0453540029 -2.5287394722 -0.1347414745
|  8> O 3.3435473407 -1.1153782323 -0.2529576488
|  9> P 2.279466782 0.0442389035 -0.0897892097
| 10> S 3.1375652622 1.7933562985 0.0318091767
| 11> O 1.359673041 -0.3893231798 1.1450293118
| 12> C 1.3887920488 0.2911669187 2.4123718776
| 13> C 2.5941736917 -0.1305429477 3.22765395
| 14> S 0.9276246266 -0.2266578273 -1.7048938093
| 15> C 0.2268513279 1.4409132889 -1.6700672921
| 16> S -0.6280102463 1.8252016752 -0.1235221798
| 17> P -2.1454077342 0.3362317324 -0.3137809053
| 18> S -2.7917761938 -0.030139365 -2.11700379
| 19> O -3.2803590572 0.8886314169 0.6350274174
| 20> C -3.0497139621 1.2031071481 2.0325456742
| 21> C -4.3639472749 1.6789421928 2.6146069552
| 22> O -1.5272401487 -0.9007029911 0.4860219733
| 23> C -1.424113698 -2.2305682455 -0.0537411434
| 24> C -2.6924859962 -3.0137130803 0.2180310401
| 25> H 1.8193263899 -2.717311133 -1.8985910749
| 26> H 3.5469702197 -2.9530463369 -2.1772699685
| 27> H 2.6033850673 -4.2132061367 -1.3658201203
| 28> H 3.9568783476 -2.9537102474 0.2890239336
| 29> H 2.2157179825 -2.6571152127 0.5638423126
| 30> H 1.3997042525 1.3707359694 2.2328661131
| 31> H 0.4501644824 0.0069265659 2.8907208489
| 32> H 2.5883081484 -1.2050163938 3.390628853
| 33> H 3.5063995948 0.1428045137 2.6980197765
| 34> H 2.576894717 0.3793192969 4.185556446
| 35> H -0.4758129469 1.4968242956 -2.501171062
| 36> H 1.0268340382 2.1740376075 -1.7708537201
| 37> H -2.6892324984 0.3014700503 2.5324833763
| 38> H -2.2814060455 1.9796269361 2.0852416689
| 39> H -5.1155254115 0.899849606 2.5256047182
| 40> H -4.2214278053 1.9258862129 3.661656192
| 41> H -4.7097263798 2.5593845121 2.0808478648
| 42> H -1.2314049709 -2.1687810743 -1.1289719721
| 43> H -0.5601515093 -2.665647154 0.4513392646
| 44> H -3.5318766821 -2.5354637256 -0.2845390839
| 45> H -2.5798603002 -4.0229102648 -0.1647280737
| 46> H -2.8949277582 -3.0522629179 1.2848365043
| 47> *
| 48>
| 49>                          ****END OF INPUT****

CARTESIAN COORDINATES (ANGSTROEM)
---------------------------------
  C      2.731768   -3.141847   -1.484367
  C      3.045354   -2.528739   -0.134741
  O      3.343547   -1.115378   -0.252958
  P      2.279467    0.044239   -0.089789
  S      3.137565    1.793356    0.031809
  O      1.359673   -0.389323    1.145029
  C      1.388792    0.291167    2.412372
  C      2.594174   -0.130543    3.227654
  S      0.927625   -0.226658   -1.704894
  C      0.226851    1.440913   -1.670067
  S     -0.628010    1.825202   -0.123522
  P     -2.145408    0.336232   -0.313781
  S     -2.791776   -0.030139   -2.117004
  O     -3.280359    0.888631    0.635027
  C     -3.049714    1.203107    2.032546
  C     -4.363947    1.678942    2.614607
  O     -1.527240   -0.900703    0.486022
  C     -1.424114   -2.230568   -0.053741
  C     -2.692486   -3.013713    0.218031
  H      1.819326   -2.717311   -1.898591
  H      3.546970   -2.953046   -2.177270
  H      2.603385   -4.213206   -1.365820
  H      3.956878   -2.953710    0.289024
  H      2.215718   -2.657115    0.563842
  H      1.399704    1.370736    2.232866
  H      0.450164    0.006927    2.890721
  H      2.588308   -1.205016    3.390629
  H      3.506400    0.142805    2.698020
  H      2.576895    0.379319    4.185556
  H     -0.475813    1.496824   -2.501171
  H      1.026834    2.174038   -1.770854
  H     -2.689232    0.301470    2.532483
  H     -2.281406    1.979627    2.085242
  H     -5.115525    0.899850    2.525605
  H     -4.221428    1.925886    3.661656
  H     -4.709726    2.559385    2.080848
  H     -1.231405   -2.168781   -1.128972
  H     -0.560152   -2.665647    0.451339
  H     -3.531877   -2.535464   -0.284539
  H     -2.579860   -4.022910   -0.164728
  H     -2.894928   -3.052263    1.284837

 Total Charge           Charge          ....    0
 Multiplicity           Mult            ....    1
 Number of Electrons    NEL             ....  202
 Basis Dimension        Dim             ....  334

ORBITAL ENERGIES
----------------

  NO   OCC          E(Eh)            E(eV)
   0   2.0000     -88.042519     -2395.7587
   1   2.0000     -88.039800     -2395.6848
   2   2.0000     -87.989194     -2394.3077
   3   2.0000     -87.987855     -2394.2713
   4   2.0000     -76.427663     -2079.7024
   5   2.0000     -76.426759     -2079.6778
   6   2.0000     -18.797106      -511.4953
   7   2.0000     -18.795996      -511.4650
   8   2.0000     -18.790580      -511.3177
   9   2.0000     -18.789414      -511.2859
  10   2.0000      -9.963559      -271.1222
  11   2.0000      -9.963384      -271.1175
  12   2.0000      -9.953571      -270.8504
  13   2.0000      -9.951508      -270.7943
  14   2.0000      -9.950945      -270.7790
  15   2.0000      -9.894476      -269.2424
  16   2.0000      -9.894347      -269.2389
  17   2.0000      -9.886290      -269.0196
  18   2.0000      -9.884485      -268.9705
  19   2.0000      -7.687177      -209.1787
  20   2.0000      -7.684646      -209.1099
  21   2.0000      -7.634420      -207.7431
  22   2.0000      -7.633111      -207.7075
  23   2.0000      -6.425263      -174.8403
  24   2.0000      -6.424389      -174.8165
  25   2.0000      -5.715022      -155.5137
  26   2.0000      -5.712439      -155.4434
  27   2.0000      -5.711827      -155.4267
  28   2.0000      -5.709347      -155.3592
  29   2.0000      -5.704076      -155.2158
  30   2.0000      -5.701535      -155.1466
  31   2.0000      -5.663420      -154.1095
  32   2.0000      -5.662144      -154.0748
  33   2.0000      -5.655009      -153.8806
  34   2.0000      -5.654479      -153.8662
  35   2.0000      -5.653667      -153.8441
  36   2.0000      -5.653165      -153.8305
  37   2.0000      -4.648206      -126.4841
  38   2.0000      -4.647197      -126.4567
  39   2.0000      -4.646596      -126.4403
  40   2.0000      -4.645830      -126.4195
  41   2.0000      -4.645821      -126.4192
  42   2.0000      -4.644963      -126.3959
  43   2.0000      -0.988072       -26.8868
  44   2.0000      -0.986985       -26.8572
  45   2.0000      -0.946068       -25.7438
  46   2.0000      -0.944371       -25.6976
  47   2.0000      -0.765108       -20.8196
  48   2.0000      -0.725509       -19.7421
  49   2.0000      -0.715248       -19.4629
  50   2.0000      -0.695112       -18.9150
  51   2.0000      -0.691761       -18.8238
  52   2.0000      -0.673908       -18.3380
  53   2.0000      -0.653097       -17.7717
  54   2.0000      -0.640865       -17.4388
  55   2.0000      -0.596079       -16.2201
  56   2.0000      -0.587622       -15.9900
  57   2.0000      -0.582917       -15.8620
  58   2.0000      -0.577213       -15.7068
  59   2.0000      -0.563246       -15.3267
  60   2.0000      -0.509932       -13.8759
  61   2.0000      -0.501473       -13.6458
  62   2.0000      -0.484161       -13.1747
  63   2.0000      -0.479987       -13.0611
  64   2.0000      -0.458000       -12.4628
  65   2.0000      -0.450661       -12.2631
  66   2.0000      -0.443929       -12.0799
  67   2.0000      -0.439966       -11.9721
  68   2.0000      -0.430827       -11.7234
  69   2.0000      -0.413581       -11.2541
  70   2.0000      -0.403514       -10.9802
  71   2.0000      -0.399511       -10.8713
  72   2.0000      -0.392580       -10.6827
  73   2.0000      -0.391274       -10.6471
  74   2.0000      -0.378806       -10.3078
  75   2.0000      -0.377929       -10.2840
  76   2.0000      -0.368990       -10.0407
  77   2.0000      -0.362102        -9.8533
  78   2.0000      -0.360912        -9.8209
  79   2.0000      -0.360350        -9.8056
  80   2.0000      -0.352678        -9.5968
  81   2.0000      -0.348975        -9.4961
  82   2.0000      -0.346002        -9.4152
  83   2.0000      -0.341878        -9.3030
  84   2.0000      -0.333778        -9.0825
  85   2.0000      -0.322801        -8.7839
  86   2.0000      -0.317806        -8.6479
  87   2.0000      -0.313679        -8.5356
  88   2.0000      -0.305361        -8.3093
  89   2.0000      -0.287199        -7.8151
  90   2.0000      -0.284343        -7.7374
  91   2.0000      -0.276712        -7.5297
  92   2.0000      -0.272175        -7.4063
  93   2.0000      -0.270800        -7.3688
  94   2.0000      -0.255822        -6.9613
  95   2.0000      -0.230910        -6.2834
  96   2.0000      -0.215961        -5.8766
  97   2.0000      -0.214896        -5.8476
  98   2.0000      -0.208615        -5.6767
  99   2.0000      -0.200694        -5.4612
 100   2.0000      -0.199971        -5.4415
 101   0.0000      -0.046942        -1.2774
 102   0.0000      -0.023651        -0.6436
 103   0.0000      -0.001681        -0.0457
 104   0.0000      -0.000277        -0.0075
 105   0.0000       0.004235         0.1152

MULLIKEN ATOMIC CHARGES
-----------------------
   0 C :   -0.309602
   1 C :   -0.034090
   2 O :   -0.364811
   3 P :    0.633147
   4 S :   -0.313561
   5 O :   -0.382716
   6 C :   -0.008680
   7 C :   -0.302606
   8 S :   -0.114339
   9 C :   -0.334136
  10 S :   -0.112591
  11 P :    0.626641
  12 S :   -0.309318
  13 O :   -0.366801
  14 C :   -0.038463
  15 C :   -0.273596
  16 O :   -0.383759
  17 C :   -0.023047
  18 C :   -0.288108
  19 H :    0.139040
  20 H :    0.127522
  21 H :    0.112874
  22 H :    0.112818
  23 H :    0.118123
  24 H :    0.115169
  25 H :    0.098028
  26 H :    0.107511
  27 H :    0.127392
  28 H :    0.111126
  29 H :    0.192707
  30 H :    0.192729
  31 H :    0.111486
  32 H :    0.116750
  33 H :    0.122288
  34 H :    0.111782
  35 H :    0.125605
  36 H :    0.118669
  37 H :    0.102155
  38 H :    0.123065
  39 H :    0.107730
  40 H :    0.105870
Sum of atomic charges:    0.0000000

LOEWDIN ATOMIC CHARGES
----------------------
   0 C :   -0.362808
   1 C :   -0.115850
   2 O :   -0.241720
   3 P :    0.573608
   4 S :   -0.306526
   5 O :   -0.247736
   6 C :   -0.123313
   7 C :   -0.364351
   8 S :    0.088080
   9 C :   -0.478741
  10 S :    0.074164
  11 P :    0.572922
  12 S :   -0.303987
  13 O :   -0.244066
  14 C :   -0.117036
  15 C :   -0.348755
  16 O :   -0.247731
  17 C :   -0.125111
  18 C :   -0.361377
  19 H :    0.118635
  20 H :    0.132803
  21 H :    0.131721
  22 H :    0.122888
  23 H :    0.109204
  24 H :    0.107328
  25 H :    0.113125
  26 H :    0.120717
  27 H :    0.125385
  28 H :    0.130339
  29 H :    0.131676
  30 H :    0.131942
  31 H :    0.111553
  32 H :    0.108761
  33 H :    0.130399
  34 H :    0.131014
  35 H :    0.132142
  36 H :    0.104587
  37 H :    0.110841
  38 H :    0.125591
  39 H :    0.128870
  40 H :    0.120813

  Mayer bond orders larger than 0.100000
B(  0-C ,  1-C ) :   1.1688 B(  0-C , 19-H ) :   0.9306 B(  0-C , 20-H ) :   0.9455
B(  0-C , 21-H ) :   0.9379 B(  1-C ,  2-O ) :   0.9036 B(  1-C , 22-H ) :   0.9331
B(  1-C , 23-H ) :   0.9122 B(  2-O ,  3-P ) :   1.1312 B(  3-P ,  4-S ) :   1.6314
B(  3-P ,  5-O ) :   1.0688 B(  3-P ,  8-S ) :   0.9467 B(  4-S ,  8-S ) :   0.1013
B(  5-O ,  6-C ) :   0.9019 B(  6-C ,  7-C ) :   1.1615 B(  6-C , 24-H ) :   0.9094
B(  6-C , 25-H ) :   0.9315 B(  7-C , 26-H ) :   0.9476 B(  7-C , 27-H ) :   0.9363
B(  7-C , 28-H ) :   0.9408 B(  8-S ,  9-C ) :   1.0022 B(  9-C , 10-S ) :   1.0144
B(  9-C , 29-H ) :   0.8827 B(  9-C , 30-H ) :   0.8827 B( 10-S , 11-P ) :   0.9417
B( 10-S , 12-S ) :   0.1017 B( 11-P , 12-S ) :   1.6335 B( 11-P , 13-O ) :   1.1340
B( 11-P , 16-O ) :   1.0755 B( 13-O , 14-C ) :   0.9016 B( 14-C , 15-C ) :   1.1634
B( 14-C , 31-H ) :   0.9220 B( 14-C , 32-H ) :   0.9195 B( 15-C , 33-H ) :   0.9503
B( 15-C , 34-H ) :   0.9402 B( 15-C , 35-H ) :   0.9494 B( 16-O , 17-C ) :   0.9016
B( 17-C , 18-C ) :   1.1610 B( 17-C , 36-H ) :   0.9040 B( 17-C , 37-H ) :   0.9283
B( 18-C , 38-H ) :   0.9394 B( 18-C , 39-H ) :   0.9409 B( 18-C , 40-H ) :   0.9480

Dispersion correction           -0.066670941
FINAL SINGLE POINT ENERGY     -2929.519887625759

DIPOLE MOMENT
-------------

Method             : SCF
Type of density    : Electron Density
Multiplicity       :   1
Irrep              :   0
Energy             : -2929.6388862196695300 Eh
Relativity type    :
Basis              : AO
                                X                 Y                 Z
Electronic contribution:      4.279982685      15.889920975     -17.213598616
Nuclear contribution   :     -4.456322738     -17.260139972      18.873776928
                        -----------------------------------------
Total Dipole Moment    :     -0.176340052      -1.370218997       1.660178312
                        -----------------------------------------
Magnitude (a.u.)       :      2.159812016
Magnitude (Debye)      :      5.489805862

Rotational constants in cm-1:             0.010778             0.005730             0.005245
Rotational constants in MHz :           323.106698           171.788600           157.239988

                             ****ORCA TERMINATED NORMALLY****
TOTAL RUN TIME: 0 days 0 hours 0 minutes 22 seconds 0 msec
