                         Program Version 6.0.0  -   RELEASE  -
|  1> ! pbe def2-sv(p) def2/J RI DEFGRID1 loosescf d4 GCP(DFT/SV(P)) printgap
|  2> %output
|  3>     printlevel normal
|  4> end
|  5> * xyz 0 1
|  6> C 5.4494005348 -0.4640461551 -0.87500617
|  7> C 4.7688070123 -0.1730764194 0.4480299065
|  8> O 3.4503054802 -0.751757893 0.5156160973
|  9> P 2.1715430943 -0.1279609926 -0.193420553
| 10> S 2.0452640027 -0.2589356003 -2.1473063073
| 11> O 2.153773028 1.3506536504 0.3967964426
| 12> C 1.8929937199 2.5455874329 -0.3562365384
| 13> C 3.1808672003 3.3193295798 -0.5556380362
| 14> S 0.8031857916 -1.256368085 0.9398675522
| 15> C -0.2562311499 -1.9445851516 -0.3863366549
| 16> S -1.9997611684 -1.8976999015 0.0622065993
| 17> P -2.1759544091 0.2140510842 0.2737181036
| 18> S -1.1407305178 1.2948767125 -0.9900565402
| 19> O -1.7864786355 0.5634069093 1.7594304958
| 20> C -2.0355184105 -0.246630321 2.9349043425
| 21> C -3.4953769296 -0.6077019923 3.0990584961
| 22> O -3.7392435529 0.4883590015 0.2485542701
| 23> C -4.4774761084 0.7066587822 -0.9663163319
| 24> C -4.5183914693 -0.5250931901 -1.8475913251
| 25> H 5.4855108216 -1.5361189382 -1.0493549218
| 26> H 4.9030988374 -0.0022357868 -1.6954522954
| 27> H 6.4599792955 -0.0684334944 -0.853412555
| 28> H 4.6909896037 0.9029589174 0.6251696973
| 29> H 5.2986657767 -0.6437880408 1.278228012
| 30> H 1.4447988391 2.2765137453 -1.3181654434
| 31> H 1.1638101992 3.1100227678 0.2278615859
| 32> H 3.871652754 2.742471582 -1.1675806104
| 33> H 2.9560584012 4.2521831245 -1.062326281
| 34> H 3.6430254872 3.5339617056 0.404293093
| 35> H -0.0042804654 -2.9919823173 -0.5313592202
| 36> H -0.0837708327 -1.3671403746 -1.2992844678
| 37> H -1.4094884289 -1.1413583331 2.8661968144
| 38> H -1.6798613523 0.3862409301 3.7491942563
| 39> H -3.8163606965 -1.2582695999 2.2880463982
| 40> H -3.6256071411 -1.1281145464 4.0428174846
| 41> H -4.1079279615 0.2899891067 3.0941412963
| 42> H -5.4726596841 0.9845283733 -0.6163729031
| 43> H -4.0230566514 1.5468213063 -1.5009714871
| 44> H -5.1985615097 -0.3499761282 -2.6750077882
| 45> H -3.5267251465 -0.7317961249 -2.247179331
| 46> H -4.8546445035 -1.3880913187 -1.2788204873
| 47> *
| 48>
| 49>                          ****END OF INPUT****

CARTESIAN COORDINATES (ANGSTROEM)
---------------------------------
  C      5.449401   -0.464046   -0.875006
  C      4.768807   -0.173076    0.448030
  O      3.450305   -0.751758    0.515616
  P      2.171543   -0.127961   -0.193421
  S      2.045264   -0.258936   -2.147306
  O      2.153773    1.350654    0.396796
  C      1.892994    2.545587   -0.356237
  C      3.180867    3.319330   -0.555638
  S      0.803186   -1.256368    0.939868
  C     -0.256231   -1.944585   -0.386337
  S     -1.999761   -1.897700    0.062207
  P     -2.175954    0.214051    0.273718
  S     -1.140731    1.294877   -0.990057
  O     -1.786479    0.563407    1.759430
  C     -2.035518   -0.246630    2.934904
  C     -3.495377   -0.607702    3.099058
  O     -3.739244    0.488359    0.248554
  C     -4.477476    0.706659   -0.966316
  C     -4.518391   -0.525093   -1.847591
  H      5.485511   -1.536119   -1.049355
  H      4.903099   -0.002236   -1.695452
  H      6.459979   -0.068433   -0.853413
  H      4.690990    0.902959    0.625170
  H      5.298666   -0.643788    1.278228
  H      1.444799    2.276514   -1.318165
  H      1.163810    3.110023    0.227862
  H      3.871653    2.742472   -1.167581
  H      2.956058    4.252183   -1.062326
  H      3.643025    3.533962    0.404293
  H     -0.004280   -2.991982   -0.531359
  H     -0.083771   -1.367140   -1.299284
  H     -1.409488   -1.141358    2.866197
  H     -1.679861    0.386241    3.749194
  H     -3.816361   -1.258270    2.288046
  H     -3.625607   -1.128115    4.042817
  H     -4.107928    0.289989    3.094141
  H     -5.472660    0.984528   -0.616373
  H     -4.023057    1.546821   -1.500971
  H     -5.198562   -0.349976   -2.675008
  H     -3.526725   -0.731796   -2.247179
  H     -4.854645   -1.388091   -1.278820

 Total Charge           Charge          ....    0
 Multiplicity           Mult            ....    1
 Number of Electrons    NEL             ....  202
 Basis Dimension        Dim             ....  334

ORBITAL ENERGIES
----------------

  NO   OCC          E(Eh)            E(eV)
   0   2.0000     -88.046643     -2395.8710
   1   2.0000     -88.036130     -2395.5849
   2   2.0000     -87.983305     -2394.1475
   3   2.0000     -87.980439     -2394.0695
   4   2.0000     -76.425720     -2079.6496
   5   2.0000     -76.420984     -2079.5207
   6   2.0000     -18.793222      -511.3896
   7   2.0000     -18.788284      -511.2552
   8   2.0000     -18.784591      -511.1547
   9   2.0000     -18.783526      -511.1257
  10   2.0000      -9.953936      -270.8604
  11   2.0000      -9.952960      -270.8338
  12   2.0000      -9.951632      -270.7977
  13   2.0000      -9.950814      -270.7754
  14   2.0000      -9.940148      -270.4852
  15   2.0000      -9.887170      -269.0436
  16   2.0000      -9.884092      -268.9598
  17   2.0000      -9.881442      -268.8877
  18   2.0000      -9.879221      -268.8273
  19   2.0000      -7.691375      -209.2930
  20   2.0000      -7.681184      -209.0156
  21   2.0000      -7.628203      -207.5740
  22   2.0000      -7.625316      -207.4954
  23   2.0000      -6.422823      -174.7739
  24   2.0000      -6.418512      -174.6566
  25   2.0000      -5.719210      -155.6276
  26   2.0000      -5.715758      -155.5337
  27   2.0000      -5.709195      -155.3551
  28   2.0000      -5.708580      -155.3383
  29   2.0000      -5.705834      -155.2636
  30   2.0000      -5.697819      -155.0455
  31   2.0000      -5.657038      -153.9358
  32   2.0000      -5.654275      -153.8607
  33   2.0000      -5.649140      -153.7209
  34   2.0000      -5.648110      -153.6929
  35   2.0000      -5.645758      -153.6289
  36   2.0000      -5.645574      -153.6239
  37   2.0000      -4.645566      -126.4123
  38   2.0000      -4.644739      -126.3898
  39   2.0000      -4.643056      -126.3440
  40   2.0000      -4.641129      -126.2915
  41   2.0000      -4.639841      -126.2565
  42   2.0000      -4.639396      -126.2444
  43   2.0000      -0.985924       -26.8283
  44   2.0000      -0.979032       -26.6408
  45   2.0000      -0.944333       -25.6966
  46   2.0000      -0.935809       -25.4647
  47   2.0000      -0.761191       -20.7130
  48   2.0000      -0.720018       -19.5927
  49   2.0000      -0.708892       -19.2899
  50   2.0000      -0.690088       -18.7782
  51   2.0000      -0.682315       -18.5667
  52   2.0000      -0.672289       -18.2939
  53   2.0000      -0.649666       -17.6783
  54   2.0000      -0.632679       -17.2161
  55   2.0000      -0.598798       -16.2941
  56   2.0000      -0.588788       -16.0217
  57   2.0000      -0.575723       -15.6662
  58   2.0000      -0.570276       -15.5180
  59   2.0000      -0.557335       -15.1659
  60   2.0000      -0.498015       -13.5517
  61   2.0000      -0.488662       -13.2972
  62   2.0000      -0.471349       -12.8260
  63   2.0000      -0.469681       -12.7807
  64   2.0000      -0.448303       -12.1989
  65   2.0000      -0.447092       -12.1660
  66   2.0000      -0.441867       -12.0238
  67   2.0000      -0.432653       -11.7731
  68   2.0000      -0.426884       -11.6161
  69   2.0000      -0.412623       -11.2280
  70   2.0000      -0.406498       -11.0614
  71   2.0000      -0.397966       -10.8292
  72   2.0000      -0.396152       -10.7798
  73   2.0000      -0.383369       -10.4320
  74   2.0000      -0.378432       -10.2976
  75   2.0000      -0.370469       -10.0810
  76   2.0000      -0.365328        -9.9411
  77   2.0000      -0.358845        -9.7647
  78   2.0000      -0.352245        -9.5851
  79   2.0000      -0.347832        -9.4650
  80   2.0000      -0.345942        -9.4136
  81   2.0000      -0.344018        -9.3612
  82   2.0000      -0.337627        -9.1873
  83   2.0000      -0.335262        -9.1230
  84   2.0000      -0.334126        -9.0920
  85   2.0000      -0.312784        -8.5113
  86   2.0000      -0.307991        -8.3808
  87   2.0000      -0.292253        -7.9526
  88   2.0000      -0.291106        -7.9214
  89   2.0000      -0.285405        -7.7663
  90   2.0000      -0.283482        -7.7139
  91   2.0000      -0.273086        -7.4310
  92   2.0000      -0.270881        -7.3710
  93   2.0000      -0.261986        -7.1290
  94   2.0000      -0.257358        -7.0031
  95   2.0000      -0.232688        -6.3318
  96   2.0000      -0.218974        -5.9586
  97   2.0000      -0.211315        -5.7502
  98   2.0000      -0.197472        -5.3735
  99   2.0000      -0.195441        -5.3182
 100   2.0000      -0.187124        -5.0919
 101   0.0000      -0.042939        -1.1684
 102   0.0000      -0.031367        -0.8535
 103   0.0000      -0.006101        -0.1660
 104   0.0000       0.011853         0.3225
 105   0.0000       0.019716         0.5365

MULLIKEN ATOMIC CHARGES
-----------------------
   0 C :   -0.308479
   1 C :   -0.017570
   2 O :   -0.372855
   3 P :    0.654420
   4 S :   -0.325199
   5 O :   -0.382182
   6 C :   -0.021403
   7 C :   -0.289439
   8 S :   -0.106780
   9 C :   -0.343173
  10 S :   -0.118128
  11 P :    0.598671
  12 S :   -0.317553
  13 O :   -0.351202
  14 C :   -0.001279
  15 C :   -0.306583
  16 O :   -0.372153
  17 C :   -0.000444
  18 C :   -0.319771
  19 H :    0.118124
  20 H :    0.132957
  21 H :    0.106111
  22 H :    0.107244
  23 H :    0.106164
  24 H :    0.128685
  25 H :    0.109893
  26 H :    0.113597
  27 H :    0.112553
  28 H :    0.114394
  29 H :    0.181829
  30 H :    0.213296
  31 H :    0.111830
  32 H :    0.109705
  33 H :    0.118620
  34 H :    0.113326
  35 H :    0.122127
  36 H :    0.104469
  37 H :    0.114038
  38 H :    0.114320
  39 H :    0.132070
  40 H :    0.115751
Sum of atomic charges:   -0.0000000

LOEWDIN ATOMIC CHARGES
----------------------
   0 C :   -0.366500
   1 C :   -0.115113
   2 O :   -0.248527
   3 P :    0.571449
   4 S :   -0.301106
   5 O :   -0.242181
   6 C :   -0.124144
   7 C :   -0.359228
   8 S :    0.083829
   9 C :   -0.477355
  10 S :    0.077762
  11 P :    0.569863
  12 S :   -0.301457
  13 O :   -0.231587
  14 C :   -0.114747
  15 C :   -0.366553
  16 O :   -0.242598
  17 C :   -0.117076
  18 C :   -0.371176
  19 H :    0.128685
  20 H :    0.121167
  21 H :    0.127467
  22 H :    0.109062
  23 H :    0.119584
  24 H :    0.105398
  25 H :    0.117496
  26 H :    0.121685
  27 H :    0.131402
  28 H :    0.122422
  29 H :    0.135680
  30 H :    0.124208
  31 H :    0.103293
  32 H :    0.123044
  33 H :    0.116652
  34 H :    0.131359
  35 H :    0.128745
  36 H :    0.118531
  37 H :    0.113321
  38 H :    0.131767
  39 H :    0.123023
  40 H :    0.122452

  Mayer bond orders larger than 0.100000
B(  0-C ,  1-C ) :   1.1643 B(  0-C , 19-H ) :   0.9461 B(  0-C , 20-H ) :   0.9321
B(  0-C , 21-H ) :   0.9386 B(  1-C ,  2-O ) :   0.9166 B(  1-C , 22-H ) :   0.9191
B(  1-C , 23-H ) :   0.9359 B(  2-O ,  3-P ) :   1.1124 B(  3-P ,  4-S ) :   1.6137
B(  3-P ,  5-O ) :   1.1077 B(  3-P ,  8-S ) :   0.9567 B(  4-S ,  8-S ) :   0.1157
B(  5-O ,  6-C ) :   0.9021 B(  6-C ,  7-C ) :   1.1557 B(  6-C , 24-H ) :   0.9008
B(  6-C , 25-H ) :   0.9324 B(  7-C , 26-H ) :   0.9405 B(  7-C , 27-H ) :   0.9402
B(  7-C , 28-H ) :   0.9442 B(  8-S ,  9-C ) :   0.9989 B(  9-C , 10-S ) :   1.0026
B(  9-C , 29-H ) :   0.9096 B(  9-C , 30-H ) :   0.8476 B( 10-S , 11-P ) :   0.9350
B( 10-S , 12-S ) :   0.1053 B( 11-P , 12-S ) :   1.6251 B( 11-P , 13-O ) :   1.1475
B( 11-P , 16-O ) :   1.0966 B( 13-O , 14-C ) :   0.9002 B( 14-C , 15-C ) :   1.1688
B( 14-C , 31-H ) :   0.9137 B( 14-C , 32-H ) :   0.9342 B( 15-C , 33-H ) :   0.9377
B( 15-C , 34-H ) :   0.9363 B( 15-C , 35-H ) :   0.9430 B( 16-O , 17-C ) :   0.9055
B( 17-C , 18-C ) :   1.1657 B( 17-C , 36-H ) :   0.9342 B( 17-C , 37-H ) :   0.9164
B( 18-C , 38-H ) :   0.9372 B( 18-C , 39-H ) :   0.9346 B( 18-C , 40-H ) :   0.9445

Dispersion correction           -0.066464859
FINAL SINGLE POINT ENERGY     -2929.516512463018

DIPOLE MOMENT
-------------

Method             : SCF
Type of density    : Electron Density
Multiplicity       :   1
Irrep              :   0
Energy             : -2929.6349079838432772 Eh
Relativity type    :
Basis              : AO
                                X                 Y                 Z
Electronic contribution:     -2.341395099      -6.914148056      -0.371260816
Nuclear contribution   :      1.997456631       6.968559688       1.234796005
                        -----------------------------------------
Total Dipole Moment    :     -0.343938468       0.054411632       0.863535189
                        -----------------------------------------
Magnitude (a.u.)       :      0.931100058
Magnitude (Debye)      :      2.366668266

Rotational constants in cm-1:             0.013845             0.004738             0.004535
Rotational constants in MHz :           415.071240           142.035620           135.955780

                             ****ORCA TERMINATED NORMALLY****
TOTAL RUN TIME: 0 days 0 hours 0 minutes 20 seconds 881 msec
