                         Program Version 6.0.0  -   RELEASE  -
|  1> ! pbe def2-sv(p) def2/J RI DEFGRID1 loosescf d4 GCP(DFT/SV(P)) printgap
|  2> %output
|  3>     printlevel normal
|  4> end
|  5> * xyz 0 1
|  6> C 3.3122818549 0.6245868438 -2.6537580445
|  7> C 1.9294541557 0.9141316918 -2.1118957985
|  8> O 1.4345053953 -0.1774578366 -1.3168569156
|  9> P 2.0517208098 -0.5486792713 0.0943715522
| 10> S 2.6844479811 0.97030572 1.1698370489
| 11> O 3.1385090172 -1.6200506761 -0.3516698602
| 12> C 3.737649041 -2.6269065828 0.4848412287
| 13> C 4.3137672692 -2.0702076903 1.7700501357
| 14> S 0.5518955729 -1.7625986023 0.9403143388
| 15> C -0.2506856452 -0.5847207896 2.0789692775
| 16> S -2.0164433937 -0.3658300597 1.73698643
| 17> P -1.8279703378 0.7678101325 -0.0210201909
| 18> S -0.5155745115 2.218625415 -0.0697692673
| 19> O -3.3437515074 1.2515977466 -0.0927403765
| 20> C -3.7401485965 2.2579160653 -1.0477562908
| 21> C -5.2108224639 2.5444154933 -0.8274738838
| 22> O -1.5628175672 -0.2203051432 -1.2405257475
| 23> C -2.1320371131 -1.5422165393 -1.4092785246
| 24> C -3.6461376405 -1.5415889985 -1.4332928119
| 25> H 3.6185956219 1.4338224976 -3.3091327181
| 26> H 4.0187469214 0.5477151365 -1.82785634
| 27> H 3.3108576369 -0.3125822714 -3.2039151134
| 28> H 1.1871458248 1.0175102184 -2.9048677246
| 29> H 1.9287317308 1.8219703271 -1.4986464526
| 30> H 2.9790026214 -3.3851091633 0.697429477
| 31> H 4.5179239171 -3.0518434103 -0.1492949157
| 32> H 4.8235176753 -2.8631179553 2.3077714886
| 33> H 5.0177390443 -1.2692395898 1.5569573968
| 34> H 3.5196044913 -1.6683942237 2.397531328
| 35> H 0.2717755885 0.3745122528 2.013241555
| 36> H -0.1902463217 -0.9961523897 3.0831984943
| 37> H -3.1246892533 3.1492366879 -0.8868175855
| 38> H -3.5487629151 1.8808527403 -2.0573821116
| 39> H -5.3699952226 2.8941114497 0.1882676464
| 40> H -5.5334969078 3.3091207593 -1.5264180133
| 41> H -5.7946498933 1.6419586946 -0.9832303209
| 42> H -1.7114300775 -1.8698437495 -2.3615200633
| 43> H -1.7573585116 -2.1832460987 -0.606334045
| 44> H -4.0159117063 -0.8675434143 -2.2022455886
| 45> H -3.9903272662 -2.548451401 -1.649042274
| 46> H -4.0417775869 -1.2329481713 -0.4676492507
| 47> *
| 48>
| 49>                          ****END OF INPUT****

CARTESIAN COORDINATES (ANGSTROEM)
---------------------------------
  C      3.312282    0.624587   -2.653758
  C      1.929454    0.914132   -2.111896
  O      1.434505   -0.177458   -1.316857
  P      2.051721   -0.548679    0.094372
  S      2.684448    0.970306    1.169837
  O      3.138509   -1.620051   -0.351670
  C      3.737649   -2.626907    0.484841
  C      4.313767   -2.070208    1.770050
  S      0.551896   -1.762599    0.940314
  C     -0.250686   -0.584721    2.078969
  S     -2.016443   -0.365830    1.736986
  P     -1.827970    0.767810   -0.021020
  S     -0.515575    2.218625   -0.069769
  O     -3.343752    1.251598   -0.092740
  C     -3.740149    2.257916   -1.047756
  C     -5.210822    2.544415   -0.827474
  O     -1.562818   -0.220305   -1.240526
  C     -2.132037   -1.542217   -1.409279
  C     -3.646138   -1.541589   -1.433293
  H      3.618596    1.433822   -3.309133
  H      4.018747    0.547715   -1.827856
  H      3.310858   -0.312582   -3.203915
  H      1.187146    1.017510   -2.904868
  H      1.928732    1.821970   -1.498646
  H      2.979003   -3.385109    0.697429
  H      4.517924   -3.051843   -0.149295
  H      4.823518   -2.863118    2.307771
  H      5.017739   -1.269240    1.556957
  H      3.519604   -1.668394    2.397531
  H      0.271776    0.374512    2.013242
  H     -0.190246   -0.996152    3.083198
  H     -3.124689    3.149237   -0.886818
  H     -3.548763    1.880853   -2.057382
  H     -5.369995    2.894111    0.188268
  H     -5.533497    3.309121   -1.526418
  H     -5.794650    1.641959   -0.983230
  H     -1.711430   -1.869844   -2.361520
  H     -1.757359   -2.183246   -0.606334
  H     -4.015912   -0.867543   -2.202246
  H     -3.990327   -2.548451   -1.649042
  H     -4.041778   -1.232948   -0.467649

 Total Charge           Charge          ....    0
 Multiplicity           Mult            ....    1
 Number of Electrons    NEL             ....  202
 Basis Dimension        Dim             ....  334

ORBITAL ENERGIES
----------------

  NO   OCC          E(Eh)            E(eV)
   0   2.0000     -88.047272     -2395.8881
   1   2.0000     -88.045360     -2395.8361
   2   2.0000     -87.979461     -2394.0429
   3   2.0000     -87.976664     -2393.9667
   4   2.0000     -76.421779     -2079.5423
   5   2.0000     -76.421165     -2079.5256
   6   2.0000     -18.791339      -511.3383
   7   2.0000     -18.788884      -511.2715
   8   2.0000     -18.787230      -511.2265
   9   2.0000     -18.776303      -510.9292
  10   2.0000      -9.957755      -270.9643
  11   2.0000      -9.955022      -270.8899
  12   2.0000      -9.953173      -270.8396
  13   2.0000      -9.951448      -270.7927
  14   2.0000      -9.935275      -270.3526
  15   2.0000      -9.889259      -269.1004
  16   2.0000      -9.888791      -269.0877
  17   2.0000      -9.880858      -268.8718
  18   2.0000      -9.873118      -268.6612
  19   2.0000      -7.692733      -209.3299
  20   2.0000      -7.690292      -209.2635
  21   2.0000      -7.624388      -207.4701
  22   2.0000      -7.621748      -207.3983
  23   2.0000      -6.419211      -174.6756
  24   2.0000      -6.418988      -174.6696
  25   2.0000      -5.720597      -155.6654
  26   2.0000      -5.718064      -155.5964
  27   2.0000      -5.717152      -155.5716
  28   2.0000      -5.714686      -155.5045
  29   2.0000      -5.709721      -155.3694
  30   2.0000      -5.707450      -155.3076
  31   2.0000      -5.653333      -153.8350
  32   2.0000      -5.650835      -153.7670
  33   2.0000      -5.645315      -153.6168
  34   2.0000      -5.644228      -153.5873
  35   2.0000      -5.642619      -153.5435
  36   2.0000      -5.641418      -153.5108
  37   2.0000      -4.642165      -126.3197
  38   2.0000      -4.641404      -126.2990
  39   2.0000      -4.640916      -126.2857
  40   2.0000      -4.640831      -126.2834
  41   2.0000      -4.639584      -126.2495
  42   2.0000      -4.639329      -126.2426
  43   2.0000      -0.981300       -26.7025
  44   2.0000      -0.979358       -26.6497
  45   2.0000      -0.941015       -25.6063
  46   2.0000      -0.935878       -25.4665
  47   2.0000      -0.765011       -20.8170
  48   2.0000      -0.721230       -19.6257
  49   2.0000      -0.706640       -19.2287
  50   2.0000      -0.693317       -18.8661
  51   2.0000      -0.683131       -18.5889
  52   2.0000      -0.671642       -18.2763
  53   2.0000      -0.647427       -17.6174
  54   2.0000      -0.632869       -17.2213
  55   2.0000      -0.596173       -16.2227
  56   2.0000      -0.586170       -15.9505
  57   2.0000      -0.578511       -15.7421
  58   2.0000      -0.566604       -15.4181
  59   2.0000      -0.557004       -15.1568
  60   2.0000      -0.503799       -13.7091
  61   2.0000      -0.488620       -13.2960
  62   2.0000      -0.475314       -12.9340
  63   2.0000      -0.461337       -12.5536
  64   2.0000      -0.451846       -12.2953
  65   2.0000      -0.444434       -12.0937
  66   2.0000      -0.440072       -11.9750
  67   2.0000      -0.434632       -11.8269
  68   2.0000      -0.425084       -11.5671
  69   2.0000      -0.414224       -11.2716
  70   2.0000      -0.404599       -11.0097
  71   2.0000      -0.400334       -10.8936
  72   2.0000      -0.398564       -10.8455
  73   2.0000      -0.383568       -10.4374
  74   2.0000      -0.378390       -10.2965
  75   2.0000      -0.367063        -9.9883
  76   2.0000      -0.360390        -9.8067
  77   2.0000      -0.355261        -9.6671
  78   2.0000      -0.353179        -9.6105
  79   2.0000      -0.349522        -9.5110
  80   2.0000      -0.344773        -9.3818
  81   2.0000      -0.341622        -9.2960
  82   2.0000      -0.336898        -9.1675
  83   2.0000      -0.336068        -9.1449
  84   2.0000      -0.332906        -9.0588
  85   2.0000      -0.316677        -8.6172
  86   2.0000      -0.312934        -8.5154
  87   2.0000      -0.308264        -8.3883
  88   2.0000      -0.293233        -7.9793
  89   2.0000      -0.279809        -7.6140
  90   2.0000      -0.276440        -7.5223
  91   2.0000      -0.269674        -7.3382
  92   2.0000      -0.265132        -7.2146
  93   2.0000      -0.260593        -7.0911
  94   2.0000      -0.255024        -6.9396
  95   2.0000      -0.238418        -6.4877
  96   2.0000      -0.223274        -6.0756
  97   2.0000      -0.210237        -5.7208
  98   2.0000      -0.198820        -5.4102
  99   2.0000      -0.190705        -5.1894
 100   2.0000      -0.181002        -4.9253
 101   0.0000      -0.042769        -1.1638
 102   0.0000      -0.031680        -0.8620
 103   0.0000      -0.007153        -0.1947
 104   0.0000       0.013347         0.3632
 105   0.0000       0.022581         0.6144

MULLIKEN ATOMIC CHARGES
-----------------------
   0 C :   -0.296567
   1 C :   -0.005396
   2 O :   -0.352125
   3 P :    0.614445
   4 S :   -0.312223
   5 O :   -0.377138
   6 C :   -0.006572
   7 C :   -0.307117
   8 S :   -0.115923
   9 C :   -0.351606
  10 S :   -0.092279
  11 P :    0.618021
  12 S :   -0.305951
  13 O :   -0.392628
  14 C :   -0.017800
  15 C :   -0.277540
  16 O :   -0.365597
  17 C :   -0.005988
  18 C :   -0.319225
  19 H :    0.107180
  20 H :    0.119512
  21 H :    0.108910
  22 H :    0.098444
  23 H :    0.123904
  24 H :    0.108958
  25 H :    0.107100
  26 H :    0.108736
  27 H :    0.126013
  28 H :    0.120468
  29 H :    0.214138
  30 H :    0.184841
  31 H :    0.113502
  32 H :    0.101745
  33 H :    0.122157
  34 H :    0.111898
  35 H :    0.113932
  36 H :    0.107458
  37 H :    0.114424
  38 H :    0.115564
  39 H :    0.113479
  40 H :    0.126844
Sum of atomic charges:   -0.0000000

LOEWDIN ATOMIC CHARGES
----------------------
   0 C :   -0.365149
   1 C :   -0.121437
   2 O :   -0.232162
   3 P :    0.570644
   4 S :   -0.304304
   5 O :   -0.245842
   6 C :   -0.114892
   7 C :   -0.369846
   8 S :    0.079793
   9 C :   -0.475079
  10 S :    0.088947
  11 P :    0.562397
  12 S :   -0.290572
  13 O :   -0.258503
  14 C :   -0.118093
  15 C :   -0.350210
  16 O :   -0.241157
  17 C :   -0.119438
  18 C :   -0.368210
  19 H :    0.128106
  20 H :    0.121107
  21 H :    0.122605
  22 H :    0.116640
  23 H :    0.108072
  24 H :    0.107361
  25 H :    0.120424
  26 H :    0.128521
  27 H :    0.129331
  28 H :    0.119577
  29 H :    0.128927
  30 H :    0.138007
  31 H :    0.112281
  32 H :    0.107410
  33 H :    0.130344
  34 H :    0.130880
  35 H :    0.124924
  36 H :    0.121516
  37 H :    0.100999
  38 H :    0.123145
  39 H :    0.131630
  40 H :    0.121302

  Mayer bond orders larger than 0.100000
B(  0-C ,  1-C ) :   1.1568 B(  0-C , 19-H ) :   0.9399 B(  0-C , 20-H ) :   0.9363
B(  0-C , 21-H ) :   0.9455 B(  1-C ,  2-O ) :   0.9028 B(  1-C , 22-H ) :   0.9354
B(  1-C , 23-H ) :   0.9101 B(  2-O ,  3-P ) :   1.1483 B(  3-P ,  4-S ) :   1.6088
B(  3-P ,  5-O ) :   1.0965 B(  3-P ,  8-S ) :   0.9433 B(  4-S ,  8-S ) :   0.1147
B(  5-O ,  6-C ) :   0.9173 B(  6-C ,  7-C ) :   1.1647 B(  6-C , 24-H ) :   0.9274
B(  6-C , 25-H ) :   0.9343 B(  7-C , 26-H ) :   0.9346 B(  7-C , 27-H ) :   0.9429
B(  7-C , 28-H ) :   0.9341 B(  8-S ,  9-C ) :   0.9925 B(  9-C , 10-S ) :   1.0073
B(  9-C , 29-H ) :   0.8454 B(  9-C , 30-H ) :   0.9128 B( 10-S , 11-P ) :   0.9476
B( 10-S , 12-S ) :   0.1033 B( 11-P , 12-S ) :   1.6589 B( 11-P , 13-O ) :   1.0816
B( 11-P , 16-O ) :   1.1163 B( 13-O , 14-C ) :   0.8987 B( 14-C , 15-C ) :   1.1594
B( 14-C , 31-H ) :   0.9159 B( 14-C , 32-H ) :   0.9239 B( 15-C , 33-H ) :   0.9493
B( 15-C , 34-H ) :   0.9418 B( 15-C , 35-H ) :   0.9517 B( 16-O , 17-C ) :   0.9075
B( 17-C , 18-C ) :   1.1624 B( 17-C , 36-H ) :   0.9360 B( 17-C , 37-H ) :   0.9072
B( 18-C , 38-H ) :   0.9434 B( 18-C , 39-H ) :   0.9369 B( 18-C , 40-H ) :   0.9367

Dispersion correction           -0.067421589
FINAL SINGLE POINT ENERGY     -2929.516411724048

DIPOLE MOMENT
-------------

Method             : SCF
Type of density    : Electron Density
Multiplicity       :   1
Irrep              :   0
Energy             : -2929.6348382126097931 Eh
Relativity type    :
Basis              : AO
                                X                 Y                 Z
Electronic contribution:      3.128182678       2.879405058      12.002226000
Nuclear contribution   :     -3.870052258      -4.157204865     -12.781419659
                        -----------------------------------------
Total Dipole Moment    :     -0.741869579      -1.277799807      -0.779193659
                        -----------------------------------------
Magnitude (a.u.)       :      1.670414792
Magnitude (Debye)      :      4.245856978

Rotational constants in cm-1:             0.013611             0.005089             0.004754
Rotational constants in MHz :           408.055481           152.566535           142.531605

                             ****ORCA TERMINATED NORMALLY****
TOTAL RUN TIME: 0 days 0 hours 0 minutes 21 seconds 531 msec
