                         Program Version 6.0.0  -   RELEASE  -
|  1> ! pbe def2-sv(p) def2/J RI DEFGRID1 loosescf d4 GCP(DFT/SV(P)) printgap
|  2> %output
|  3>     printlevel normal
|  4> end
|  5> * xyz 0 1
|  6> C 2.5797693378 -2.8640438019 -2.2768134848
|  7> C 2.9577380014 -2.6595150582 -0.8239052818
|  8> O 3.4288705931 -1.3069217836 -0.5934825364
|  9> P 2.5124238459 -0.1397747441 -0.0443587354
| 10> S 3.5429131316 1.4745954119 0.3376551118
| 11> O 1.6940548562 -0.7492043526 1.1937037647
| 12> C 2.0987774069 -0.5197346484 2.5556702605
| 13> C 3.3245206164 -1.3372072708 2.9087366838
| 14> S 0.9422070709 0.0501271061 -1.4470878642
| 15> C 0.319955321 1.6369791453 -0.8388272953
| 16> S -0.5311041772 1.5109303021 0.7591370122
| 17> P -2.3558583482 0.6811249396 0.0556087214
| 18> S -2.7347913654 0.8719786782 -1.8629138654
| 19> O -3.3514571109 1.4555758786 1.0086329308
| 20> C -4.7395900497 1.6491039044 0.6697776471
| 21> C -5.5164684713 0.3517552844 0.7489179297
| 22> O -2.4374529884 -0.7783283291 0.6859040088
| 23> C -1.5546561249 -1.8816213553 0.4219330921
| 24> C -1.7300455017 -2.4510044025 -0.9722534404
| 25> H 3.4152137746 -2.5995612416 -2.9188959524
| 26> H 2.3251570287 -3.9076116453 -2.4330269858
| 27> H 1.7259300918 -2.244465155 -2.5431481584
| 28> H 3.8063504621 -3.286784143 -0.5456015154
| 29> H 2.1127314207 -2.8597122185 -0.1610495365
| 30> H 2.2938595782 0.5492950067 2.6852862943
| 31> H 1.2284513336 -0.8073940524 3.1470617573
| 32> H 4.1603052104 -1.0330103462 2.2787044834
| 33> H 3.5860174833 -1.1634398933 3.9476943667
| 34> H 3.1332395163 -2.3963289379 2.7573734033
| 35> H -0.3732110414 2.0066152416 -1.5943783193
| 36> H 1.1587286504 2.3181587215 -0.6955288474
| 37> H -5.0889181723 2.3794047429 1.4006381283
| 38> H -4.7971666367 2.073431348 -0.3378517243
| 39> H -5.393732404 -0.0999281185 1.7295863004
| 40> H -6.5685039869 0.5482077747 0.5676064979
| 41> H -5.1480991318 -0.3413532652 -0.0062783847
| 42> H -0.5230090873 -1.5557789081 0.5846418324
| 43> H -1.8299398692 -2.6129419898 1.1846820551
| 44> H -1.4167131011 -1.7294022451 -1.7238759273
| 45> H -1.1235954883 -3.34564393 -1.0707687279
| 46> H -2.7725453516 -2.7043375579 -1.146081842
| 47> *
| 48>
| 49>                          ****END OF INPUT****

CARTESIAN COORDINATES (ANGSTROEM)
---------------------------------
  C      2.579769   -2.864044   -2.276813
  C      2.957738   -2.659515   -0.823905
  O      3.428871   -1.306922   -0.593483
  P      2.512424   -0.139775   -0.044359
  S      3.542913    1.474595    0.337655
  O      1.694055   -0.749204    1.193704
  C      2.098777   -0.519735    2.555670
  C      3.324521   -1.337207    2.908737
  S      0.942207    0.050127   -1.447088
  C      0.319955    1.636979   -0.838827
  S     -0.531104    1.510930    0.759137
  P     -2.355858    0.681125    0.055609
  S     -2.734791    0.871979   -1.862914
  O     -3.351457    1.455576    1.008633
  C     -4.739590    1.649104    0.669778
  C     -5.516468    0.351755    0.748918
  O     -2.437453   -0.778328    0.685904
  C     -1.554656   -1.881621    0.421933
  C     -1.730046   -2.451004   -0.972253
  H      3.415214   -2.599561   -2.918896
  H      2.325157   -3.907612   -2.433027
  H      1.725930   -2.244465   -2.543148
  H      3.806350   -3.286784   -0.545602
  H      2.112731   -2.859712   -0.161050
  H      2.293860    0.549295    2.685286
  H      1.228451   -0.807394    3.147062
  H      4.160305   -1.033010    2.278704
  H      3.586017   -1.163440    3.947694
  H      3.133240   -2.396329    2.757373
  H     -0.373211    2.006615   -1.594378
  H      1.158729    2.318159   -0.695529
  H     -5.088918    2.379405    1.400638
  H     -4.797167    2.073431   -0.337852
  H     -5.393732   -0.099928    1.729586
  H     -6.568504    0.548208    0.567606
  H     -5.148099   -0.341353   -0.006278
  H     -0.523009   -1.555779    0.584642
  H     -1.829940   -2.612942    1.184682
  H     -1.416713   -1.729402   -1.723876
  H     -1.123595   -3.345644   -1.070769
  H     -2.772545   -2.704338   -1.146082

 Total Charge           Charge          ....    0
 Multiplicity           Mult            ....    1
 Number of Electrons    NEL             ....  202
 Basis Dimension        Dim             ....  334

ORBITAL ENERGIES
----------------

  NO   OCC          E(Eh)            E(eV)
   0   2.0000     -88.046020     -2395.8540
   1   2.0000     -88.041211     -2395.7231
   2   2.0000     -87.991962     -2394.3830
   3   2.0000     -87.990560     -2394.3449
   4   2.0000     -76.430143     -2079.7699
   5   2.0000     -76.427964     -2079.7106
   6   2.0000     -18.801411      -511.6124
   7   2.0000     -18.796660      -511.4831
   8   2.0000     -18.790468      -511.3146
   9   2.0000     -18.789338      -511.2839
  10   2.0000      -9.966427      -271.2003
  11   2.0000      -9.953691      -270.8537
  12   2.0000      -9.953576      -270.8506
  13   2.0000      -9.951900      -270.8050
  14   2.0000      -9.951234      -270.7868
  15   2.0000      -9.895696      -269.2756
  16   2.0000      -9.889097      -269.0960
  17   2.0000      -9.883564      -268.9455
  18   2.0000      -9.880305      -268.8568
  19   2.0000      -7.690853      -209.2788
  20   2.0000      -7.686404      -209.1577
  21   2.0000      -7.636800      -207.8079
  22   2.0000      -7.635792      -207.7805
  23   2.0000      -6.428087      -174.9171
  24   2.0000      -6.425455      -174.8455
  25   2.0000      -5.718642      -155.6122
  26   2.0000      -5.715461      -155.5256
  27   2.0000      -5.714308      -155.4942
  28   2.0000      -5.711048      -155.4055
  29   2.0000      -5.707835      -155.3181
  30   2.0000      -5.703183      -155.1915
  31   2.0000      -5.665612      -154.1692
  32   2.0000      -5.664885      -154.1494
  33   2.0000      -5.657672      -153.9531
  34   2.0000      -5.656832      -153.9302
  35   2.0000      -5.656356      -153.9173
  36   2.0000      -5.655778      -153.9016
  37   2.0000      -4.651056      -126.5617
  38   2.0000      -4.649432      -126.5175
  39   2.0000      -4.648552      -126.4935
  40   2.0000      -4.647798      -126.4730
  41   2.0000      -4.647295      -126.4593
  42   2.0000      -4.646089      -126.4265
  43   2.0000      -0.991730       -26.9863
  44   2.0000      -0.985829       -26.8258
  45   2.0000      -0.950592       -25.8669
  46   2.0000      -0.943580       -25.6761
  47   2.0000      -0.765807       -20.8387
  48   2.0000      -0.725849       -19.7514
  49   2.0000      -0.712767       -19.3954
  50   2.0000      -0.696416       -18.9504
  51   2.0000      -0.685937       -18.6653
  52   2.0000      -0.676194       -18.4002
  53   2.0000      -0.654801       -17.8180
  54   2.0000      -0.642109       -17.4727
  55   2.0000      -0.601839       -16.3769
  56   2.0000      -0.593995       -16.1634
  57   2.0000      -0.585680       -15.9372
  58   2.0000      -0.571876       -15.5615
  59   2.0000      -0.561364       -15.2755
  60   2.0000      -0.506910       -13.7937
  61   2.0000      -0.495120       -13.4729
  62   2.0000      -0.483133       -13.1467
  63   2.0000      -0.471617       -12.8334
  64   2.0000      -0.461785       -12.5658
  65   2.0000      -0.451809       -12.2943
  66   2.0000      -0.441391       -12.0109
  67   2.0000      -0.437310       -11.8998
  68   2.0000      -0.430776       -11.7220
  69   2.0000      -0.416292       -11.3279
  70   2.0000      -0.408593       -11.1184
  71   2.0000      -0.402773       -10.9600
  72   2.0000      -0.393465       -10.7067
  73   2.0000      -0.389347       -10.5947
  74   2.0000      -0.380336       -10.3495
  75   2.0000      -0.377997       -10.2858
  76   2.0000      -0.373668       -10.1680
  77   2.0000      -0.363861        -9.9012
  78   2.0000      -0.363255        -9.8847
  79   2.0000      -0.354819        -9.6551
  80   2.0000      -0.351223        -9.5573
  81   2.0000      -0.347458        -9.4548
  82   2.0000      -0.344906        -9.3854
  83   2.0000      -0.339263        -9.2318
  84   2.0000      -0.336067        -9.1449
  85   2.0000      -0.322698        -8.7811
  86   2.0000      -0.317433        -8.6378
  87   2.0000      -0.306744        -8.3469
  88   2.0000      -0.296120        -8.0578
  89   2.0000      -0.288954        -7.8628
  90   2.0000      -0.284343        -7.7374
  91   2.0000      -0.276902        -7.5349
  92   2.0000      -0.275120        -7.4864
  93   2.0000      -0.272495        -7.4150
  94   2.0000      -0.260591        -7.0910
  95   2.0000      -0.235504        -6.4084
  96   2.0000      -0.218194        -5.9374
  97   2.0000      -0.215687        -5.8692
  98   2.0000      -0.208106        -5.6628
  99   2.0000      -0.204101        -5.5539
 100   2.0000      -0.203208        -5.5296
 101   0.0000      -0.048249        -1.3129
 102   0.0000      -0.028779        -0.7831
 103   0.0000      -0.004320        -0.1176
 104   0.0000       0.001337         0.0364
 105   0.0000       0.006608         0.1798

MULLIKEN ATOMIC CHARGES
-----------------------
   0 C :   -0.303674
   1 C :   -0.033959
   2 O :   -0.365388
   3 P :    0.622896
   4 S :   -0.305944
   5 O :   -0.381385
   6 C :   -0.002606
   7 C :   -0.312433
   8 S :   -0.107852
   9 C :   -0.353073
  10 S :   -0.082033
  11 P :    0.627375
  12 S :   -0.336040
  13 O :   -0.370208
  14 C :   -0.005872
  15 C :   -0.304897
  16 O :   -0.370453
  17 C :   -0.042150
  18 C :   -0.314403
  19 H :    0.127461
  20 H :    0.114021
  21 H :    0.141059
  22 H :    0.114250
  23 H :    0.112405
  24 H :    0.115244
  25 H :    0.104317
  26 H :    0.129431
  27 H :    0.115868
  28 H :    0.109261
  29 H :    0.197909
  30 H :    0.192984
  31 H :    0.106783
  32 H :    0.113921
  33 H :    0.116342
  34 H :    0.111424
  35 H :    0.123887
  36 H :    0.140259
  37 H :    0.099885
  38 H :    0.140790
  39 H :    0.100185
  40 H :    0.114411
Sum of atomic charges:    0.0000000

LOEWDIN ATOMIC CHARGES
----------------------
   0 C :   -0.361453
   1 C :   -0.116541
   2 O :   -0.240746
   3 P :    0.571159
   4 S :   -0.301992
   5 O :   -0.250398
   6 C :   -0.122088
   7 C :   -0.364954
   8 S :    0.095204
   9 C :   -0.483925
  10 S :    0.088186
  11 P :    0.573210
  12 S :   -0.310849
  13 O :   -0.243263
  14 C :   -0.115772
  15 C :   -0.363941
  16 O :   -0.242528
  17 C :   -0.124326
  18 C :   -0.370253
  19 H :    0.132992
  20 H :    0.132229
  21 H :    0.120262
  22 H :    0.123144
  23 H :    0.108923
  24 H :    0.110570
  25 H :    0.117396
  26 H :    0.125631
  27 H :    0.132534
  28 H :    0.121291
  29 H :    0.130314
  30 H :    0.130917
  31 H :    0.119677
  32 H :    0.110754
  33 H :    0.126445
  34 H :    0.130064
  35 H :    0.122844
  36 H :    0.105536
  37 H :    0.116925
  38 H :    0.117081
  39 H :    0.124221
  40 H :    0.125519

  Mayer bond orders larger than 0.100000
B(  0-C ,  1-C ) :   1.1692 B(  0-C , 19-H ) :   0.9448 B(  0-C , 20-H ) :   0.9377
B(  0-C , 21-H ) :   0.9315 B(  1-C ,  2-O ) :   0.8977 B(  1-C , 22-H ) :   0.9332
B(  1-C , 23-H ) :   0.9144 B(  2-O ,  3-P ) :   1.1278 B(  3-P ,  4-S ) :   1.6401
B(  3-P ,  5-O ) :   1.0560 B(  3-P ,  8-S ) :   0.9609 B(  4-S ,  8-S ) :   0.1003
B(  5-O ,  6-C ) :   0.8995 B(  6-C ,  7-C ) :   1.1609 B(  6-C , 24-H ) :   0.9123
B(  6-C , 25-H ) :   0.9332 B(  7-C , 26-H ) :   0.9355 B(  7-C , 27-H ) :   0.9403
B(  7-C , 28-H ) :   0.9473 B(  8-S ,  9-C ) :   0.9986 B(  9-C , 10-S ) :   1.0141
B(  9-C , 29-H ) :   0.8720 B(  9-C , 30-H ) :   0.8728 B( 10-S , 11-P ) :   0.9464
B( 10-S , 12-S ) :   0.1137 B( 11-P , 12-S ) :   1.5988 B( 11-P , 13-O ) :   1.1374
B( 11-P , 16-O ) :   1.1088 B( 13-O , 14-C ) :   0.9079 B( 14-C , 15-C ) :   1.1633
B( 14-C , 31-H ) :   0.9346 B( 14-C , 32-H ) :   0.9153 B( 15-C , 33-H ) :   0.9465
B( 15-C , 34-H ) :   0.9387 B( 15-C , 35-H ) :   0.9366 B( 16-O , 17-C ) :   0.9112
B( 17-C , 18-C ) :   1.1639 B( 17-C , 36-H ) :   0.8965 B( 17-C , 37-H ) :   0.9351
B( 18-C , 38-H ) :   0.9276 B( 18-C , 39-H ) :   0.9372 B( 18-C , 40-H ) :   0.9444

Dispersion correction           -0.066171628
FINAL SINGLE POINT ENERGY     -2929.522275956371

DIPOLE MOMENT
-------------

Method             : SCF
Type of density    : Electron Density
Multiplicity       :   1
Irrep              :   0
Energy             : -2929.6421364625093702 Eh
Relativity type    :
Basis              : AO
                                X                 Y                 Z
Electronic contribution:      5.445768382      20.336202555      -4.109911780
Nuclear contribution   :     -5.897998618     -22.019355876       4.879045823
                        -----------------------------------------
Total Dipole Moment    :     -0.452230236      -1.683153321       0.769134044
                        -----------------------------------------
Magnitude (a.u.)       :      1.905015608
Magnitude (Debye)      :      4.842164862

Rotational constants in cm-1:             0.013175             0.004793             0.004532
Rotational constants in MHz :           394.989340           143.694032           135.872917

                             ****ORCA TERMINATED NORMALLY****
TOTAL RUN TIME: 0 days 0 hours 0 minutes 21 seconds 266 msec
