                         Program Version 6.0.0  -   RELEASE  -
|  1> ! r2scan-3c def2/J RI DEFGRID2 scfconv6 printgap
|  2> %output
|  3>     printlevel normal
|  4> end
|  5> * xyz 0 1
|  6> C 3.7794802955 -1.4440865793 -2.5542115965
|  7> C 4.0702561441 -1.7353087239 -1.0960779893
|  8> O 2.8799294531 -1.7051798721 -0.2894507264
|  9> P 2.0779901071 -0.3655560967 0.0029212504
| 10> S 3.1802581562 1.2331510713 0.2947423725
| 11> O 1.1509431974 -0.8150507316 1.2052138828
| 12> C 1.4734231977 -0.532880772 2.5796305392
| 13> C 2.6541377811 -1.3539027649 3.0532883583
| 14> S 0.6469574332 -0.2704535101 -1.5518452327
| 15> C 0.1329342971 1.4389470539 -1.2414420694
| 16> S -0.6188482356 1.6623053611 0.3904795092
| 17> P -2.3094818084 0.4223799699 0.0450350145
| 18> S -3.0478270746 0.4820740383 -1.7744299459
| 19> O -3.2654905323 0.8013764114 1.2510629531
| 20> C -3.6164948773 2.139314795 1.6508927073
| 21> C -4.2004120978 2.9572683015 0.51729534
| 22> O -1.9113900362 -1.0279897678 0.5406518264
| 23> C -2.0374453416 -2.2250593531 -0.2577182036
| 24> C -0.9536334223 -3.2023899387 0.1476485101
| 25> H 4.6819250384 -1.5950176255 -3.1379052494
| 26> H 2.9959531393 -2.101309817 -2.9230783248
| 27> H 3.4528874783 -0.4114197588 -2.6707378001
| 28> H 4.7792434536 -1.0050255791 -0.6930696361
| 29> H 4.4559915133 -2.7458628581 -0.9554727219
| 30> H 1.6794253909 0.5384714419 2.6758540322
| 31> H 0.5581629084 -0.7807645366 3.1193615211
| 32> H 2.47084893 -2.4112276926 2.8814591673
| 33> H 3.5498631961 -1.058319092 2.5078389935
| 34> H 2.8128768438 -1.1799765404 4.1128827581
| 35> H -0.5923772206 1.6887254237 -2.015767404
| 36> H 1.0005352786 2.097135008 -1.2760011656
| 37> H -4.3461886528 1.9835975765 2.4475966275
| 38> H -2.7226884301 2.6216461284 2.0569388563
| 39> H -5.0418937932 2.4351141113 0.0680541331
| 40> H -4.5347766009 3.9161201194 0.9001136174
| 41> H -3.4484448973 3.125397162 -0.2523981153
| 42> H -3.0307325771 -2.6374197826 -0.0641591664
| 43> H -1.9638769656 -1.9600275436 -1.317824402
| 44> H -1.026374779 -3.4165109782 1.2099372757
| 45> H -1.0806136569 -4.1205633409 -0.4166081939
| 46> H 0.0306886856 -2.7896536387 -0.0596729476
| 47> *
| 48>
| 49>                          ****END OF INPUT****

CARTESIAN COORDINATES (ANGSTROEM)
---------------------------------
  C      3.779480   -1.444087   -2.554212
  C      4.070256   -1.735309   -1.096078
  O      2.879929   -1.705180   -0.289451
  P      2.077990   -0.365556    0.002921
  S      3.180258    1.233151    0.294742
  O      1.150943   -0.815051    1.205214
  C      1.473423   -0.532881    2.579631
  C      2.654138   -1.353903    3.053288
  S      0.646957   -0.270454   -1.551845
  C      0.132934    1.438947   -1.241442
  S     -0.618848    1.662305    0.390480
  P     -2.309482    0.422380    0.045035
  S     -3.047827    0.482074   -1.774430
  O     -3.265491    0.801376    1.251063
  C     -3.616495    2.139315    1.650893
  C     -4.200412    2.957268    0.517295
  O     -1.911390   -1.027990    0.540652
  C     -2.037445   -2.225059   -0.257718
  C     -0.953633   -3.202390    0.147649
  H      4.681925   -1.595018   -3.137905
  H      2.995953   -2.101310   -2.923078
  H      3.452887   -0.411420   -2.670738
  H      4.779243   -1.005026   -0.693070
  H      4.455992   -2.745863   -0.955473
  H      1.679425    0.538471    2.675854
  H      0.558163   -0.780765    3.119362
  H      2.470849   -2.411228    2.881459
  H      3.549863   -1.058319    2.507839
  H      2.812877   -1.179977    4.112883
  H     -0.592377    1.688725   -2.015767
  H      1.000535    2.097135   -1.276001
  H     -4.346189    1.983598    2.447597
  H     -2.722688    2.621646    2.056939
  H     -5.041894    2.435114    0.068054
  H     -4.534777    3.916120    0.900114
  H     -3.448445    3.125397   -0.252398
  H     -3.030733   -2.637420   -0.064159
  H     -1.963877   -1.960028   -1.317824
  H     -1.026375   -3.416511    1.209937
  H     -1.080614   -4.120563   -0.416608
  H      0.030689   -2.789654   -0.059673

 Total Charge           Charge          ....    0
 Multiplicity           Mult            ....    1
 Number of Electrons    NEL             ....  202
 Basis Dimension        Dim             ....  539

ORBITAL ENERGIES
----------------

  NO   OCC          E(Eh)            E(eV)
   0   2.0000     -88.577290     -2410.3106
   1   2.0000     -88.575208     -2410.2539
   2   2.0000     -88.524654     -2408.8783
   3   2.0000     -88.516824     -2408.6652
   4   2.0000     -76.916193     -2092.9960
   5   2.0000     -76.912376     -2092.8921
   6   2.0000     -18.997059      -516.9362
   7   2.0000     -18.990254      -516.7511
   8   2.0000     -18.988217      -516.6957
   9   2.0000     -18.982926      -516.5517
  10   2.0000     -10.106571      -275.0138
  11   2.0000     -10.102491      -274.9027
  12   2.0000     -10.102183      -274.8944
  13   2.0000     -10.096195      -274.7314
  14   2.0000     -10.089454      -274.5480
  15   2.0000     -10.031467      -272.9701
  16   2.0000     -10.028773      -272.8968
  17   2.0000     -10.026234      -272.8277
  18   2.0000     -10.021951      -272.7112
  19   2.0000      -7.871709      -214.2001
  20   2.0000      -7.869565      -214.1417
  21   2.0000      -7.819370      -212.7759
  22   2.0000      -7.811727      -212.5679
  23   2.0000      -6.594827      -179.4544
  24   2.0000      -6.590512      -179.3369
  25   2.0000      -5.818530      -158.3302
  26   2.0000      -5.816400      -158.2723
  27   2.0000      -5.815648      -158.2518
  28   2.0000      -5.813373      -158.1899
  29   2.0000      -5.808785      -158.0651
  30   2.0000      -5.806770      -158.0102
  31   2.0000      -5.766942      -156.9265
  32   2.0000      -5.759657      -156.7282
  33   2.0000      -5.759452      -156.7226
  34   2.0000      -5.759392      -156.7210
  35   2.0000      -5.752039      -156.5209
  36   2.0000      -5.751665      -156.5108
  37   2.0000      -4.740167      -128.9865
  38   2.0000      -4.739699      -128.9738
  39   2.0000      -4.738738      -128.9476
  40   2.0000      -4.735955      -128.8719
  41   2.0000      -4.735605      -128.8624
  42   2.0000      -4.734180      -128.8236
  43   2.0000      -1.052473       -28.6393
  44   2.0000      -1.046361       -28.4729
  45   2.0000      -1.013149       -27.5692
  46   2.0000      -1.004424       -27.3318
  47   2.0000      -0.804187       -21.8830
  48   2.0000      -0.758410       -20.6374
  49   2.0000      -0.749292       -20.3893
  50   2.0000      -0.732585       -19.9347
  51   2.0000      -0.726714       -19.7749
  52   2.0000      -0.711357       -19.3570
  53   2.0000      -0.686110       -18.6700
  54   2.0000      -0.670044       -18.2328
  55   2.0000      -0.635276       -17.2867
  56   2.0000      -0.624203       -16.9854
  57   2.0000      -0.606798       -16.5118
  58   2.0000      -0.601601       -16.3704
  59   2.0000      -0.589577       -16.0432
  60   2.0000      -0.525418       -14.2974
  61   2.0000      -0.518521       -14.1097
  62   2.0000      -0.495052       -13.4711
  63   2.0000      -0.487496       -13.2654
  64   2.0000      -0.477463       -12.9924
  65   2.0000      -0.461085       -12.5468
  66   2.0000      -0.460146       -12.5212
  67   2.0000      -0.448726       -12.2105
  68   2.0000      -0.440971       -11.9994
  69   2.0000      -0.435465       -11.8496
  70   2.0000      -0.430517       -11.7150
  71   2.0000      -0.413745       -11.2586
  72   2.0000      -0.411626       -11.2009
  73   2.0000      -0.405518       -11.0347
  74   2.0000      -0.398524       -10.8444
  75   2.0000      -0.392776       -10.6880
  76   2.0000      -0.382911       -10.4195
  77   2.0000      -0.373545       -10.1647
  78   2.0000      -0.365204        -9.9377
  79   2.0000      -0.362768        -9.8714
  80   2.0000      -0.361967        -9.8496
  81   2.0000      -0.359662        -9.7869
  82   2.0000      -0.356321        -9.6960
  83   2.0000      -0.352091        -9.5809
  84   2.0000      -0.342908        -9.3310
  85   2.0000      -0.336436        -9.1549
  86   2.0000      -0.324138        -8.8202
  87   2.0000      -0.312938        -8.5155
  88   2.0000      -0.310146        -8.4395
  89   2.0000      -0.301980        -8.2173
  90   2.0000      -0.297705        -8.1010
  91   2.0000      -0.290644        -7.9088
  92   2.0000      -0.285331        -7.7642
  93   2.0000      -0.282392        -7.6843
  94   2.0000      -0.267947        -7.2912
  95   2.0000      -0.245195        -6.6721
  96   2.0000      -0.230952        -6.2845
  97   2.0000      -0.228551        -6.2192
  98   2.0000      -0.222159        -6.0453
  99   2.0000      -0.212599        -5.7851
 100   2.0000      -0.211106        -5.7445
 101   0.0000      -0.049809        -1.3554
 102   0.0000      -0.026031        -0.7083
 103   0.0000      -0.002846        -0.0774
 104   0.0000      -0.001696        -0.0461
 105   0.0000       0.009471         0.2577

MULLIKEN ATOMIC CHARGES
-----------------------
   0 C :   -0.454208
   1 C :   -0.150786
   2 O :   -0.306480
   3 P :    0.691615
   4 S :   -0.484039
   5 O :   -0.248518
   6 C :   -0.161842
   7 C :   -0.444991
   8 S :   -0.129555
   9 C :   -0.237880
  10 S :   -0.149135
  11 P :    0.674991
  12 S :   -0.465388
  13 O :   -0.301156
  14 C :   -0.149499
  15 C :   -0.425927
  16 O :   -0.277194
  17 C :   -0.103780
  18 C :   -0.466311
  19 H :    0.149317
  20 H :    0.156453
  21 H :    0.178080
  22 H :    0.171737
  23 H :    0.149313
  24 H :    0.172278
  25 H :    0.159524
  26 H :    0.156243
  27 H :    0.166317
  28 H :    0.147495
  29 H :    0.213041
  30 H :    0.212721
  31 H :    0.150299
  32 H :    0.150860
  33 H :    0.164290
  34 H :    0.146554
  35 H :    0.168791
  36 H :    0.147030
  37 H :    0.171147
  38 H :    0.147069
  39 H :    0.143091
  40 H :    0.168432
Sum of atomic charges:    0.0000000

LOEWDIN ATOMIC CHARGES
----------------------
   0 C :   -0.406518
   1 C :    0.020510
   2 O :   -0.661652
   3 P :    0.376808
   4 S :   -0.128081
   5 O :   -0.682746
   6 C :    0.017693
   7 C :   -0.398924
   8 S :    0.176552
   9 C :   -0.420102
  10 S :    0.162475
  11 P :    0.386502
  12 S :   -0.130979
  13 O :   -0.652094
  14 C :    0.022901
  15 C :   -0.406643
  16 O :   -0.653298
  17 C :    0.014275
  18 C :   -0.393047
  19 H :    0.159910
  20 H :    0.160398
  21 H :    0.165917
  22 H :    0.179766
  23 H :    0.180016
  24 H :    0.181118
  25 H :    0.182694
  26 H :    0.160206
  27 H :    0.164104
  28 H :    0.159439
  29 H :    0.192139
  30 H :    0.189686
  31 H :    0.181639
  32 H :    0.171506
  33 H :    0.165417
  34 H :    0.157843
  35 H :    0.165939
  36 H :    0.172111
  37 H :    0.182180
  38 H :    0.158784
  39 H :    0.157577
  40 H :    0.167982

  Mayer bond orders larger than 0.100000
B(  0-C ,  1-C ) :   0.9216 B(  0-C , 19-H ) :   0.9581 B(  0-C , 20-H ) :   0.9689
B(  0-C , 21-H ) :   0.9624 B(  1-C ,  2-O ) :   0.8134 B(  1-C , 22-H ) :   0.9667
B(  1-C , 23-H ) :   0.9580 B(  2-O ,  3-P ) :   1.0506 B(  3-P ,  4-S ) :   1.7637
B(  3-P ,  5-O ) :   1.1158 B(  3-P ,  8-S ) :   1.0793 B(  5-O ,  6-C ) :   0.7771
B(  6-C ,  7-C ) :   0.9165 B(  6-C , 24-H ) :   0.9592 B(  6-C , 25-H ) :   0.9638
B(  7-C , 26-H ) :   0.9745 B(  7-C , 27-H ) :   0.9609 B(  7-C , 28-H ) :   0.9631
B(  8-S ,  9-C ) :   0.8966 B(  9-C , 10-S ) :   0.9037 B(  9-C , 29-H ) :   0.9069
B(  9-C , 30-H ) :   0.9111 B( 10-S , 11-P ) :   1.0209 B( 11-P , 12-S ) :   1.7780
B( 11-P , 13-O ) :   1.1195 B( 11-P , 16-O ) :   1.1600 B( 13-O , 14-C ) :   0.8082
B( 14-C , 15-C ) :   0.9403 B( 14-C , 31-H ) :   0.9585 B( 14-C , 32-H ) :   0.9629
B( 15-C , 33-H ) :   0.9663 B( 15-C , 34-H ) :   0.9630 B( 15-C , 35-H ) :   0.9545
B( 16-O , 17-C ) :   0.7541 B( 17-C , 18-C ) :   0.9365 B( 17-C , 36-H ) :   0.9453
B( 17-C , 37-H ) :   0.9609 B( 18-C , 38-H ) :   0.9683 B( 18-C , 39-H ) :   0.9677
B( 18-C , 40-H ) :   0.9668

Dispersion correction           -0.022255874
FINAL SINGLE POINT ENERGY     -2932.461323788004

DIPOLE MOMENT
-------------

Method             : SCF
Type of density    : Electron Density
Multiplicity       :   1
Irrep              :   0
Energy             : -2932.4856583963946832 Eh
Relativity type    :
Basis              : AO
                                X                 Y                 Z
Electronic contribution:     -4.185312873       8.793401598      -5.174266580
Nuclear contribution   :      4.576270722      -9.381944320       5.887871677
                        -----------------------------------------
Total Dipole Moment    :      0.390957849      -0.588542722       0.713605097
                        -----------------------------------------
Magnitude (a.u.)       :      1.004222490
Magnitude (Debye)      :      2.552530717

Rotational constants in cm-1:             0.012736             0.005200             0.005047
Rotational constants in MHz :           381.822830           155.884653           151.307360

                             ****ORCA TERMINATED NORMALLY****
TOTAL RUN TIME: 0 days 0 hours 1 minutes 22 seconds 854 msec
