                         Program Version 6.0.0  -   RELEASE  -
|  1> ! r2scan-3c def2/J RI DEFGRID2 scfconv6 printgap
|  2> %output
|  3>     printlevel normal
|  4> end
|  5> %cpcm
|  6>     smd true
|  7>     smdsolvent "water"
|  8> end
|  9> * xyz 0 1
| 10> C 3.7794802955 -1.4440865793 -2.5542115965
| 11> C 4.0702561441 -1.7353087239 -1.0960779893
| 12> O 2.8799294531 -1.7051798721 -0.2894507264
| 13> P 2.0779901071 -0.3655560967 0.0029212504
| 14> S 3.1802581562 1.2331510713 0.2947423725
| 15> O 1.1509431974 -0.8150507316 1.2052138828
| 16> C 1.4734231977 -0.532880772 2.5796305392
| 17> C 2.6541377811 -1.3539027649 3.0532883583
| 18> S 0.6469574332 -0.2704535101 -1.5518452327
| 19> C 0.1329342971 1.4389470539 -1.2414420694
| 20> S -0.6188482356 1.6623053611 0.3904795092
| 21> P -2.3094818084 0.4223799699 0.0450350145
| 22> S -3.0478270746 0.4820740383 -1.7744299459
| 23> O -3.2654905323 0.8013764114 1.2510629531
| 24> C -3.6164948773 2.139314795 1.6508927073
| 25> C -4.2004120978 2.9572683015 0.51729534
| 26> O -1.9113900362 -1.0279897678 0.5406518264
| 27> C -2.0374453416 -2.2250593531 -0.2577182036
| 28> C -0.9536334223 -3.2023899387 0.1476485101
| 29> H 4.6819250384 -1.5950176255 -3.1379052494
| 30> H 2.9959531393 -2.101309817 -2.9230783248
| 31> H 3.4528874783 -0.4114197588 -2.6707378001
| 32> H 4.7792434536 -1.0050255791 -0.6930696361
| 33> H 4.4559915133 -2.7458628581 -0.9554727219
| 34> H 1.6794253909 0.5384714419 2.6758540322
| 35> H 0.5581629084 -0.7807645366 3.1193615211
| 36> H 2.47084893 -2.4112276926 2.8814591673
| 37> H 3.5498631961 -1.058319092 2.5078389935
| 38> H 2.8128768438 -1.1799765404 4.1128827581
| 39> H -0.5923772206 1.6887254237 -2.015767404
| 40> H 1.0005352786 2.097135008 -1.2760011656
| 41> H -4.3461886528 1.9835975765 2.4475966275
| 42> H -2.7226884301 2.6216461284 2.0569388563
| 43> H -5.0418937932 2.4351141113 0.0680541331
| 44> H -4.5347766009 3.9161201194 0.9001136174
| 45> H -3.4484448973 3.125397162 -0.2523981153
| 46> H -3.0307325771 -2.6374197826 -0.0641591664
| 47> H -1.9638769656 -1.9600275436 -1.317824402
| 48> H -1.026374779 -3.4165109782 1.2099372757
| 49> H -1.0806136569 -4.1205633409 -0.4166081939
| 50> H 0.0306886856 -2.7896536387 -0.0596729476
| 51> *
| 52>
| 53>                          ****END OF INPUT****

CARTESIAN COORDINATES (ANGSTROEM)
---------------------------------
  C      3.779480   -1.444087   -2.554212
  C      4.070256   -1.735309   -1.096078
  O      2.879929   -1.705180   -0.289451
  P      2.077990   -0.365556    0.002921
  S      3.180258    1.233151    0.294742
  O      1.150943   -0.815051    1.205214
  C      1.473423   -0.532881    2.579631
  C      2.654138   -1.353903    3.053288
  S      0.646957   -0.270454   -1.551845
  C      0.132934    1.438947   -1.241442
  S     -0.618848    1.662305    0.390480
  P     -2.309482    0.422380    0.045035
  S     -3.047827    0.482074   -1.774430
  O     -3.265491    0.801376    1.251063
  C     -3.616495    2.139315    1.650893
  C     -4.200412    2.957268    0.517295
  O     -1.911390   -1.027990    0.540652
  C     -2.037445   -2.225059   -0.257718
  C     -0.953633   -3.202390    0.147649
  H      4.681925   -1.595018   -3.137905
  H      2.995953   -2.101310   -2.923078
  H      3.452887   -0.411420   -2.670738
  H      4.779243   -1.005026   -0.693070
  H      4.455992   -2.745863   -0.955473
  H      1.679425    0.538471    2.675854
  H      0.558163   -0.780765    3.119362
  H      2.470849   -2.411228    2.881459
  H      3.549863   -1.058319    2.507839
  H      2.812877   -1.179977    4.112883
  H     -0.592377    1.688725   -2.015767
  H      1.000535    2.097135   -1.276001
  H     -4.346189    1.983598    2.447597
  H     -2.722688    2.621646    2.056939
  H     -5.041894    2.435114    0.068054
  H     -4.534777    3.916120    0.900114
  H     -3.448445    3.125397   -0.252398
  H     -3.030733   -2.637420   -0.064159
  H     -1.963877   -1.960028   -1.317824
  H     -1.026375   -3.416511    1.209937
  H     -1.080614   -4.120563   -0.416608
  H      0.030689   -2.789654   -0.059673

 Total Charge           Charge          ....    0
 Multiplicity           Mult            ....    1
 Number of Electrons    NEL             ....  202
 Basis Dimension        Dim             ....  539

ORBITAL ENERGIES
----------------

  NO   OCC          E(Eh)            E(eV)
   0   2.0000     -88.579410     -2410.3683
   1   2.0000     -88.579238     -2410.3636
   2   2.0000     -88.529535     -2409.0111
   3   2.0000     -88.526359     -2408.9247
   4   2.0000     -76.919982     -2093.0991
   5   2.0000     -76.919467     -2093.0851
   6   2.0000     -18.996916      -516.9324
   7   2.0000     -18.995268      -516.8875
   8   2.0000     -18.991342      -516.7807
   9   2.0000     -18.990909      -516.7689
  10   2.0000     -10.105455      -274.9834
  11   2.0000     -10.093127      -274.6480
  12   2.0000     -10.090346      -274.5723
  13   2.0000     -10.088812      -274.5305
  14   2.0000     -10.087701      -274.5003
  15   2.0000     -10.018963      -272.6299
  16   2.0000     -10.018512      -272.6176
  17   2.0000     -10.018444      -272.6157
  18   2.0000     -10.017076      -272.5785
  19   2.0000      -7.873854      -214.2585
  20   2.0000      -7.873559      -214.2504
  21   2.0000      -7.824523      -212.9161
  22   2.0000      -7.821548      -212.8351
  23   2.0000      -6.598206      -179.5463
  24   2.0000      -6.598125      -179.5441
  25   2.0000      -5.820664      -158.3883
  26   2.0000      -5.820408      -158.3814
  27   2.0000      -5.817790      -158.3101
  28   2.0000      -5.817362      -158.2985
  29   2.0000      -5.810947      -158.1239
  30   2.0000      -5.810768      -158.1190
  31   2.0000      -5.772048      -157.0654
  32   2.0000      -5.769149      -156.9865
  33   2.0000      -5.764794      -156.8680
  34   2.0000      -5.764614      -156.8631
  35   2.0000      -5.761887      -156.7889
  36   2.0000      -5.761469      -156.7775
  37   2.0000      -4.743622      -129.0805
  38   2.0000      -4.743425      -129.0752
  39   2.0000      -4.743314      -129.0721
  40   2.0000      -4.743010      -129.0639
  41   2.0000      -4.742087      -129.0387
  42   2.0000      -4.741903      -129.0337
  43   2.0000      -1.053427       -28.6652
  44   2.0000      -1.052368       -28.6364
  45   2.0000      -1.013696       -27.5841
  46   2.0000      -1.010398       -27.4943
  47   2.0000      -0.805817       -21.9274
  48   2.0000      -0.756674       -20.5901
  49   2.0000      -0.744626       -20.2623
  50   2.0000      -0.723499       -19.6874
  51   2.0000      -0.721828       -19.6419
  52   2.0000      -0.711096       -19.3499
  53   2.0000      -0.689874       -18.7724
  54   2.0000      -0.675546       -18.3826
  55   2.0000      -0.633321       -17.2335
  56   2.0000      -0.623130       -16.9562
  57   2.0000      -0.599386       -16.3101
  58   2.0000      -0.599056       -16.3011
  59   2.0000      -0.588557       -16.0154
  60   2.0000      -0.524691       -14.2776
  61   2.0000      -0.514570       -14.0022
  62   2.0000      -0.491762       -13.3815
  63   2.0000      -0.486777       -13.2459
  64   2.0000      -0.477362       -12.9897
  65   2.0000      -0.458467       -12.4755
  66   2.0000      -0.455224       -12.3873
  67   2.0000      -0.444832       -12.1045
  68   2.0000      -0.440831       -11.9956
  69   2.0000      -0.434964       -11.8360
  70   2.0000      -0.425976       -11.5914
  71   2.0000      -0.414006       -11.2657
  72   2.0000      -0.407667       -11.0932
  73   2.0000      -0.403711       -10.9855
  74   2.0000      -0.399243       -10.8639
  75   2.0000      -0.390288       -10.6203
  76   2.0000      -0.381221       -10.3735
  77   2.0000      -0.366797        -9.9811
  78   2.0000      -0.361785        -9.8447
  79   2.0000      -0.357701        -9.7335
  80   2.0000      -0.354896        -9.6572
  81   2.0000      -0.353369        -9.6157
  82   2.0000      -0.350255        -9.5309
  83   2.0000      -0.348459        -9.4820
  84   2.0000      -0.340948        -9.2777
  85   2.0000      -0.334023        -9.0892
  86   2.0000      -0.322324        -8.7709
  87   2.0000      -0.309578        -8.4241
  88   2.0000      -0.305470        -8.3123
  89   2.0000      -0.303852        -8.2682
  90   2.0000      -0.298660        -8.1270
  91   2.0000      -0.289778        -7.8852
  92   2.0000      -0.286822        -7.8048
  93   2.0000      -0.280380        -7.6295
  94   2.0000      -0.271441        -7.3863
  95   2.0000      -0.248585        -6.7643
  96   2.0000      -0.236273        -6.4293
  97   2.0000      -0.235120        -6.3979
  98   2.0000      -0.228305        -6.2125
  99   2.0000      -0.220241        -5.9931
 100   2.0000      -0.219463        -5.9719
 101   0.0000      -0.054082        -1.4717
 102   0.0000      -0.031531        -0.8580
 103   0.0000      -0.007200        -0.1959
 104   0.0000      -0.005266        -0.1433
 105   0.0000       0.009188         0.2500

MULLIKEN ATOMIC CHARGES
-----------------------
   0 C :   -0.490776
   1 C :   -0.150922
   2 O :   -0.331993
   3 P :    0.728834
   4 S :   -0.526837
   5 O :   -0.278033
   6 C :   -0.156079
   7 C :   -0.485816
   8 S :   -0.138691
   9 C :   -0.248486
  10 S :   -0.152547
  11 P :    0.704858
  12 S :   -0.509548
  13 O :   -0.334883
  14 C :   -0.149222
  15 C :   -0.466190
  16 O :   -0.310828
  17 C :   -0.098732
  18 C :   -0.512665
  19 H :    0.173621
  20 H :    0.170486
  21 H :    0.173507
  22 H :    0.178193
  23 H :    0.176003
  24 H :    0.176060
  25 H :    0.180557
  26 H :    0.170178
  27 H :    0.167350
  28 H :    0.172333
  29 H :    0.232016
  30 H :    0.235260
  31 H :    0.177222
  32 H :    0.170814
  33 H :    0.169950
  34 H :    0.173386
  35 H :    0.166165
  36 H :    0.170482
  37 H :    0.172133
  38 H :    0.167209
  39 H :    0.169148
  40 H :    0.166481
Sum of atomic charges:    0.0000000

LOEWDIN ATOMIC CHARGES
----------------------
   0 C :   -0.409757
   1 C :    0.026348
   2 O :   -0.671600
   3 P :    0.382719
   4 S :   -0.153765
   5 O :   -0.699710
   6 C :    0.021228
   7 C :   -0.402034
   8 S :    0.173014
   9 C :   -0.413647
  10 S :    0.163816
  11 P :    0.388987
  12 S :   -0.160250
  13 O :   -0.668816
  14 C :    0.029359
  15 C :   -0.410065
  16 O :   -0.672773
  17 C :    0.016476
  18 C :   -0.396845
  19 H :    0.168730
  20 H :    0.163761
  21 H :    0.161688
  22 H :    0.181809
  23 H :    0.191393
  24 H :    0.182272
  25 H :    0.191021
  26 H :    0.163896
  27 H :    0.162382
  28 H :    0.168637
  29 H :    0.197963
  30 H :    0.196806
  31 H :    0.193134
  32 H :    0.179338
  33 H :    0.164311
  34 H :    0.168125
  35 H :    0.161871
  36 H :    0.180923
  37 H :    0.182703
  38 H :    0.163516
  39 H :    0.168016
  40 H :    0.165019

  Mayer bond orders larger than 0.100000
B(  0-C ,  1-C ) :   0.9082 B(  0-C , 19-H ) :   0.9529 B(  0-C , 20-H ) :   0.9660
B(  0-C , 21-H ) :   0.9636 B(  1-C ,  2-O ) :   0.8011 B(  1-C , 22-H ) :   0.9655
B(  1-C , 23-H ) :   0.9482 B(  2-O ,  3-P ) :   1.0596 B(  3-P ,  4-S ) :   1.7253
B(  3-P ,  5-O ) :   1.1218 B(  3-P ,  8-S ) :   1.0871 B(  5-O ,  6-C ) :   0.7655
B(  6-C ,  7-C ) :   0.9083 B(  6-C , 24-H ) :   0.9547 B(  6-C , 25-H ) :   0.9542
B(  7-C , 26-H ) :   0.9728 B(  7-C , 27-H ) :   0.9601 B(  7-C , 28-H ) :   0.9572
B(  8-S ,  9-C ) :   0.8868 B(  9-C , 10-S ) :   0.8923 B(  9-C , 29-H ) :   0.9022
B(  9-C , 30-H ) :   0.9048 B( 10-S , 11-P ) :   1.0406 B( 11-P , 12-S ) :   1.7458
B( 11-P , 13-O ) :   1.1249 B( 11-P , 16-O ) :   1.1548 B( 13-O , 14-C ) :   0.7989
B( 14-C , 15-C ) :   0.9215 B( 14-C , 31-H ) :   0.9487 B( 14-C , 32-H ) :   0.9573
B( 15-C , 33-H ) :   0.9673 B( 15-C , 34-H ) :   0.9567 B( 15-C , 35-H ) :   0.9569
B( 16-O , 17-C ) :   0.7472 B( 17-C , 18-C ) :   0.9268 B( 17-C , 36-H ) :   0.9365
B( 17-C , 37-H ) :   0.9573 B( 18-C , 38-H ) :   0.9662 B( 18-C , 39-H ) :   0.9606
B( 18-C , 40-H ) :   0.9669

Dispersion correction           -0.022255874
FINAL SINGLE POINT ENERGY     -2932.469311233416

DIPOLE MOMENT
-------------

Method             : SCF
Type of density    : Electron Density
Multiplicity       :   1
Irrep              :   0
Energy             : -2932.4936458418060283 Eh
Relativity type    :
Basis              : AO
                                X                 Y                 Z
Electronic contribution:     -4.030513265       8.707588668      -5.001763745
Nuclear contribution   :      4.576270722      -9.381944320       5.887871677
                        -----------------------------------------
Total Dipole Moment    :      0.545757456      -0.674355653       0.886107931
                        -----------------------------------------
Magnitude (a.u.)       :      1.240078229
Magnitude (Debye)      :      3.152028362

Rotational constants in cm-1:             0.012736             0.005200             0.005047
Rotational constants in MHz :           381.822830           155.884653           151.307360

                             ****ORCA TERMINATED NORMALLY****
TOTAL RUN TIME: 0 days 0 hours 1 minutes 58 seconds 840 msec
