                         Program Version 6.0.0  -   RELEASE  -
|  1> ! pbe def2-sv(p) def2/J RI DEFGRID1 loosescf d4 GCP(DFT/SV(P)) printgap
|  2> %output
|  3>     printlevel normal
|  4> end
|  5> * xyz 0 1
|  6> C 1.1894869101 -0.5501275781 -3.1633381169
|  7> C 2.2608069541 -0.546525902 -2.0921248142
|  8> O 1.7142940258 -1.127634507 -0.8908347625
|  9> P 2.1890302696 -0.7693726289 0.5828864073
| 10> S 3.4507462678 0.7343626721 0.6868408197
| 11> O 2.7156346841 -2.2040579622 1.0064114224
| 12> C 2.8503072324 -2.6772954448 2.3605501738
| 13> C 3.6768725036 -1.7508192015 3.2279064855
| 14> S 0.3883109171 -0.5797501929 1.6748016962
| 15> C 0.1686203745 1.1986489999 1.4167759969
| 16> S 0.066841967 1.676892667 -0.3362684646
| 17> P -1.9197895309 1.0720923685 -0.7396892241
| 18> S -2.509422152 1.2809389858 -2.594748814
| 19> O -2.668344276 1.9294326869 0.3623468658
| 20> C -4.0795415054 2.2192372329 0.2658684752
| 21> C -4.923598978 0.9687412915 0.3896905625
| 22> O -2.0609337007 -0.3986556627 -0.1493401046
| 23> C -1.8095723196 -1.5901388184 -0.9147008281
| 24> C -2.5670699362 -2.7261062813 -0.2574466188
| 25> H 0.3529136616 0.0844454811 -2.8761803731
| 26> H 1.6123905789 -0.1675833354 -4.0863471252
| 27> H 0.8256859156 -1.5605893603 -3.3263889469
| 28> H 2.6046870167 0.4697261219 -1.8718661815
| 29> H 3.116296183 -1.1563542515 -2.3913591551
| 30> H 1.8475764169 -2.806684469 2.7769688486
| 31> H 3.3311940493 -3.6500434385 2.2440669709
| 32> H 4.6477081722 -1.5702437575 2.7723628968
| 33> H 3.1702119141 -0.7940453829 3.3466625722
| 34> H 3.8164536427 -2.201360155 4.2052800497
| 35> H 1.0384353251 1.7267088441 1.8064720306
| 36> H -0.7422578407 1.4902037199 1.9317338545
| 37> H -4.2573646419 2.9146927916 1.0871816452
| 38> H -4.2640191597 2.7173305386 -0.6908877547
| 39> H -4.7552027499 0.3247356409 -0.4724509963
| 40> H -4.6624685807 0.4253960776 1.2940502543
| 41> H -5.9728054466 1.245342571 0.422538684
| 42> H -2.1407409843 -1.4202942789 -1.9448845328
| 43> H -0.7329260186 -1.7838626558 -0.9122197045
| 44> H -2.360946007 -3.6469194984 -0.7929318599
| 45> H -2.2464539429 -2.8295505101 0.7755001813
| 46> H -3.6352592885 -2.5299059316 -0.2790958513
| 47> *
| 48>
| 49>                          ****END OF INPUT****

CARTESIAN COORDINATES (ANGSTROEM)
---------------------------------
  C      1.189487   -0.550128   -3.163338
  C      2.260807   -0.546526   -2.092125
  O      1.714294   -1.127635   -0.890835
  P      2.189030   -0.769373    0.582886
  S      3.450746    0.734363    0.686841
  O      2.715635   -2.204058    1.006411
  C      2.850307   -2.677295    2.360550
  C      3.676873   -1.750819    3.227906
  S      0.388311   -0.579750    1.674802
  C      0.168620    1.198649    1.416776
  S      0.066842    1.676893   -0.336268
  P     -1.919790    1.072092   -0.739689
  S     -2.509422    1.280939   -2.594749
  O     -2.668344    1.929433    0.362347
  C     -4.079542    2.219237    0.265868
  C     -4.923599    0.968741    0.389691
  O     -2.060934   -0.398656   -0.149340
  C     -1.809572   -1.590139   -0.914701
  C     -2.567070   -2.726106   -0.257447
  H      0.352914    0.084445   -2.876180
  H      1.612391   -0.167583   -4.086347
  H      0.825686   -1.560589   -3.326389
  H      2.604687    0.469726   -1.871866
  H      3.116296   -1.156354   -2.391359
  H      1.847576   -2.806684    2.776969
  H      3.331194   -3.650043    2.244067
  H      4.647708   -1.570244    2.772363
  H      3.170212   -0.794045    3.346663
  H      3.816454   -2.201360    4.205280
  H      1.038435    1.726709    1.806472
  H     -0.742258    1.490204    1.931734
  H     -4.257365    2.914693    1.087182
  H     -4.264019    2.717331   -0.690888
  H     -4.755203    0.324736   -0.472451
  H     -4.662469    0.425396    1.294050
  H     -5.972805    1.245343    0.422539
  H     -2.140741   -1.420294   -1.944885
  H     -0.732926   -1.783863   -0.912220
  H     -2.360946   -3.646919   -0.792932
  H     -2.246454   -2.829551    0.775500
  H     -3.635259   -2.529906   -0.279096

 Total Charge           Charge          ....    0
 Multiplicity           Mult            ....    1
 Number of Electrons    NEL             ....  202
 Basis Dimension        Dim             ....  334

ORBITAL ENERGIES
----------------

  NO   OCC          E(Eh)            E(eV)
   0   2.0000     -88.047797     -2395.9024
   1   2.0000     -88.043717     -2395.7913
   2   2.0000     -87.991700     -2394.3759
   3   2.0000     -87.988969     -2394.3016
   4   2.0000     -76.430109     -2079.7690
   5   2.0000     -76.428156     -2079.7159
   6   2.0000     -18.796345      -511.4746
   7   2.0000     -18.794864      -511.4342
   8   2.0000     -18.792338      -511.3655
   9   2.0000     -18.788185      -511.2525
  10   2.0000      -9.960602      -271.0418
  11   2.0000      -9.960488      -271.0387
  12   2.0000      -9.956915      -270.9414
  13   2.0000      -9.946112      -270.6475
  14   2.0000      -9.944798      -270.6117
  15   2.0000      -9.888146      -269.0701
  16   2.0000      -9.885680      -269.0030
  17   2.0000      -9.885360      -268.9943
  18   2.0000      -9.876250      -268.7464
  19   2.0000      -7.692785      -209.3313
  20   2.0000      -7.688474      -209.2140
  21   2.0000      -7.636686      -207.8048
  22   2.0000      -7.633928      -207.7297
  23   2.0000      -6.426982      -174.8871
  24   2.0000      -6.425928      -174.8584
  25   2.0000      -5.720509      -155.6630
  26   2.0000      -5.717265      -155.5747
  27   2.0000      -5.716700      -155.5593
  28   2.0000      -5.712820      -155.4537
  29   2.0000      -5.709903      -155.3744
  30   2.0000      -5.705298      -155.2491
  31   2.0000      -5.665536      -154.1671
  32   2.0000      -5.662804      -154.0927
  33   2.0000      -5.657424      -153.9463
  34   2.0000      -5.656821      -153.9299
  35   2.0000      -5.654562      -153.8685
  36   2.0000      -5.654150      -153.8572
  37   2.0000      -4.649355      -126.5154
  38   2.0000      -4.648984      -126.5053
  39   2.0000      -4.648272      -126.4859
  40   2.0000      -4.647932      -126.4766
  41   2.0000      -4.647489      -126.4646
  42   2.0000      -4.646374      -126.4343
  43   2.0000      -0.989405       -26.9231
  44   2.0000      -0.986878       -26.8543
  45   2.0000      -0.947418       -25.7805
  46   2.0000      -0.943639       -25.6777
  47   2.0000      -0.767550       -20.8861
  48   2.0000      -0.725229       -19.7345
  49   2.0000      -0.711486       -19.3605
  50   2.0000      -0.689773       -18.7697
  51   2.0000      -0.685826       -18.6623
  52   2.0000      -0.673687       -18.3320
  53   2.0000      -0.655372       -17.8336
  54   2.0000      -0.641359       -17.4523
  55   2.0000      -0.600528       -16.3412
  56   2.0000      -0.595794       -16.2124
  57   2.0000      -0.575827       -15.6691
  58   2.0000      -0.565704       -15.3936
  59   2.0000      -0.559663       -15.2292
  60   2.0000      -0.506729       -13.7888
  61   2.0000      -0.498732       -13.5712
  62   2.0000      -0.480294       -13.0695
  63   2.0000      -0.472362       -12.8536
  64   2.0000      -0.464954       -12.6520
  65   2.0000      -0.447734       -12.1835
  66   2.0000      -0.433796       -11.8042
  67   2.0000      -0.432062       -11.7570
  68   2.0000      -0.427204       -11.6248
  69   2.0000      -0.418256       -11.3813
  70   2.0000      -0.416948       -11.3457
  71   2.0000      -0.403444       -10.9783
  72   2.0000      -0.400343       -10.8939
  73   2.0000      -0.384648       -10.4668
  74   2.0000      -0.381863       -10.3910
  75   2.0000      -0.373428       -10.1615
  76   2.0000      -0.366813        -9.9815
  77   2.0000      -0.357079        -9.7166
  78   2.0000      -0.352901        -9.6029
  79   2.0000      -0.350817        -9.5462
  80   2.0000      -0.349259        -9.5038
  81   2.0000      -0.346647        -9.4328
  82   2.0000      -0.343023        -9.3341
  83   2.0000      -0.336022        -9.1436
  84   2.0000      -0.330649        -8.9974
  85   2.0000      -0.322235        -8.7685
  86   2.0000      -0.315479        -8.5846
  87   2.0000      -0.299302        -8.1444
  88   2.0000      -0.297649        -8.0994
  89   2.0000      -0.292335        -7.9548
  90   2.0000      -0.286975        -7.8090
  91   2.0000      -0.279963        -7.6182
  92   2.0000      -0.274914        -7.4808
  93   2.0000      -0.266841        -7.2611
  94   2.0000      -0.255571        -6.9544
  95   2.0000      -0.233001        -6.3403
  96   2.0000      -0.220426        -5.9981
  97   2.0000      -0.212127        -5.7723
  98   2.0000      -0.208799        -5.6817
  99   2.0000      -0.204868        -5.5747
 100   2.0000      -0.202633        -5.5139
 101   0.0000      -0.046414        -1.2630
 102   0.0000      -0.021564        -0.5868
 103   0.0000      -0.013775        -0.3748
 104   0.0000      -0.001974        -0.0537
 105   0.0000       0.005936         0.1615

MULLIKEN ATOMIC CHARGES
-----------------------
   0 C :   -0.301927
   1 C :   -0.003760
   2 O :   -0.364433
   3 P :    0.607893
   4 S :   -0.327262
   5 O :   -0.365548
   6 C :   -0.011846
   7 C :   -0.308939
   8 S :   -0.098148
   9 C :   -0.352588
  10 S :   -0.065462
  11 P :    0.614223
  12 S :   -0.314738
  13 O :   -0.380205
  14 C :   -0.003303
  15 C :   -0.313938
  16 O :   -0.377379
  17 C :   -0.035414
  18 C :   -0.281417
  19 H :    0.124013
  20 H :    0.110364
  21 H :    0.109912
  22 H :    0.117250
  23 H :    0.100826
  24 H :    0.112664
  25 H :    0.110805
  26 H :    0.127674
  27 H :    0.124064
  28 H :    0.111486
  29 H :    0.196252
  30 H :    0.188639
  31 H :    0.107005
  32 H :    0.115176
  33 H :    0.127459
  34 H :    0.117488
  35 H :    0.114089
  36 H :    0.107609
  37 H :    0.125404
  38 H :    0.110019
  39 H :    0.112292
  40 H :    0.113700
Sum of atomic charges:   -0.0000000

LOEWDIN ATOMIC CHARGES
----------------------
   0 C :   -0.358126
   1 C :   -0.118384
   2 O :   -0.241453
   3 P :    0.568590
   4 S :   -0.313822
   5 O :   -0.242098
   6 C :   -0.114439
   7 C :   -0.369075
   8 S :    0.085093
   9 C :   -0.476438
  10 S :    0.103425
  11 P :    0.566557
  12 S :   -0.313494
  13 O :   -0.247401
  14 C :   -0.114213
  15 C :   -0.366747
  16 O :   -0.243877
  17 C :   -0.130105
  18 C :   -0.350054
  19 H :    0.114884
  20 H :    0.131038
  21 H :    0.122242
  22 H :    0.106766
  23 H :    0.112029
  24 H :    0.107993
  25 H :    0.122261
  26 H :    0.130668
  27 H :    0.120328
  28 H :    0.130045
  29 H :    0.134649
  30 H :    0.135415
  31 H :    0.119615
  32 H :    0.113912
  33 H :    0.122574
  34 H :    0.126316
  35 H :    0.131486
  36 H :    0.106130
  37 H :    0.109313
  38 H :    0.130086
  39 H :    0.124315
  40 H :    0.123992

  Mayer bond orders larger than 0.100000
B(  0-C ,  1-C ) :   1.1611 B(  0-C , 19-H ) :   0.9305 B(  0-C , 20-H ) :   0.9404
B(  0-C , 21-H ) :   0.9470 B(  1-C ,  2-O ) :   0.8957 B(  1-C , 22-H ) :   0.9060
B(  1-C , 23-H ) :   0.9339 B(  2-O ,  3-P ) :   1.1116 B(  3-P ,  4-S ) :   1.6055
B(  3-P ,  5-O ) :   1.1302 B(  3-P ,  8-S ) :   0.9529 B(  4-S ,  8-S ) :   0.1107
B(  5-O ,  6-C ) :   0.9150 B(  6-C ,  7-C ) :   1.1635 B(  6-C , 24-H ) :   0.9268
B(  6-C , 25-H ) :   0.9340 B(  7-C , 26-H ) :   0.9429 B(  7-C , 27-H ) :   0.9335
B(  7-C , 28-H ) :   0.9352 B(  8-S ,  9-C ) :   0.9992 B(  9-C , 10-S ) :   0.9876
B(  9-C , 29-H ) :   0.8847 B(  9-C , 30-H ) :   0.8950 B( 10-S , 11-P ) :   0.9691
B( 11-P , 12-S ) :   1.6315 B( 11-P , 13-O ) :   1.1039 B( 11-P , 16-O ) :   1.0984
B( 13-O , 14-C ) :   0.9039 B( 14-C , 15-C ) :   1.1632 B( 14-C , 31-H ) :   0.9356
B( 14-C , 32-H ) :   0.9197 B( 15-C , 33-H ) :   0.9332 B( 15-C , 34-H ) :   0.9454
B( 15-C , 35-H ) :   0.9370 B( 16-O , 17-C ) :   0.8921 B( 17-C , 18-C ) :   1.1614
B( 17-C , 36-H ) :   0.9100 B( 17-C , 37-H ) :   0.9056 B( 18-C , 38-H ) :   0.9423
B( 18-C , 39-H ) :   0.9494 B( 18-C , 40-H ) :   0.9511

Dispersion correction           -0.066519532
FINAL SINGLE POINT ENERGY     -2929.524212786670

DIPOLE MOMENT
-------------

Method             : SCF
Type of density    : Electron Density
Multiplicity       :   1
Irrep              :   0
Energy             : -2929.6436367125975266 Eh
Relativity type    :
Basis              : AO
                                X                 Y                 Z
Electronic contribution:      8.422262005      13.153844798      -1.941537319
Nuclear contribution   :     -9.110706139     -14.196065139       2.993047588
                        -----------------------------------------
Total Dipole Moment    :     -0.688444134      -1.042220342       1.051510269
                        -----------------------------------------
Magnitude (a.u.)       :      1.632743829
Magnitude (Debye)      :      4.150105000

Rotational constants in cm-1:             0.012893             0.005027             0.004802
Rotational constants in MHz :           386.526845           150.692984           143.974080

                             ****ORCA TERMINATED NORMALLY****
TOTAL RUN TIME: 0 days 0 hours 0 minutes 21 seconds 759 msec
