                         Program Version 6.0.0  -   RELEASE  -
|  1> ! pbe def2-sv(p) def2/J RI DEFGRID1 loosescf d4 GCP(DFT/SV(P)) printgap
|  2> %output
|  3>     printlevel normal
|  4> end
|  5> * xyz 0 1
|  6> C -1.7848594063 -0.3850110059 0.4961667615
|  7> C -0.7541615618 -0.4243500142 -0.6325326815
|  8> N 0.4979451684 0.1147004487 -0.1147921414
|  9> O 0.6940514906 1.3079782139 -0.2226168114
| 10> O 1.265168164 -0.6507458463 0.4324029703
| 11> H -2.7246222846 -0.7878236933 0.1334448216
| 12> H -1.4464374806 -0.9834668663 1.3384040699
| 13> H -1.944675385 0.6377561107 0.8284382557
| 14> H -1.0739772197 0.2040448801 -1.4636604573
| 15> H -0.5740460432 -1.452476295 -0.9464934622
| 16> *
| 17>
| 18>                          ****END OF INPUT****

CARTESIAN COORDINATES (ANGSTROEM)
---------------------------------
  C     -1.784859   -0.385011    0.496167
  C     -0.754162   -0.424350   -0.632533
  N      0.497945    0.114700   -0.114792
  O      0.694051    1.307978   -0.222617
  O      1.265168   -0.650746    0.432403
  H     -2.724622   -0.787824    0.133445
  H     -1.446437   -0.983467    1.338404
  H     -1.944675    0.637756    0.828438
  H     -1.073977    0.204045   -1.463660
  H     -0.574046   -1.452476   -0.946493

 Total Charge           Charge          ....    0
 Multiplicity           Mult            ....    1
 Number of Electrons    NEL             ....   40
 Basis Dimension        Dim             ....   80

ORBITAL ENERGIES
----------------

  NO   OCC          E(Eh)            E(eV)
   0   2.0000     -18.776161      -510.9253
   1   2.0000     -18.775059      -510.8953
   2   2.0000     -14.207051      -386.5935
   3   2.0000      -9.951040      -270.7816
   4   2.0000      -9.911382      -269.7024
   5   2.0000      -1.132594       -30.8194
   6   2.0000      -0.961186       -26.1552
   7   2.0000      -0.766341       -20.8532
   8   2.0000      -0.641912       -17.4673
   9   2.0000      -0.535005       -14.5582
  10   2.0000      -0.492491       -13.4014
  11   2.0000      -0.471230       -12.8228
  12   2.0000      -0.461128       -12.5479
  13   2.0000      -0.422752       -11.5037
  14   2.0000      -0.377561       -10.2740
  15   2.0000      -0.360026        -9.7968
  16   2.0000      -0.346439        -9.4271
  17   2.0000      -0.270955        -7.3731
  18   2.0000      -0.252353        -6.8669
  19   2.0000      -0.230621        -6.2755
  20   0.0000      -0.094290        -2.5658
  21   0.0000       0.034728         0.9450
  22   0.0000       0.070751         1.9252
  23   0.0000       0.071459         1.9445
  24   0.0000       0.098268         2.6740

MULLIKEN ATOMIC CHARGES
-----------------------
   0 C :   -0.305237
   1 C :   -0.057955
   2 N :    0.174300
   3 O :   -0.222448
   4 O :   -0.221011
   5 H :    0.130023
   6 H :    0.130988
   7 H :    0.130511
   8 H :    0.120059
   9 H :    0.120772
Sum of atomic charges:   -0.0000000

LOEWDIN ATOMIC CHARGES
----------------------
   0 C :   -0.339508
   1 C :   -0.187365
   2 N :    0.238064
   3 O :   -0.191642
   4 O :   -0.190603
   5 H :    0.135530
   6 H :    0.132843
   7 H :    0.132698
   8 H :    0.134758
   9 H :    0.135226

  Mayer bond orders larger than 0.100000
B(  0-C ,  1-C ) :   1.1580 B(  0-C ,  5-H ) :   0.9479 B(  0-C ,  6-H ) :   0.9457
B(  0-C ,  7-H ) :   0.9460 B(  1-C ,  2-N ) :   0.9063 B(  1-C ,  8-H ) :   0.9144
B(  1-C ,  9-H ) :   0.9142 B(  2-N ,  3-O ) :   1.5460 B(  2-N ,  4-O ) :   1.5457
B(  3-O ,  4-O ) :   0.3149

Dispersion correction           -0.005839726
FINAL SINGLE POINT ENERGY      -283.755725439772

DIPOLE MOMENT
-------------

Method             : SCF
Type of density    : Electron Density
Multiplicity       :   1
Irrep              :   0
Energy             :  -283.7957672503235926 Eh
Relativity type    :
Basis              : AO
                                X                 Y                 Z
Electronic contribution:      6.030042587       1.733674118      -0.277022415
Nuclear contribution   :     -7.251945733      -2.224315623      -0.100593775
                        -----------------------------------------
Total Dipole Moment    :     -1.221903146      -0.490641505      -0.377616190
                        -----------------------------------------
Magnitude (a.u.)       :      1.369806691
Magnitude (Debye)      :      3.481771909

Rotational constants in cm-1:             0.308630             0.144594             0.118815
Rotational constants in MHz :          9252.484431          4334.812802          3561.970607

                             ****ORCA TERMINATED NORMALLY****
TOTAL RUN TIME: 0 days 0 hours 0 minutes 4 seconds 961 msec
