                         Program Version 6.0.0  -   RELEASE  -
|  1> ! pbe def2-sv(p) def2/J RI DEFGRID1 loosescf d4 GCP(DFT/SV(P)) printgap
|  2> %output
|  3>     printlevel normal
|  4> end
|  5> * xyz 0 1
|  6> C 0.7321940697 -1.5211955106 3.1985202486
|  7> C 1.9953203011 -0.9687731726 2.5708302146
|  8> O 1.6350901361 -0.0152321908 1.5423945838
|  9> P 2.3456500867 0.0487762908 0.1342888055
| 10> S 3.1290992449 -1.6387279384 -0.4980685542
| 11> O 3.3448458749 1.2636182414 0.3647950729
| 12> C 4.2443225585 1.7338007851 -0.6596586158
| 13> C 5.6043225419 1.075860119 -0.5274996813
| 14> S 0.8615926375 0.8912437181 -1.11343902
| 15> C 0.0423920372 -0.6730199762 -1.5251625667
| 16> S -1.0254288725 -1.2705541641 -0.1977693546
| 17> P -2.5176725304 0.2405796513 -0.4295042385
| 18> S -2.8846357987 0.7995105423 -2.2656635216
| 19> O -2.0440151016 1.4424314182 0.4732848456
| 20> C -1.8485493058 1.3159504122 1.9055140236
| 21> C -0.7948575548 2.3190635081 2.326321557
| 22> O -3.7543498116 -0.3188135498 0.3990624074
| 23> C -4.7617021233 -1.1704030086 -0.1787158224
| 24> C -4.2089431508 -2.5163444791 -0.5996174834
| 25> H 0.1540301588 -0.7182892777 3.6466015716
| 26> H 0.1278277481 -2.0218487367 2.4456098835
| 27> H 1.0064971781 -2.2363161934 3.9673424722
| 28> H 2.592062471 -1.7666797529 2.1161958956
| 29> H 2.6040913554 -0.4315775905 3.3005258108
| 30> H 3.8060604527 1.5392634114 -1.6428266509
| 31> H 4.3057587766 2.8115541269 -0.497497379
| 32> H 6.2765324392 1.4921674187 -1.2707921873
| 33> H 6.009482619 1.2534801666 0.4646562806
| 34> H 5.5219260011 0.0028541302 -0.6858664525
| 35> H 0.7968029129 -1.4403255455 -1.7046874601
| 36> H -0.5602101029 -0.487252803 -2.4146627581
| 37> H -2.8099067736 1.5159294008 2.3822687339
| 38> H -1.5403519723 0.2901242642 2.1275191012
| 39> H -1.0837703754 3.315553843 2.0045634133
| 40> H -0.6978399207 2.3033575354 3.407246961
| 41> H 0.1642851949 2.0722587824 1.8770714873
| 42> H -5.5016200862 -1.2689775403 0.6168025719
| 43> H -5.2009174064 -0.6501185032 -1.0351013142
| 44> H -3.6725800563 -2.9814234019 0.2236555123
| 45> H -5.0282365864 -3.1589102935 -0.9056114887
| 46> H -3.5268910974 -2.3933380166 -1.4395814841
| 47> *
| 48>
| 49>                          ****END OF INPUT****

CARTESIAN COORDINATES (ANGSTROEM)
---------------------------------
  C      0.732194   -1.521196    3.198520
  C      1.995320   -0.968773    2.570830
  O      1.635090   -0.015232    1.542395
  P      2.345650    0.048776    0.134289
  S      3.129099   -1.638728   -0.498069
  O      3.344846    1.263618    0.364795
  C      4.244323    1.733801   -0.659659
  C      5.604323    1.075860   -0.527500
  S      0.861593    0.891244   -1.113439
  C      0.042392   -0.673020   -1.525163
  S     -1.025429   -1.270554   -0.197769
  P     -2.517673    0.240580   -0.429504
  S     -2.884636    0.799511   -2.265664
  O     -2.044015    1.442431    0.473285
  C     -1.848549    1.315950    1.905514
  C     -0.794858    2.319064    2.326322
  O     -3.754350   -0.318814    0.399062
  C     -4.761702   -1.170403   -0.178716
  C     -4.208943   -2.516344   -0.599617
  H      0.154030   -0.718289    3.646602
  H      0.127828   -2.021849    2.445610
  H      1.006497   -2.236316    3.967342
  H      2.592062   -1.766680    2.116196
  H      2.604091   -0.431578    3.300526
  H      3.806060    1.539263   -1.642827
  H      4.305759    2.811554   -0.497497
  H      6.276532    1.492167   -1.270792
  H      6.009483    1.253480    0.464656
  H      5.521926    0.002854   -0.685866
  H      0.796803   -1.440326   -1.704687
  H     -0.560210   -0.487253   -2.414663
  H     -2.809907    1.515929    2.382269
  H     -1.540352    0.290124    2.127519
  H     -1.083770    3.315554    2.004563
  H     -0.697840    2.303358    3.407247
  H      0.164285    2.072259    1.877071
  H     -5.501620   -1.268978    0.616803
  H     -5.200917   -0.650119   -1.035101
  H     -3.672580   -2.981423    0.223656
  H     -5.028237   -3.158910   -0.905611
  H     -3.526891   -2.393338   -1.439581

 Total Charge           Charge          ....    0
 Multiplicity           Mult            ....    1
 Number of Electrons    NEL             ....  202
 Basis Dimension        Dim             ....  334

ORBITAL ENERGIES
----------------

  NO   OCC          E(Eh)            E(eV)
   0   2.0000     -88.043385     -2395.7823
   1   2.0000     -88.042556     -2395.7598
   2   2.0000     -87.991568     -2394.3723
   3   2.0000     -87.987644     -2394.2655
   4   2.0000     -76.429832     -2079.7615
   5   2.0000     -76.426567     -2079.6726
   6   2.0000     -18.796437      -511.4770
   7   2.0000     -18.796198      -511.4705
   8   2.0000     -18.795446      -511.4501
   9   2.0000     -18.789502      -511.2883
  10   2.0000      -9.956773      -270.9376
  11   2.0000      -9.955738      -270.9094
  12   2.0000      -9.955493      -270.9027
  13   2.0000      -9.952537      -270.8223
  14   2.0000      -9.951434      -270.7923
  15   2.0000      -9.889527      -269.1077
  16   2.0000      -9.885800      -269.0063
  17   2.0000      -9.882724      -268.9226
  18   2.0000      -9.881013      -268.8760
  19   2.0000      -7.688605      -209.2176
  20   2.0000      -7.687273      -209.1813
  21   2.0000      -7.636469      -207.7989
  22   2.0000      -7.632933      -207.7027
  23   2.0000      -6.427520      -174.9017
  24   2.0000      -6.424127      -174.8094
  25   2.0000      -5.716383      -155.5507
  26   2.0000      -5.714969      -155.5122
  27   2.0000      -5.713176      -155.4634
  28   2.0000      -5.711894      -155.4285
  29   2.0000      -5.705588      -155.2570
  30   2.0000      -5.704358      -155.2235
  31   2.0000      -5.665175      -154.1572
  32   2.0000      -5.661872      -154.0674
  33   2.0000      -5.657044      -153.9360
  34   2.0000      -5.656876      -153.9314
  35   2.0000      -5.653460      -153.8385
  36   2.0000      -5.653127      -153.8294
  37   2.0000      -4.650041      -126.5341
  38   2.0000      -4.649289      -126.5136
  39   2.0000      -4.647965      -126.4776
  40   2.0000      -4.647034      -126.4522
  41   2.0000      -4.645748      -126.4172
  42   2.0000      -4.644434      -126.3815
  43   2.0000      -0.990635       -26.9565
  44   2.0000      -0.988939       -26.9104
  45   2.0000      -0.949107       -25.8265
  46   2.0000      -0.944682       -25.7061
  47   2.0000      -0.765599       -20.8330
  48   2.0000      -0.724256       -19.7080
  49   2.0000      -0.711994       -19.3743
  50   2.0000      -0.689646       -18.7662
  51   2.0000      -0.689173       -18.7534
  52   2.0000      -0.676947       -18.4207
  53   2.0000      -0.651389       -17.7252
  54   2.0000      -0.639556       -17.4032
  55   2.0000      -0.600358       -16.3366
  56   2.0000      -0.592152       -16.1133
  57   2.0000      -0.573686       -15.6108
  58   2.0000      -0.569618       -15.5001
  59   2.0000      -0.559127       -15.2146
  60   2.0000      -0.510629       -13.8949
  61   2.0000      -0.502876       -13.6840
  62   2.0000      -0.482874       -13.1397
  63   2.0000      -0.474896       -12.9226
  64   2.0000      -0.460179       -12.5221
  65   2.0000      -0.444645       -12.0994
  66   2.0000      -0.440456       -11.9854
  67   2.0000      -0.437208       -11.8970
  68   2.0000      -0.431849       -11.7512
  69   2.0000      -0.420433       -11.4406
  70   2.0000      -0.409700       -11.1485
  71   2.0000      -0.399160       -10.8617
  72   2.0000      -0.390680       -10.6309
  73   2.0000      -0.387914       -10.5557
  74   2.0000      -0.378563       -10.3012
  75   2.0000      -0.375490       -10.2176
  76   2.0000      -0.364973        -9.9314
  77   2.0000      -0.363009        -9.8780
  78   2.0000      -0.355207        -9.6657
  79   2.0000      -0.351782        -9.5725
  80   2.0000      -0.350566        -9.5394
  81   2.0000      -0.343338        -9.3427
  82   2.0000      -0.341322        -9.2878
  83   2.0000      -0.338335        -9.2065
  84   2.0000      -0.336464        -9.1557
  85   2.0000      -0.321554        -8.7499
  86   2.0000      -0.310477        -8.4485
  87   2.0000      -0.301884        -8.2147
  88   2.0000      -0.300459        -8.1759
  89   2.0000      -0.296314        -8.0631
  90   2.0000      -0.292389        -7.9563
  91   2.0000      -0.280607        -7.6357
  92   2.0000      -0.270414        -7.3583
  93   2.0000      -0.265896        -7.2354
  94   2.0000      -0.258536        -7.0351
  95   2.0000      -0.236022        -6.4225
  96   2.0000      -0.221704        -6.0329
  97   2.0000      -0.213107        -5.7989
  98   2.0000      -0.205466        -5.5910
  99   2.0000      -0.204525        -5.5654
 100   2.0000      -0.202387        -5.5072
 101   0.0000      -0.044931        -1.2226
 102   0.0000      -0.025626        -0.6973
 103   0.0000      -0.005866        -0.1596
 104   0.0000      -0.001623        -0.0442
 105   0.0000       0.012791         0.3481

MULLIKEN ATOMIC CHARGES
-----------------------
   0 C :   -0.299842
   1 C :   -0.012270
   2 O :   -0.363830
   3 P :    0.612002
   4 S :   -0.335434
   5 O :   -0.374841
   6 C :   -0.011033
   7 C :   -0.292423
   8 S :   -0.057000
   9 C :   -0.383144
  10 S :   -0.093011
  11 P :    0.601191
  12 S :   -0.311033
  13 O :   -0.351828
  14 C :   -0.019187
  15 C :   -0.289898
  16 O :   -0.385447
  17 C :    0.000516
  18 C :   -0.317427
  19 H :    0.122217
  20 H :    0.131980
  21 H :    0.111573
  22 H :    0.112446
  23 H :    0.104968
  24 H :    0.105072
  25 H :    0.109450
  26 H :    0.109057
  27 H :    0.111915
  28 H :    0.130061
  29 H :    0.193768
  30 H :    0.195679
  31 H :    0.105766
  32 H :    0.107046
  33 H :    0.117471
  34 H :    0.102740
  35 H :    0.133363
  36 H :    0.105216
  37 H :    0.113651
  38 H :    0.116610
  39 H :    0.114520
  40 H :    0.129371
Sum of atomic charges:    0.0000000

LOEWDIN ATOMIC CHARGES
----------------------
   0 C :   -0.356965
   1 C :   -0.115827
   2 O :   -0.235896
   3 P :    0.568789
   4 S :   -0.318050
   5 O :   -0.247461
   6 C :   -0.115527
   7 C :   -0.362898
   8 S :    0.097467
   9 C :   -0.491797
  10 S :    0.080542
  11 P :    0.571382
  12 S :   -0.307151
  13 O :   -0.234618
  14 C :   -0.113323
  15 C :   -0.356235
  16 O :   -0.249938
  17 C :   -0.115015
  18 C :   -0.370702
  19 H :    0.122932
  20 H :    0.123850
  21 H :    0.130983
  22 H :    0.107820
  23 H :    0.115471
  24 H :    0.108681
  25 H :    0.119908
  26 H :    0.129498
  27 H :    0.125173
  28 H :    0.124950
  29 H :    0.127433
  30 H :    0.128859
  31 H :    0.114825
  32 H :    0.103515
  33 H :    0.128769
  34 H :    0.125904
  35 H :    0.124878
  36 H :    0.118879
  37 H :    0.113923
  38 H :    0.122936
  39 H :    0.131844
  40 H :    0.122191

  Mayer bond orders larger than 0.100000
B(  0-C ,  1-C ) :   1.1694 B(  0-C , 19-H ) :   0.9408 B(  0-C , 20-H ) :   0.9397
B(  0-C , 21-H ) :   0.9379 B(  1-C ,  2-O ) :   0.8942 B(  1-C , 22-H ) :   0.9002
B(  1-C , 23-H ) :   0.9327 B(  2-O ,  3-P ) :   1.1205 B(  3-P ,  4-S ) :   1.5957
B(  3-P ,  5-O ) :   1.1168 B(  3-P ,  8-S ) :   0.9782 B(  4-S ,  8-S ) :   0.1084
B(  5-O ,  6-C ) :   0.9018 B(  6-C ,  7-C ) :   1.1675 B(  6-C , 24-H ) :   0.9155
B(  6-C , 25-H ) :   0.9357 B(  7-C , 26-H ) :   0.9396 B(  7-C , 27-H ) :   0.9476
B(  7-C , 28-H ) :   0.9328 B(  8-S ,  9-C ) :   1.0048 B(  9-C , 10-S ) :   1.0041
B(  9-C , 29-H ) :   0.8658 B(  9-C , 30-H ) :   0.8703 B( 10-S , 11-P ) :   0.9426
B( 10-S , 12-S ) :   0.1082 B( 11-P , 12-S ) :   1.6367 B( 11-P , 13-O ) :   1.1457
B( 11-P , 16-O ) :   1.0872 B( 13-O , 14-C ) :   0.8860 B( 14-C , 15-C ) :   1.1686
B( 14-C , 31-H ) :   0.9322 B( 14-C , 32-H ) :   0.9056 B( 15-C , 33-H ) :   0.9465
B( 15-C , 34-H ) :   0.9391 B( 15-C , 35-H ) :   0.9343 B( 16-O , 17-C ) :   0.9063
B( 17-C , 18-C ) :   1.1661 B( 17-C , 36-H ) :   0.9345 B( 17-C , 37-H ) :   0.9197
B( 18-C , 38-H ) :   0.9438 B( 18-C , 39-H ) :   0.9368 B( 18-C , 40-H ) :   0.9347

Dispersion correction           -0.065020329
FINAL SINGLE POINT ENERGY     -2929.525429719240

DIPOLE MOMENT
-------------

Method             : SCF
Type of density    : Electron Density
Multiplicity       :   1
Irrep              :   0
Energy             : -2929.6452720028796648 Eh
Relativity type    :
Basis              : AO
                                X                 Y                 Z
Electronic contribution:     -3.596967577       2.791966359     -14.912878069
Nuclear contribution   :      3.650855844      -2.963733146      16.356277749
                        -----------------------------------------
Total Dipole Moment    :      0.053888267      -0.171766787       1.443399680
                        -----------------------------------------
Magnitude (a.u.)       :      1.454582556
Magnitude (Debye)      :      3.697255031

Rotational constants in cm-1:             0.013113             0.004705             0.004535
Rotational constants in MHz :           393.112228           141.043141           135.946036

                             ****ORCA TERMINATED NORMALLY****
TOTAL RUN TIME: 0 days 0 hours 0 minutes 21 seconds 458 msec
