                         Program Version 6.0.0  -   RELEASE  -
|  1> ! pbe def2-sv(p) def2/J RI DEFGRID1 loosescf d4 GCP(DFT/SV(P)) printgap
|  2> %output
|  3>     printlevel normal
|  4> end
|  5> * xyz 0 1
|  6> C 3.8394992271 -0.6508886557 -2.497485389
|  7> C 2.6225089398 0.2438542116 -2.3971337861
|  8> O 1.854123836 -0.0326569938 -1.2118690865
|  9> P 2.3726497254 0.3245155002 0.2423533861
| 10> S 3.5192270697 1.9030021879 0.4058452785
| 11> O 3.0518517996 -1.055658168 0.675627528
| 12> C 3.9679405343 -1.1346628161 1.78032692
| 13> C 3.2709322733 -0.9430100916 3.1125553998
| 14> S 0.5323548775 0.38409036 1.2553647503
| 15> C -0.1160062864 -1.2556164982 0.7360219078
| 16> S -1.9038323857 -1.3087478321 0.923598789
| 17> P -2.3759865915 0.1093715153 -0.5980298364
| 18> S -1.253922291 0.0774880383 -2.1981090566
| 19> O -2.3798324484 1.5264207018 0.0944569398
| 20> C -3.2121759658 1.8547120665 1.2397080063
| 21> C -2.3642253227 2.0010898623 2.4868382195
| 22> O -3.9308106324 -0.1297100571 -0.8428098216
| 23> C -4.4372264392 -1.0904638957 -1.7872530564
| 24> C -4.1095113314 -2.5168271403 -1.3962884609
| 25> H 4.5335502709 -0.4199263385 -1.6902103116
| 26> H 3.5459734843 -1.6947522476 -2.4253018125
| 27> H 4.3328736131 -0.4779457111 -3.448646743
| 28> H 1.9123606894 0.070730098 -3.2081400284
| 29> H 2.9152322992 1.298684879 -2.3819298015
| 30> H 4.4052517661 -2.1299433537 1.6905132597
| 31> H 4.7412883441 -0.3722960353 1.6422790868
| 32> H 3.9910432 -1.0697127304 3.9145504728
| 33> H 2.8524374776 0.0616289528 3.1702283417
| 34> H 2.4687531138 -1.6661369669 3.2340690632
| 35> H 0.2943227749 -2.0301498177 1.3778898961
| 36> H 0.1428208999 -1.4102462473 -0.310771284
| 37> H -3.6883502685 2.7990352143 0.9712327315
| 38> H -3.9727186204 1.0809972557 1.3611426853
| 39> H -2.990857634 2.3550538651 3.2991223458
| 40> H -1.9191306836 1.0493231828 2.7666810633
| 41> H -1.56298021 2.7142295502 2.3125001633
| 42> H -5.5129386446 -0.9086362301 -1.7857007467
| 43> H -4.0217739948 -0.8555883787 -2.7720469405
| 44> H -4.4149779516 -2.7093441416 -0.3710079464
| 45> H -4.6306391911 -3.1967471519 -2.0626152876
| 46> H -3.0383849866 -2.6907456326 -1.4836044243
| 47> *
| 48>
| 49>                          ****END OF INPUT****

CARTESIAN COORDINATES (ANGSTROEM)
---------------------------------
  C      3.839499   -0.650889   -2.497485
  C      2.622509    0.243854   -2.397134
  O      1.854124   -0.032657   -1.211869
  P      2.372650    0.324516    0.242353
  S      3.519227    1.903002    0.405845
  O      3.051852   -1.055658    0.675628
  C      3.967941   -1.134663    1.780327
  C      3.270932   -0.943010    3.112555
  S      0.532355    0.384090    1.255365
  C     -0.116006   -1.255616    0.736022
  S     -1.903832   -1.308748    0.923599
  P     -2.375987    0.109372   -0.598030
  S     -1.253922    0.077488   -2.198109
  O     -2.379832    1.526421    0.094457
  C     -3.212176    1.854712    1.239708
  C     -2.364225    2.001090    2.486838
  O     -3.930811   -0.129710   -0.842810
  C     -4.437226   -1.090464   -1.787253
  C     -4.109511   -2.516827   -1.396288
  H      4.533550   -0.419926   -1.690210
  H      3.545973   -1.694752   -2.425302
  H      4.332874   -0.477946   -3.448647
  H      1.912361    0.070730   -3.208140
  H      2.915232    1.298685   -2.381930
  H      4.405252   -2.129943    1.690513
  H      4.741288   -0.372296    1.642279
  H      3.991043   -1.069713    3.914550
  H      2.852437    0.061629    3.170228
  H      2.468753   -1.666137    3.234069
  H      0.294323   -2.030150    1.377890
  H      0.142821   -1.410246   -0.310771
  H     -3.688350    2.799035    0.971233
  H     -3.972719    1.080997    1.361143
  H     -2.990858    2.355054    3.299122
  H     -1.919131    1.049323    2.766681
  H     -1.562980    2.714230    2.312500
  H     -5.512939   -0.908636   -1.785701
  H     -4.021774   -0.855588   -2.772047
  H     -4.414978   -2.709344   -0.371008
  H     -4.630639   -3.196747   -2.062615
  H     -3.038385   -2.690746   -1.483604

 Total Charge           Charge          ....    0
 Multiplicity           Mult            ....    1
 Number of Electrons    NEL             ....  202
 Basis Dimension        Dim             ....  334

ORBITAL ENERGIES
----------------

  NO   OCC          E(Eh)            E(eV)
   0   2.0000     -88.050642     -2395.9798
   1   2.0000     -88.038525     -2395.6500
   2   2.0000     -87.985519     -2394.2077
   3   2.0000     -87.985178     -2394.1984
   4   2.0000     -76.427224     -2079.6905
   5   2.0000     -76.421719     -2079.5407
   6   2.0000     -18.795534      -511.4525
   7   2.0000     -18.788614      -511.2642
   8   2.0000     -18.788531      -511.2619
   9   2.0000     -18.783182      -511.1164
  10   2.0000      -9.956227      -270.9227
  11   2.0000      -9.956121      -270.9198
  12   2.0000      -9.955334      -270.8984
  13   2.0000      -9.950928      -270.7785
  14   2.0000      -9.944679      -270.6085
  15   2.0000      -9.887499      -269.0525
  16   2.0000      -9.884644      -268.9748
  17   2.0000      -9.882713      -268.9223
  18   2.0000      -9.879204      -268.8268
  19   2.0000      -7.695445      -209.4037
  20   2.0000      -7.683390      -209.0757
  21   2.0000      -7.630662      -207.6409
  22   2.0000      -7.630298      -207.6310
  23   2.0000      -6.424595      -174.8221
  24   2.0000      -6.419558      -174.6850
  25   2.0000      -5.723171      -155.7354
  26   2.0000      -5.719983      -155.6487
  27   2.0000      -5.712584      -155.4473
  28   2.0000      -5.711778      -155.4254
  29   2.0000      -5.707794      -155.3170
  30   2.0000      -5.699979      -155.1043
  31   2.0000      -5.659663      -154.0073
  32   2.0000      -5.659250      -153.9960
  33   2.0000      -5.651053      -153.7730
  34   2.0000      -5.650948      -153.7701
  35   2.0000      -5.650940      -153.7699
  36   2.0000      -5.650421      -153.7558
  37   2.0000      -4.647442      -126.4633
  38   2.0000      -4.646301      -126.4323
  39   2.0000      -4.644895      -126.3940
  40   2.0000      -4.641843      -126.3110
  41   2.0000      -4.641518      -126.3021
  42   2.0000      -4.640097      -126.2635
  43   2.0000      -0.988268       -26.8921
  44   2.0000      -0.981813       -26.7165
  45   2.0000      -0.944073       -25.6895
  46   2.0000      -0.940792       -25.6002
  47   2.0000      -0.764606       -20.8060
  48   2.0000      -0.720487       -19.6054
  49   2.0000      -0.708880       -19.2896
  50   2.0000      -0.690518       -18.7899
  51   2.0000      -0.684835       -18.6353
  52   2.0000      -0.673342       -18.3226
  53   2.0000      -0.652161       -17.7462
  54   2.0000      -0.637838       -17.3565
  55   2.0000      -0.597838       -16.2680
  56   2.0000      -0.591631       -16.0991
  57   2.0000      -0.575349       -15.6561
  58   2.0000      -0.568448       -15.4683
  59   2.0000      -0.561215       -15.2714
  60   2.0000      -0.503033       -13.6882
  61   2.0000      -0.490108       -13.3365
  62   2.0000      -0.473003       -12.8711
  63   2.0000      -0.469111       -12.7652
  64   2.0000      -0.452704       -12.3187
  65   2.0000      -0.446769       -12.1572
  66   2.0000      -0.443851       -12.0778
  67   2.0000      -0.435980       -11.8636
  68   2.0000      -0.431637       -11.7454
  69   2.0000      -0.421275       -11.4635
  70   2.0000      -0.410893       -11.1810
  71   2.0000      -0.395555       -10.7636
  72   2.0000      -0.390881       -10.6364
  73   2.0000      -0.387668       -10.5490
  74   2.0000      -0.381244       -10.3742
  75   2.0000      -0.371400       -10.1063
  76   2.0000      -0.369009       -10.0412
  77   2.0000      -0.356112        -9.6903
  78   2.0000      -0.354616        -9.6496
  79   2.0000      -0.351504        -9.5649
  80   2.0000      -0.345585        -9.4038
  81   2.0000      -0.343580        -9.3493
  82   2.0000      -0.341435        -9.2909
  83   2.0000      -0.336211        -9.1488
  84   2.0000      -0.328031        -8.9262
  85   2.0000      -0.320391        -8.7183
  86   2.0000      -0.311921        -8.4878
  87   2.0000      -0.300462        -8.1760
  88   2.0000      -0.295796        -8.0490
  89   2.0000      -0.292668        -7.9639
  90   2.0000      -0.282021        -7.6742
  91   2.0000      -0.271379        -7.3846
  92   2.0000      -0.266690        -7.2570
  93   2.0000      -0.264554        -7.1989
  94   2.0000      -0.259443        -7.0598
  95   2.0000      -0.233625        -6.3573
  96   2.0000      -0.216209        -5.8833
  97   2.0000      -0.206034        -5.6065
  98   2.0000      -0.203364        -5.5338
  99   2.0000      -0.202086        -5.4990
 100   2.0000      -0.199536        -5.4297
 101   0.0000      -0.044726        -1.2171
 102   0.0000      -0.023463        -0.6385
 103   0.0000      -0.016462        -0.4479
 104   0.0000       0.002347         0.0639
 105   0.0000       0.011322         0.3081

MULLIKEN ATOMIC CHARGES
-----------------------
   0 C :   -0.306641
   1 C :    0.000230
   2 O :   -0.366499
   3 P :    0.619821
   4 S :   -0.322101
   5 O :   -0.386007
   6 C :   -0.007203
   7 C :   -0.312422
   8 S :   -0.082237
   9 C :   -0.354802
  10 S :   -0.109110
  11 P :    0.604060
  12 S :   -0.301065
  13 O :   -0.348835
  14 C :   -0.017549
  15 C :   -0.288057
  16 O :   -0.382114
  17 C :    0.001959
  18 C :   -0.319627
  19 H :    0.119630
  20 H :    0.114275
  21 H :    0.111035
  22 H :    0.109486
  23 H :    0.112364
  24 H :    0.103274
  25 H :    0.111146
  26 H :    0.112528
  27 H :    0.128291
  28 H :    0.112016
  29 H :    0.180598
  30 H :    0.210363
  31 H :    0.112756
  32 H :    0.104704
  33 H :    0.108148
  34 H :    0.120724
  35 H :    0.128199
  36 H :    0.105578
  37 H :    0.112788
  38 H :    0.117211
  39 H :    0.115078
  40 H :    0.128009
Sum of atomic charges:   -0.0000000

LOEWDIN ATOMIC CHARGES
----------------------
   0 C :   -0.364965
   1 C :   -0.113982
   2 O :   -0.233675
   3 P :    0.568449
   4 S :   -0.320906
   5 O :   -0.252664
   6 C :   -0.121854
   7 C :   -0.367352
   8 S :    0.090812
   9 C :   -0.474799
  10 S :    0.082725
  11 P :    0.569633
  12 S :   -0.297296
  13 O :   -0.234088
  14 C :   -0.111315
  15 C :   -0.362836
  16 O :   -0.249907
  17 C :   -0.115513
  18 C :   -0.371601
  19 H :    0.121370
  20 H :    0.125229
  21 H :    0.129882
  22 H :    0.118784
  23 H :    0.112188
  24 H :    0.117360
  25 H :    0.109822
  26 H :    0.130841
  27 H :    0.122320
  28 H :    0.121423
  29 H :    0.130350
  30 H :    0.128467
  31 H :    0.122997
  32 H :    0.108004
  33 H :    0.128739
  34 H :    0.113589
  35 H :    0.131045
  36 H :    0.119076
  37 H :    0.113378
  38 H :    0.122773
  39 H :    0.132094
  40 H :    0.121403

  Mayer bond orders larger than 0.100000
B(  0-C ,  1-C ) :   1.1616 B(  0-C , 19-H ) :   0.9372 B(  0-C , 20-H ) :   0.9468
B(  0-C , 21-H ) :   0.9393 B(  1-C ,  2-O ) :   0.9062 B(  1-C , 22-H ) :   0.9312
B(  1-C , 23-H ) :   0.9191 B(  2-O ,  3-P ) :   1.1161 B(  3-P ,  4-S ) :   1.6325
B(  3-P ,  5-O ) :   1.0602 B(  3-P ,  8-S ) :   0.9802 B(  5-O ,  6-C ) :   0.9164
B(  6-C ,  7-C ) :   1.1639 B(  6-C , 24-H ) :   0.9341 B(  6-C , 25-H ) :   0.9135
B(  7-C , 26-H ) :   0.9384 B(  7-C , 27-H ) :   0.9349 B(  7-C , 28-H ) :   0.9452
B(  8-S ,  9-C ) :   0.9629 B(  9-C , 10-S ) :   1.0239 B(  9-C , 29-H ) :   0.9039
B(  9-C , 30-H ) :   0.8638 B( 10-S , 11-P ) :   0.9219 B( 10-S , 12-S ) :   0.1100
B( 11-P , 12-S ) :   1.6555 B( 11-P , 13-O ) :   1.1455 B( 11-P , 16-O ) :   1.0867
B( 13-O , 14-C ) :   0.8924 B( 14-C , 15-C ) :   1.1656 B( 14-C , 31-H ) :   0.9339
B( 14-C , 32-H ) :   0.9187 B( 15-C , 33-H ) :   0.9381 B( 15-C , 34-H ) :   0.9323
B( 15-C , 35-H ) :   0.9436 B( 16-O , 17-C ) :   0.9061 B( 17-C , 18-C ) :   1.1664
B( 17-C , 36-H ) :   0.9345 B( 17-C , 37-H ) :   0.9181 B( 18-C , 38-H ) :   0.9434
B( 18-C , 39-H ) :   0.9370 B( 18-C , 40-H ) :   0.9351

Dispersion correction           -0.064851134
FINAL SINGLE POINT ENERGY     -2929.517684224537

DIPOLE MOMENT
-------------

Method             : SCF
Type of density    : Electron Density
Multiplicity       :   1
Irrep              :   0
Energy             : -2929.6382948798263897 Eh
Relativity type    :
Basis              : AO
                                X                 Y                 Z
Electronic contribution:     -1.171431486       8.681966215      -3.346929692
Nuclear contribution   :      0.315770165      -9.985362807       3.852851984
                        -----------------------------------------
Total Dipole Moment    :     -0.855661320      -1.303396592       0.505922293
                        -----------------------------------------
Magnitude (a.u.)       :      1.639193807
Magnitude (Debye)      :      4.166499541

Rotational constants in cm-1:             0.012345             0.004815             0.004365
Rotational constants in MHz :           370.086988           144.360411           130.853283

                             ****ORCA TERMINATED NORMALLY****
TOTAL RUN TIME: 0 days 0 hours 0 minutes 20 seconds 817 msec
