                         Program Version 6.0.0  -   RELEASE  -
|  1> ! r2scan-3c def2/J RI DEFGRID2 scfconv6 printgap
|  2> %output
|  3>     printlevel normal
|  4> end
|  5> * xyz 0 1
|  6> C 1.4812656087 0.3499807824 -0.4891586535
|  7> C 0.8350824903 -0.2481752457 0.4927031089
|  8> C -0.6566807395 -0.369461749 0.5836521484
|  9> O -1.290665108 0.2440093666 -0.5185703923
| 10> H 2.5549712666 0.4113300686 -0.5093267717
| 11> H 0.9460342008 0.7994234967 -1.3078427164
| 12> H 1.3592299052 -0.7038599891 1.3213831368
| 13> H -0.9861832587 0.0971592878 1.5249016317
| 14> H -0.9162594291 -1.438576273 0.6294350987
| 15> H -2.2473865019 0.1506969216 -0.4241977097
| 16> *
| 17>
| 18>                          ****END OF INPUT****

CARTESIAN COORDINATES (ANGSTROEM)
---------------------------------
  C      1.481266    0.349981   -0.489159
  C      0.835082   -0.248175    0.492703
  C     -0.656681   -0.369462    0.583652
  O     -1.290665    0.244009   -0.518570
  H      2.554971    0.411330   -0.509327
  H      0.946034    0.799423   -1.307843
  H      1.359230   -0.703860    1.321383
  H     -0.986183    0.097159    1.524902
  H     -0.916259   -1.438576    0.629435
  H     -2.247387    0.150697   -0.424198

 Total Charge           Charge          ....    0
 Multiplicity           Mult            ....    1
 Number of Electrons    NEL             ....   32
 Basis Dimension        Dim             ....  111

ORBITAL ENERGIES
----------------

  NO   OCC          E(Eh)            E(eV)
   0   2.0000     -18.954368      -515.7746
   1   2.0000     -10.085764      -274.4476
   2   2.0000     -10.032792      -273.0061
   3   2.0000     -10.015135      -272.5257
   4   2.0000      -0.991404       -26.9775
   5   2.0000      -0.748549       -20.3691
   6   2.0000      -0.646289       -17.5864
   7   2.0000      -0.524434       -14.2706
   8   2.0000      -0.487816       -13.2742
   9   2.0000      -0.424081       -11.5398
  10   2.0000      -0.418752       -11.3948
  11   2.0000      -0.389003       -10.5853
  12   2.0000      -0.323593        -8.8054
  13   2.0000      -0.305040        -8.3006
  14   2.0000      -0.255291        -6.9468
  15   2.0000      -0.229377        -6.2417
  16   0.0000      -0.007711        -0.2098
  17   0.0000       0.053833         1.4649
  18   0.0000       0.113061         3.0766
  19   0.0000       0.131879         3.5886
  20   0.0000       0.156667         4.2631

MULLIKEN ATOMIC CHARGES
-----------------------
   0 C :   -0.343853
   1 C :   -0.103693
   2 C :   -0.122004
   3 O :   -0.429381
   4 H :    0.137504
   5 H :    0.166858
   6 H :    0.143714
   7 H :    0.127683
   8 H :    0.127890
   9 H :    0.295282
Sum of atomic charges:    0.0000000

LOEWDIN ATOMIC CHARGES
----------------------
   0 C :   -0.296798
   1 C :   -0.178875
   2 C :    0.014220
   3 O :   -0.625669
   4 H :    0.155659
   5 H :    0.172382
   6 H :    0.162259
   7 H :    0.163952
   8 H :    0.164012
   9 H :    0.268858

  Mayer bond orders larger than 0.100000
B(  0-C ,  1-C ) :   1.9327 B(  0-C ,  4-H ) :   0.9602 B(  0-C ,  5-H ) :   0.9719
B(  1-C ,  2-C ) :   0.9725 B(  1-C ,  6-H ) :   0.9315 B(  2-C ,  3-O ) :   0.9791
B(  2-C ,  7-H ) :   0.9576 B(  2-C ,  8-H ) :   0.9574 B(  3-O ,  9-H ) :   0.8994

Dispersion correction           -0.001727740
FINAL SINGLE POINT ENERGY      -193.067062199398

DIPOLE MOMENT
-------------

Method             : SCF
Type of density    : Electron Density
Multiplicity       :   1
Irrep              :   0
Energy             :  -193.0702897055053313 Eh
Relativity type    :
Basis              : AO
                                X                 Y                 Z
Electronic contribution:     -1.083890263       0.345744504      -0.677113627
Nuclear contribution   :      0.647300829      -0.637920749       1.150328691
                        -----------------------------------------
Total Dipole Moment    :     -0.436589435      -0.292176244       0.473215065
                        -----------------------------------------
Magnitude (a.u.)       :      0.707042990
Magnitude (Debye)      :      1.797160457

Rotational constants in cm-1:             0.582535             0.199335             0.152810
Rotational constants in MHz :         17463.964658          5975.900819          4581.142453

                             ****ORCA TERMINATED NORMALLY****
TOTAL RUN TIME: 0 days 0 hours 0 minutes 7 seconds 305 msec
