                         Program Version 6.0.0  -   RELEASE  -
|  1> ! r2scan-3c def2/J RI DEFGRID2 scfconv6 printgap
|  2> %output
|  3>     printlevel normal
|  4> end
|  5> %cpcm
|  6>     smd true
|  7>     smdsolvent "water"
|  8> end
|  9> * xyz 0 1
| 10> C 1.4812656087 0.3499807824 -0.4891586535
| 11> C 0.8350824903 -0.2481752457 0.4927031089
| 12> C -0.6566807395 -0.369461749 0.5836521484
| 13> O -1.290665108 0.2440093666 -0.5185703923
| 14> H 2.5549712666 0.4113300686 -0.5093267717
| 15> H 0.9460342008 0.7994234967 -1.3078427164
| 16> H 1.3592299052 -0.7038599891 1.3213831368
| 17> H -0.9861832587 0.0971592878 1.5249016317
| 18> H -0.9162594291 -1.438576273 0.6294350987
| 19> H -2.2473865019 0.1506969216 -0.4241977097
| 20> *
| 21>
| 22>                          ****END OF INPUT****

CARTESIAN COORDINATES (ANGSTROEM)
---------------------------------
  C      1.481266    0.349981   -0.489159
  C      0.835082   -0.248175    0.492703
  C     -0.656681   -0.369462    0.583652
  O     -1.290665    0.244009   -0.518570
  H      2.554971    0.411330   -0.509327
  H      0.946034    0.799423   -1.307843
  H      1.359230   -0.703860    1.321383
  H     -0.986183    0.097159    1.524902
  H     -0.916259   -1.438576    0.629435
  H     -2.247387    0.150697   -0.424198

 Total Charge           Charge          ....    0
 Multiplicity           Mult            ....    1
 Number of Electrons    NEL             ....   32
 Basis Dimension        Dim             ....  111

ORBITAL ENERGIES
----------------

  NO   OCC          E(Eh)            E(eV)
   0   2.0000     -18.954322      -515.7733
   1   2.0000     -10.078879      -274.2602
   2   2.0000     -10.034237      -273.0455
   3   2.0000     -10.015929      -272.5473
   4   2.0000      -0.990691       -26.9581
   5   2.0000      -0.749400       -20.3922
   6   2.0000      -0.643740       -17.5171
   7   2.0000      -0.522843       -14.2273
   8   2.0000      -0.483338       -13.1523
   9   2.0000      -0.419567       -11.4170
  10   2.0000      -0.419323       -11.4104
  11   2.0000      -0.389426       -10.5968
  12   2.0000      -0.324657        -8.8344
  13   2.0000      -0.304577        -8.2880
  14   2.0000      -0.260207        -7.0806
  15   2.0000      -0.232418        -6.3244
  16   0.0000      -0.011017        -0.2998
  17   0.0000       0.070094         1.9073
  18   0.0000       0.125383         3.4118
  19   0.0000       0.141317         3.8454
  20   0.0000       0.162197         4.4136

MULLIKEN ATOMIC CHARGES
-----------------------
   0 C :   -0.431608
   1 C :   -0.113248
   2 C :   -0.132734
   3 O :   -0.505552
   4 H :    0.169354
   5 H :    0.173758
   6 H :    0.179085
   7 H :    0.155592
   8 H :    0.155577
   9 H :    0.349778
Sum of atomic charges:   -0.0000000

LOEWDIN ATOMIC CHARGES
----------------------
   0 C :   -0.333179
   1 C :   -0.176470
   2 C :    0.016457
   3 O :   -0.658084
   4 H :    0.164039
   5 H :    0.169977
   6 H :    0.174636
   7 H :    0.177126
   8 H :    0.177114
   9 H :    0.288384

  Mayer bond orders larger than 0.100000
B(  0-C ,  1-C ) :   1.8761 B(  0-C ,  4-H ) :   0.9581 B(  0-C ,  5-H ) :   0.9759
B(  1-C ,  2-C ) :   0.9658 B(  1-C ,  6-H ) :   0.9312 B(  2-C ,  3-O ) :   0.9629
B(  2-C ,  7-H ) :   0.9542 B(  2-C ,  8-H ) :   0.9540 B(  3-O ,  9-H ) :   0.8720

Dispersion correction           -0.001727740
FINAL SINGLE POINT ENERGY      -193.074751861949

DIPOLE MOMENT
-------------

Method             : SCF
Type of density    : Electron Density
Multiplicity       :   1
Irrep              :   0
Energy             :  -193.0779793680567877 Eh
Relativity type    :
Basis              : AO
                                X                 Y                 Z
Electronic contribution:     -1.259472376       0.179525092      -0.403413308
Nuclear contribution   :      0.647300829      -0.637920749       1.150328691
                        -----------------------------------------
Total Dipole Moment    :     -0.612171548      -0.458395656       0.746915383
                        -----------------------------------------
Magnitude (a.u.)       :      1.069001015
Magnitude (Debye)      :      2.717184643

Rotational constants in cm-1:             0.582535             0.199335             0.152810
Rotational constants in MHz :         17463.964658          5975.900819          4581.142453

                             ****ORCA TERMINATED NORMALLY****
TOTAL RUN TIME: 0 days 0 hours 0 minutes 9 seconds 82 msec
