                         Program Version 6.0.0  -   RELEASE  -
|  1> ! pbe def2-sv(p) def2/J RI DEFGRID1 loosescf d4 GCP(DFT/SV(P)) printgap
|  2> %output
|  3>     printlevel normal
|  4> end
|  5> * xyz 0 1
|  6> C 4.6454213317 -1.3281802302 -1.479971563
|  7> C 4.2804497631 0.1299291341 -1.280384595
|  8> O 3.4362010718 0.2976057761 -0.1231887393
|  9> P 1.8743780585 0.5784628555 -0.2479601202
| 10> S 1.426697623 2.0712641991 -1.4262181073
| 11> O 1.4802959012 0.8257047679 1.2537610712
| 12> C 1.974200045 0.0218472544 2.3551612236
| 13> C 3.1558092239 0.6955181513 3.0191883288
| 14> S 1.1159168724 -1.3206735645 -0.8695395605
| 15> C -0.1435300208 -0.8003554166 -2.0648667273
| 16> S -1.8543031819 -1.1604380264 -1.5707860102
| 17> P -1.8731242692 -0.3272197384 0.3923255517
| 18> S -1.0863916975 -1.364174946 1.8505368081
| 19> O -3.4127026651 0.0023564257 0.6081228916
| 20> C -4.3310190003 -0.9609162822 1.1544382937
| 21> C -4.5622439631 -2.1236485723 0.2119269581
| 22> O -1.2261385474 1.1050490391 0.2139906436
| 23> C -1.9226844234 2.1826197885 -0.4697879686
| 24> C -2.5615287349 3.1140074623 0.537450588
| 25> H 3.7582600144 -1.9231258337 -1.6823014134
| 26> H 5.3272037184 -1.407659057 -2.3204957222
| 27> H 5.1301399338 -1.7153185754 -0.588239544
| 28> H 3.7706355268 0.5419582241 -2.1569440313
| 29> H 5.1670097756 0.7313865243 -1.0695310394
| 30> H 1.1241590176 -0.0619529543 3.0352352038
| 31> H 2.2314785739 -0.973203254 1.9839707357
| 32> H 3.9906767516 0.7647461831 2.3270123511
| 33> H 2.8794321156 1.6962798985 3.339846999
| 34> H 3.4518681128 0.1099819385 3.8839020614
| 35> H 0.0141433517 -1.3712081846 -2.9769378018
| 36> H -0.0205407187 0.2715029043 -2.2469304833
| 37> H -3.9333127216 -1.3130443925 2.1115525718
| 38> H -5.243617013 -0.3864185749 1.3187955679
| 39> H -3.6463253878 -2.7042016105 0.1066006549
| 40> H -5.3394996269 -2.7641476603 0.6159856864
| 41> H -4.8623712533 -1.7641714505 -0.7691105505
| 42> H -1.1470186569 2.6931253027 -1.0451683134
| 43> H -2.6660370622 1.7530388044 -1.1452720052
| 44> H -1.8066797771 3.4858169788 1.2254669451
| 45> H -3.0084823325 3.9504456753 0.0094027218
| 46> H -3.3287543505 2.5917449893 1.103352478
| 47> *
| 48>
| 49>                          ****END OF INPUT****

CARTESIAN COORDINATES (ANGSTROEM)
---------------------------------
  C      4.645421   -1.328180   -1.479972
  C      4.280450    0.129929   -1.280385
  O      3.436201    0.297606   -0.123189
  P      1.874378    0.578463   -0.247960
  S      1.426698    2.071264   -1.426218
  O      1.480296    0.825705    1.253761
  C      1.974200    0.021847    2.355161
  C      3.155809    0.695518    3.019188
  S      1.115917   -1.320674   -0.869540
  C     -0.143530   -0.800355   -2.064867
  S     -1.854303   -1.160438   -1.570786
  P     -1.873124   -0.327220    0.392326
  S     -1.086392   -1.364175    1.850537
  O     -3.412703    0.002356    0.608123
  C     -4.331019   -0.960916    1.154438
  C     -4.562244   -2.123649    0.211927
  O     -1.226139    1.105049    0.213991
  C     -1.922684    2.182620   -0.469788
  C     -2.561529    3.114007    0.537451
  H      3.758260   -1.923126   -1.682301
  H      5.327204   -1.407659   -2.320496
  H      5.130140   -1.715319   -0.588240
  H      3.770636    0.541958   -2.156944
  H      5.167010    0.731387   -1.069531
  H      1.124159   -0.061953    3.035235
  H      2.231479   -0.973203    1.983971
  H      3.990677    0.764746    2.327012
  H      2.879432    1.696280    3.339847
  H      3.451868    0.109982    3.883902
  H      0.014143   -1.371208   -2.976938
  H     -0.020541    0.271503   -2.246930
  H     -3.933313   -1.313044    2.111553
  H     -5.243617   -0.386419    1.318796
  H     -3.646325   -2.704202    0.106601
  H     -5.339500   -2.764148    0.615986
  H     -4.862371   -1.764171   -0.769111
  H     -1.147019    2.693125   -1.045168
  H     -2.666037    1.753039   -1.145272
  H     -1.806680    3.485817    1.225467
  H     -3.008482    3.950446    0.009403
  H     -3.328754    2.591745    1.103352

 Total Charge           Charge          ....    0
 Multiplicity           Mult            ....    1
 Number of Electrons    NEL             ....  202
 Basis Dimension        Dim             ....  334

ORBITAL ENERGIES
----------------

  NO   OCC          E(Eh)            E(eV)
   0   2.0000     -88.041698     -2395.7364
   1   2.0000     -88.037714     -2395.6280
   2   2.0000     -87.986699     -2394.2398
   3   2.0000     -87.981284     -2394.0924
   4   2.0000     -76.425247     -2079.6367
   5   2.0000     -76.423829     -2079.5981
   6   2.0000     -18.793194      -511.3888
   7   2.0000     -18.793090      -511.3860
   8   2.0000     -18.786976      -511.2196
   9   2.0000     -18.785252      -511.1727
  10   2.0000      -9.953436      -270.8468
  11   2.0000      -9.953391      -270.8455
  12   2.0000      -9.953348      -270.8444
  13   2.0000      -9.945864      -270.6407
  14   2.0000      -9.943281      -270.5704
  15   2.0000      -9.885889      -269.0087
  16   2.0000      -9.885038      -268.9856
  17   2.0000      -9.879251      -268.8281
  18   2.0000      -9.878193      -268.7993
  19   2.0000      -7.686134      -209.1503
  20   2.0000      -7.682921      -209.0629
  21   2.0000      -7.631854      -207.6733
  22   2.0000      -7.626392      -207.5247
  23   2.0000      -6.422713      -174.7709
  24   2.0000      -6.421253      -174.7312
  25   2.0000      -5.713944      -155.4843
  26   2.0000      -5.710839      -155.3998
  27   2.0000      -5.710637      -155.3943
  28   2.0000      -5.707373      -155.3055
  29   2.0000      -5.703217      -155.1924
  30   2.0000      -5.699924      -155.1028
  31   2.0000      -5.660710      -154.0357
  32   2.0000      -5.655388      -153.8909
  33   2.0000      -5.652357      -153.8084
  34   2.0000      -5.652068      -153.8006
  35   2.0000      -5.646997      -153.6626
  36   2.0000      -5.646438      -153.6474
  37   2.0000      -4.645533      -126.4114
  38   2.0000      -4.644457      -126.3821
  39   2.0000      -4.644311      -126.3781
  40   2.0000      -4.643129      -126.3460
  41   2.0000      -4.643000      -126.3424
  42   2.0000      -4.641185      -126.2931
  43   2.0000      -0.987144       -26.8616
  44   2.0000      -0.985681       -26.8217
  45   2.0000      -0.942695       -25.6520
  46   2.0000      -0.940289       -25.5866
  47   2.0000      -0.758575       -20.6419
  48   2.0000      -0.717243       -19.5172
  49   2.0000      -0.706439       -19.2232
  50   2.0000      -0.688401       -18.7324
  51   2.0000      -0.688121       -18.7247
  52   2.0000      -0.671761       -18.2796
  53   2.0000      -0.648003       -17.6331
  54   2.0000      -0.637271       -17.3410
  55   2.0000      -0.595938       -16.2163
  56   2.0000      -0.587794       -15.9947
  57   2.0000      -0.570009       -15.5107
  58   2.0000      -0.566588       -15.4176
  59   2.0000      -0.560827       -15.2609
  60   2.0000      -0.503346       -13.6967
  61   2.0000      -0.496476       -13.5098
  62   2.0000      -0.477083       -12.9821
  63   2.0000      -0.472150       -12.8478
  64   2.0000      -0.451233       -12.2787
  65   2.0000      -0.449906       -12.2426
  66   2.0000      -0.436168       -11.8687
  67   2.0000      -0.430367       -11.7109
  68   2.0000      -0.423326       -11.5193
  69   2.0000      -0.420421       -11.4402
  70   2.0000      -0.408125       -11.1056
  71   2.0000      -0.389931       -10.6106
  72   2.0000      -0.388157       -10.5623
  73   2.0000      -0.384808       -10.4712
  74   2.0000      -0.379590       -10.3292
  75   2.0000      -0.368125       -10.0172
  76   2.0000      -0.361744        -9.8436
  77   2.0000      -0.356196        -9.6926
  78   2.0000      -0.355241        -9.6666
  79   2.0000      -0.350775        -9.5451
  80   2.0000      -0.349470        -9.5096
  81   2.0000      -0.342765        -9.3271
  82   2.0000      -0.340566        -9.2673
  83   2.0000      -0.333766        -9.0822
  84   2.0000      -0.328539        -8.9400
  85   2.0000      -0.317453        -8.6383
  86   2.0000      -0.313531        -8.5316
  87   2.0000      -0.296915        -8.0795
  88   2.0000      -0.293452        -7.9852
  89   2.0000      -0.292832        -7.9684
  90   2.0000      -0.287732        -7.8296
  91   2.0000      -0.267768        -7.2863
  92   2.0000      -0.264142        -7.1877
  93   2.0000      -0.259402        -7.0587
  94   2.0000      -0.256152        -6.9703
  95   2.0000      -0.238904        -6.5009
  96   2.0000      -0.223668        -6.0863
  97   2.0000      -0.207590        -5.6488
  98   2.0000      -0.204180        -5.5560
  99   2.0000      -0.192871        -5.2483
 100   2.0000      -0.187843        -5.1115
 101   0.0000      -0.045366        -1.2345
 102   0.0000      -0.030819        -0.8386
 103   0.0000      -0.012625        -0.3436
 104   0.0000       0.004504         0.1226
 105   0.0000       0.015726         0.4279

MULLIKEN ATOMIC CHARGES
-----------------------
   0 C :   -0.295913
   1 C :   -0.002850
   2 O :   -0.384065
   3 P :    0.626827
   4 S :   -0.315636
   5 O :   -0.346524
   6 C :   -0.017554
   7 C :   -0.280682
   8 S :   -0.101454
   9 C :   -0.340535
  10 S :   -0.111972
  11 P :    0.601592
  12 S :   -0.306577
  13 O :   -0.380405
  14 C :   -0.000894
  15 C :   -0.328052
  16 O :   -0.355799
  17 C :   -0.019224
  18 C :   -0.286545
  19 H :    0.124032
  20 H :    0.109819
  21 H :    0.112519
  22 H :    0.100201
  23 H :    0.108557
  24 H :    0.121892
  25 H :    0.101125
  26 H :    0.117333
  27 H :    0.117368
  28 H :    0.107491
  29 H :    0.178261
  30 H :    0.195336
  31 H :    0.112982
  32 H :    0.104574
  33 H :    0.133725
  34 H :    0.116773
  35 H :    0.121131
  36 H :    0.122187
  37 H :    0.097491
  38 H :    0.122484
  39 H :    0.106914
  40 H :    0.114068
Sum of atomic charges:    0.0000000

LOEWDIN ATOMIC CHARGES
----------------------
   0 C :   -0.364372
   1 C :   -0.117893
   2 O :   -0.248381
   3 P :    0.577614
   4 S :   -0.291504
   5 O :   -0.222334
   6 C :   -0.116543
   7 C :   -0.359442
   8 S :    0.082358
   9 C :   -0.484481
  10 S :    0.058491
  11 P :    0.568104
  12 S :   -0.300930
  13 O :   -0.244916
  14 C :   -0.119526
  15 C :   -0.372922
  16 O :   -0.233192
  17 C :   -0.123301
  18 C :   -0.356307
  19 H :    0.118317
  20 H :    0.129986
  21 H :    0.124924
  22 H :    0.106526
  23 H :    0.120127
  24 H :    0.117341
  25 H :    0.106741
  26 H :    0.123669
  27 H :    0.128016
  28 H :    0.128881
  29 H :    0.137537
  30 H :    0.119542
  31 H :    0.111419
  32 H :    0.118323
  33 H :    0.123151
  34 H :    0.133298
  35 H :    0.124750
  36 H :    0.110683
  37 H :    0.104769
  38 H :    0.130188
  39 H :    0.128807
  40 H :    0.122479

  Mayer bond orders larger than 0.100000
B(  0-C ,  1-C ) :   1.1641 B(  0-C , 19-H ) :   0.9336 B(  0-C , 20-H ) :   0.9401
B(  0-C , 21-H ) :   0.9478 B(  1-C ,  2-O ) :   0.9004 B(  1-C , 22-H ) :   0.9057
B(  1-C , 23-H ) :   0.9356 B(  2-O ,  3-P ) :   1.0720 B(  3-P ,  4-S ) :   1.6043
B(  3-P ,  5-O ) :   1.1613 B(  3-P ,  8-S ) :   0.9483 B(  4-S ,  8-S ) :   0.1179
B(  4-S , 30-H ) :   0.1237 B(  5-O ,  6-C ) :   0.8838 B(  6-C ,  7-C ) :   1.1589
B(  6-C , 24-H ) :   0.9198 B(  6-C , 25-H ) :   0.9231 B(  7-C , 26-H ) :   0.9418
B(  7-C , 27-H ) :   0.9468 B(  7-C , 28-H ) :   0.9402 B(  8-S ,  9-C ) :   1.0169
B(  9-C , 10-S ) :   0.9816 B(  9-C , 29-H ) :   0.9122 B(  9-C , 30-H ) :   0.8477
B( 10-S , 11-P ) :   0.9573 B( 10-S , 12-S ) :   0.1086 B( 11-P , 12-S ) :   1.6495
B( 11-P , 13-O ) :   1.0675 B( 11-P , 16-O ) :   1.1258 B( 13-O , 14-C ) :   0.9079
B( 14-C , 15-C ) :   1.1660 B( 14-C , 31-H ) :   0.9138 B( 14-C , 32-H ) :   0.9325
B( 15-C , 33-H ) :   0.9313 B( 15-C , 34-H ) :   0.9375 B( 15-C , 35-H ) :   0.9429
B( 16-O , 17-C ) :   0.8852 B( 17-C , 18-C ) :   1.1702 B( 17-C , 36-H ) :   0.9053
B( 17-C , 37-H ) :   0.9141 B( 18-C , 38-H ) :   0.9467 B( 18-C , 39-H ) :   0.9402
B( 18-C , 40-H ) :   0.9456

Dispersion correction           -0.067989494
FINAL SINGLE POINT ENERGY     -2929.514729940797

DIPOLE MOMENT
-------------

Method             : SCF
Type of density    : Electron Density
Multiplicity       :   1
Irrep              :   0
Energy             : -2929.6341919313472317 Eh
Relativity type    :
Basis              : AO
                                X                 Y                 Z
Electronic contribution:     -1.801310733      -2.152053215      -4.926798858
Nuclear contribution   :      1.742972822       1.929112346       4.705616698
                        -----------------------------------------
Total Dipole Moment    :     -0.058337910      -0.222940868      -0.221182160
                        -----------------------------------------
Magnitude (a.u.)       :      0.319417424
Magnitude (Debye)      :      0.811894569

Rotational constants in cm-1:             0.012454             0.005366             0.005292
Rotational constants in MHz :           373.357066           160.875016           158.652960

                             ****ORCA TERMINATED NORMALLY****
TOTAL RUN TIME: 0 days 0 hours 0 minutes 22 seconds 8 msec
