                         Program Version 6.0.0  -   RELEASE  -
|  1> ! pbe def2-sv(p) def2/J RI DEFGRID1 loosescf d4 GCP(DFT/SV(P)) printgap
|  2> %output
|  3>     printlevel normal
|  4> end
|  5> * xyz 0 1
|  6> C 3.3705842257 -1.3943458169 -2.9099072713
|  7> C 4.144875055 -1.038820094 -1.6586151288
|  8> O 3.5742896508 0.0751719615 -0.9448480906
|  9> P 2.0580356848 0.1871508795 -0.4806916867
| 10> S 0.7708617111 0.7718189786 -1.8361755995
| 11> O 2.1468071117 1.286825197 0.6435904588
| 12> C 3.1089309691 1.3221971425 1.7270424604
| 13> C 2.5374297432 0.7083507851 2.9904118526
| 14> S 1.7464328577 -1.7087500603 0.4302577709
| 15> C 0.1014647234 -1.4668444358 1.1490923579
| 16> S -1.2508223912 -1.4502659336 -0.0657021497
| 17> P -2.0361330763 0.5052963132 0.2566123924
| 18> S -1.0354710002 1.6144631024 1.5214035762
| 19> O -3.5583081231 0.2545961355 0.6736411525
| 20> C -3.9827262801 0.039614303 2.029800762
| 21> C -3.4562917098 -1.2578350846 2.6090853759
| 22> O -2.2290379646 1.2060696724 -1.138401804
| 23> C -3.2271258365 0.8700612939 -2.1310659133
| 24> C -3.0502518038 -0.530662625 -2.6762625781
| 25> H 2.3692368359 -1.7339399618 -2.6479949948
| 26> H 3.2774206099 -0.5260339058 -3.5581529689
| 27> H 3.8869684523 -2.187955987 -3.4400754473
| 28> H 5.1542682416 -0.6984119547 -1.8966784361
| 29> H 4.1896402583 -1.8919861381 -0.9761165097
| 30> H 4.0219898993 0.8168135362 1.407296239
| 31> H 3.3037553939 2.3872810269 1.8627363653
| 32> H 3.1999978119 0.9322247656 3.8203422639
| 33> H 1.557361734 1.1358649124 3.193373244
| 34> H 2.4463345476 -0.3706391479 2.8930374386
| 35> H 0.0780417158 -0.52204183 1.7004521047
| 36> H -0.0473823638 -2.3212379682 1.8044333001
| 37> H -3.6519269109 0.8915106692 2.6321737796
| 38> H -5.0715486727 0.035753239 1.9594047735
| 39> H -3.9324902692 -1.4369184768 3.567701111
| 40> H -3.6692044718 -2.0869269782 1.9392391855
| 41> H -2.3804187959 -1.1873349322 2.7588499753
| 42> H -4.2135619287 0.9993642786 -1.6804641579
| 43> H -3.0639536524 1.6228759798 -2.9039455898
| 44> H -3.2585611162 -1.2693097844 -1.90348467
| 45> H -3.7365546313 -0.6798555711 -3.503840524
| 46> H -2.0290517902 -0.6650361019 -3.0269563413
| 47> *
| 48>
| 49>                          ****END OF INPUT****

CARTESIAN COORDINATES (ANGSTROEM)
---------------------------------
  C      3.370584   -1.394346   -2.909907
  C      4.144875   -1.038820   -1.658615
  O      3.574290    0.075172   -0.944848
  P      2.058036    0.187151   -0.480692
  S      0.770862    0.771819   -1.836176
  O      2.146807    1.286825    0.643590
  C      3.108931    1.322197    1.727042
  C      2.537430    0.708351    2.990412
  S      1.746433   -1.708750    0.430258
  C      0.101465   -1.466844    1.149092
  S     -1.250822   -1.450266   -0.065702
  P     -2.036133    0.505296    0.256612
  S     -1.035471    1.614463    1.521404
  O     -3.558308    0.254596    0.673641
  C     -3.982726    0.039614    2.029801
  C     -3.456292   -1.257835    2.609085
  O     -2.229038    1.206070   -1.138402
  C     -3.227126    0.870061   -2.131066
  C     -3.050252   -0.530663   -2.676263
  H      2.369237   -1.733940   -2.647995
  H      3.277421   -0.526034   -3.558153
  H      3.886968   -2.187956   -3.440075
  H      5.154268   -0.698412   -1.896678
  H      4.189640   -1.891986   -0.976117
  H      4.021990    0.816814    1.407296
  H      3.303755    2.387281    1.862736
  H      3.199998    0.932225    3.820342
  H      1.557362    1.135865    3.193373
  H      2.446335   -0.370639    2.893037
  H      0.078042   -0.522042    1.700452
  H     -0.047382   -2.321238    1.804433
  H     -3.651927    0.891511    2.632174
  H     -5.071549    0.035753    1.959405
  H     -3.932490   -1.436918    3.567701
  H     -3.669204   -2.086927    1.939239
  H     -2.380419   -1.187335    2.758850
  H     -4.213562    0.999364   -1.680464
  H     -3.063954    1.622876   -2.903946
  H     -3.258561   -1.269310   -1.903485
  H     -3.736555   -0.679856   -3.503841
  H     -2.029052   -0.665036   -3.026956

 Total Charge           Charge          ....    0
 Multiplicity           Mult            ....    1
 Number of Electrons    NEL             ....  202
 Basis Dimension        Dim             ....  334

ORBITAL ENERGIES
----------------

  NO   OCC          E(Eh)            E(eV)
   0   2.0000     -88.041714     -2395.7368
   1   2.0000     -88.036463     -2395.5939
   2   2.0000     -87.980347     -2394.0669
   3   2.0000     -87.969457     -2393.7706
   4   2.0000     -76.421209     -2079.5268
   5   2.0000     -76.417527     -2079.4266
   6   2.0000     -18.786693      -511.2119
   7   2.0000     -18.784215      -511.1445
   8   2.0000     -18.782893      -511.1085
   9   2.0000     -18.779760      -511.0233
  10   2.0000      -9.956347      -270.9260
  11   2.0000      -9.954387      -270.8726
  12   2.0000      -9.951169      -270.7851
  13   2.0000      -9.950599      -270.7696
  14   2.0000      -9.948934      -270.7242
  15   2.0000      -9.884967      -268.9836
  16   2.0000      -9.883534      -268.9446
  17   2.0000      -9.880588      -268.8645
  18   2.0000      -9.879750      -268.8417
  19   2.0000      -7.686649      -209.1644
  20   2.0000      -7.681014      -209.0110
  21   2.0000      -7.625487      -207.5001
  22   2.0000      -7.614479      -207.2005
  23   2.0000      -6.418271      -174.6500
  24   2.0000      -6.414664      -174.5519
  25   2.0000      -5.714231      -155.4921
  26   2.0000      -5.711114      -155.4073
  27   2.0000      -5.708991      -155.3495
  28   2.0000      -5.705628      -155.2580
  29   2.0000      -5.703979      -155.2132
  30   2.0000      -5.697859      -155.0466
  31   2.0000      -5.654370      -153.8632
  32   2.0000      -5.646104      -153.6383
  33   2.0000      -5.645592      -153.6244
  34   2.0000      -5.643659      -153.5718
  35   2.0000      -5.634969      -153.3353
  36   2.0000      -5.634513      -153.3229
  37   2.0000      -4.641166      -126.2925
  38   2.0000      -4.639708      -126.2529
  39   2.0000      -4.638828      -126.2289
  40   2.0000      -4.637656      -126.1970
  41   2.0000      -4.636796      -126.1736
  42   2.0000      -4.634446      -126.1097
  43   2.0000      -0.981017       -26.6948
  44   2.0000      -0.980362       -26.6770
  45   2.0000      -0.936516       -25.4839
  46   2.0000      -0.936069       -25.4717
  47   2.0000      -0.757997       -20.6262
  48   2.0000      -0.715323       -19.4649
  49   2.0000      -0.708088       -19.2680
  50   2.0000      -0.687371       -18.7043
  51   2.0000      -0.685857       -18.6631
  52   2.0000      -0.676296       -18.4030
  53   2.0000      -0.646254       -17.5855
  54   2.0000      -0.629452       -17.1283
  55   2.0000      -0.594142       -16.1674
  56   2.0000      -0.581262       -15.8169
  57   2.0000      -0.576163       -15.6782
  58   2.0000      -0.571091       -15.5402
  59   2.0000      -0.561479       -15.2786
  60   2.0000      -0.497217       -13.5299
  61   2.0000      -0.491257       -13.3678
  62   2.0000      -0.466078       -12.6826
  63   2.0000      -0.464266       -12.6333
  64   2.0000      -0.450484       -12.2583
  65   2.0000      -0.445648       -12.1267
  66   2.0000      -0.442654       -12.0452
  67   2.0000      -0.433060       -11.7842
  68   2.0000      -0.428297       -11.6545
  69   2.0000      -0.422974       -11.5097
  70   2.0000      -0.408764       -11.1230
  71   2.0000      -0.396686       -10.7944
  72   2.0000      -0.395501       -10.7621
  73   2.0000      -0.383357       -10.4317
  74   2.0000      -0.379986       -10.3399
  75   2.0000      -0.366637        -9.9767
  76   2.0000      -0.353141        -9.6094
  77   2.0000      -0.351463        -9.5638
  78   2.0000      -0.349927        -9.5220
  79   2.0000      -0.348390        -9.4802
  80   2.0000      -0.342334        -9.3154
  81   2.0000      -0.340280        -9.2595
  82   2.0000      -0.338745        -9.2177
  83   2.0000      -0.336428        -9.1547
  84   2.0000      -0.333593        -9.0775
  85   2.0000      -0.314425        -8.5560
  86   2.0000      -0.307480        -8.3670
  87   2.0000      -0.293069        -7.9748
  88   2.0000      -0.291140        -7.9223
  89   2.0000      -0.289256        -7.8710
  90   2.0000      -0.284989        -7.7550
  91   2.0000      -0.269222        -7.3259
  92   2.0000      -0.267433        -7.2772
  93   2.0000      -0.258011        -7.0208
  94   2.0000      -0.252049        -6.8586
  95   2.0000      -0.234989        -6.3944
  96   2.0000      -0.215662        -5.8685
  97   2.0000      -0.199223        -5.4211
  98   2.0000      -0.197409        -5.3718
  99   2.0000      -0.180685        -4.9167
 100   2.0000      -0.178811        -4.8657
 101   0.0000      -0.036463        -0.9922
 102   0.0000      -0.029762        -0.8099
 103   0.0000      -0.012108        -0.3295
 104   0.0000       0.003619         0.0985
 105   0.0000       0.017813         0.4847

MULLIKEN ATOMIC CHARGES
-----------------------
   0 C :   -0.308511
   1 C :   -0.014507
   2 O :   -0.382280
   3 P :    0.597540
   4 S :   -0.294396
   5 O :   -0.344263
   6 C :   -0.002783
   7 C :   -0.313775
   8 S :   -0.131576
   9 C :   -0.358853
  10 S :   -0.097900
  11 P :    0.623927
  12 S :   -0.304507
  13 O :   -0.390768
  14 C :    0.007381
  15 C :   -0.319994
  16 O :   -0.347719
  17 C :    0.007088
  18 C :   -0.336347
  19 H :    0.127824
  20 H :    0.127851
  21 H :    0.108663
  22 H :    0.109278
  23 H :    0.113115
  24 H :    0.099781
  25 H :    0.110792
  26 H :    0.108110
  27 H :    0.138867
  28 H :    0.116868
  29 H :    0.206787
  30 H :    0.181121
  31 H :    0.108948
  32 H :    0.101597
  33 H :    0.111021
  34 H :    0.118739
  35 H :    0.121321
  36 H :    0.107841
  37 H :    0.112351
  38 H :    0.124868
  39 H :    0.114200
  40 H :    0.142300
Sum of atomic charges:   -0.0000000

LOEWDIN ATOMIC CHARGES
----------------------
   0 C :   -0.370821
   1 C :   -0.115501
   2 O :   -0.247821
   3 P :    0.558535
   4 S :   -0.301668
   5 O :   -0.226708
   6 C :   -0.109694
   7 C :   -0.368850
   8 S :    0.058372
   9 C :   -0.486013
  10 S :    0.081306
  11 P :    0.577659
  12 S :   -0.292060
  13 O :   -0.257067
  14 C :   -0.116057
  15 C :   -0.370513
  16 O :   -0.223553
  17 C :   -0.106986
  18 C :   -0.371949
  19 H :    0.121989
  20 H :    0.130938
  21 H :    0.128712
  22 H :    0.121256
  23 H :    0.106513
  24 H :    0.108027
  25 H :    0.123082
  26 H :    0.128762
  27 H :    0.129786
  28 H :    0.116149
  29 H :    0.120688
  30 H :    0.135230
  31 H :    0.110537
  32 H :    0.117253
  33 H :    0.129722
  34 H :    0.123966
  35 H :    0.118868
  36 H :    0.112876
  37 H :    0.124301
  38 H :    0.115490
  39 H :    0.131932
  40 H :    0.133313

  Mayer bond orders larger than 0.100000
B(  0-C ,  1-C ) :   1.1671 B(  0-C , 19-H ) :   0.9312 B(  0-C , 20-H ) :   0.9419
B(  0-C , 21-H ) :   0.9343 B(  1-C ,  2-O ) :   0.9163 B(  1-C , 22-H ) :   0.9336
B(  1-C , 23-H ) :   0.9254 B(  2-O ,  3-P ) :   1.0752 B(  3-P ,  4-S ) :   1.6790
B(  3-P ,  5-O ) :   1.1380 B(  3-P ,  8-S ) :   0.9336 B(  4-S ,  8-S ) :   0.1151
B(  5-O ,  6-C ) :   0.9012 B(  6-C ,  7-C ) :   1.1713 B(  6-C , 24-H ) :   0.9194
B(  6-C , 25-H ) :   0.9351 B(  7-C , 26-H ) :   0.9380 B(  7-C , 27-H ) :   0.9335
B(  7-C , 28-H ) :   0.9324 B(  8-S ,  9-C ) :   0.9903 B(  9-C , 10-S ) :   1.0130
B(  9-C , 29-H ) :   0.8332 B(  9-C , 30-H ) :   0.9077 B( 10-S , 11-P ) :   0.9403
B( 10-S , 12-S ) :   0.1167 B( 11-P , 12-S ) :   1.6157 B( 11-P , 13-O ) :   1.0527
B( 11-P , 16-O ) :   1.1485 B( 12-S , 29-H ) :   0.1189 B( 13-O , 14-C ) :   0.9212
B( 14-C , 15-C ) :   1.1645 B( 14-C , 31-H ) :   0.9168 B( 14-C , 32-H ) :   0.9348
B( 15-C , 33-H ) :   0.9367 B( 15-C , 34-H ) :   0.9416 B( 15-C , 35-H ) :   0.9374
B( 16-O , 17-C ) :   0.9013 B( 17-C , 18-C ) :   1.1702 B( 17-C , 36-H ) :   0.9261
B( 17-C , 37-H ) :   0.9325 B( 18-C , 38-H ) :   0.9324 B( 18-C , 39-H ) :   0.9355
B( 18-C , 40-H ) :   0.9382

Dispersion correction           -0.068739155
FINAL SINGLE POINT ENERGY     -2929.505903363801

DIPOLE MOMENT
-------------

Method             : SCF
Type of density    : Electron Density
Multiplicity       :   1
Irrep              :   0
Energy             : -2929.6228707074460544 Eh
Relativity type    :
Basis              : AO
                                X                 Y                 Z
Electronic contribution:      1.498348067       7.553414392      -3.427987642
Nuclear contribution   :     -1.499829208      -8.769108869       3.941365060
                        -----------------------------------------
Total Dipole Moment    :     -0.001481141      -1.215694477       0.513377418
                        -----------------------------------------
Magnitude (a.u.)       :      1.319648297
Magnitude (Debye)      :      3.354279402

Rotational constants in cm-1:             0.011969             0.005824             0.005014
Rotational constants in MHz :           358.834334           174.595470           150.330160

                             ****ORCA TERMINATED NORMALLY****
TOTAL RUN TIME: 0 days 0 hours 0 minutes 21 seconds 708 msec
