                         Program Version 6.0.0  -   RELEASE  -
|  1> ! pbe def2-sv(p) def2/J RI DEFGRID1 loosescf d4 GCP(DFT/SV(P)) printgap
|  2> %output
|  3>     printlevel normal
|  4> end
|  5> * xyz 0 1
|  6> C 4.3795598106 1.0779151388 -2.1013502934
|  7> C 4.6206894206 0.2848590806 -0.8344506486
|  8> O 3.6031084935 0.4978502547 0.1623107392
|  9> P 2.0387724231 0.3147358896 -0.0572598642
| 10> S 1.0784946245 1.7529429349 -0.9720716568
| 11> O 1.540617438 0.1792385023 1.4311974448
| 12> C 2.1049106909 -0.7770638656 2.3679528749
| 13> C 1.0608678686 -1.0715862596 3.4245800163
| 14> S 1.9314205612 -1.6152421435 -0.9492087035
| 15> C 0.1646521065 -1.6402198523 -1.3134062231
| 16> S -0.8618237608 -1.7639043769 0.187721459
| 17> P -1.9810119316 0.013023862 0.037180142
| 18> S -2.2710547011 0.6567190873 -1.7986190963
| 19> O -1.2125885754 0.8995912384 1.0984635921
| 20> C -1.7420046932 2.070621717 1.751866634
| 21> C -2.1908698879 3.1324231347 0.7701712166
| 22> O -3.3285201297 -0.2891346569 0.8290151964
| 23> C -4.4999883031 -0.8201958061 0.1869387584
| 24> C -4.3221192841 -2.2712997317 -0.2099366031
| 25> H 5.2151598669 0.9377603945 -2.7793659765
| 26> H 3.466095053 0.7401807401 -2.5890690253
| 27> H 4.2726621245 2.135900351 -1.8732686726
| 28> H 5.5373912699 0.6017289363 -0.3339910953
| 29> H 4.6645500245 -0.7859746137 -1.0508777198
| 30> H 2.383715147 -1.6829327854 1.8211458474
| 31> H 2.9993809888 -0.3226055309 2.797665552
| 32> H 0.7710741804 -0.1543970299 3.9292859619
| 33> H 0.1786397968 -1.5130804273 2.9675302498
| 34> H 1.4752838826 -1.7665118844 4.1477362587
| 35> H -0.003161614 -2.5298551812 -1.9149440551
| 36> H -0.120750295 -0.7350593692 -1.8579061796
| 37> H -2.5658276737 1.7557954673 2.3969760154
| 38> H -0.9025074158 2.420161515 2.3560606429
| 39> H -3.041471968 2.7759726921 0.1901076467
| 40> H -2.4782423044 4.0290072834 1.3101348715
| 41> H -1.381399537 3.3698669318 0.0813705396
| 42> H -5.2855925583 -0.6987622586 0.9339585513
| 43> H -4.720337326 -0.2061197373 -0.6922772965
| 44> H -3.5843944747 -2.3499462988 -1.0069223727
| 45> H -3.9847383734 -2.8575889322 0.6408526665
| 46> H -5.2688559448 -2.6630088803 -0.5675278145
| 47> *
| 48>
| 49>                          ****END OF INPUT****

CARTESIAN COORDINATES (ANGSTROEM)
---------------------------------
  C      4.379560    1.077915   -2.101350
  C      4.620689    0.284859   -0.834451
  O      3.603108    0.497850    0.162311
  P      2.038772    0.314736   -0.057260
  S      1.078495    1.752943   -0.972072
  O      1.540617    0.179239    1.431197
  C      2.104911   -0.777064    2.367953
  C      1.060868   -1.071586    3.424580
  S      1.931421   -1.615242   -0.949209
  C      0.164652   -1.640220   -1.313406
  S     -0.861824   -1.763904    0.187721
  P     -1.981012    0.013024    0.037180
  S     -2.271055    0.656719   -1.798619
  O     -1.212589    0.899591    1.098464
  C     -1.742005    2.070622    1.751867
  C     -2.190870    3.132423    0.770171
  O     -3.328520   -0.289135    0.829015
  C     -4.499988   -0.820196    0.186939
  C     -4.322119   -2.271300   -0.209937
  H      5.215160    0.937760   -2.779366
  H      3.466095    0.740181   -2.589069
  H      4.272662    2.135900   -1.873269
  H      5.537391    0.601729   -0.333991
  H      4.664550   -0.785975   -1.050878
  H      2.383715   -1.682933    1.821146
  H      2.999381   -0.322606    2.797666
  H      0.771074   -0.154397    3.929286
  H      0.178640   -1.513080    2.967530
  H      1.475284   -1.766512    4.147736
  H     -0.003162   -2.529855   -1.914944
  H     -0.120750   -0.735059   -1.857906
  H     -2.565828    1.755795    2.396976
  H     -0.902507    2.420162    2.356061
  H     -3.041472    2.775973    0.190108
  H     -2.478242    4.029007    1.310135
  H     -1.381400    3.369867    0.081371
  H     -5.285593   -0.698762    0.933959
  H     -4.720337   -0.206120   -0.692277
  H     -3.584394   -2.349946   -1.006922
  H     -3.984738   -2.857589    0.640853
  H     -5.268856   -2.663009   -0.567528

 Total Charge           Charge          ....    0
 Multiplicity           Mult            ....    1
 Number of Electrons    NEL             ....  202
 Basis Dimension        Dim             ....  334

ORBITAL ENERGIES
----------------

  NO   OCC          E(Eh)            E(eV)
   0   2.0000     -88.044151     -2395.8031
   1   2.0000     -88.040345     -2395.6996
   2   2.0000     -87.980538     -2394.0722
   3   2.0000     -87.975259     -2393.9285
   4   2.0000     -76.421960     -2079.5472
   5   2.0000     -76.420772     -2079.5149
   6   2.0000     -18.791618      -511.3459
   7   2.0000     -18.791097      -511.3317
   8   2.0000     -18.783950      -511.1373
   9   2.0000     -18.778275      -510.9829
  10   2.0000      -9.957300      -270.9519
  11   2.0000      -9.954224      -270.8682
  12   2.0000      -9.949257      -270.7330
  13   2.0000      -9.949247      -270.7328
  14   2.0000      -9.945177      -270.6220
  15   2.0000      -9.881823      -268.8981
  16   2.0000      -9.881746      -268.8960
  17   2.0000      -9.880698      -268.8675
  18   2.0000      -9.871837      -268.6263
  19   2.0000      -7.689163      -209.2328
  20   2.0000      -7.685401      -209.1304
  21   2.0000      -7.625447      -207.4990
  22   2.0000      -7.620339      -207.3600
  23   2.0000      -6.419107      -174.6728
  24   2.0000      -6.417958      -174.6415
  25   2.0000      -5.716894      -155.5646
  26   2.0000      -5.713406      -155.4697
  27   2.0000      -5.713276      -155.4661
  28   2.0000      -5.709927      -155.3750
  29   2.0000      -5.706569      -155.2836
  30   2.0000      -5.702279      -155.1669
  31   2.0000      -5.654334      -153.8623
  32   2.0000      -5.649433      -153.7289
  33   2.0000      -5.646232      -153.6418
  34   2.0000      -5.645483      -153.6214
  35   2.0000      -5.640880      -153.4961
  36   2.0000      -5.640360      -153.4820
  37   2.0000      -4.641906      -126.3127
  38   2.0000      -4.640760      -126.2815
  39   2.0000      -4.640621      -126.2777
  40   2.0000      -4.640114      -126.2639
  41   2.0000      -4.639657      -126.2515
  42   2.0000      -4.637886      -126.2033
  43   2.0000      -0.984101       -26.7787
  44   2.0000      -0.982016       -26.7220
  45   2.0000      -0.939556       -25.5666
  46   2.0000      -0.936669       -25.4880
  47   2.0000      -0.761890       -20.7321
  48   2.0000      -0.717894       -19.5349
  49   2.0000      -0.706898       -19.2357
  50   2.0000      -0.686991       -18.6940
  51   2.0000      -0.683644       -18.6029
  52   2.0000      -0.671724       -18.2785
  53   2.0000      -0.647513       -17.6197
  54   2.0000      -0.631037       -17.1714
  55   2.0000      -0.593983       -16.1631
  56   2.0000      -0.584188       -15.8966
  57   2.0000      -0.571280       -15.5453
  58   2.0000      -0.566578       -15.4174
  59   2.0000      -0.562084       -15.2951
  60   2.0000      -0.503155       -13.6915
  61   2.0000      -0.490518       -13.3477
  62   2.0000      -0.471203       -12.8221
  63   2.0000      -0.464313       -12.6346
  64   2.0000      -0.451283       -12.2800
  65   2.0000      -0.449021       -12.2185
  66   2.0000      -0.431450       -11.7404
  67   2.0000      -0.430650       -11.7186
  68   2.0000      -0.425543       -11.5796
  69   2.0000      -0.413167       -11.2429
  70   2.0000      -0.411931       -11.2092
  71   2.0000      -0.403626       -10.9832
  72   2.0000      -0.394810       -10.7433
  73   2.0000      -0.384581       -10.4650
  74   2.0000      -0.380913       -10.3652
  75   2.0000      -0.366531        -9.9738
  76   2.0000      -0.355030        -9.6609
  77   2.0000      -0.350476        -9.5369
  78   2.0000      -0.346916        -9.4401
  79   2.0000      -0.345317        -9.3966
  80   2.0000      -0.341406        -9.2901
  81   2.0000      -0.338627        -9.2145
  82   2.0000      -0.335030        -9.1166
  83   2.0000      -0.334326        -9.0975
  84   2.0000      -0.327472        -8.9110
  85   2.0000      -0.316684        -8.6174
  86   2.0000      -0.310268        -8.4428
  87   2.0000      -0.294192        -8.0054
  88   2.0000      -0.293024        -7.9736
  89   2.0000      -0.292132        -7.9493
  90   2.0000      -0.275394        -7.4938
  91   2.0000      -0.271249        -7.3811
  92   2.0000      -0.269141        -7.3237
  93   2.0000      -0.259738        -7.0678
  94   2.0000      -0.254753        -6.9322
  95   2.0000      -0.236827        -6.4444
  96   2.0000      -0.219821        -5.9816
  97   2.0000      -0.210341        -5.7237
  98   2.0000      -0.195923        -5.3313
  99   2.0000      -0.188027        -5.1165
 100   2.0000      -0.180381        -4.9084
 101   0.0000      -0.038931        -1.0594
 102   0.0000      -0.030085        -0.8186
 103   0.0000      -0.011029        -0.3001
 104   0.0000       0.014216         0.3868
 105   0.0000       0.018634         0.5071

MULLIKEN ATOMIC CHARGES
-----------------------
   0 C :   -0.307673
   1 C :   -0.012512
   2 O :   -0.383836
   3 P :    0.587474
   4 S :   -0.286177
   5 O :   -0.344841
   6 C :   -0.009104
   7 C :   -0.280403
   8 S :   -0.122194
   9 C :   -0.349215
  10 S :   -0.096889
  11 P :    0.626662
  12 S :   -0.313113
  13 O :   -0.349430
  14 C :    0.009127
  15 C :   -0.323250
  16 O :   -0.382746
  17 C :   -0.003639
  18 C :   -0.308653
  19 H :    0.109538
  20 H :    0.127555
  21 H :    0.126729
  22 H :    0.108149
  23 H :    0.112038
  24 H :    0.096404
  25 H :    0.104319
  26 H :    0.115037
  27 H :    0.124907
  28 H :    0.104366
  29 H :    0.181046
  30 H :    0.210151
  31 H :    0.100885
  32 H :    0.105637
  33 H :    0.121240
  34 H :    0.104877
  35 H :    0.138755
  36 H :    0.101435
  37 H :    0.110178
  38 H :    0.121159
  39 H :    0.114768
  40 H :    0.111238
Sum of atomic charges:    0.0000000

LOEWDIN ATOMIC CHARGES
----------------------
   0 C :   -0.369373
   1 C :   -0.114906
   2 O :   -0.250160
   3 P :    0.559881
   4 S :   -0.290673
   5 O :   -0.229256
   6 C :   -0.117226
   7 C :   -0.352714
   8 S :    0.062584
   9 C :   -0.479322
  10 S :    0.087480
  11 P :    0.573114
  12 S :   -0.302839
  13 O :   -0.228654
  14 C :   -0.108170
  15 C :   -0.370082
  16 O :   -0.248027
  17 C :   -0.121704
  18 C :   -0.368265
  19 H :    0.129132
  20 H :    0.122263
  21 H :    0.130603
  22 H :    0.120736
  23 H :    0.107039
  24 H :    0.100547
  25 H :    0.113557
  26 H :    0.126338
  27 H :    0.122341
  28 H :    0.127156
  29 H :    0.136488
  30 H :    0.126875
  31 H :    0.109068
  32 H :    0.120260
  33 H :    0.118800
  34 H :    0.126670
  35 H :    0.131404
  36 H :    0.116495
  37 H :    0.109076
  38 H :    0.119947
  39 H :    0.123487
  40 H :    0.130027

  Mayer bond orders larger than 0.100000
B(  0-C ,  1-C ) :   1.1663 B(  0-C , 19-H ) :   0.9347 B(  0-C , 20-H ) :   0.9320
B(  0-C , 21-H ) :   0.9430 B(  1-C ,  2-O ) :   0.9176 B(  1-C , 22-H ) :   0.9337
B(  1-C , 23-H ) :   0.9266 B(  2-O ,  3-P ) :   1.0759 B(  3-P ,  4-S ) :   1.6718
B(  3-P ,  5-O ) :   1.1386 B(  3-P ,  8-S ) :   0.9313 B(  4-S ,  8-S ) :   0.1063
B(  5-O ,  6-C ) :   0.8904 B(  6-C ,  7-C ) :   1.1648 B(  6-C , 24-H ) :   0.9094
B(  6-C , 25-H ) :   0.9322 B(  7-C , 26-H ) :   0.9494 B(  7-C , 27-H ) :   0.9428
B(  7-C , 28-H ) :   0.9409 B(  8-S ,  9-C ) :   1.0028 B(  9-C , 10-S ) :   0.9972
B(  9-C , 29-H ) :   0.9115 B(  9-C , 30-H ) :   0.8437 B( 10-S , 11-P ) :   0.9549
B( 10-S , 12-S ) :   0.1188 B( 11-P , 12-S ) :   1.5994 B( 11-P , 13-O ) :   1.1463
B( 11-P , 16-O ) :   1.0829 B( 13-O , 14-C ) :   0.9072 B( 14-C , 15-C ) :   1.1675
B( 14-C , 31-H ) :   0.9323 B( 14-C , 32-H ) :   0.9313 B( 15-C , 33-H ) :   0.9361
B( 15-C , 34-H ) :   0.9359 B( 15-C , 35-H ) :   0.9391 B( 16-O , 17-C ) :   0.9114
B( 17-C , 18-C ) :   1.1673 B( 17-C , 36-H ) :   0.9332 B( 17-C , 37-H ) :   0.9114
B( 18-C , 38-H ) :   0.9365 B( 18-C , 39-H ) :   0.9455 B( 18-C , 40-H ) :   0.9385

Dispersion correction           -0.068563581
FINAL SINGLE POINT ENERGY     -2929.515102183993

DIPOLE MOMENT
-------------

Method             : SCF
Type of density    : Electron Density
Multiplicity       :   1
Irrep              :   0
Energy             : -2929.6323166311549357 Eh
Relativity type    :
Basis              : AO
                                X                 Y                 Z
Electronic contribution:      2.614129297      -1.101028324      -7.518453799
Nuclear contribution   :     -2.265713513       0.223862054       8.528325588
                        -----------------------------------------
Total Dipole Moment    :      0.348415783      -0.877166270       1.009871789
                        -----------------------------------------
Magnitude (a.u.)       :      1.382264538
Magnitude (Debye)      :      3.513437238

Rotational constants in cm-1:             0.012427             0.005481             0.005349
Rotational constants in MHz :           372.540223           164.319965           160.370962

                             ****ORCA TERMINATED NORMALLY****
TOTAL RUN TIME: 0 days 0 hours 0 minutes 21 seconds 800 msec
