                         Program Version 6.0.0  -   RELEASE  -
|  1> ! pbe def2-sv(p) def2/J RI DEFGRID1 loosescf d4 GCP(DFT/SV(P)) printgap
|  2> %output
|  3>     printlevel normal
|  4> end
|  5> * xyz 0 1
|  6> C 4.0719335912 -1.5824688582 -2.3445149513
|  7> C 4.1843242272 -0.1641833463 -1.8249593297
|  8> O 3.5699852711 -0.0089591195 -0.5334231317
|  9> P 1.9993684305 -0.128178884 -0.3190864265
| 10> S 0.9515101145 0.6880693811 -1.7687922545
| 11> O 1.8130184433 0.4633615002 1.136838935
| 12> C 2.0501009611 1.8526720981 1.4520859581
| 13> C 3.4556794468 2.0532713233 1.977748003
| 14> S 1.6424002234 -2.1557472114 0.0908098881
| 15> C -0.1223384277 -2.2191650153 -0.3177292353
| 16> S -1.204227078 -1.6570645293 1.0378647776
| 17> P -2.0660044757 0.1399015825 0.3030160034
| 18> S -1.2729466603 1.8506077597 0.8614501267
| 19> O -3.5922300471 0.0292236898 0.7465181921
| 20> C -4.051884662 0.5306868031 2.0098948064
| 21> C -3.5533034342 -0.3215301401 3.1585568585
| 22> O -2.1618245739 -0.2329781575 -1.2315000935
| 23> C -3.0699849396 0.3908797912 -2.1666367027
| 24> C -2.6908761086 1.8268038467 -2.4616866347
| 25> H 4.4337592926 -2.2871775044 -1.6002349187
| 26> H 3.0322153481 -1.814237972 -2.571012659
| 27> H 4.6600064171 -1.6790061818 -3.2514982028
| 28> H 3.711247452 0.5387744724 -2.5182749855
| 29> H 5.2232349097 0.1221894228 -1.656039906
| 30> H 1.8583972464 2.4576886738 0.5596805265
| 31> H 1.2981344669 2.0972030662 2.2053647583
| 32> H 3.5750693808 3.0905199923 2.2745696625
| 33> H 3.6211645526 1.4101117876 2.8374341109
| 34> H 4.1867034712 1.8109874399 1.2107378652
| 35> H -0.3559750956 -3.2658787917 -0.491208931
| 36> H -0.311597197 -1.6121694781 -1.2024293264
| 37> H -3.7071244319 1.5647925669 2.1186509977
| 38> H -5.1391077521 0.5061256874 1.9273149545
| 39> H -2.4648941481 -0.269652063 3.2068748148
| 40> H -3.9665654692 0.0477199522 4.0914473304
| 41> H -3.8437793348 -1.3588756122 3.015670832
| 42> H -2.9781296754 -0.2335470738 -3.0570084609
| 43> H -4.0818686642 0.3217460489 -1.7616658385
| 44> H -2.8162242781 2.4444034538 -1.5738995878
| 45> H -1.6484640686 1.8798887794 -2.7711140659
| 46> H -3.3226471557 2.2111379899 -3.2559313688
| 47> *
| 48>
| 49>                          ****END OF INPUT****

CARTESIAN COORDINATES (ANGSTROEM)
---------------------------------
  C      4.071934   -1.582469   -2.344515
  C      4.184324   -0.164183   -1.824959
  O      3.569985   -0.008959   -0.533423
  P      1.999368   -0.128179   -0.319086
  S      0.951510    0.688069   -1.768792
  O      1.813018    0.463362    1.136839
  C      2.050101    1.852672    1.452086
  C      3.455679    2.053271    1.977748
  S      1.642400   -2.155747    0.090810
  C     -0.122338   -2.219165   -0.317729
  S     -1.204227   -1.657065    1.037865
  P     -2.066004    0.139902    0.303016
  S     -1.272947    1.850608    0.861450
  O     -3.592230    0.029224    0.746518
  C     -4.051885    0.530687    2.009895
  C     -3.553303   -0.321530    3.158557
  O     -2.161825   -0.232978   -1.231500
  C     -3.069985    0.390880   -2.166637
  C     -2.690876    1.826804   -2.461687
  H      4.433759   -2.287178   -1.600235
  H      3.032215   -1.814238   -2.571013
  H      4.660006   -1.679006   -3.251498
  H      3.711247    0.538774   -2.518275
  H      5.223235    0.122189   -1.656040
  H      1.858397    2.457689    0.559681
  H      1.298134    2.097203    2.205365
  H      3.575069    3.090520    2.274570
  H      3.621165    1.410112    2.837434
  H      4.186703    1.810987    1.210738
  H     -0.355975   -3.265879   -0.491209
  H     -0.311597   -1.612169   -1.202429
  H     -3.707124    1.564793    2.118651
  H     -5.139108    0.506126    1.927315
  H     -2.464894   -0.269652    3.206875
  H     -3.966565    0.047720    4.091447
  H     -3.843779   -1.358876    3.015671
  H     -2.978130   -0.233547   -3.057008
  H     -4.081869    0.321746   -1.761666
  H     -2.816224    2.444403   -1.573900
  H     -1.648464    1.879889   -2.771114
  H     -3.322647    2.211138   -3.255931

 Total Charge           Charge          ....    0
 Multiplicity           Mult            ....    1
 Number of Electrons    NEL             ....  202
 Basis Dimension        Dim             ....  334

ORBITAL ENERGIES
----------------

  NO   OCC          E(Eh)            E(eV)
   0   2.0000     -88.040425     -2395.7018
   1   2.0000     -88.033611     -2395.5163
   2   2.0000     -87.982445     -2394.1240
   3   2.0000     -87.977047     -2393.9772
   4   2.0000     -76.422580     -2079.5641
   5   2.0000     -76.421442     -2079.5332
   6   2.0000     -18.791808      -511.3511
   7   2.0000     -18.788665      -511.2656
   8   2.0000     -18.787669      -511.2385
   9   2.0000     -18.780744      -511.0500
  10   2.0000      -9.954537      -270.8767
  11   2.0000      -9.952200      -270.8131
  12   2.0000      -9.950661      -270.7713
  13   2.0000      -9.948096      -270.7014
  14   2.0000      -9.939002      -270.4540
  15   2.0000      -9.883191      -268.9353
  16   2.0000      -9.882964      -268.9291
  17   2.0000      -9.875994      -268.7394
  18   2.0000      -9.875220      -268.7184
  19   2.0000      -7.686137      -209.1504
  20   2.0000      -7.679169      -208.9608
  21   2.0000      -7.627215      -207.5471
  22   2.0000      -7.621945      -207.4037
  23   2.0000      -6.419847      -174.6929
  24   2.0000      -6.419280      -174.6775
  25   2.0000      -5.714049      -155.4872
  26   2.0000      -5.710595      -155.3932
  27   2.0000      -5.707457      -155.3078
  28   2.0000      -5.703587      -155.2025
  29   2.0000      -5.702980      -155.1860
  30   2.0000      -5.695742      -154.9890
  31   2.0000      -5.655890      -153.9046
  32   2.0000      -5.650799      -153.7661
  33   2.0000      -5.648177      -153.6947
  34   2.0000      -5.647274      -153.6701
  35   2.0000      -5.642610      -153.5432
  36   2.0000      -5.642118      -153.5298
  37   2.0000      -4.642856      -126.3385
  38   2.0000      -4.641880      -126.3120
  39   2.0000      -4.641675      -126.3064
  40   2.0000      -4.640841      -126.2837
  41   2.0000      -4.639875      -126.2574
  42   2.0000      -4.639846      -126.2566
  43   2.0000      -0.984691       -26.7948
  44   2.0000      -0.982277       -26.7291
  45   2.0000      -0.941661       -25.6239
  46   2.0000      -0.938852       -25.5475
  47   2.0000      -0.758673       -20.6445
  48   2.0000      -0.717358       -19.5203
  49   2.0000      -0.703444       -19.1417
  50   2.0000      -0.685572       -18.6554
  51   2.0000      -0.683297       -18.5935
  52   2.0000      -0.668693       -18.1961
  53   2.0000      -0.649358       -17.6699
  54   2.0000      -0.630032       -17.1441
  55   2.0000      -0.598349       -16.2819
  56   2.0000      -0.586440       -15.9578
  57   2.0000      -0.574399       -15.6302
  58   2.0000      -0.567893       -15.4531
  59   2.0000      -0.554635       -15.0924
  60   2.0000      -0.494364       -13.4523
  61   2.0000      -0.491219       -13.3668
  62   2.0000      -0.469107       -12.7651
  63   2.0000      -0.466091       -12.6830
  64   2.0000      -0.456506       -12.4222
  65   2.0000      -0.447685       -12.1821
  66   2.0000      -0.433954       -11.8085
  67   2.0000      -0.428488       -11.6597
  68   2.0000      -0.420108       -11.4317
  69   2.0000      -0.413997       -11.2654
  70   2.0000      -0.408903       -11.1268
  71   2.0000      -0.404458       -11.0059
  72   2.0000      -0.386668       -10.5218
  73   2.0000      -0.382535       -10.4093
  74   2.0000      -0.378675       -10.3043
  75   2.0000      -0.372154       -10.1268
  76   2.0000      -0.362732        -9.8704
  77   2.0000      -0.352213        -9.5842
  78   2.0000      -0.350808        -9.5460
  79   2.0000      -0.347990        -9.4693
  80   2.0000      -0.342576        -9.3220
  81   2.0000      -0.340827        -9.2744
  82   2.0000      -0.335579        -9.1316
  83   2.0000      -0.332883        -9.0582
  84   2.0000      -0.328484        -8.9385
  85   2.0000      -0.309270        -8.4157
  86   2.0000      -0.304668        -8.2904
  87   2.0000      -0.293811        -7.9950
  88   2.0000      -0.292419        -7.9571
  89   2.0000      -0.289195        -7.8694
  90   2.0000      -0.276253        -7.5172
  91   2.0000      -0.271095        -7.3769
  92   2.0000      -0.269959        -7.3460
  93   2.0000      -0.258528        -7.0349
  94   2.0000      -0.256478        -6.9791
  95   2.0000      -0.233434        -6.3521
  96   2.0000      -0.216685        -5.8963
  97   2.0000      -0.208962        -5.6862
  98   2.0000      -0.202577        -5.5124
  99   2.0000      -0.187243        -5.0951
 100   2.0000      -0.180252        -4.9049
 101   0.0000      -0.038835        -1.0568
 102   0.0000      -0.030444        -0.8284
 103   0.0000      -0.021297        -0.5795
 104   0.0000       0.008869         0.2413
 105   0.0000       0.022450         0.6109

MULLIKEN ATOMIC CHARGES
-----------------------
   0 C :   -0.313738
   1 C :   -0.003870
   2 O :   -0.376912
   3 P :    0.617456
   4 S :   -0.327079
   5 O :   -0.355305
   6 C :   -0.012637
   7 C :   -0.278589
   8 S :   -0.077807
   9 C :   -0.364732
  10 S :   -0.100610
  11 P :    0.637315
  12 S :   -0.318062
  13 O :   -0.378423
  14 C :   -0.006068
  15 C :   -0.322258
  16 O :   -0.375316
  17 C :    0.000568
  18 C :   -0.315207
  19 H :    0.117939
  20 H :    0.122795
  21 H :    0.112406
  22 H :    0.110678
  23 H :    0.103710
  24 H :    0.103085
  25 H :    0.114753
  26 H :    0.106601
  27 H :    0.113134
  28 H :    0.115080
  29 H :    0.182607
  30 H :    0.213729
  31 H :    0.109466
  32 H :    0.101791
  33 H :    0.129408
  34 H :    0.114721
  35 H :    0.120803
  36 H :    0.104691
  37 H :    0.107715
  38 H :    0.126246
  39 H :    0.134897
  40 H :    0.105020
Sum of atomic charges:    0.0000000

LOEWDIN ATOMIC CHARGES
----------------------
   0 C :   -0.370094
   1 C :   -0.120794
   2 O :   -0.243996
   3 P :    0.569432
   4 S :   -0.311180
   5 O :   -0.233956
   6 C :   -0.120356
   7 C :   -0.360044
   8 S :    0.093127
   9 C :   -0.478173
  10 S :    0.070993
  11 P :    0.573155
  12 S :   -0.298857
  13 O :   -0.245708
  14 C :   -0.125439
  15 C :   -0.369182
  16 O :   -0.240220
  17 C :   -0.106417
  18 C :   -0.368009
  19 H :    0.124264
  20 H :    0.119668
  21 H :    0.130736
  22 H :    0.109996
  23 H :    0.117701
  24 H :    0.107964
  25 H :    0.116304
  26 H :    0.128011
  27 H :    0.125853
  28 H :    0.122603
  29 H :    0.138218
  30 H :    0.132093
  31 H :    0.107166
  32 H :    0.117013
  33 H :    0.120673
  34 H :    0.132084
  35 H :    0.125821
  36 H :    0.119410
  37 H :    0.112063
  38 H :    0.122038
  39 H :    0.129192
  40 H :    0.126850

  Mayer bond orders larger than 0.100000
B(  0-C ,  1-C ) :   1.1668 B(  0-C , 19-H ) :   0.9446 B(  0-C , 20-H ) :   0.9347
B(  0-C , 21-H ) :   0.9378 B(  1-C ,  2-O ) :   0.9085 B(  1-C , 22-H ) :   0.9134
B(  1-C , 23-H ) :   0.9329 B(  2-O ,  3-P ) :   1.0883 B(  3-P ,  4-S ) :   1.6110
B(  3-P ,  5-O ) :   1.1589 B(  3-P ,  8-S ) :   0.9598 B(  4-S ,  8-S ) :   0.1139
B(  5-O ,  6-C ) :   0.8898 B(  6-C ,  7-C ) :   1.1589 B(  6-C , 24-H ) :   0.9141
B(  6-C , 25-H ) :   0.9268 B(  7-C , 26-H ) :   0.9411 B(  7-C , 27-H ) :   0.9475
B(  7-C , 28-H ) :   0.9417 B(  8-S ,  9-C ) :   1.0085 B(  9-C , 10-S ) :   0.9964
B(  9-C , 29-H ) :   0.9109 B(  9-C , 30-H ) :   0.8578 B( 10-S , 11-P ) :   0.9570
B( 10-S , 12-S ) :   0.1081 B( 11-P , 12-S ) :   1.6315 B( 11-P , 13-O ) :   1.0713
B( 11-P , 16-O ) :   1.1106 B( 13-O , 14-C ) :   0.9155 B( 14-C , 15-C ) :   1.1634
B( 14-C , 31-H ) :   0.9074 B( 14-C , 32-H ) :   0.9309 B( 15-C , 33-H ) :   0.9305
B( 15-C , 34-H ) :   0.9389 B( 15-C , 35-H ) :   0.9445 B( 16-O , 17-C ) :   0.9016
B( 17-C , 18-C ) :   1.1675 B( 17-C , 36-H ) :   0.9357 B( 17-C , 37-H ) :   0.9277
B( 18-C , 38-H ) :   0.9336 B( 18-C , 39-H ) :   0.9403 B( 18-C , 40-H ) :   0.9364

Dispersion correction           -0.067153120
FINAL SINGLE POINT ENERGY     -2929.512615444306

DIPOLE MOMENT
-------------

Method             : SCF
Type of density    : Electron Density
Multiplicity       :   1
Irrep              :   0
Energy             : -2929.6311671776538788 Eh
Relativity type    :
Basis              : AO
                                X                 Y                 Z
Electronic contribution:     -1.130993656      -7.797609974       1.792637339
Nuclear contribution   :      0.954645518       7.519306517      -2.112975534
                        -----------------------------------------
Total Dipole Moment    :     -0.176348138      -0.278303457      -0.320338194
                        -----------------------------------------
Magnitude (a.u.)       :      0.459530237
Magnitude (Debye)      :      1.168033036

Rotational constants in cm-1:             0.012009             0.005330             0.005146
Rotational constants in MHz :           360.013506           159.790702           154.262512

                             ****ORCA TERMINATED NORMALLY****
TOTAL RUN TIME: 0 days 0 hours 0 minutes 21 seconds 150 msec
