                         Program Version 6.0.0  -   RELEASE  -
|  1> ! pbe def2-sv(p) def2/J RI DEFGRID1 loosescf d4 GCP(DFT/SV(P)) printgap
|  2> %output
|  3>     printlevel normal
|  4> end
|  5> * xyz 0 1
|  6> C 5.0408208024 -1.3300461331 0.1012684097
|  7> C 4.775114585 -0.2022365129 -0.8733315173
|  8> O 3.7001491121 0.6659946653 -0.441718456
|  9> P 2.1861402448 0.2408684746 -0.2595427346
| 10> S 1.0374445491 1.8257506092 -0.2800837933
| 11> O 2.0777142775 -0.6546433679 1.0606488998
| 12> C 1.6943879032 -0.1251820457 2.3389517131
| 13> C 2.7758277686 0.7662108411 2.9145214463
| 14> S 1.8791881642 -1.2303288093 -1.7347699769
| 15> C 0.0771645755 -1.155570504 -1.8121250755
| 16> S -0.7354998972 -1.6113433188 -0.2402565957
| 17> P -2.0663112119 0.0128473233 -0.0108841024
| 18> S -2.3615958295 1.1396771616 -1.5925901051
| 19> O -1.5473974286 0.6969891863 1.3172994873
| 20> C -1.8819007774 2.0600380799 1.6541561636
| 21> C -3.3655671691 2.2336807218 1.8946300733
| 22> O -3.3779832344 -0.7029941811 0.5323681157
| 23> C -4.2474058412 -1.4426141785 -0.3466311557
| 24> C -5.5503993976 -1.6886895881 0.386809199
| 25> H 5.2686528884 -0.9327787863 1.0868993355
| 26> H 4.1709626097 -1.9796058607 0.1719274608
| 27> H 5.8870312498 -1.9099604209 -0.2535948604
| 28> H 4.5228317422 -0.593794729 -1.8621152423
| 29> H 5.6269246096 0.4755983366 -0.9495213955
| 30> H 0.7562748865 0.4267765306 2.223575037
| 31> H 1.5235641128 -1.0118241963 2.9513594413
| 32> H 2.4621946156 1.137613333 3.8850163011
| 33> H 3.7038561485 0.2115464628 3.0237505475
| 34> H 2.9453958057 1.6113127678 2.246737363
| 35> H -0.2125422149 -1.8787392489 -2.5705867873
| 36> H -0.2459959824 -0.1474908967 -2.0876098327
| 37> H -1.2975163482 2.2566609012 2.5542144842
| 38> H -1.5305221584 2.7092770146 0.8451614591
| 39> H -3.557729129 3.2474041136 2.2317356103
| 40> H -3.9120316996 2.059021961 0.9684192188
| 41> H -3.7079590157 1.5266135842 2.6456930686
| 42> H -4.4012853831 -0.8552366562 -1.2582580762
| 43> H -3.7523472382 -2.3826324516 -0.6066339081
| 44> H -5.3587055384 -2.2331739495 1.3066589207
| 45> H -6.0281005215 -0.7439108757 0.6296233497
| 46> H -6.2106382201 -2.2716088074 -0.2467499055
| 47> *
| 48>
| 49>                          ****END OF INPUT****

CARTESIAN COORDINATES (ANGSTROEM)
---------------------------------
  C      5.040821   -1.330046    0.101268
  C      4.775115   -0.202237   -0.873332
  O      3.700149    0.665995   -0.441718
  P      2.186140    0.240868   -0.259543
  S      1.037445    1.825751   -0.280084
  O      2.077714   -0.654643    1.060649
  C      1.694388   -0.125182    2.338952
  C      2.775828    0.766211    2.914521
  S      1.879188   -1.230329   -1.734770
  C      0.077165   -1.155571   -1.812125
  S     -0.735500   -1.611343   -0.240257
  P     -2.066311    0.012847   -0.010884
  S     -2.361596    1.139677   -1.592590
  O     -1.547397    0.696989    1.317299
  C     -1.881901    2.060038    1.654156
  C     -3.365567    2.233681    1.894630
  O     -3.377983   -0.702994    0.532368
  C     -4.247406   -1.442614   -0.346631
  C     -5.550399   -1.688690    0.386809
  H      5.268653   -0.932779    1.086899
  H      4.170963   -1.979606    0.171927
  H      5.887031   -1.909960   -0.253595
  H      4.522832   -0.593795   -1.862115
  H      5.626925    0.475598   -0.949521
  H      0.756275    0.426777    2.223575
  H      1.523564   -1.011824    2.951359
  H      2.462195    1.137613    3.885016
  H      3.703856    0.211546    3.023751
  H      2.945396    1.611313    2.246737
  H     -0.212542   -1.878739   -2.570587
  H     -0.245996   -0.147491   -2.087610
  H     -1.297516    2.256661    2.554214
  H     -1.530522    2.709277    0.845161
  H     -3.557729    3.247404    2.231736
  H     -3.912032    2.059022    0.968419
  H     -3.707959    1.526614    2.645693
  H     -4.401285   -0.855237   -1.258258
  H     -3.752347   -2.382632   -0.606634
  H     -5.358706   -2.233174    1.306659
  H     -6.028101   -0.743911    0.629623
  H     -6.210638   -2.271609   -0.246750

 Total Charge           Charge          ....    0
 Multiplicity           Mult            ....    1
 Number of Electrons    NEL             ....  202
 Basis Dimension        Dim             ....  334

ORBITAL ENERGIES
----------------

  NO   OCC          E(Eh)            E(eV)
   0   2.0000     -88.044148     -2395.8031
   1   2.0000     -88.040840     -2395.7130
   2   2.0000     -87.984811     -2394.1884
   3   2.0000     -87.978124     -2394.0065
   4   2.0000     -76.423454     -2079.5879
   5   2.0000     -76.422355     -2079.5580
   6   2.0000     -18.792550      -511.3713
   7   2.0000     -18.788683      -511.2661
   8   2.0000     -18.786983      -511.2198
   9   2.0000     -18.783424      -511.1230
  10   2.0000      -9.960022      -271.0260
  11   2.0000      -9.954630      -270.8793
  12   2.0000      -9.949551      -270.7411
  13   2.0000      -9.947128      -270.6751
  14   2.0000      -9.943376      -270.5730
  15   2.0000      -9.890106      -269.1235
  16   2.0000      -9.887099      -269.0416
  17   2.0000      -9.880581      -268.8643
  18   2.0000      -9.879791      -268.8428
  19   2.0000      -7.689724      -209.2480
  20   2.0000      -7.685767      -209.1404
  21   2.0000      -7.629693      -207.6145
  22   2.0000      -7.623052      -207.4338
  23   2.0000      -6.420990      -174.7240
  24   2.0000      -6.419927      -174.6951
  25   2.0000      -5.717631      -155.5846
  26   2.0000      -5.714131      -155.4894
  27   2.0000      -5.713616      -155.4754
  28   2.0000      -5.710356      -155.3867
  29   2.0000      -5.706677      -155.2866
  30   2.0000      -5.702673      -155.1776
  31   2.0000      -5.658581      -153.9778
  32   2.0000      -5.652127      -153.8022
  33   2.0000      -5.650464      -153.7569
  34   2.0000      -5.649742      -153.7373
  35   2.0000      -5.643904      -153.5784
  36   2.0000      -5.642772      -153.5476
  37   2.0000      -4.643215      -126.3483
  38   2.0000      -4.642748      -126.3356
  39   2.0000      -4.642669      -126.3335
  40   2.0000      -4.641819      -126.3103
  41   2.0000      -4.641530      -126.3025
  42   2.0000      -4.640356      -126.2705
  43   2.0000      -0.984241       -26.7825
  44   2.0000      -0.980685       -26.6858
  45   2.0000      -0.941982       -25.6326
  46   2.0000      -0.941508       -25.6197
  47   2.0000      -0.762317       -20.7437
  48   2.0000      -0.720504       -19.6059
  49   2.0000      -0.709166       -19.2974
  50   2.0000      -0.690027       -18.7766
  51   2.0000      -0.685407       -18.6509
  52   2.0000      -0.672601       -18.3024
  53   2.0000      -0.648856       -17.6563
  54   2.0000      -0.633787       -17.2462
  55   2.0000      -0.598758       -16.2930
  56   2.0000      -0.590392       -16.0654
  57   2.0000      -0.576273       -15.6812
  58   2.0000      -0.563735       -15.3400
  59   2.0000      -0.560135       -15.2420
  60   2.0000      -0.502620       -13.6770
  61   2.0000      -0.491460       -13.3733
  62   2.0000      -0.473176       -12.8758
  63   2.0000      -0.471988       -12.8435
  64   2.0000      -0.450903       -12.2697
  65   2.0000      -0.448808       -12.2127
  66   2.0000      -0.436024       -11.8648
  67   2.0000      -0.432678       -11.7738
  68   2.0000      -0.426076       -11.5941
  69   2.0000      -0.417462       -11.3597
  70   2.0000      -0.410551       -11.1717
  71   2.0000      -0.395648       -10.7661
  72   2.0000      -0.391833       -10.6623
  73   2.0000      -0.385241       -10.4829
  74   2.0000      -0.383542       -10.4367
  75   2.0000      -0.372667       -10.1408
  76   2.0000      -0.364849        -9.9280
  77   2.0000      -0.355724        -9.6797
  78   2.0000      -0.353917        -9.6306
  79   2.0000      -0.349205        -9.5024
  80   2.0000      -0.345962        -9.4141
  81   2.0000      -0.343223        -9.3396
  82   2.0000      -0.340014        -9.2522
  83   2.0000      -0.337059        -9.1718
  84   2.0000      -0.333369        -9.0714
  85   2.0000      -0.313258        -8.5242
  86   2.0000      -0.309968        -8.4346
  87   2.0000      -0.305612        -8.3161
  88   2.0000      -0.297999        -8.1090
  89   2.0000      -0.283406        -7.7119
  90   2.0000      -0.276825        -7.5328
  91   2.0000      -0.272997        -7.4286
  92   2.0000      -0.269468        -7.3326
  93   2.0000      -0.262322        -7.1382
  94   2.0000      -0.258346        -7.0300
  95   2.0000      -0.229111        -6.2344
  96   2.0000      -0.222286        -6.0487
  97   2.0000      -0.212799        -5.7906
  98   2.0000      -0.200110        -5.4453
  99   2.0000      -0.191868        -5.2210
 100   2.0000      -0.187687        -5.1072
 101   0.0000      -0.040910        -1.1132
 102   0.0000      -0.031120        -0.8468
 103   0.0000      -0.003682        -0.1002
 104   0.0000       0.010011         0.2724
 105   0.0000       0.023786         0.6472

MULLIKEN ATOMIC CHARGES
-----------------------
   0 C :   -0.317079
   1 C :   -0.025536
   2 O :   -0.368880
   3 P :    0.616551
   4 S :   -0.310720
   5 O :   -0.377245
   6 C :   -0.026197
   7 C :   -0.316809
   8 S :   -0.113322
   9 C :   -0.342535
  10 S :   -0.097668
  11 P :    0.618230
  12 S :   -0.318596
  13 O :   -0.360243
  14 C :   -0.006656
  15 C :   -0.299737
  16 O :   -0.375737
  17 C :   -0.008760
  18 C :   -0.279748
  19 H :    0.124433
  20 H :    0.132493
  21 H :    0.113795
  22 H :    0.122406
  23 H :    0.115357
  24 H :    0.139604
  25 H :    0.100567
  26 H :    0.108019
  27 H :    0.113438
  28 H :    0.127284
  29 H :    0.179454
  30 H :    0.213095
  31 H :    0.101720
  32 H :    0.124818
  33 H :    0.110936
  34 H :    0.123505
  35 H :    0.113956
  36 H :    0.102785
  37 H :    0.097129
  38 H :    0.116143
  39 H :    0.118784
  40 H :    0.110966
Sum of atomic charges:    0.0000000

LOEWDIN ATOMIC CHARGES
----------------------
   0 C :   -0.367790
   1 C :   -0.116800
   2 O :   -0.242728
   3 P :    0.565778
   4 S :   -0.299074
   5 O :   -0.248671
   6 C :   -0.123735
   7 C :   -0.366519
   8 S :    0.080016
   9 C :   -0.475825
  10 S :    0.079065
  11 P :    0.573554
  12 S :   -0.305986
  13 O :   -0.233687
  14 C :   -0.115923
  15 C :   -0.366673
  16 O :   -0.248468
  17 C :   -0.123462
  18 C :   -0.350137
  19 H :    0.126850
  20 H :    0.124505
  21 H :    0.131784
  22 H :    0.109564
  23 H :    0.124618
  24 H :    0.114203
  25 H :    0.117472
  26 H :    0.128604
  27 H :    0.120452
  28 H :    0.124257
  29 H :    0.135635
  30 H :    0.126283
  31 H :    0.115866
  32 H :    0.112499
  33 H :    0.130383
  34 H :    0.121311
  35 H :    0.124997
  36 H :    0.106633
  37 H :    0.106484
  38 H :    0.126787
  39 H :    0.127585
  40 H :    0.130293

  Mayer bond orders larger than 0.100000
B(  0-C ,  1-C ) :   1.1629 B(  0-C , 19-H ) :   0.9418 B(  0-C , 20-H ) :   0.9352
B(  0-C , 21-H ) :   0.9355 B(  1-C ,  2-O ) :   0.9084 B(  1-C , 22-H ) :   0.9187
B(  1-C , 23-H ) :   0.9346 B(  2-O ,  3-P ) :   1.1184 B(  3-P ,  4-S ) :   1.6394
B(  3-P ,  5-O ) :   1.0776 B(  3-P ,  8-S ) :   0.9522 B(  4-S ,  8-S ) :   0.1011
B(  5-O ,  6-C ) :   0.9033 B(  6-C ,  7-C ) :   1.1591 B(  6-C , 24-H ) :   0.9042
B(  6-C , 25-H ) :   0.9341 B(  7-C , 26-H ) :   0.9400 B(  7-C , 27-H ) :   0.9427
B(  7-C , 28-H ) :   0.9341 B(  8-S ,  9-C ) :   1.0078 B(  9-C , 10-S ) :   0.9946
B(  9-C , 29-H ) :   0.9125 B(  9-C , 30-H ) :   0.8475 B( 10-S , 11-P ) :   0.9625
B( 10-S , 12-S ) :   0.1192 B( 11-P , 12-S ) :   1.5995 B( 11-P , 13-O ) :   1.1343
B( 11-P , 16-O ) :   1.0969 B( 13-O , 14-C ) :   0.8946 B( 14-C , 15-C ) :   1.1646
B( 14-C , 31-H ) :   0.9328 B( 14-C , 32-H ) :   0.9162 B( 15-C , 33-H ) :   0.9380
B( 15-C , 34-H ) :   0.9327 B( 15-C , 35-H ) :   0.9446 B( 16-O , 17-C ) :   0.9085
B( 17-C , 18-C ) :   1.1601 B( 17-C , 36-H ) :   0.9098 B( 17-C , 37-H ) :   0.9245
B( 18-C , 38-H ) :   0.9505 B( 18-C , 39-H ) :   0.9520 B( 18-C , 40-H ) :   0.9423

Dispersion correction           -0.066896399
FINAL SINGLE POINT ENERGY     -2929.518508382715

DIPOLE MOMENT
-------------

Method             : SCF
Type of density    : Electron Density
Multiplicity       :   1
Irrep              :   0
Energy             : -2929.6376093098533602 Eh
Relativity type    :
Basis              : AO
                                X                 Y                 Z
Electronic contribution:      3.495473437       0.426278337     -15.449829734
Nuclear contribution   :     -3.229921891      -1.430057415      16.278166122
                        -----------------------------------------
Total Dipole Moment    :      0.265551546      -1.003779079       0.828336388
                        -----------------------------------------
Magnitude (a.u.)       :      1.328243665
Magnitude (Debye)      :      3.376127091

Rotational constants in cm-1:             0.013977             0.004970             0.004522
Rotational constants in MHz :           419.031993           148.987043           135.557505

                             ****ORCA TERMINATED NORMALLY****
TOTAL RUN TIME: 0 days 0 hours 0 minutes 21 seconds 317 msec
