                         Program Version 6.0.0  -   RELEASE  -
|  1> ! pbe def2-sv(p) def2/J RI DEFGRID1 loosescf d4 GCP(DFT/SV(P)) printgap
|  2> %output
|  3>     printlevel normal
|  4> end
|  5> * xyz 0 1
|  6> C 2.3873360432 -0.0004451626 0.5016947449
|  7> N 1.3680535758 0.0001732263 -0.5426006877
|  8> C 0.5288783432 1.1900016684 -0.5613119511
|  9> C -0.5316021246 1.1910160434 0.5530574964
| 10> N -1.3704284906 2.96899e-05 0.5473264218
| 11> C -0.5313188799 -1.1907539766 0.5531637782
| 12> C 0.5290285839 -1.1897824478 -0.5613271953
| 13> C -2.3802407733 -0.0001819754 -0.4919643759
| 14> H 2.3217703874 0.8858883377 1.1331217435
| 15> H 3.3722210337 -0.0100112168 0.0275396439
| 16> H 2.3103442636 -0.8773797368 1.145039267
| 17> H 1.1662333264 2.0713789728 -0.4778574886
| 18> H 0.0350944239 1.2225676198 -1.5375281509
| 19> H -0.0342961011 1.2253929915 1.5283572047
| 20> H -1.1712881124 2.0706110052 0.4639191625
| 21> H -0.034059878 -1.2247577179 1.5285029906
| 22> H -1.170760188 -2.0705552685 0.4643790492
| 23> H 1.1665960963 -2.0710092039 -0.4778554492
| 24> H 0.035171774 -1.2224377212 -1.5374959837
| 25> H -3.0029345726 -0.8847831165 -0.3655833736
| 26> H -1.9819057419 0.000429115 -1.5155840836
| 27> H -3.0039839968 0.8835841103 -0.3649336415
| 28> *
| 29>
| 30>                          ****END OF INPUT****

CARTESIAN COORDINATES (ANGSTROEM)
---------------------------------
  C      2.387336   -0.000445    0.501695
  N      1.368054    0.000173   -0.542601
  C      0.528878    1.190002   -0.561312
  C     -0.531602    1.191016    0.553057
  N     -1.370428    0.000030    0.547326
  C     -0.531319   -1.190754    0.553164
  C      0.529029   -1.189782   -0.561327
  C     -2.380241   -0.000182   -0.491964
  H      2.321770    0.885888    1.133122
  H      3.372221   -0.010011    0.027540
  H      2.310344   -0.877380    1.145039
  H      1.166233    2.071379   -0.477857
  H      0.035094    1.222568   -1.537528
  H     -0.034296    1.225393    1.528357
  H     -1.171288    2.070611    0.463919
  H     -0.034060   -1.224758    1.528503
  H     -1.170760   -2.070555    0.464379
  H      1.166596   -2.071009   -0.477855
  H      0.035172   -1.222438   -1.537496
  H     -3.002935   -0.884783   -0.365583
  H     -1.981906    0.000429   -1.515584
  H     -3.003984    0.883584   -0.364934

 Total Charge           Charge          ....    0
 Multiplicity           Mult            ....    1
 Number of Electrons    NEL             ....   64
 Basis Dimension        Dim             ....  140

ORBITAL ENERGIES
----------------

  NO   OCC          E(Eh)            E(eV)
   0   2.0000     -13.976100      -380.3090
   1   2.0000     -13.973543      -380.2394
   2   2.0000      -9.902681      -269.4657
   3   2.0000      -9.902659      -269.4651
   4   2.0000      -9.902619      -269.4640
   5   2.0000      -9.902595      -269.4633
   6   2.0000      -9.899112      -269.3685
   7   2.0000      -9.898509      -269.3521
   8   2.0000      -0.854397       -23.2493
   9   2.0000      -0.809172       -22.0187
  10   2.0000      -0.679294       -18.4845
  11   2.0000      -0.649500       -17.6738
  12   2.0000      -0.618056       -16.8182
  13   2.0000      -0.571988       -15.5646
  14   2.0000      -0.547964       -14.9109
  15   2.0000      -0.486263       -13.2319
  16   2.0000      -0.441050       -12.0016
  17   2.0000      -0.425261       -11.5719
  18   2.0000      -0.411170       -11.1885
  19   2.0000      -0.401080       -10.9139
  20   2.0000      -0.397381       -10.8133
  21   2.0000      -0.388617       -10.5748
  22   2.0000      -0.348253        -9.4765
  23   2.0000      -0.342390        -9.3169
  24   2.0000      -0.332510        -9.0481
  25   2.0000      -0.330015        -8.9802
  26   2.0000      -0.326388        -8.8815
  27   2.0000      -0.300013        -8.1638
  28   2.0000      -0.294584        -8.0160
  29   2.0000      -0.292357        -7.9554
  30   2.0000      -0.190275        -5.1776
  31   2.0000      -0.133753        -3.6396
  32   0.0000       0.028564         0.7773
  33   0.0000       0.050866         1.3841
  34   0.0000       0.071831         1.9546
  35   0.0000       0.072096         1.9618
  36   0.0000       0.086548         2.3551

MULLIKEN ATOMIC CHARGES
-----------------------
   0 C :   -0.188931
   1 N :   -0.283113
   2 C :   -0.089151
   3 C :   -0.062198
   4 N :   -0.282733
   5 C :   -0.062506
   6 C :   -0.088893
   7 C :   -0.181099
   8 H :    0.101302
   9 H :    0.106402
  10 H :    0.101007
  11 H :    0.086033
  12 H :    0.081711
  13 H :    0.076531
  14 H :    0.078333
  15 H :    0.076693
  16 H :    0.078381
  17 H :    0.085981
  18 H :    0.081742
  19 H :    0.100817
  20 H :    0.082858
  21 H :    0.100833
Sum of atomic charges:   -0.0000000

LOEWDIN ATOMIC CHARGES
----------------------
   0 C :   -0.259469
   1 N :   -0.155620
   2 C :   -0.177361
   3 C :   -0.175532
   4 N :   -0.149770
   5 C :   -0.175509
   6 C :   -0.177313
   7 C :   -0.261167
   8 H :    0.109497
   9 H :    0.109843
  10 H :    0.109060
  11 H :    0.112655
  12 H :    0.111101
  13 H :    0.109081
  14 H :    0.111526
  15 H :    0.109101
  16 H :    0.111555
  17 H :    0.112687
  18 H :    0.111140
  19 H :    0.113879
  20 H :    0.086739
  21 H :    0.113878

  Mayer bond orders larger than 0.100000
B(  0-C ,  1-N ) :   1.0147 B(  0-C ,  8-H ) :   0.9448 B(  0-C ,  9-H ) :   0.9590
B(  0-C , 10-H ) :   0.9443 B(  1-N ,  2-C ) :   1.0621 B(  1-N ,  6-C ) :   1.0617
B(  2-C ,  3-C ) :   1.0899 B(  2-C , 11-H ) :   0.9218 B(  2-C , 12-H ) :   0.9121
B(  3-C ,  4-N ) :   1.0562 B(  3-C , 13-H ) :   0.9111 B(  3-C , 14-H ) :   0.9171
B(  4-N ,  5-C ) :   1.0561 B(  4-N ,  7-C ) :   1.0475 B(  5-C ,  6-C ) :   1.0900
B(  5-C , 15-H ) :   0.9110 B(  5-C , 16-H ) :   0.9171 B(  6-C , 17-H ) :   0.9218
B(  6-C , 18-H ) :   0.9121 B(  7-C , 19-H ) :   0.9540 B(  7-C , 20-H ) :   0.9233
B(  7-C , 21-H ) :   0.9540

Dispersion correction           -0.021361306
FINAL SINGLE POINT ENERGY      -345.700263297929

DIPOLE MOMENT
-------------

Method             : SCF
Type of density    : Electron Density
Multiplicity       :   1
Irrep              :   0
Energy             :  -345.7834025815720906 Eh
Relativity type    :
Basis              : AO
                                X                 Y                 Z
Electronic contribution:      0.005298776       0.001399547       0.029840480
Nuclear contribution   :      0.007682503      -0.001013824       0.013179767
                        -----------------------------------------
Total Dipole Moment    :      0.012981279       0.000385724       0.043020247
                        -----------------------------------------
Magnitude (a.u.)       :      0.044937780
Magnitude (Debye)      :      0.114222758

Rotational constants in cm-1:             0.121034             0.056721             0.048577
Rotational constants in MHz :          3628.517761          1700.441910          1456.296232

                             ****ORCA TERMINATED NORMALLY****
TOTAL RUN TIME: 0 days 0 hours 0 minutes 12 seconds 94 msec
