                         Program Version 6.0.0  -   RELEASE  -
|  1> ! r2scan-3c def2/J RI DEFGRID2 scfconv6 printgap
|  2> %output
|  3>     printlevel normal
|  4> end
|  5> * xyz 0 1
|  6> C 3.003580097 0.185554524 3.3325129979
|  7> C 1.6837138106 -0.2792745579 2.7549969945
|  8> O 1.4383279215 0.3276242554 1.4713200754
|  9> P 2.2384572811 -0.0984523259 0.1712328947
| 10> S 2.8869451412 -1.9534710029 0.2057299347
| 11> O 3.3136786229 1.0674742558 0.0956146317
| 12> C 4.0239628278 1.4809054197 -1.085160984
| 13> C 4.6954615317 0.3294402681 -1.8045136481
| 14> S 0.8717053247 0.3862376345 -1.3741149273
| 15> C -0.0510633592 -1.1690758719 -1.2939987539
| 16> S -1.1032769395 -1.2904566568 0.1719312502
| 17> P -2.4852684877 0.2240042861 -0.4311738066
| 18> S -2.8950470295 0.2913179208 -2.3399322375
| 19> O -1.883344347 1.5830574789 0.0945798482
| 20> C -1.6444814626 1.8489343123 1.4999353779
| 21> C -0.6375876364 2.9760019403 1.5925018568
| 22> O -3.720045322 0.0170448737 0.549858211
| 23> C -4.8155083503 -0.8680005269 0.2488740634
| 24> C -4.3875856616 -2.3197793126 0.1925442805
| 25> H 3.8182920307 -0.1430414819 2.6878853443
| 26> H 3.025637851 1.2698541846 3.3980123864
| 27> H 3.1383609487 -0.2422854587 4.3208212543
| 28> H 0.8377506721 0.0350627166 3.3673555107
| 29> H 1.6719293395 -1.3676827356 2.6364422936
| 30> H 3.3167189992 1.9896032529 -1.7466260806
| 31> H 4.7562605207 2.1963523827 -0.7064252726
| 32> H 5.3432864793 -0.2184762119 -1.1242357615
| 33> H 3.9460414719 -0.3573793767 -2.1962765808
| 34> H 5.2854134365 0.7150254791 -2.6298399655
| 35> H 0.6484083487 -2.0049387796 -1.2522187998
| 36> H -0.6730130225 -1.2095489613 -2.1883689977
| 37> H -2.6003113153 2.1206340655 1.9518305747
| 38> H -1.2700044651 0.9338712482 1.9685628791
| 39> H -0.9990126436 3.8403281814 1.042760679
| 40> H -0.4959614207 3.2432370799 2.6347611411
| 41> H 0.3141535018 2.6645520014 1.1690956487
| 42> H -5.5223876608 -0.6869795328 1.0598224889
| 43> H -5.253799368 -0.5592507975 -0.7048406967
| 44> H -3.7379802611 -2.4838573409 -0.6659335101
| 45> H -3.8499626443 -2.5933513992 1.097042149
| 46> H -5.2668951329 -2.9477106848 0.0912312036
| 47> *
| 48>
| 49>                          ****END OF INPUT****

CARTESIAN COORDINATES (ANGSTROEM)
---------------------------------
  C      3.003580    0.185555    3.332513
  C      1.683714   -0.279275    2.754997
  O      1.438328    0.327624    1.471320
  P      2.238457   -0.098452    0.171233
  S      2.886945   -1.953471    0.205730
  O      3.313679    1.067474    0.095615
  C      4.023963    1.480905   -1.085161
  C      4.695462    0.329440   -1.804514
  S      0.871705    0.386238   -1.374115
  C     -0.051063   -1.169076   -1.293999
  S     -1.103277   -1.290457    0.171931
  P     -2.485268    0.224004   -0.431174
  S     -2.895047    0.291318   -2.339932
  O     -1.883344    1.583057    0.094580
  C     -1.644481    1.848934    1.499935
  C     -0.637588    2.976002    1.592502
  O     -3.720045    0.017045    0.549858
  C     -4.815508   -0.868001    0.248874
  C     -4.387586   -2.319779    0.192544
  H      3.818292   -0.143041    2.687885
  H      3.025638    1.269854    3.398012
  H      3.138361   -0.242285    4.320821
  H      0.837751    0.035063    3.367356
  H      1.671929   -1.367683    2.636442
  H      3.316719    1.989603   -1.746626
  H      4.756261    2.196352   -0.706425
  H      5.343286   -0.218476   -1.124236
  H      3.946041   -0.357379   -2.196277
  H      5.285413    0.715025   -2.629840
  H      0.648408   -2.004939   -1.252219
  H     -0.673013   -1.209549   -2.188369
  H     -2.600311    2.120634    1.951831
  H     -1.270004    0.933871    1.968563
  H     -0.999013    3.840328    1.042761
  H     -0.495961    3.243237    2.634761
  H      0.314154    2.664552    1.169096
  H     -5.522388   -0.686980    1.059822
  H     -5.253799   -0.559251   -0.704841
  H     -3.737980   -2.483857   -0.665934
  H     -3.849963   -2.593351    1.097042
  H     -5.266895   -2.947711    0.091231

 Total Charge           Charge          ....    0
 Multiplicity           Mult            ....    1
 Number of Electrons    NEL             ....  202
 Basis Dimension        Dim             ....  539

ORBITAL ENERGIES
----------------

  NO   OCC          E(Eh)            E(eV)
   0   2.0000     -88.576475     -2410.2884
   1   2.0000     -88.573049     -2410.1952
   2   2.0000     -88.521215     -2408.7847
   3   2.0000     -88.520379     -2408.7620
   4   2.0000     -76.916643     -2093.0083
   5   2.0000     -76.913006     -2092.9093
   6   2.0000     -18.995880      -516.9042
   7   2.0000     -18.994729      -516.8728
   8   2.0000     -18.991188      -516.7765
   9   2.0000     -18.987592      -516.6787
  10   2.0000     -10.106434      -275.0101
  11   2.0000     -10.102825      -274.9119
  12   2.0000     -10.100919      -274.8600
  13   2.0000     -10.098878      -274.8044
  14   2.0000     -10.098646      -274.7981
  15   2.0000     -10.030148      -272.9342
  16   2.0000     -10.029413      -272.9142
  17   2.0000     -10.029333      -272.9120
  18   2.0000     -10.027696      -272.8675
  19   2.0000      -7.870683      -214.1722
  20   2.0000      -7.867360      -214.0817
  21   2.0000      -7.816056      -212.6857
  22   2.0000      -7.815172      -212.6617
  23   2.0000      -6.594994      -179.4589
  24   2.0000      -6.591517      -179.3643
  25   2.0000      -5.817512      -158.3026
  26   2.0000      -5.814534      -158.2215
  27   2.0000      -5.814162      -158.2114
  28   2.0000      -5.811246      -158.1320
  29   2.0000      -5.807870      -158.0402
  30   2.0000      -5.804529      -157.9493
  31   2.0000      -5.763709      -156.8385
  32   2.0000      -5.762858      -156.8153
  33   2.0000      -5.756419      -156.6401
  34   2.0000      -5.755967      -156.6278
  35   2.0000      -5.755399      -156.6124
  36   2.0000      -5.755182      -156.6065
  37   2.0000      -4.740551      -128.9969
  38   2.0000      -4.740073      -128.9840
  39   2.0000      -4.738528      -128.9419
  40   2.0000      -4.737406      -128.9114
  41   2.0000      -4.736342      -128.8824
  42   2.0000      -4.735013      -128.8463
  43   2.0000      -1.052907       -28.6510
  44   2.0000      -1.050775       -28.5930
  45   2.0000      -1.013744       -27.5854
  46   2.0000      -1.008879       -27.4530
  47   2.0000      -0.802118       -21.8267
  48   2.0000      -0.759223       -20.6595
  49   2.0000      -0.750937       -20.4340
  50   2.0000      -0.733965       -19.9722
  51   2.0000      -0.733272       -19.9533
  52   2.0000      -0.712808       -19.3965
  53   2.0000      -0.686844       -18.6900
  54   2.0000      -0.669758       -18.2250
  55   2.0000      -0.632101       -17.2003
  56   2.0000      -0.624444       -16.9920
  57   2.0000      -0.609045       -16.5730
  58   2.0000      -0.602891       -16.4055
  59   2.0000      -0.592316       -16.1177
  60   2.0000      -0.530900       -14.4465
  61   2.0000      -0.520543       -14.1647
  62   2.0000      -0.494030       -13.4432
  63   2.0000      -0.492117       -13.3912
  64   2.0000      -0.480718       -13.0810
  65   2.0000      -0.465452       -12.6656
  66   2.0000      -0.459035       -12.4910
  67   2.0000      -0.456385       -12.4189
  68   2.0000      -0.447065       -12.1653
  69   2.0000      -0.439148       -11.9498
  70   2.0000      -0.431914       -11.7530
  71   2.0000      -0.412058       -11.2127
  72   2.0000      -0.407551       -11.0900
  73   2.0000      -0.403375       -10.9764
  74   2.0000      -0.395566       -10.7639
  75   2.0000      -0.391252       -10.6465
  76   2.0000      -0.381189       -10.3727
  77   2.0000      -0.377872       -10.2824
  78   2.0000      -0.367526       -10.0009
  79   2.0000      -0.364518        -9.9190
  80   2.0000      -0.362358        -9.8603
  81   2.0000      -0.360776        -9.8172
  82   2.0000      -0.358291        -9.7496
  83   2.0000      -0.353191        -9.6108
  84   2.0000      -0.350768        -9.5449
  85   2.0000      -0.333581        -9.0772
  86   2.0000      -0.323360        -8.7991
  87   2.0000      -0.317431        -8.6377
  88   2.0000      -0.314229        -8.5506
  89   2.0000      -0.310529        -8.4499
  90   2.0000      -0.305412        -8.3107
  91   2.0000      -0.292715        -7.9652
  92   2.0000      -0.284548        -7.7429
  93   2.0000      -0.279569        -7.6075
  94   2.0000      -0.270776        -7.3682
  95   2.0000      -0.246477        -6.7070
  96   2.0000      -0.231312        -6.2943
  97   2.0000      -0.225330        -6.1315
  98   2.0000      -0.217559        -5.9201
  99   2.0000      -0.215165        -5.8549
 100   2.0000      -0.213774        -5.8171
 101   0.0000      -0.046708        -1.2710
 102   0.0000      -0.025399        -0.6912
 103   0.0000      -0.005353        -0.1457
 104   0.0000      -0.001795        -0.0488
 105   0.0000       0.015319         0.4168

MULLIKEN ATOMIC CHARGES
-----------------------
   0 C :   -0.447123
   1 C :   -0.143954
   2 O :   -0.258136
   3 P :    0.623743
   4 S :   -0.468834
   5 O :   -0.280124
   6 C :   -0.162734
   7 C :   -0.421640
   8 S :   -0.117651
   9 C :   -0.241692
  10 S :   -0.160605
  11 P :    0.650469
  12 S :   -0.445035
  13 O :   -0.259140
  14 C :   -0.099868
  15 C :   -0.470349
  16 O :   -0.291679
  17 C :   -0.164354
  18 C :   -0.445711
  19 H :    0.169861
  20 H :    0.154320
  21 H :    0.148100
  22 H :    0.146889
  23 H :    0.177124
  24 H :    0.155429
  25 H :    0.150349
  26 H :    0.163911
  27 H :    0.170541
  28 H :    0.147976
  29 H :    0.213746
  30 H :    0.220050
  31 H :    0.154352
  32 H :    0.153983
  33 H :    0.154540
  34 H :    0.141879
  35 H :    0.177663
  36 H :    0.147836
  37 H :    0.173803
  38 H :    0.180217
  39 H :    0.153791
  40 H :    0.148058
Sum of atomic charges:   -0.0000000

LOEWDIN ATOMIC CHARGES
----------------------
   0 C :   -0.398021
   1 C :    0.013369
   2 O :   -0.684883
   3 P :    0.380570
   4 S :   -0.132769
   5 O :   -0.658820
   6 C :    0.025014
   7 C :   -0.406314
   8 S :    0.173404
   9 C :   -0.424807
  10 S :    0.145217
  11 P :    0.379447
  12 S :   -0.102846
  13 O :   -0.653896
  14 C :    0.024037
  15 C :   -0.389377
  16 O :   -0.666783
  17 C :    0.022893
  18 C :   -0.408742
  19 H :    0.166659
  20 H :    0.159257
  21 H :    0.159614
  22 H :    0.176845
  23 H :    0.182716
  24 H :    0.172937
  25 H :    0.181848
  26 H :    0.165079
  27 H :    0.166856
  28 H :    0.158804
  29 H :    0.192996
  30 H :    0.192474
  31 H :    0.173217
  32 H :    0.176634
  33 H :    0.161678
  34 H :    0.158885
  35 H :    0.170813
  36 H :    0.179470
  37 H :    0.180225
  38 H :    0.166794
  39 H :    0.159954
  40 H :    0.159552

  Mayer bond orders larger than 0.100000
B(  0-C ,  1-C ) :   0.9193 B(  0-C , 19-H ) :   0.9595 B(  0-C , 20-H ) :   0.9752
B(  0-C , 21-H ) :   0.9647 B(  1-C ,  2-O ) :   0.7687 B(  1-C , 22-H ) :   0.9633
B(  1-C , 23-H ) :   0.9556 B(  2-O ,  3-P ) :   1.1053 B(  3-P ,  4-S ) :   1.7755
B(  3-P ,  5-O ) :   1.0901 B(  3-P ,  8-S ) :   1.0832 B(  5-O ,  6-C ) :   0.8025
B(  6-C ,  7-C ) :   0.9379 B(  6-C , 24-H ) :   0.9642 B(  6-C , 25-H ) :   0.9578
B(  7-C , 26-H ) :   0.9659 B(  7-C , 27-H ) :   0.9532 B(  7-C , 28-H ) :   0.9613
B(  8-S ,  9-C ) :   0.9164 B(  9-C , 10-S ) :   0.9099 B(  9-C , 29-H ) :   0.9032
B(  9-C , 30-H ) :   0.9055 B( 10-S , 11-P ) :   1.0009 B( 11-P , 12-S ) :   1.8337
B( 11-P , 13-O ) :   1.1656 B( 11-P , 16-O ) :   1.0350 B( 13-O , 14-C ) :   0.7350
B( 14-C , 15-C ) :   0.9381 B( 14-C , 31-H ) :   0.9445 B( 14-C , 32-H ) :   0.9533
B( 15-C , 33-H ) :   0.9700 B( 15-C , 34-H ) :   0.9677 B( 15-C , 35-H ) :   0.9660
B( 16-O , 17-C ) :   0.8193 B( 17-C , 18-C ) :   0.9180 B( 17-C , 36-H ) :   0.9614
B( 17-C , 37-H ) :   0.9691 B( 18-C , 38-H ) :   0.9629 B( 18-C , 39-H ) :   0.9675
B( 18-C , 40-H ) :   0.9562

Dispersion correction           -0.021808402
FINAL SINGLE POINT ENERGY     -2932.461750469899

DIPOLE MOMENT
-------------

Method             : SCF
Type of density    : Electron Density
Multiplicity       :   1
Irrep              :   0
Energy             : -2932.4864438020749731 Eh
Relativity type    :
Basis              : AO
                                X                 Y                 Z
Electronic contribution:     -6.113002979      -3.481988783     -12.367317860
Nuclear contribution   :      6.250045253       3.941176812      13.693814722
                        -----------------------------------------
Total Dipole Moment    :      0.137042274       0.459188029       1.326496862
                        -----------------------------------------
Magnitude (a.u.)       :      1.410399999
Magnitude (Debye)      :      3.584951895

Rotational constants in cm-1:             0.012852             0.004884             0.004677
Rotational constants in MHz :           385.306851           146.404647           140.224780

                             ****ORCA TERMINATED NORMALLY****
TOTAL RUN TIME: 0 days 0 hours 1 minutes 20 seconds 491 msec
