                         Program Version 6.0.0  -   RELEASE  -
|  1> ! r2scan-3c def2/J RI DEFGRID2 scfconv6 printgap
|  2> %output
|  3>     printlevel normal
|  4> end
|  5> %cpcm
|  6>     smd true
|  7>     smdsolvent "water"
|  8> end
|  9> * xyz 0 1
| 10> C 3.003580097 0.185554524 3.3325129979
| 11> C 1.6837138106 -0.2792745579 2.7549969945
| 12> O 1.4383279215 0.3276242554 1.4713200754
| 13> P 2.2384572811 -0.0984523259 0.1712328947
| 14> S 2.8869451412 -1.9534710029 0.2057299347
| 15> O 3.3136786229 1.0674742558 0.0956146317
| 16> C 4.0239628278 1.4809054197 -1.085160984
| 17> C 4.6954615317 0.3294402681 -1.8045136481
| 18> S 0.8717053247 0.3862376345 -1.3741149273
| 19> C -0.0510633592 -1.1690758719 -1.2939987539
| 20> S -1.1032769395 -1.2904566568 0.1719312502
| 21> P -2.4852684877 0.2240042861 -0.4311738066
| 22> S -2.8950470295 0.2913179208 -2.3399322375
| 23> O -1.883344347 1.5830574789 0.0945798482
| 24> C -1.6444814626 1.8489343123 1.4999353779
| 25> C -0.6375876364 2.9760019403 1.5925018568
| 26> O -3.720045322 0.0170448737 0.549858211
| 27> C -4.8155083503 -0.8680005269 0.2488740634
| 28> C -4.3875856616 -2.3197793126 0.1925442805
| 29> H 3.8182920307 -0.1430414819 2.6878853443
| 30> H 3.025637851 1.2698541846 3.3980123864
| 31> H 3.1383609487 -0.2422854587 4.3208212543
| 32> H 0.8377506721 0.0350627166 3.3673555107
| 33> H 1.6719293395 -1.3676827356 2.6364422936
| 34> H 3.3167189992 1.9896032529 -1.7466260806
| 35> H 4.7562605207 2.1963523827 -0.7064252726
| 36> H 5.3432864793 -0.2184762119 -1.1242357615
| 37> H 3.9460414719 -0.3573793767 -2.1962765808
| 38> H 5.2854134365 0.7150254791 -2.6298399655
| 39> H 0.6484083487 -2.0049387796 -1.2522187998
| 40> H -0.6730130225 -1.2095489613 -2.1883689977
| 41> H -2.6003113153 2.1206340655 1.9518305747
| 42> H -1.2700044651 0.9338712482 1.9685628791
| 43> H -0.9990126436 3.8403281814 1.042760679
| 44> H -0.4959614207 3.2432370799 2.6347611411
| 45> H 0.3141535018 2.6645520014 1.1690956487
| 46> H -5.5223876608 -0.6869795328 1.0598224889
| 47> H -5.253799368 -0.5592507975 -0.7048406967
| 48> H -3.7379802611 -2.4838573409 -0.6659335101
| 49> H -3.8499626443 -2.5933513992 1.097042149
| 50> H -5.2668951329 -2.9477106848 0.0912312036
| 51> *
| 52>
| 53>                          ****END OF INPUT****

CARTESIAN COORDINATES (ANGSTROEM)
---------------------------------
  C      3.003580    0.185555    3.332513
  C      1.683714   -0.279275    2.754997
  O      1.438328    0.327624    1.471320
  P      2.238457   -0.098452    0.171233
  S      2.886945   -1.953471    0.205730
  O      3.313679    1.067474    0.095615
  C      4.023963    1.480905   -1.085161
  C      4.695462    0.329440   -1.804514
  S      0.871705    0.386238   -1.374115
  C     -0.051063   -1.169076   -1.293999
  S     -1.103277   -1.290457    0.171931
  P     -2.485268    0.224004   -0.431174
  S     -2.895047    0.291318   -2.339932
  O     -1.883344    1.583057    0.094580
  C     -1.644481    1.848934    1.499935
  C     -0.637588    2.976002    1.592502
  O     -3.720045    0.017045    0.549858
  C     -4.815508   -0.868001    0.248874
  C     -4.387586   -2.319779    0.192544
  H      3.818292   -0.143041    2.687885
  H      3.025638    1.269854    3.398012
  H      3.138361   -0.242285    4.320821
  H      0.837751    0.035063    3.367356
  H      1.671929   -1.367683    2.636442
  H      3.316719    1.989603   -1.746626
  H      4.756261    2.196352   -0.706425
  H      5.343286   -0.218476   -1.124236
  H      3.946041   -0.357379   -2.196277
  H      5.285413    0.715025   -2.629840
  H      0.648408   -2.004939   -1.252219
  H     -0.673013   -1.209549   -2.188369
  H     -2.600311    2.120634    1.951831
  H     -1.270004    0.933871    1.968563
  H     -0.999013    3.840328    1.042761
  H     -0.495961    3.243237    2.634761
  H      0.314154    2.664552    1.169096
  H     -5.522388   -0.686980    1.059822
  H     -5.253799   -0.559251   -0.704841
  H     -3.737980   -2.483857   -0.665934
  H     -3.849963   -2.593351    1.097042
  H     -5.266895   -2.947711    0.091231

 Total Charge           Charge          ....    0
 Multiplicity           Mult            ....    1
 Number of Electrons    NEL             ....  202
 Basis Dimension        Dim             ....  539

ORBITAL ENERGIES
----------------

  NO   OCC          E(Eh)            E(eV)
   0   2.0000     -88.580167     -2410.3889
   1   2.0000     -88.576773     -2410.2965
   2   2.0000     -88.531349     -2409.0605
   3   2.0000     -88.526804     -2408.9368
   4   2.0000     -76.920142     -2093.1035
   5   2.0000     -76.919933     -2093.0978
   6   2.0000     -18.996760      -516.9281
   7   2.0000     -18.995979      -516.9069
   8   2.0000     -18.993388      -516.8364
   9   2.0000     -18.991054      -516.7729
  10   2.0000     -10.103534      -274.9311
  11   2.0000     -10.093583      -274.6604
  12   2.0000     -10.091294      -274.5981
  13   2.0000     -10.091077      -274.5922
  14   2.0000     -10.087935      -274.5067
  15   2.0000     -10.018854      -272.6269
  16   2.0000     -10.018838      -272.6264
  17   2.0000     -10.018747      -272.6240
  18   2.0000     -10.018214      -272.6095
  19   2.0000      -7.874449      -214.2746
  20   2.0000      -7.871059      -214.1824
  21   2.0000      -7.826490      -212.9696
  22   2.0000      -7.821945      -212.8459
  23   2.0000      -6.598694      -179.5596
  24   2.0000      -6.598312      -179.5492
  25   2.0000      -5.821248      -158.4042
  26   2.0000      -5.818294      -158.3238
  27   2.0000      -5.817886      -158.3127
  28   2.0000      -5.814968      -158.2333
  29   2.0000      -5.811675      -158.1437
  30   2.0000      -5.808186      -158.0488
  31   2.0000      -5.774065      -157.1203
  32   2.0000      -5.769538      -156.9971
  33   2.0000      -5.766685      -156.9195
  34   2.0000      -5.766575      -156.9165
  35   2.0000      -5.762317      -156.8006
  36   2.0000      -5.761849      -156.7879
  37   2.0000      -4.744527      -129.1051
  38   2.0000      -4.743822      -129.0859
  39   2.0000      -4.743484      -129.0768
  40   2.0000      -4.743381      -129.0740
  41   2.0000      -4.742313      -129.0449
  42   2.0000      -4.741938      -129.0347
  43   2.0000      -1.054300       -28.6890
  44   2.0000      -1.052494       -28.6398
  45   2.0000      -1.012577       -27.5536
  46   2.0000      -1.011978       -27.5373
  47   2.0000      -0.804662       -21.8960
  48   2.0000      -0.756318       -20.5805
  49   2.0000      -0.745101       -20.2752
  50   2.0000      -0.725607       -19.7448
  51   2.0000      -0.723865       -19.6974
  52   2.0000      -0.711935       -19.3727
  53   2.0000      -0.690252       -18.7827
  54   2.0000      -0.675579       -18.3834
  55   2.0000      -0.629806       -17.1379
  56   2.0000      -0.620682       -16.8896
  57   2.0000      -0.600976       -16.3534
  58   2.0000      -0.599003       -16.2997
  59   2.0000      -0.590717       -16.0742
  60   2.0000      -0.528035       -14.3686
  61   2.0000      -0.515374       -14.0240
  62   2.0000      -0.491046       -13.3621
  63   2.0000      -0.486062       -13.2264
  64   2.0000      -0.480110       -13.0645
  65   2.0000      -0.461575       -12.5601
  66   2.0000      -0.452562       -12.3148
  67   2.0000      -0.450941       -12.2707
  68   2.0000      -0.443818       -12.0769
  69   2.0000      -0.434183       -11.8147
  70   2.0000      -0.428598       -11.6627
  71   2.0000      -0.407101       -11.0778
  72   2.0000      -0.405347       -11.0300
  73   2.0000      -0.399965       -10.8836
  74   2.0000      -0.393710       -10.7134
  75   2.0000      -0.389226       -10.5914
  76   2.0000      -0.381390       -10.3781
  77   2.0000      -0.374634       -10.1943
  78   2.0000      -0.358694        -9.7606
  79   2.0000      -0.356673        -9.7056
  80   2.0000      -0.354905        -9.6575
  81   2.0000      -0.352360        -9.5882
  82   2.0000      -0.352135        -9.5821
  83   2.0000      -0.349418        -9.5081
  84   2.0000      -0.346125        -9.4185
  85   2.0000      -0.329416        -8.9639
  86   2.0000      -0.320382        -8.7180
  87   2.0000      -0.316502        -8.6125
  88   2.0000      -0.309065        -8.4101
  89   2.0000      -0.306595        -8.3429
  90   2.0000      -0.299470        -8.1490
  91   2.0000      -0.290138        -7.8950
  92   2.0000      -0.283516        -7.7149
  93   2.0000      -0.279755        -7.6125
  94   2.0000      -0.272220        -7.4075
  95   2.0000      -0.250411        -6.8140
  96   2.0000      -0.238832        -6.4989
  97   2.0000      -0.234716        -6.3870
  98   2.0000      -0.225572        -6.1381
  99   2.0000      -0.222757        -6.0615
 100   2.0000      -0.220674        -6.0048
 101   0.0000      -0.051959        -1.4139
 102   0.0000      -0.031741        -0.8637
 103   0.0000      -0.008451        -0.2300
 104   0.0000      -0.006600        -0.1796
 105   0.0000       0.014868         0.4046

MULLIKEN ATOMIC CHARGES
-----------------------
   0 C :   -0.490766
   1 C :   -0.139151
   2 O :   -0.280544
   3 P :    0.667783
   4 S :   -0.516557
   5 O :   -0.309219
   6 C :   -0.162581
   7 C :   -0.461712
   8 S :   -0.139373
   9 C :   -0.248550
  10 S :   -0.159429
  11 P :    0.663796
  12 S :   -0.498106
  13 O :   -0.289410
  14 C :   -0.102997
  15 C :   -0.508571
  16 O :   -0.311043
  17 C :   -0.158220
  18 C :   -0.482357
  19 H :    0.166562
  20 H :    0.170384
  21 H :    0.172557
  22 H :    0.180681
  23 H :    0.176414
  24 H :    0.173741
  25 H :    0.177388
  26 H :    0.170621
  27 H :    0.165873
  28 H :    0.173581
  29 H :    0.231862
  30 H :    0.235973
  31 H :    0.175776
  32 H :    0.173843
  33 H :    0.166209
  34 H :    0.172722
  35 H :    0.171601
  36 H :    0.176010
  37 H :    0.179359
  38 H :    0.174183
  39 H :    0.168725
  40 H :    0.172942
Sum of atomic charges:   -0.0000000

LOEWDIN ATOMIC CHARGES
----------------------
   0 C :   -0.402107
   1 C :    0.018553
   2 O :   -0.691990
   3 P :    0.386840
   4 S :   -0.162535
   5 O :   -0.669873
   6 C :    0.030901
   7 C :   -0.410013
   8 S :    0.162170
   9 C :   -0.420495
  10 S :    0.149567
  11 P :    0.381694
  12 S :   -0.142897
  13 O :   -0.677088
  14 C :    0.029559
  15 C :   -0.393094
  16 O :   -0.672541
  17 C :    0.028766
  18 C :   -0.411269
  19 H :    0.162634
  20 H :    0.163458
  21 H :    0.168584
  22 H :    0.190035
  23 H :    0.182294
  24 H :    0.179796
  25 H :    0.193325
  26 H :    0.164421
  27 H :    0.161960
  28 H :    0.168339
  29 H :    0.198144
  30 H :    0.197025
  31 H :    0.182955
  32 H :    0.183671
  33 H :    0.164183
  34 H :    0.170928
  35 H :    0.166455
  36 H :    0.191627
  37 H :    0.181677
  38 H :    0.161919
  39 H :    0.163748
  40 H :    0.168672

  Mayer bond orders larger than 0.100000
B(  0-C ,  1-C ) :   0.9057 B(  0-C , 19-H ) :   0.9605 B(  0-C , 20-H ) :   0.9739
B(  0-C , 21-H ) :   0.9587 B(  1-C ,  2-O ) :   0.7562 B(  1-C , 22-H ) :   0.9534
B(  1-C , 23-H ) :   0.9533 B(  2-O ,  3-P ) :   1.1168 B(  3-P ,  4-S ) :   1.7340
B(  3-P ,  5-O ) :   1.0999 B(  3-P ,  8-S ) :   1.0869 B(  5-O ,  6-C ) :   0.7930
B(  6-C ,  7-C ) :   0.9194 B(  6-C , 24-H ) :   0.9594 B(  6-C , 25-H ) :   0.9478
B(  7-C , 26-H ) :   0.9666 B(  7-C , 27-H ) :   0.9562 B(  7-C , 28-H ) :   0.9556
B(  8-S ,  9-C ) :   0.9024 B(  9-C , 10-S ) :   0.8992 B(  9-C , 29-H ) :   0.9001
B(  9-C , 30-H ) :   0.9015 B( 10-S , 11-P ) :   1.0129 B( 11-P , 12-S ) :   1.8115
B( 11-P , 13-O ) :   1.1709 B( 11-P , 16-O ) :   1.0475 B( 13-O , 14-C ) :   0.7234
B( 14-C , 15-C ) :   0.9273 B( 14-C , 31-H ) :   0.9348 B( 14-C , 32-H ) :   0.9452
B( 15-C , 33-H ) :   0.9685 B( 15-C , 34-H ) :   0.9608 B( 15-C , 35-H ) :   0.9670
B( 16-O , 17-C ) :   0.8067 B( 17-C , 18-C ) :   0.9061 B( 17-C , 36-H ) :   0.9504
B( 17-C , 37-H ) :   0.9676 B( 18-C , 38-H ) :   0.9647 B( 18-C , 39-H ) :   0.9646
B( 18-C , 40-H ) :   0.9509

Dispersion correction           -0.021808402
FINAL SINGLE POINT ENERGY     -2932.470773871650

DIPOLE MOMENT
-------------

Method             : SCF
Type of density    : Electron Density
Multiplicity       :   1
Irrep              :   0
Energy             : -2932.4954672038252284 Eh
Relativity type    :
Basis              : AO
                                X                 Y                 Z
Electronic contribution:     -6.178565735      -3.442565105     -11.780420723
Nuclear contribution   :      6.250045253       3.941176812      13.693814722
                        -----------------------------------------
Total Dipole Moment    :      0.071479518       0.498611707       1.913393999
                        -----------------------------------------
Magnitude (a.u.)       :      1.978585240
Magnitude (Debye)      :      5.029164006

Rotational constants in cm-1:             0.012852             0.004884             0.004677
Rotational constants in MHz :           385.306851           146.404647           140.224780

                             ****ORCA TERMINATED NORMALLY****
TOTAL RUN TIME: 0 days 0 hours 1 minutes 50 seconds 621 msec
