                         Program Version 6.0.1  -  RELEASE   -
|  1> ! pbe def2-sv(p) def2/J RI DEFGRID1 loosescf d4 GCP(DFT/SV(P)) printgap
|  2> %output
|  3>     printlevel normal
|  4> end
|  5> * xyz 0 1
|  6> C 0.6422531446 -3.7805979507 -1.6605950955
|  7> C 1.7734128873 -3.5701784701 -0.6665315912
|  8> O 1.7514905439 -2.2268828848 -0.1488319619
|  9> C 2.3670458946 -1.2796355024 -0.8278793482
| 10> O 3.0149394759 -1.4533218503 -1.8340590076
| 11> C 2.1316036476 0.0775101608 -0.1885201094
| 12> C 1.028464699 0.8078730597 -0.9636193937
| 13> H 1.3981992586 1.1057400471 -1.9480195943
| 14> C 0.5511054195 2.0257528731 -0.1919477483
| 15> O -0.5932323967 2.1266192806 0.2045842822
| 16> O 1.5022983365 2.8917771958 0.00199913
| 17> C 1.1999034672 4.0867754035 0.7588925975
| 18> C 0.5813749599 5.1512597381 -0.1312849559
| 19> S -0.4293993384 -0.231141036 -1.2997696593
| 20> P -1.3221295479 -0.2942231222 0.6140135508
| 21> S -0.4104184798 -0.0285678525 2.3263528266
| 22> O -2.7227221925 0.4722273566 0.6002372937
| 23> C -3.5491371674 0.5179965876 -0.5742383511
| 24> O -1.7453083291 -1.8472932235 0.4056619273
| 25> C -2.4120433024 -2.5479202539 1.4574642398
| 26> H 0.7969673913 -3.1600382145 -2.5402142556
| 27> H 0.6133079052 -4.8231345704 -1.9587437505
| 28> H -0.3062625902 -3.5057594617 -1.2058293475
| 29> H 2.7449496495 -3.7446523213 -1.1376652156
| 30> H 1.6553808168 -4.2028858258 0.2133257452
| 31> H 3.0439480592 0.671820235 -0.2361101644
| 32> H 1.8310776539 -0.0734509414 0.850005852
| 33> H 0.5258069351 3.8167797575 1.5764568443
| 34> H 2.1666103754 4.402805254 1.1498353253
| 35> H -0.3826703354 4.8150353731 -0.5059777306
| 36> H 0.4357682385 6.0573828611 0.4472625624
| 37> H 1.236271287 5.363937801 -0.9716091323
| 38> H -3.1929452534 1.3106828362 -1.2311047467
| 39> H -4.5514480924 0.7402741432 -0.2162051472
| 40> H -3.5263118895 -0.4383272865 -1.098601856
| 41> H -3.3514335753 -2.05505372 1.7129664086
| 42> H -1.7733289346 -2.5866039521 2.3414107397
| 43> H -2.5964472657 -3.5486821036 1.0754107419
| 44> *
| 45>
| 46>                          ****END OF INPUT****

CARTESIAN COORDINATES (ANGSTROEM)
---------------------------------
  C      0.642253   -3.780598   -1.660595
  C      1.773413   -3.570178   -0.666532
  O      1.751491   -2.226883   -0.148832
  C      2.367046   -1.279636   -0.827879
  O      3.014939   -1.453322   -1.834059
  C      2.131604    0.077510   -0.188520
  C      1.028465    0.807873   -0.963619
  H      1.398199    1.105740   -1.948020
  C      0.551105    2.025753   -0.191948
  O     -0.593232    2.126619    0.204584
  O      1.502298    2.891777    0.001999
  C      1.199903    4.086775    0.758893
  C      0.581375    5.151260   -0.131285
  S     -0.429399   -0.231141   -1.299770
  P     -1.322130   -0.294223    0.614014
  S     -0.410418   -0.028568    2.326353
  O     -2.722722    0.472227    0.600237
  C     -3.549137    0.517997   -0.574238
  O     -1.745308   -1.847293    0.405662
  C     -2.412043   -2.547920    1.457464
  H      0.796967   -3.160038   -2.540214
  H      0.613308   -4.823135   -1.958744
  H     -0.306263   -3.505759   -1.205829
  H      2.744950   -3.744652   -1.137665
  H      1.655381   -4.202886    0.213326
  H      3.043948    0.671820   -0.236110
  H      1.831078   -0.073451    0.850006
  H      0.525807    3.816780    1.576457
  H      2.166610    4.402805    1.149835
  H     -0.382670    4.815035   -0.505978
  H      0.435768    6.057383    0.447263
  H      1.236271    5.363938   -0.971609
  H     -3.192945    1.310683   -1.231105
  H     -4.551448    0.740274   -0.216205
  H     -3.526312   -0.438327   -1.098602
  H     -3.351434   -2.055054    1.712966
  H     -1.773329   -2.586604    2.341411
  H     -2.596447   -3.548682    1.075411

 Total Charge           Charge          ....    0
 Multiplicity           Mult            ....    1
 Number of Electrons    NEL             ....  174
 Basis Dimension        Dim             ....  316

ORBITAL ENERGIES
----------------

  NO   OCC          E(Eh)            E(eV)
   0   2.0000     -88.039808     -2395.6850
   1   2.0000     -87.974127     -2393.8977
   2   2.0000     -76.420245     -2079.5006
   3   2.0000     -18.824724      -512.2468
   4   2.0000     -18.793310      -511.3920
   5   2.0000     -18.783632      -511.1286
   6   2.0000     -18.780220      -511.0358
   7   2.0000     -18.757886      -510.4280
   8   2.0000     -18.732663      -509.7417
   9   2.0000     -10.028696      -272.8947
  10   2.0000     -10.003566      -272.2109
  11   2.0000      -9.959872      -271.0219
  12   2.0000      -9.955737      -270.9094
  13   2.0000      -9.944671      -270.6082
  14   2.0000      -9.938845      -270.4497
  15   2.0000      -9.936283      -270.3800
  16   2.0000      -9.903051      -269.4757
  17   2.0000      -9.896241      -269.2904
  18   2.0000      -9.874563      -268.7005
  19   2.0000      -7.684636      -209.1096
  20   2.0000      -7.619540      -207.3382
  21   2.0000      -6.416732      -174.6082
  22   2.0000      -5.712813      -155.4535
  23   2.0000      -5.709386      -155.3603
  24   2.0000      -5.700986      -155.1317
  25   2.0000      -5.648956      -153.7159
  26   2.0000      -5.640356      -153.4819
  27   2.0000      -5.638890      -153.4420
  28   2.0000      -4.639604      -126.2501
  29   2.0000      -4.638696      -126.2253
  30   2.0000      -4.637082      -126.1814
  31   2.0000      -1.033935       -28.1348
  32   2.0000      -1.002439       -27.2778
  33   2.0000      -0.974012       -26.5042
  34   2.0000      -0.938420       -25.5357
  35   2.0000      -0.930237       -25.3130
  36   2.0000      -0.909523       -24.7494
  37   2.0000      -0.768895       -20.9227
  38   2.0000      -0.717619       -19.5274
  39   2.0000      -0.702773       -19.1234
  40   2.0000      -0.687197       -18.6996
  41   2.0000      -0.654265       -17.8034
  42   2.0000      -0.633384       -17.2353
  43   2.0000      -0.624983       -17.0066
  44   2.0000      -0.612776       -16.6745
  45   2.0000      -0.592115       -16.1123
  46   2.0000      -0.563607       -15.3365
  47   2.0000      -0.516544       -14.0559
  48   2.0000      -0.504577       -13.7302
  49   2.0000      -0.490570       -13.3491
  50   2.0000      -0.487852       -13.2751
  51   2.0000      -0.468686       -12.7536
  52   2.0000      -0.453055       -12.3282
  53   2.0000      -0.448420       -12.2021
  54   2.0000      -0.438812       -11.9407
  55   2.0000      -0.429864       -11.6972
  56   2.0000      -0.423759       -11.5311
  57   2.0000      -0.422477       -11.4962
  58   2.0000      -0.412857       -11.2344
  59   2.0000      -0.407660       -11.0930
  60   2.0000      -0.404383       -11.0038
  61   2.0000      -0.396103       -10.7785
  62   2.0000      -0.388287       -10.5658
  63   2.0000      -0.382177       -10.3996
  64   2.0000      -0.376776       -10.2526
  65   2.0000      -0.367457        -9.9990
  66   2.0000      -0.359946        -9.7946
  67   2.0000      -0.352917        -9.6033
  68   2.0000      -0.344772        -9.3817
  69   2.0000      -0.340476        -9.2648
  70   2.0000      -0.331952        -9.0329
  71   2.0000      -0.327716        -8.9176
  72   2.0000      -0.319863        -8.7039
  73   2.0000      -0.317034        -8.6269
  74   2.0000      -0.310545        -8.4504
  75   2.0000      -0.304947        -8.2980
  76   2.0000      -0.286058        -7.7840
  77   2.0000      -0.280685        -7.6378
  78   2.0000      -0.275336        -7.4923
  79   2.0000      -0.265243        -7.2176
  80   2.0000      -0.260515        -7.0890
  81   2.0000      -0.251559        -6.8453
  82   2.0000      -0.243367        -6.6224
  83   2.0000      -0.217656        -5.9227
  84   2.0000      -0.216084        -5.8799
  85   2.0000      -0.194981        -5.3057
  86   2.0000      -0.186689        -5.0801
  87   0.0000      -0.045185        -1.2295
  88   0.0000      -0.042563        -1.1582
  89   0.0000      -0.012483        -0.3397
  90   0.0000       0.000325         0.0088
  91   0.0000       0.029902         0.8137

MULLIKEN ATOMIC CHARGES
-----------------------
   0 C :   -0.314226
   1 C :   -0.009657
   2 O :   -0.214527
   3 C :    0.116029
   4 O :   -0.203498
   5 C :   -0.065809
   6 C :   -0.333718
   7 H :    0.154366
   8 C :    0.227359
   9 O :   -0.185722
  10 O :   -0.218405
  11 C :   -0.008704
  12 C :   -0.311861
  13 S :   -0.066182
  14 P :    0.630411
  15 S :   -0.330998
  16 O :   -0.372697
  17 C :   -0.106025
  18 O :   -0.394477
  19 C :   -0.105091
  20 H :    0.119894
  21 H :    0.104196
  22 H :    0.129381
  23 H :    0.104434
  24 H :    0.100531
  25 H :    0.114253
  26 H :    0.123147
  27 H :    0.125481
  28 H :    0.110135
  29 H :    0.131102
  30 H :    0.120186
  31 H :    0.117396
  32 H :    0.123668
  33 H :    0.127154
  34 H :    0.113558
  35 H :    0.108254
  36 H :    0.122087
  37 H :    0.118576
Sum of atomic charges:   -0.0000000

LOEWDIN ATOMIC CHARGES
----------------------
   0 C :   -0.361984
   1 C :   -0.108892
   2 O :   -0.049767
   3 C :    0.020291
   4 O :   -0.171019
   5 C :   -0.256249
   6 C :   -0.256436
   7 H :    0.151788
   8 C :    0.019405
   9 O :   -0.155071
  10 O :   -0.035796
  11 C :   -0.104640
  12 C :   -0.356124
  13 S :    0.133599
  14 P :    0.592814
  15 S :   -0.313710
  16 O :   -0.248391
  17 C :   -0.213856
  18 O :   -0.277105
  19 C :   -0.220050
  20 H :    0.126391
  21 H :    0.125463
  22 H :    0.125308
  23 H :    0.117542
  24 H :    0.117225
  25 H :    0.142776
  26 H :    0.130899
  27 H :    0.128705
  28 H :    0.122198
  29 H :    0.131798
  30 H :    0.134714
  31 H :    0.126533
  32 H :    0.115205
  33 H :    0.123214
  34 H :    0.106828
  35 H :    0.107574
  36 H :    0.111702
  37 H :    0.117122

  Mayer bond orders larger than 0.100000
B(  0-C ,  1-C ) :   1.1770 B(  0-C , 20-H ) :   0.9448 B(  0-C , 21-H ) :   0.9428
B(  0-C , 22-H ) :   0.9355 B(  1-C ,  2-O ) :   0.9171 B(  1-C , 23-H ) :   0.9143
B(  1-C , 24-H ) :   0.9371 B(  2-O ,  3-C ) :   1.2371 B(  3-C ,  4-O ) :   2.0545
B(  3-C ,  5-C ) :   1.0104 B(  5-C ,  6-C ) :   1.0503 B(  5-C , 25-H ) :   0.8799
B(  5-C , 26-H ) :   0.8686 B(  6-C ,  7-H ) :   0.8636 B(  6-C ,  8-C ) :   0.9074
B(  6-C , 13-S ) :   1.0502 B(  8-C ,  9-O ) :   1.9608 B(  8-C , 10-O ) :   1.2803
B(  9-O , 14-P ) :   0.1064 B( 10-O , 11-C ) :   0.8967 B( 11-C , 12-C ) :   1.1745
B( 11-C , 27-H ) :   0.9150 B( 11-C , 28-H ) :   0.9362 B( 12-C , 29-H ) :   0.9453
B( 12-C , 30-H ) :   0.9431 B( 12-C , 31-H ) :   0.9475 B( 13-S , 14-P ) :   0.9320
B( 13-S , 15-S ) :   0.1093 B( 14-P , 15-S ) :   1.6046 B( 14-P , 16-O ) :   1.0924
B( 14-P , 18-O ) :   1.0323 B( 16-O , 17-C ) :   0.9292 B( 17-C , 32-H ) :   0.9488
B( 17-C , 33-H ) :   0.9575 B( 17-C , 34-H ) :   0.9404 B( 18-O , 19-C ) :   0.9405
B( 19-C , 35-H ) :   0.9476 B( 19-C , 36-H ) :   0.9396 B( 19-C , 37-H ) :   0.9574

Dispersion correction           -0.053851242
FINAL SINGLE POINT ENERGY     -1979.011943348794

DIPOLE MOMENT
-------------

Method             : SCF
Type of density    : Electron Density
Multiplicity       :   1
Irrep              :   0
Energy             : -1979.1407725686881349 Eh
Relativity type    :
Basis              : AO
                                X                 Y                 Z
Electronic contribution:      1.171507504       0.157596916       3.686797418
Nuclear contribution   :     -1.809169905       0.406713421      -4.045419756
                        -----------------------------------------
Total Dipole Moment    :     -0.637662401       0.564310336      -0.358622337
                        -----------------------------------------
Magnitude (a.u.)       :      0.923942355
Magnitude (Debye)      :      2.348474829

Rotational constants in cm-1:             0.011998             0.008640             0.006201
Rotational constants in MHz :           359.688460           259.021089           185.916259

                             ****ORCA TERMINATED NORMALLY****
TOTAL RUN TIME: 0 days 0 hours 0 minutes 31 seconds 863 msec
