                         Program Version 6.0.0  -   RELEASE  -
|  1> ! pbe def2-sv(p) def2/J RI DEFGRID1 loosescf d4 GCP(DFT/SV(P)) printgap
|  2> %output
|  3>     printlevel normal
|  4> end
|  5> * xyz 0 1
|  6> C 3.6835287984 -1.61788108 -2.4331597592
|  7> C 4.2066673277 -0.3681978075 -1.7535781275
|  8> O 3.7358179772 -0.2445548195 -0.402636606
|  9> P 2.211794336 0.0417656777 -0.0289918043
| 10> S 1.3415954488 1.3007601513 -1.2618385245
| 11> O 2.370540533 0.4298438684 1.4924732907
| 12> C 2.5416611912 1.7855950284 1.9469088625
| 13> C 3.8362422845 2.3962740938 1.4534266792
| 14> S 1.3401957565 -1.8673492962 0.1954472615
| 15> C 0.020593647 -1.766553583 -1.0658250386
| 16> S -1.6566004273 -1.9004619182 -0.397379802
| 17> P -1.9537357947 0.0886807652 0.3075305437
| 18> S -0.7872817041 0.7347072679 1.74055257
| 19> O -3.4929139649 0.0433851958 0.6940946069
| 20> C -3.9488744167 -0.6648866793 1.8649066547
| 21> C -5.3619556335 -0.2074683475 2.1639363034
| 22> O -1.9157002791 1.0196694759 -0.9558554409
| 23> C -2.7432964825 0.8316649075 -2.1333667677
| 24> C -3.9997746387 1.6720335989 -2.0446794257
| 25> H 3.8743541549 -2.4912850899 -1.814778076
| 26> H 2.610697701 -1.5287549935 -2.5979426267
| 27> H 4.1782193326 -1.7381396352 -3.3915920166
| 28> H 3.9032476991 0.5260885416 -2.3077766022
| 29> H 5.2923031326 -0.3910449475 -1.6499386496
| 30> H 1.6760922232 2.370241757 1.6175761633
| 31> H 2.5182305543 1.6953510508 3.0338683109
| 32> H 4.6755286405 1.7600111515 1.7221279406
| 33> H 3.807038474 2.5043338481 0.3694887671
| 34> H 3.9631457586 3.3763232968 1.9025443249
| 35> H 0.1327952922 -2.6191224475 -1.7300909714
| 36> H 0.1232522951 -0.8179456874 -1.6010838577
| 37> H -3.9110780678 -1.736106832 1.6499637287
| 38> H -3.2687001951 -0.4410142931 2.6934077158
| 39> H -5.7260733414 -0.7312422401 3.0415380117
| 40> H -5.3755784125 0.8621840602 2.3537357694
| 41> H -6.010021069 -0.4259485115 1.3202645527
| 42> H -2.1050896901 1.1513261254 -2.9596522477
| 43> H -2.9832919507 -0.2305317474 -2.2321450392
| 44> H -4.6130071803 1.3451043362 -1.2094177614
| 45> H -3.7388944923 2.7169662273 -1.9004699182
| 46> H -4.5614043073 1.566240829 -2.9675704849
| 47> *
| 48>
| 49>                          ****END OF INPUT****

CARTESIAN COORDINATES (ANGSTROEM)
---------------------------------
  C      3.683529   -1.617881   -2.433160
  C      4.206667   -0.368198   -1.753578
  O      3.735818   -0.244555   -0.402637
  P      2.211794    0.041766   -0.028992
  S      1.341595    1.300760   -1.261839
  O      2.370541    0.429844    1.492473
  C      2.541661    1.785595    1.946909
  C      3.836242    2.396274    1.453427
  S      1.340196   -1.867349    0.195447
  C      0.020594   -1.766554   -1.065825
  S     -1.656600   -1.900462   -0.397380
  P     -1.953736    0.088681    0.307531
  S     -0.787282    0.734707    1.740553
  O     -3.492914    0.043385    0.694095
  C     -3.948874   -0.664887    1.864907
  C     -5.361956   -0.207468    2.163936
  O     -1.915700    1.019669   -0.955855
  C     -2.743296    0.831665   -2.133367
  C     -3.999775    1.672034   -2.044679
  H      3.874354   -2.491285   -1.814778
  H      2.610698   -1.528755   -2.597943
  H      4.178219   -1.738140   -3.391592
  H      3.903248    0.526089   -2.307777
  H      5.292303   -0.391045   -1.649939
  H      1.676092    2.370242    1.617576
  H      2.518231    1.695351    3.033868
  H      4.675529    1.760011    1.722128
  H      3.807038    2.504334    0.369489
  H      3.963146    3.376323    1.902544
  H      0.132795   -2.619122   -1.730091
  H      0.123252   -0.817946   -1.601084
  H     -3.911078   -1.736107    1.649964
  H     -3.268700   -0.441014    2.693408
  H     -5.726073   -0.731242    3.041538
  H     -5.375578    0.862184    2.353736
  H     -6.010021   -0.425949    1.320265
  H     -2.105090    1.151326   -2.959652
  H     -2.983292   -0.230532   -2.232145
  H     -4.613007    1.345104   -1.209418
  H     -3.738894    2.716966   -1.900470
  H     -4.561404    1.566241   -2.967570

 Total Charge           Charge          ....    0
 Multiplicity           Mult            ....    1
 Number of Electrons    NEL             ....  202
 Basis Dimension        Dim             ....  334

ORBITAL ENERGIES
----------------

  NO   OCC          E(Eh)            E(eV)
   0   2.0000     -88.040226     -2395.6963
   1   2.0000     -88.035119     -2395.5574
   2   2.0000     -87.984387     -2394.1769
   3   2.0000     -87.974446     -2393.9064
   4   2.0000     -76.420528     -2079.5083
   5   2.0000     -76.419933     -2079.4921
   6   2.0000     -18.791290      -511.3370
   7   2.0000     -18.789642      -511.2922
   8   2.0000     -18.780515      -511.0438
   9   2.0000     -18.780110      -511.0328
  10   2.0000      -9.955577      -270.9050
  11   2.0000      -9.953563      -270.8502
  12   2.0000      -9.953025      -270.8356
  13   2.0000      -9.947375      -270.6818
  14   2.0000      -9.942387      -270.5461
  15   2.0000      -9.889211      -269.0991
  16   2.0000      -9.884464      -268.9699
  17   2.0000      -9.883471      -268.9429
  18   2.0000      -9.876316      -268.7482
  19   2.0000      -7.685422      -209.1310
  20   2.0000      -7.680546      -208.9983
  21   2.0000      -7.629230      -207.6019
  22   2.0000      -7.619492      -207.3369
  23   2.0000      -6.418211      -174.6484
  24   2.0000      -6.417304      -174.6237
  25   2.0000      -5.713059      -155.4602
  26   2.0000      -5.709818      -155.3720
  27   2.0000      -5.708421      -155.3340
  28   2.0000      -5.705275      -155.2484
  29   2.0000      -5.702736      -155.1793
  30   2.0000      -5.697212      -155.0290
  31   2.0000      -5.657955      -153.9608
  32   2.0000      -5.650399      -153.7552
  33   2.0000      -5.649027      -153.7178
  34   2.0000      -5.648521      -153.7041
  35   2.0000      -5.640040      -153.4733
  36   2.0000      -5.639595      -153.4612
  37   2.0000      -4.641230      -126.2943
  38   2.0000      -4.640150      -126.2649
  39   2.0000      -4.639473      -126.2465
  40   2.0000      -4.638942      -126.2320
  41   2.0000      -4.638272      -126.2138
  42   2.0000      -4.638045      -126.2076
  43   2.0000      -0.986843       -26.8534
  44   2.0000      -0.977929       -26.6108
  45   2.0000      -0.944703       -25.7067
  46   2.0000      -0.935440       -25.4546
  47   2.0000      -0.757470       -20.6118
  48   2.0000      -0.718223       -19.5438
  49   2.0000      -0.706837       -19.2340
  50   2.0000      -0.691924       -18.8282
  51   2.0000      -0.681965       -18.5572
  52   2.0000      -0.670315       -18.2402
  53   2.0000      -0.646169       -17.5831
  54   2.0000      -0.631423       -17.1819
  55   2.0000      -0.597570       -16.2607
  56   2.0000      -0.584967       -15.9178
  57   2.0000      -0.569528       -15.4976
  58   2.0000      -0.566666       -15.4198
  59   2.0000      -0.559925       -15.2363
  60   2.0000      -0.507163       -13.8006
  61   2.0000      -0.485394       -13.2082
  62   2.0000      -0.481390       -13.0993
  63   2.0000      -0.464608       -12.6426
  64   2.0000      -0.449019       -12.2184
  65   2.0000      -0.443632       -12.0718
  66   2.0000      -0.438975       -11.9451
  67   2.0000      -0.433546       -11.7974
  68   2.0000      -0.430614       -11.7176
  69   2.0000      -0.412811       -11.2332
  70   2.0000      -0.405401       -11.0315
  71   2.0000      -0.391171       -10.6443
  72   2.0000      -0.385361       -10.4862
  73   2.0000      -0.383873       -10.4457
  74   2.0000      -0.382024       -10.3954
  75   2.0000      -0.376649       -10.2492
  76   2.0000      -0.361499        -9.8369
  77   2.0000      -0.355189        -9.6652
  78   2.0000      -0.352288        -9.5862
  79   2.0000      -0.349104        -9.4996
  80   2.0000      -0.344603        -9.3771
  81   2.0000      -0.343041        -9.3346
  82   2.0000      -0.339725        -9.2444
  83   2.0000      -0.332985        -9.0610
  84   2.0000      -0.330718        -8.9993
  85   2.0000      -0.315814        -8.5937
  86   2.0000      -0.307589        -8.3699
  87   2.0000      -0.298326        -8.1179
  88   2.0000      -0.290721        -7.9109
  89   2.0000      -0.289109        -7.8671
  90   2.0000      -0.277251        -7.5444
  91   2.0000      -0.271933        -7.3997
  92   2.0000      -0.265099        -7.2137
  93   2.0000      -0.259667        -7.0659
  94   2.0000      -0.255254        -6.9458
  95   2.0000      -0.235503        -6.4084
  96   2.0000      -0.215993        -5.8775
  97   2.0000      -0.206561        -5.6208
  98   2.0000      -0.201699        -5.4885
  99   2.0000      -0.185764        -5.0549
 100   2.0000      -0.183468        -4.9924
 101   0.0000      -0.035814        -0.9745
 102   0.0000      -0.027226        -0.7409
 103   0.0000      -0.011256        -0.3063
 104   0.0000       0.006439         0.1752
 105   0.0000       0.028384         0.7724

MULLIKEN ATOMIC CHARGES
-----------------------
   0 C :   -0.316461
   1 C :    0.001797
   2 O :   -0.372012
   3 P :    0.617162
   4 S :   -0.321024
   5 O :   -0.362688
   6 C :   -0.001972
   7 C :   -0.305720
   8 S :   -0.065102
   9 C :   -0.370762
  10 S :   -0.109724
  11 P :    0.601568
  12 S :   -0.303084
  13 O :   -0.385127
  14 C :   -0.014298
  15 C :   -0.283584
  16 O :   -0.344006
  17 C :   -0.014592
  18 C :   -0.290440
  19 H :    0.120798
  20 H :    0.118167
  21 H :    0.110279
  22 H :    0.105266
  23 H :    0.102938
  24 H :    0.122591
  25 H :    0.105181
  26 H :    0.115293
  27 H :    0.122228
  28 H :    0.109570
  29 H :    0.183315
  30 H :    0.196340
  31 H :    0.105481
  32 H :    0.108585
  33 H :    0.113523
  34 H :    0.123300
  35 H :    0.115588
  36 H :    0.110537
  37 H :    0.098292
  38 H :    0.123144
  39 H :    0.121657
  40 H :    0.107996
Sum of atomic charges:    0.0000000

LOEWDIN ATOMIC CHARGES
----------------------
   0 C :   -0.368417
   1 C :   -0.120014
   2 O :   -0.249361
   3 P :    0.574709
   4 S :   -0.305217
   5 O :   -0.232228
   6 C :   -0.114506
   7 C :   -0.366257
   8 S :    0.090025
   9 C :   -0.484033
  10 S :    0.060860
  11 P :    0.562123
  12 S :   -0.301559
  13 O :   -0.250864
  14 C :   -0.120591
  15 C :   -0.350878
  16 O :   -0.224351
  17 C :   -0.115512
  18 C :   -0.359798
  19 H :    0.125822
  20 H :    0.117752
  21 H :    0.129242
  22 H :    0.106858
  23 H :    0.117852
  24 H :    0.112678
  25 H :    0.120091
  26 H :    0.125596
  27 H :    0.121463
  28 H :    0.129416
  29 H :    0.135132
  30 H :    0.119583
  31 H :    0.109192
  32 H :    0.110866
  33 H :    0.131689
  34 H :    0.130031
  35 H :    0.125285
  36 H :    0.120874
  37 H :    0.102146
  38 H :    0.125787
  39 H :    0.129632
  40 H :    0.128883

  Mayer bond orders larger than 0.100000
B(  0-C ,  1-C ) :   1.1639 B(  0-C , 19-H ) :   0.9426 B(  0-C , 20-H ) :   0.9390
B(  0-C , 21-H ) :   0.9382 B(  1-C ,  2-O ) :   0.9248 B(  1-C , 22-H ) :   0.9137
B(  1-C , 23-H ) :   0.9342 B(  2-O ,  3-P ) :   1.0868 B(  3-P ,  4-S ) :   1.5762
B(  3-P ,  5-O ) :   1.1492 B(  3-P ,  8-S ) :   0.9573 B(  4-S ,  8-S ) :   0.1165
B(  4-S , 30-H ) :   0.1115 B(  5-O ,  6-C ) :   0.9016 B(  6-C ,  7-C ) :   1.1627
B(  6-C , 24-H ) :   0.9166 B(  6-C , 25-H ) :   0.9361 B(  7-C , 26-H ) :   0.9449
B(  7-C , 27-H ) :   0.9362 B(  7-C , 28-H ) :   0.9385 B(  8-S ,  9-C ) :   1.0087
B(  9-C , 10-S ) :   0.9957 B(  9-C , 29-H ) :   0.9091 B(  9-C , 30-H ) :   0.8479
B( 10-S , 11-P ) :   0.9503 B( 10-S , 12-S ) :   0.1116 B( 11-P , 12-S ) :   1.6786
B( 11-P , 13-O ) :   1.0709 B( 11-P , 16-O ) :   1.1432 B( 13-O , 14-C ) :   0.9062
B( 14-C , 15-C ) :   1.1600 B( 14-C , 31-H ) :   0.9287 B( 14-C , 32-H ) :   0.9081
B( 15-C , 33-H ) :   0.9417 B( 15-C , 34-H ) :   0.9508 B( 15-C , 35-H ) :   0.9508
B( 16-O , 17-C ) :   0.8929 B( 17-C , 18-C ) :   1.1681 B( 17-C , 36-H ) :   0.9330
B( 17-C , 37-H ) :   0.9083 B( 18-C , 38-H ) :   0.9408 B( 18-C , 39-H ) :   0.9471
B( 18-C , 40-H ) :   0.9396

Dispersion correction           -0.066215366
FINAL SINGLE POINT ENERGY     -2929.515563117636

DIPOLE MOMENT
-------------

Method             : SCF
Type of density    : Electron Density
Multiplicity       :   1
Irrep              :   0
Energy             : -2929.6338921520723488 Eh
Relativity type    :
Basis              : AO
                                X                 Y                 Z
Electronic contribution:      4.932613964      -6.631593081       5.699734723
Nuclear contribution   :     -5.422944182       6.259441817      -6.490918209
                        -----------------------------------------
Total Dipole Moment    :     -0.490330218      -0.372151264      -0.791183486
                        -----------------------------------------
Magnitude (a.u.)       :      1.002442814
Magnitude (Debye)      :      2.548007139

Rotational constants in cm-1:             0.012869             0.004936             0.004639
Rotational constants in MHz :           385.799946           147.981509           139.082698

                             ****ORCA TERMINATED NORMALLY****
TOTAL RUN TIME: 0 days 0 hours 0 minutes 21 seconds 321 msec
