                         Program Version 6.0.0  -   RELEASE  -
|  1> ! pbe def2-sv(p) def2/J RI DEFGRID1 loosescf d4 GCP(DFT/SV(P)) printgap
|  2> %output
|  3>     printlevel normal
|  4> end
|  5> * xyz 0 1
|  6> C 4.3339712321 -2.0253278883 -0.1176516993
|  7> C 4.8254880901 -0.6053043948 -0.3080138441
|  8> O 3.8396360661 0.3723302493 0.074459899
|  9> P 2.4581835747 0.5432366907 -0.6962895225
| 10> S 2.5203018897 0.3818966373 -2.6423065147
| 11> O 2.0063778133 1.981342178 -0.2334700463
| 12> C 2.0232170941 2.3810124187 1.1609851804
| 13> C 1.0434348448 3.5217591375 1.3347704292
| 14> S 1.1372275395 -0.796618224 0.2978378082
| 15> C -0.0744903265 -0.8941166056 -1.0670874849
| 16> S -1.5007155162 -1.88317687 -0.5950086379
| 17> P -2.5626500845 -0.3945492636 0.5154200132
| 18> S -1.9831600961 1.4585513693 0.1986547568
| 19> O -2.5987792454 -0.9290339515 2.0024103423
| 20> C -1.4379180926 -1.2217916519 2.80115792
| 21> C -0.8413126529 0.0351939785 3.4037069
| 22> O -4.0924309306 -0.6649766104 0.2295803494
| 23> C -4.7968830732 -0.0189973444 -0.8438467746
| 24> C -4.3735305563 -0.5460785152 -2.2009161891
| 25> H 5.1535140586 -2.7137606622 -0.2971101853
| 26> H 3.9583239014 -2.1653206437 0.8928526894
| 27> H 3.5343319717 -2.2406855458 -0.824883776
| 28> H 5.0965272784 -0.4286163809 -1.3532274867
| 29> H 5.6742294914 -0.3815138755 0.3397269597
| 30> H 1.7486890151 1.5170267163 1.7742144567
| 31> H 3.0433074164 2.683720227 1.4040313957
| 32> H 1.3252558978 4.3553179421 0.6982929161
| 33> H 0.0400407839 3.2033596563 1.0599393649
| 34> H 1.046916929 3.8401824943 2.3720779714
| 35> H 0.3916542244 -1.3748300303 -1.9247164076
| 36> H -0.3984458306 0.1203218688 -1.3122985563
| 37> H -1.8161180809 -1.8922643918 3.5749291395
| 38> H -0.6980300592 -1.7490945348 2.1889984012
| 39> H -0.4914608007 0.6996464956 2.6167792322
| 40> H -1.587991184 0.5606067302 3.9927387789
| 41> H -0.0034467506 -0.2352351194 4.0378035635
| 42> H -5.8453410205 -0.2387114974 -0.6381186248
| 43> H -4.6262710616 1.0610012029 -0.7780019374
| 44> H -4.4346100375 -1.6312198635 -2.2185971426
| 45> H -5.0250159589 -0.1351507376 -2.9655675968
| 46> H -3.3481175285 -0.248524041 -2.4171341041
| 47> *
| 48>
| 49>                          ****END OF INPUT****

CARTESIAN COORDINATES (ANGSTROEM)
---------------------------------
  C      4.333971   -2.025328   -0.117652
  C      4.825488   -0.605304   -0.308014
  O      3.839636    0.372330    0.074460
  P      2.458184    0.543237   -0.696290
  S      2.520302    0.381897   -2.642307
  O      2.006378    1.981342   -0.233470
  C      2.023217    2.381012    1.160985
  C      1.043435    3.521759    1.334770
  S      1.137228   -0.796618    0.297838
  C     -0.074490   -0.894117   -1.067087
  S     -1.500716   -1.883177   -0.595009
  P     -2.562650   -0.394549    0.515420
  S     -1.983160    1.458551    0.198655
  O     -2.598779   -0.929034    2.002410
  C     -1.437918   -1.221792    2.801158
  C     -0.841313    0.035194    3.403707
  O     -4.092431   -0.664977    0.229580
  C     -4.796883   -0.018997   -0.843847
  C     -4.373531   -0.546079   -2.200916
  H      5.153514   -2.713761   -0.297110
  H      3.958324   -2.165321    0.892853
  H      3.534332   -2.240686   -0.824884
  H      5.096527   -0.428616   -1.353227
  H      5.674229   -0.381514    0.339727
  H      1.748689    1.517027    1.774214
  H      3.043307    2.683720    1.404031
  H      1.325256    4.355318    0.698293
  H      0.040041    3.203360    1.059939
  H      1.046917    3.840182    2.372078
  H      0.391654   -1.374830   -1.924716
  H     -0.398446    0.120322   -1.312299
  H     -1.816118   -1.892264    3.574929
  H     -0.698030   -1.749095    2.188998
  H     -0.491461    0.699646    2.616779
  H     -1.587991    0.560607    3.992739
  H     -0.003447   -0.235235    4.037804
  H     -5.845341   -0.238711   -0.638119
  H     -4.626271    1.061001   -0.778002
  H     -4.434610   -1.631220   -2.218597
  H     -5.025016   -0.135151   -2.965568
  H     -3.348118   -0.248524   -2.417134

 Total Charge           Charge          ....    0
 Multiplicity           Mult            ....    1
 Number of Electrons    NEL             ....  202
 Basis Dimension        Dim             ....  334

ORBITAL ENERGIES
----------------

  NO   OCC          E(Eh)            E(eV)
   0   2.0000     -88.052909     -2396.0415
   1   2.0000     -88.042802     -2395.7664
   2   2.0000     -87.995299     -2394.4738
   3   2.0000     -87.987202     -2394.2535
   4   2.0000     -76.431850     -2079.8164
   5   2.0000     -76.426297     -2079.6653
   6   2.0000     -18.795497      -511.4515
   7   2.0000     -18.793390      -511.3941
   8   2.0000     -18.793005      -511.3837
   9   2.0000     -18.789929      -511.3000
  10   2.0000      -9.956653      -270.9343
  11   2.0000      -9.955883      -270.9134
  12   2.0000      -9.953892      -270.8592
  13   2.0000      -9.953619      -270.8518
  14   2.0000      -9.952529      -270.8221
  15   2.0000      -9.886475      -269.0247
  16   2.0000      -9.885355      -268.9942
  17   2.0000      -9.883733      -268.9501
  18   2.0000      -9.880710      -268.8678
  19   2.0000      -7.697553      -209.4611
  20   2.0000      -7.687351      -209.1835
  21   2.0000      -7.639713      -207.8872
  22   2.0000      -7.632524      -207.6915
  23   2.0000      -6.429170      -174.9466
  24   2.0000      -6.423862      -174.8022
  25   2.0000      -5.725313      -155.7937
  26   2.0000      -5.722022      -155.7041
  27   2.0000      -5.715102      -155.5158
  28   2.0000      -5.714771      -155.5068
  29   2.0000      -5.712088      -155.4338
  30   2.0000      -5.704337      -155.2229
  31   2.0000      -5.668480      -154.2472
  32   2.0000      -5.661523      -154.0579
  33   2.0000      -5.660227      -154.0226
  34   2.0000      -5.660190      -154.0216
  35   2.0000      -5.653009      -153.8262
  36   2.0000      -5.652707      -153.8180
  37   2.0000      -4.651379      -126.5705
  38   2.0000      -4.651296      -126.5682
  39   2.0000      -4.649592      -126.5218
  40   2.0000      -4.646715      -126.4435
  41   2.0000      -4.645570      -126.4124
  42   2.0000      -4.644147      -126.3737
  43   2.0000      -0.993154       -27.0251
  44   2.0000      -0.988779       -26.9060
  45   2.0000      -0.948284       -25.8041
  46   2.0000      -0.944671       -25.7058
  47   2.0000      -0.765286       -20.8245
  48   2.0000      -0.723583       -19.6897
  49   2.0000      -0.713403       -19.4127
  50   2.0000      -0.690009       -18.7761
  51   2.0000      -0.685279       -18.6474
  52   2.0000      -0.680083       -18.5060
  53   2.0000      -0.654926       -17.8214
  54   2.0000      -0.638521       -17.3750
  55   2.0000      -0.603348       -16.4179
  56   2.0000      -0.594203       -16.1691
  57   2.0000      -0.572198       -15.5703
  58   2.0000      -0.568688       -15.4748
  59   2.0000      -0.560974       -15.2649
  60   2.0000      -0.507102       -13.7989
  61   2.0000      -0.499012       -13.5788
  62   2.0000      -0.475071       -12.9274
  63   2.0000      -0.472719       -12.8633
  64   2.0000      -0.454610       -12.3706
  65   2.0000      -0.452493       -12.3130
  66   2.0000      -0.440070       -11.9749
  67   2.0000      -0.438083       -11.9208
  68   2.0000      -0.429083       -11.6759
  69   2.0000      -0.422638       -11.5006
  70   2.0000      -0.412545       -11.2259
  71   2.0000      -0.407881       -11.0990
  72   2.0000      -0.394389       -10.7319
  73   2.0000      -0.389032       -10.5861
  74   2.0000      -0.384897       -10.4736
  75   2.0000      -0.371382       -10.1058
  76   2.0000      -0.365882        -9.9562
  77   2.0000      -0.357162        -9.7189
  78   2.0000      -0.354155        -9.6370
  79   2.0000      -0.351925        -9.5764
  80   2.0000      -0.350687        -9.5427
  81   2.0000      -0.342798        -9.3280
  82   2.0000      -0.339585        -9.2406
  83   2.0000      -0.338944        -9.2231
  84   2.0000      -0.336663        -9.1611
  85   2.0000      -0.318117        -8.6564
  86   2.0000      -0.313275        -8.5247
  87   2.0000      -0.303422        -8.2565
  88   2.0000      -0.299642        -8.1537
  89   2.0000      -0.296224        -8.0607
  90   2.0000      -0.292469        -7.9585
  91   2.0000      -0.273818        -7.4510
  92   2.0000      -0.268814        -7.3148
  93   2.0000      -0.266618        -7.2550
  94   2.0000      -0.262446        -7.1415
  95   2.0000      -0.234488        -6.3807
  96   2.0000      -0.224663        -6.1134
  97   2.0000      -0.213523        -5.8103
  98   2.0000      -0.210158        -5.7187
  99   2.0000      -0.206435        -5.6174
 100   2.0000      -0.202099        -5.4994
 101   0.0000      -0.050152        -1.3647
 102   0.0000      -0.037527        -1.0212
 103   0.0000      -0.012474        -0.3394
 104   0.0000      -0.000492        -0.0134
 105   0.0000       0.015598         0.4245

MULLIKEN ATOMIC CHARGES
-----------------------
   0 C :   -0.316236
   1 C :   -0.000301
   2 O :   -0.385997
   3 P :    0.607260
   4 S :   -0.312471
   5 O :   -0.355118
   6 C :   -0.019596
   7 C :   -0.292923
   8 S :   -0.129637
   9 C :   -0.344816
  10 S :   -0.097272
  11 P :    0.603869
  12 S :   -0.324925
  13 O :   -0.349685
  14 C :   -0.017323
  15 C :   -0.321771
  16 O :   -0.355253
  17 C :   -0.005086
  18 C :   -0.314642
  19 H :    0.114346
  20 H :    0.116195
  21 H :    0.127968
  22 H :    0.113725
  23 H :    0.105373
  24 H :    0.104967
  25 H :    0.106293
  26 H :    0.118075
  27 H :    0.145236
  28 H :    0.105436
  29 H :    0.189910
  30 H :    0.204162
  31 H :    0.109280
  32 H :    0.113054
  33 H :    0.150475
  34 H :    0.116527
  35 H :    0.107188
  36 H :    0.108483
  37 H :    0.115474
  38 H :    0.118632
  39 H :    0.114806
  40 H :    0.126315
Sum of atomic charges:   -0.0000000

LOEWDIN ATOMIC CHARGES
----------------------
   0 C :   -0.370636
   1 C :   -0.115371
   2 O :   -0.249822
   3 P :    0.572775
   4 S :   -0.305989
   5 O :   -0.236766
   6 C :   -0.114293
   7 C :   -0.355800
   8 S :    0.060277
   9 C :   -0.484505
  10 S :    0.090548
  11 P :    0.571774
  12 S :   -0.293587
  13 O :   -0.230088
  14 C :   -0.117484
  15 C :   -0.368751
  16 O :   -0.231612
  17 C :   -0.118699
  18 C :   -0.367752
  19 H :    0.131635
  20 H :    0.123001
  21 H :    0.121612
  22 H :    0.113840
  23 H :    0.118980
  24 H :    0.101484
  25 H :    0.114667
  26 H :    0.129010
  27 H :    0.124844
  28 H :    0.128892
  29 H :    0.131571
  30 H :    0.121390
  31 H :    0.120842
  32 H :    0.096757
  33 H :    0.120713
  34 H :    0.127868
  35 H :    0.128233
  36 H :    0.120609
  37 H :    0.111217
  38 H :    0.125446
  39 H :    0.131782
  40 H :    0.121390

  Mayer bond orders larger than 0.100000
B(  0-C ,  1-C ) :   1.1658 B(  0-C , 19-H ) :   0.9369 B(  0-C , 20-H ) :   0.9438
B(  0-C , 21-H ) :   0.9348 B(  1-C ,  2-O ) :   0.9073 B(  1-C , 22-H ) :   0.9198
B(  1-C , 23-H ) :   0.9345 B(  2-O ,  3-P ) :   1.0846 B(  3-P ,  4-S ) :   1.6344
B(  3-P ,  5-O ) :   1.1434 B(  3-P ,  8-S ) :   0.9507 B(  4-S ,  8-S ) :   0.1101
B(  5-O ,  6-C ) :   0.8894 B(  6-C ,  7-C ) :   1.1683 B(  6-C , 24-H ) :   0.9069
B(  6-C , 25-H ) :   0.9301 B(  7-C , 26-H ) :   0.9476 B(  7-C , 27-H ) :   0.9327
B(  7-C , 28-H ) :   0.9394 B(  8-S ,  9-C ) :   0.9728 B(  9-C , 10-S ) :   1.0144
B(  9-C , 29-H ) :   0.8874 B(  9-C , 30-H ) :   0.8588 B( 10-S , 11-P ) :   0.9261
B( 10-S , 12-S ) :   0.1227 B( 11-P , 12-S ) :   1.6020 B( 11-P , 13-O ) :   1.1384
B( 11-P , 16-O ) :   1.1367 B( 13-O , 14-C ) :   0.9144 B( 14-C , 15-C ) :   1.1632
B( 14-C , 31-H ) :   0.9344 B( 14-C , 32-H ) :   0.9055 B( 15-C , 33-H ) :   0.9225
B( 15-C , 34-H ) :   0.9429 B( 15-C , 35-H ) :   0.9395 B( 16-O , 17-C ) :   0.9097
B( 17-C , 18-C ) :   1.1634 B( 17-C , 36-H ) :   0.9336 B( 17-C , 37-H ) :   0.9146
B( 18-C , 38-H ) :   0.9450 B( 18-C , 39-H ) :   0.9385 B( 18-C , 40-H ) :   0.9389

Dispersion correction           -0.064436971
FINAL SINGLE POINT ENERGY     -2929.521929252115

DIPOLE MOMENT
-------------

Method             : SCF
Type of density    : Electron Density
Multiplicity       :   1
Irrep              :   0
Energy             : -2929.6419049394435206 Eh
Relativity type    :
Basis              : AO
                                X                 Y                 Z
Electronic contribution:     -2.457187823      -2.907836570      -8.769909450
Nuclear contribution   :      2.644457714       2.347810336       9.862324508
                        -----------------------------------------
Total Dipole Moment    :      0.187269892      -0.560026235       1.092415058
                        -----------------------------------------
Magnitude (a.u.)       :      1.241801133
Magnitude (Debye)      :      3.156407636

Rotational constants in cm-1:             0.011881             0.004761             0.004531
Rotational constants in MHz :           356.188599           142.741097           135.835518

                             ****ORCA TERMINATED NORMALLY****
TOTAL RUN TIME: 0 days 0 hours 0 minutes 20 seconds 967 msec
