                         Program Version 6.0.0  -   RELEASE  -
|  1> ! pbe def2-sv(p) def2/J RI DEFGRID1 loosescf d4 GCP(DFT/SV(P)) printgap
|  2> %output
|  3>     printlevel normal
|  4> end
|  5> * xyz 0 1
|  6> C 5.7437315604 -0.4425408722 0.328281199
|  7> C 4.3942613491 -0.8270680613 -0.2438090275
|  8> O 3.3981734148 0.0239981774 0.3560860796
|  9> P 1.9489250728 0.1830118647 -0.281066109
| 10> S 1.957817641 0.5411281853 -2.2126786477
| 11> O 1.3222796648 1.2668022542 0.6840296641
| 12> C 1.3967430822 2.6785061178 0.4060565961
| 13> C 2.8186181137 3.1919578064 0.4698467383
| 14> S 1.020673936 -1.5948997921 0.3412603147
| 15> C -0.1920904718 -1.8489072632 -1.0028817264
| 16> S -1.8848208939 -1.9459056302 -0.3993933445
| 17> P -2.0826094171 0.0892437111 0.1927342267
| 18> S -1.4206624028 1.3652384642 -1.1423571406
| 19> O -1.3248763834 0.3354281428 1.5525790735
| 20> C -1.738334963 -0.1083900936 2.8696812396
| 21> C -1.7547756097 -1.6166143119 3.0075817923
| 22> O -3.5995296635 0.1966146174 0.6434177082
| 23> C -4.72285549 -0.3107751479 -0.1023602946
| 24> C -4.8053842784 0.2649640085 -1.5000306864
| 25> H 5.9783864625 0.5878349232 0.0766646783
| 26> H 5.7296226472 -0.5469021506 1.4091839071
| 27> H 6.5044480807 -1.0948177697 -0.08758973
| 28> H 4.1425039042 -1.8649870646 -0.0088781491
| 29> H 4.3612139301 -0.6881115489 -1.3299061701
| 30> H 0.9551749902 2.8606779338 -0.5798534556
| 31> H 0.7615301733 3.1259059077 1.1721453087
| 32> H 3.4053564564 2.7491437123 -0.334353451
| 33> H 2.8153534467 4.2710264211 0.3517825011
| 34> H 3.2695212804 2.9286930249 1.4230790322
| 35> H 0.0197280405 -2.8067573518 -1.4707095679
| 36> H -0.0935788737 -1.0281818824 -1.7193828312
| 37> H -0.9897971822 0.34273466 3.5232219462
| 38> H -2.721340175 0.3182827378 3.0766908347
| 39> H -0.8002867313 -2.0362791089 2.6966622345
| 40> H -1.9315455432 -1.8693652133 4.0485078852
| 41> H -2.545593161 -2.0507057671 2.4000076764
| 42> H -4.644653658 -1.4006647349 -0.1379275521
| 43> H -5.5830880977 -0.0172504649 0.5018203734
| 44> H -3.9410544713 -0.0444411137 -2.0859761934
| 45> H -5.7078161404 -0.0926802288 -1.9850089922
| 46> H -4.8212836343 1.3517376143 -1.4636864845
| 47> *
| 48>
| 49>                          ****END OF INPUT****

CARTESIAN COORDINATES (ANGSTROEM)
---------------------------------
  C      5.743732   -0.442541    0.328281
  C      4.394261   -0.827068   -0.243809
  O      3.398173    0.023998    0.356086
  P      1.948925    0.183012   -0.281066
  S      1.957818    0.541128   -2.212679
  O      1.322280    1.266802    0.684030
  C      1.396743    2.678506    0.406057
  C      2.818618    3.191958    0.469847
  S      1.020674   -1.594900    0.341260
  C     -0.192090   -1.848907   -1.002882
  S     -1.884821   -1.945906   -0.399393
  P     -2.082609    0.089244    0.192734
  S     -1.420662    1.365238   -1.142357
  O     -1.324876    0.335428    1.552579
  C     -1.738335   -0.108390    2.869681
  C     -1.754776   -1.616614    3.007582
  O     -3.599530    0.196615    0.643418
  C     -4.722855   -0.310775   -0.102360
  C     -4.805384    0.264964   -1.500031
  H      5.978386    0.587835    0.076665
  H      5.729623   -0.546902    1.409184
  H      6.504448   -1.094818   -0.087590
  H      4.142504   -1.864987   -0.008878
  H      4.361214   -0.688112   -1.329906
  H      0.955175    2.860678   -0.579853
  H      0.761530    3.125906    1.172145
  H      3.405356    2.749144   -0.334353
  H      2.815353    4.271026    0.351783
  H      3.269521    2.928693    1.423079
  H      0.019728   -2.806757   -1.470710
  H     -0.093579   -1.028182   -1.719383
  H     -0.989797    0.342735    3.523222
  H     -2.721340    0.318283    3.076691
  H     -0.800287   -2.036279    2.696662
  H     -1.931546   -1.869365    4.048508
  H     -2.545593   -2.050706    2.400008
  H     -4.644654   -1.400665   -0.137928
  H     -5.583088   -0.017250    0.501820
  H     -3.941054   -0.044441   -2.085976
  H     -5.707816   -0.092680   -1.985009
  H     -4.821284    1.351738   -1.463686

 Total Charge           Charge          ....    0
 Multiplicity           Mult            ....    1
 Number of Electrons    NEL             ....  202
 Basis Dimension        Dim             ....  334

ORBITAL ENERGIES
----------------

  NO   OCC          E(Eh)            E(eV)
   0   2.0000     -88.044158     -2395.8033
   1   2.0000     -88.038960     -2395.6619
   2   2.0000     -87.978756     -2394.0236
   3   2.0000     -87.975687     -2393.9402
   4   2.0000     -76.424234     -2079.6091
   5   2.0000     -76.418314     -2079.4480
   6   2.0000     -18.797703      -511.5115
   7   2.0000     -18.786225      -511.1992
   8   2.0000     -18.785422      -511.1773
   9   2.0000     -18.777998      -510.9753
  10   2.0000      -9.961767      -271.0735
  11   2.0000      -9.953721      -270.8545
  12   2.0000      -9.953050      -270.8362
  13   2.0000      -9.946477      -270.6574
  14   2.0000      -9.937417      -270.4109
  15   2.0000      -9.884781      -268.9786
  16   2.0000      -9.884400      -268.9682
  17   2.0000      -9.883440      -268.9421
  18   2.0000      -9.874203      -268.6907
  19   2.0000      -7.689182      -209.2333
  20   2.0000      -7.684191      -209.0975
  21   2.0000      -7.623684      -207.4510
  22   2.0000      -7.620607      -207.3673
  23   2.0000      -6.421225      -174.7304
  24   2.0000      -6.415950      -174.5869
  25   2.0000      -5.716933      -155.5657
  26   2.0000      -5.713586      -155.4746
  27   2.0000      -5.712047      -155.4327
  28   2.0000      -5.708659      -155.3405
  29   2.0000      -5.706395      -155.2789
  30   2.0000      -5.701131      -155.1357
  31   2.0000      -5.652548      -153.8137
  32   2.0000      -5.649729      -153.7369
  33   2.0000      -5.644469      -153.5938
  34   2.0000      -5.643744      -153.5741
  35   2.0000      -5.641181      -153.5043
  36   2.0000      -5.640594      -153.4884
  37   2.0000      -4.644283      -126.3774
  38   2.0000      -4.643186      -126.3475
  39   2.0000      -4.641112      -126.2911
  40   2.0000      -4.638194      -126.2117
  41   2.0000      -4.637635      -126.1965
  42   2.0000      -4.636759      -126.1726
  43   2.0000      -0.988306       -26.8932
  44   2.0000      -0.978517       -26.6268
  45   2.0000      -0.942744       -25.6534
  46   2.0000      -0.935875       -25.4665
  47   2.0000      -0.761766       -20.7287
  48   2.0000      -0.718766       -19.5586
  49   2.0000      -0.707934       -19.2639
  50   2.0000      -0.691275       -18.8105
  51   2.0000      -0.681790       -18.5525
  52   2.0000      -0.672092       -18.2885
  53   2.0000      -0.646889       -17.6028
  54   2.0000      -0.629411       -17.1272
  55   2.0000      -0.593588       -16.1524
  56   2.0000      -0.586963       -15.9721
  57   2.0000      -0.580443       -15.7947
  58   2.0000      -0.563508       -15.3338
  59   2.0000      -0.556106       -15.1324
  60   2.0000      -0.500156       -13.6099
  61   2.0000      -0.495363       -13.4795
  62   2.0000      -0.470515       -12.8034
  63   2.0000      -0.466277       -12.6881
  64   2.0000      -0.452940       -12.3251
  65   2.0000      -0.443740       -12.0748
  66   2.0000      -0.436184       -11.8692
  67   2.0000      -0.432813       -11.7774
  68   2.0000      -0.426932       -11.6174
  69   2.0000      -0.415545       -11.3076
  70   2.0000      -0.410579       -11.1724
  71   2.0000      -0.403249       -10.9730
  72   2.0000      -0.389452       -10.5975
  73   2.0000      -0.385703       -10.4955
  74   2.0000      -0.378064       -10.2877
  75   2.0000      -0.367961       -10.0127
  76   2.0000      -0.354618        -9.6496
  77   2.0000      -0.352723        -9.5981
  78   2.0000      -0.352163        -9.5828
  79   2.0000      -0.345891        -9.4122
  80   2.0000      -0.343660        -9.3515
  81   2.0000      -0.341098        -9.2818
  82   2.0000      -0.338034        -9.1984
  83   2.0000      -0.335650        -9.1335
  84   2.0000      -0.329550        -8.9675
  85   2.0000      -0.323502        -8.8029
  86   2.0000      -0.306369        -8.3367
  87   2.0000      -0.298592        -8.1251
  88   2.0000      -0.294528        -8.0145
  89   2.0000      -0.290928        -7.9165
  90   2.0000      -0.276821        -7.5327
  91   2.0000      -0.272406        -7.4125
  92   2.0000      -0.263711        -7.1759
  93   2.0000      -0.258044        -7.0217
  94   2.0000      -0.254618        -6.9285
  95   2.0000      -0.233390        -6.3509
  96   2.0000      -0.219247        -5.9660
  97   2.0000      -0.209938        -5.7127
  98   2.0000      -0.197310        -5.3691
  99   2.0000      -0.187586        -5.1045
 100   2.0000      -0.181214        -4.9311
 101   0.0000      -0.040868        -1.1121
 102   0.0000      -0.028402        -0.7729
 103   0.0000      -0.009232        -0.2512
 104   0.0000       0.012597         0.3428
 105   0.0000       0.019730         0.5369

MULLIKEN ATOMIC CHARGES
-----------------------
   0 C :   -0.280359
   1 C :   -0.008848
   2 O :   -0.379434
   3 P :    0.614265
   4 S :   -0.322240
   5 O :   -0.350641
   6 C :   -0.000535
   7 C :   -0.303727
   8 S :   -0.102443
   9 C :   -0.350508
  10 S :   -0.125102
  11 P :    0.602482
  12 S :   -0.298458
  13 O :   -0.344229
  14 C :    0.007184
  15 C :   -0.321717
  16 O :   -0.382651
  17 C :   -0.016273
  18 C :   -0.306370
  19 H :    0.119262
  20 H :    0.114924
  21 H :    0.110191
  22 H :    0.097171
  23 H :    0.102831
  24 H :    0.122636
  25 H :    0.100549
  26 H :    0.120920
  27 H :    0.108423
  28 H :    0.111410
  29 H :    0.181368
  30 H :    0.213868
  31 H :    0.108727
  32 H :    0.106845
  33 H :    0.131926
  34 H :    0.109908
  35 H :    0.117238
  36 H :    0.114899
  37 H :    0.109341
  38 H :    0.129790
  39 H :    0.110909
  40 H :    0.126472
Sum of atomic charges:    0.0000000

LOEWDIN ATOMIC CHARGES
----------------------
   0 C :   -0.350378
   1 C :   -0.123591
   2 O :   -0.249735
   3 P :    0.569691
   4 S :   -0.314451
   5 O :   -0.228337
   6 C :   -0.117432
   7 C :   -0.366895
   8 S :    0.078251
   9 C :   -0.477532
  10 S :    0.068359
  11 P :    0.563511
  12 S :   -0.290962
  13 O :   -0.228237
  14 C :   -0.107911
  15 C :   -0.371708
  16 O :   -0.246162
  17 C :   -0.114713
  18 C :   -0.368511
  19 H :    0.127659
  20 H :    0.126121
  21 H :    0.129878
  22 H :    0.106753
  23 H :    0.106320
  24 H :    0.109658
  25 H :    0.117943
  26 H :    0.120371
  27 H :    0.128838
  28 H :    0.123487
  29 H :    0.136891
  30 H :    0.126970
  31 H :    0.122362
  32 H :    0.112714
  33 H :    0.123399
  34 H :    0.129416
  35 H :    0.114966
  36 H :    0.107398
  37 H :    0.121133
  38 H :    0.123330
  39 H :    0.130015
  40 H :    0.131122

  Mayer bond orders larger than 0.100000
B(  0-C ,  1-C ) :   1.1594 B(  0-C , 19-H ) :   0.9518 B(  0-C , 20-H ) :   0.9505
B(  0-C , 21-H ) :   0.9424 B(  1-C ,  2-O ) :   0.9091 B(  1-C , 22-H ) :   0.9271
B(  1-C , 23-H ) :   0.9075 B(  2-O ,  3-P ) :   1.0911 B(  3-P ,  4-S ) :   1.6020
B(  3-P ,  5-O ) :   1.1560 B(  3-P ,  8-S ) :   0.9649 B(  4-S ,  8-S ) :   0.1147
B(  5-O ,  6-C ) :   0.9008 B(  6-C ,  7-C ) :   1.1583 B(  6-C , 24-H ) :   0.9128
B(  6-C , 25-H ) :   0.9361 B(  7-C , 26-H ) :   0.9348 B(  7-C , 27-H ) :   0.9390
B(  7-C , 28-H ) :   0.9448 B(  8-S ,  9-C ) :   0.9947 B(  9-C , 10-S ) :   1.0092
B(  9-C , 29-H ) :   0.9114 B(  9-C , 30-H ) :   0.8440 B( 10-S , 11-P ) :   0.9267
B( 10-S , 12-S ) :   0.1061 B( 11-P , 12-S ) :   1.6537 B( 11-P , 13-O ) :   1.1430
B( 11-P , 16-O ) :   1.0767 B( 13-O , 14-C ) :   0.8999 B( 14-C , 15-C ) :   1.1694
B( 14-C , 31-H ) :   0.9340 B( 14-C , 32-H ) :   0.9289 B( 15-C , 33-H ) :   0.9368
B( 15-C , 34-H ) :   0.9355 B( 15-C , 35-H ) :   0.9406 B( 16-O , 17-C ) :   0.9123
B( 17-C , 18-C ) :   1.1671 B( 17-C , 36-H ) :   0.9250 B( 17-C , 37-H ) :   0.9335
B( 18-C , 38-H ) :   0.9310 B( 18-C , 39-H ) :   0.9349 B( 18-C , 40-H ) :   0.9435

Dispersion correction           -0.067663529
FINAL SINGLE POINT ENERGY     -2929.514951021592

DIPOLE MOMENT
-------------

Method             : SCF
Type of density    : Electron Density
Multiplicity       :   1
Irrep              :   0
Energy             : -2929.6328884880790611 Eh
Relativity type    :
Basis              : AO
                                X                 Y                 Z
Electronic contribution:     -4.516065088      -3.367550106      -7.872564803
Nuclear contribution   :      4.031315639       2.640771043       9.116233536
                        -----------------------------------------
Total Dipole Moment    :     -0.484749449      -0.726779063       1.243668733
                        -----------------------------------------
Magnitude (a.u.)       :      1.519836094
Magnitude (Debye)      :      3.863116343

Rotational constants in cm-1:             0.013514             0.005104             0.004889
Rotational constants in MHz :           405.133330           153.000836           146.569841

                             ****ORCA TERMINATED NORMALLY****
TOTAL RUN TIME: 0 days 0 hours 0 minutes 22 seconds 169 msec
