                         Program Version 6.0.0  -   RELEASE  -
|  1> ! pbe def2-sv(p) def2/J RI DEFGRID1 loosescf d4 GCP(DFT/SV(P)) printgap
|  2> %output
|  3>     printlevel normal
|  4> end
|  5> * xyz 0 1
|  6> C 4.1134762913 -1.1185509994 -2.4381339582
|  7> C 4.3521062695 -1.4321674632 -0.9751733022
|  8> O 3.123515234 -1.5320006259 -0.2336796166
|  9> P 2.1960279973 -0.2751090523 0.0573900343
| 10> S 3.1487067101 1.393834844 0.4575488742
| 11> O 1.2527924894 -0.8447085803 1.1942552046
| 12> C 1.4833928515 -0.5841127033 2.5922758874
| 13> C 2.6918601414 -1.337920683 3.1062017396
| 14> S 0.8388052444 -0.2449995069 -1.561371739
| 15> C 0.2194329297 1.4372794602 -1.2799942739
| 16> S -0.6231502294 1.6434861816 0.3137130782
| 17> P -2.1950225719 0.2846316072 -0.0686383506
| 18> S -2.9046514729 0.2291560711 -1.8979424186
| 19> O -3.2651238485 0.595689455 1.0639143918
| 20> C -4.3303720019 1.5453832721 0.8823221231
| 21> C -3.8208162617 2.9708546666 0.8203672869
| 22> O -1.5436513479 -1.0494001024 0.481653602
| 23> C -1.9363561243 -2.3529409175 0.0105528959
| 24> C -3.3178477812 -2.7292128337 0.5032315104
| 25> H 5.0553562006 -1.1702302703 -2.9748436512
| 26> H 3.4119587283 -1.8290201669 -2.8683392934
| 27> H 3.7022277878 -0.1152894237 -2.5423693645
| 28> H 4.9719063165 -0.6570794208 -0.5129969127
| 29> H 4.8175126292 -2.4098005182 -0.8426918685
| 30> H 1.6101832254 0.4952389817 2.7281520712
| 31> H 0.5602937859 -0.9086394213 3.0748935527
| 32> H 3.5918644176 -0.9663862098 2.6172693522
| 33> H 2.7833098626 -1.1860175974 4.1770824061
| 34> H 2.5906212628 -2.3993804221 2.8959848461
| 35> H -0.475973983 1.6463094754 -2.092163721
| 36> H 1.0527635711 2.1389936657 -1.2775468146
| 37> H -4.8678186048 1.2894675859 -0.0364770928
| 38> H -4.9744412592 1.3844543656 1.7478693645
| 39> H -3.2314274722 3.1178838104 -0.0837291168
| 40> H -4.6643563984 3.6535689784 0.8055736679
| 41> H -3.1952435519 3.1868829024 1.6828915235
| 42> H -1.8993705126 -2.3525145339 -1.084065973
| 43> H -1.164701086 -3.0167299608 0.4033800778
| 44> H -4.0585961921 -2.059972799 0.066777663
| 45> H -3.5425575684 -3.7481481661 0.2040968988
| 46> H -3.3660518985 -2.6482369185 1.5859479556
| 47> *
| 48>
| 49>                          ****END OF INPUT****

CARTESIAN COORDINATES (ANGSTROEM)
---------------------------------
  C      4.113476   -1.118551   -2.438134
  C      4.352106   -1.432167   -0.975173
  O      3.123515   -1.532001   -0.233680
  P      2.196028   -0.275109    0.057390
  S      3.148707    1.393835    0.457549
  O      1.252792   -0.844709    1.194255
  C      1.483393   -0.584113    2.592276
  C      2.691860   -1.337921    3.106202
  S      0.838805   -0.245000   -1.561372
  C      0.219433    1.437279   -1.279994
  S     -0.623150    1.643486    0.313713
  P     -2.195023    0.284632   -0.068638
  S     -2.904651    0.229156   -1.897942
  O     -3.265124    0.595689    1.063914
  C     -4.330372    1.545383    0.882322
  C     -3.820816    2.970855    0.820367
  O     -1.543651   -1.049400    0.481654
  C     -1.936356   -2.352941    0.010553
  C     -3.317848   -2.729213    0.503232
  H      5.055356   -1.170230   -2.974844
  H      3.411959   -1.829020   -2.868339
  H      3.702228   -0.115289   -2.542369
  H      4.971906   -0.657079   -0.512997
  H      4.817513   -2.409801   -0.842692
  H      1.610183    0.495239    2.728152
  H      0.560294   -0.908639    3.074894
  H      3.591864   -0.966386    2.617269
  H      2.783310   -1.186018    4.177082
  H      2.590621   -2.399380    2.895985
  H     -0.475974    1.646309   -2.092164
  H      1.052764    2.138994   -1.277547
  H     -4.867819    1.289468   -0.036477
  H     -4.974441    1.384454    1.747869
  H     -3.231427    3.117884   -0.083729
  H     -4.664356    3.653569    0.805574
  H     -3.195244    3.186883    1.682892
  H     -1.899371   -2.352515   -1.084066
  H     -1.164701   -3.016730    0.403380
  H     -4.058596   -2.059973    0.066778
  H     -3.542558   -3.748148    0.204097
  H     -3.366052   -2.648237    1.585948

 Total Charge           Charge          ....    0
 Multiplicity           Mult            ....    1
 Number of Electrons    NEL             ....  202
 Basis Dimension        Dim             ....  334

ORBITAL ENERGIES
----------------

  NO   OCC          E(Eh)            E(eV)
   0   2.0000     -88.041162     -2395.7218
   1   2.0000     -88.041122     -2395.7207
   2   2.0000     -87.989586     -2394.3183
   3   2.0000     -87.989536     -2394.3170
   4   2.0000     -76.425507     -2079.6438
   5   2.0000     -76.425430     -2079.6417
   6   2.0000     -18.794580      -511.4265
   7   2.0000     -18.794492      -511.4241
   8   2.0000     -18.785060      -511.1675
   9   2.0000     -18.785046      -511.1671
  10   2.0000      -9.953751      -270.8553
  11   2.0000      -9.953225      -270.8410
  12   2.0000      -9.953181      -270.8398
  13   2.0000      -9.946766      -270.6653
  14   2.0000      -9.946737      -270.6645
  15   2.0000      -9.884359      -268.9671
  16   2.0000      -9.884322      -268.9661
  17   2.0000      -9.881678      -268.8941
  18   2.0000      -9.881651      -268.8934
  19   2.0000      -7.686135      -209.1504
  20   2.0000      -7.686109      -209.1497
  21   2.0000      -7.634492      -207.7451
  22   2.0000      -7.634445      -207.7438
  23   2.0000      -6.423072      -174.7807
  24   2.0000      -6.423013      -174.7791
  25   2.0000      -5.713974      -155.4851
  26   2.0000      -5.713947      -155.4844
  27   2.0000      -5.710808      -155.3990
  28   2.0000      -5.710780      -155.3982
  29   2.0000      -5.702956      -155.1853
  30   2.0000      -5.702929      -155.1846
  31   2.0000      -5.663237      -154.1045
  32   2.0000      -5.663200      -154.1035
  33   2.0000      -5.655147      -153.8844
  34   2.0000      -5.655102      -153.8831
  35   2.0000      -5.654829      -153.8757
  36   2.0000      -5.654774      -153.8742
  37   2.0000      -4.645398      -126.4077
  38   2.0000      -4.645338      -126.4061
  39   2.0000      -4.644824      -126.3921
  40   2.0000      -4.644767      -126.3905
  41   2.0000      -4.643762      -126.3632
  42   2.0000      -4.643705      -126.3616
  43   2.0000      -0.986250       -26.8372
  44   2.0000      -0.985110       -26.8062
  45   2.0000      -0.944900       -25.7120
  46   2.0000      -0.943371       -25.6704
  47   2.0000      -0.764373       -20.7996
  48   2.0000      -0.719900       -19.5895
  49   2.0000      -0.706238       -19.2177
  50   2.0000      -0.686345       -18.6764
  51   2.0000      -0.684931       -18.6379
  52   2.0000      -0.673184       -18.3183
  53   2.0000      -0.652375       -17.7520
  54   2.0000      -0.639224       -17.3942
  55   2.0000      -0.604157       -16.4399
  56   2.0000      -0.595808       -16.2128
  57   2.0000      -0.570474       -15.5234
  58   2.0000      -0.570182       -15.5154
  59   2.0000      -0.559619       -15.2280
  60   2.0000      -0.494777       -13.4636
  61   2.0000      -0.489830       -13.3290
  62   2.0000      -0.473704       -12.8901
  63   2.0000      -0.470439       -12.8013
  64   2.0000      -0.454342       -12.3633
  65   2.0000      -0.440422       -11.9845
  66   2.0000      -0.439450       -11.9580
  67   2.0000      -0.438699       -11.9376
  68   2.0000      -0.425851       -11.5880
  69   2.0000      -0.415017       -11.2932
  70   2.0000      -0.407527       -11.0894
  71   2.0000      -0.392305       -10.6752
  72   2.0000      -0.388539       -10.5727
  73   2.0000      -0.388409       -10.5691
  74   2.0000      -0.384632       -10.4664
  75   2.0000      -0.376592       -10.2476
  76   2.0000      -0.371097       -10.0981
  77   2.0000      -0.358278        -9.7492
  78   2.0000      -0.354234        -9.6392
  79   2.0000      -0.349753        -9.5173
  80   2.0000      -0.347524        -9.4566
  81   2.0000      -0.347322        -9.4511
  82   2.0000      -0.340806        -9.2738
  83   2.0000      -0.339312        -9.2332
  84   2.0000      -0.331484        -9.0201
  85   2.0000      -0.320793        -8.7292
  86   2.0000      -0.307642        -8.3714
  87   2.0000      -0.295794        -8.0490
  88   2.0000      -0.295657        -8.0452
  89   2.0000      -0.285351        -7.7648
  90   2.0000      -0.279012        -7.5923
  91   2.0000      -0.275293        -7.4911
  92   2.0000      -0.265070        -7.2129
  93   2.0000      -0.264012        -7.1841
  94   2.0000      -0.260211        -7.0807
  95   2.0000      -0.230983        -6.2854
  96   2.0000      -0.217000        -5.9049
  97   2.0000      -0.215491        -5.8638
  98   2.0000      -0.209204        -5.6927
  99   2.0000      -0.202107        -5.4996
 100   2.0000      -0.201337        -5.4787
 101   0.0000      -0.043980        -1.1968
 102   0.0000      -0.022264        -0.6058
 103   0.0000       0.000870         0.0237
 104   0.0000       0.002857         0.0777
 105   0.0000       0.012478         0.3396

MULLIKEN ATOMIC CHARGES
-----------------------
   0 C :   -0.314488
   1 C :   -0.004887
   2 O :   -0.370798
   3 P :    0.613159
   4 S :   -0.340649
   5 O :   -0.350679
   6 C :   -0.000697
   7 C :   -0.304324
   8 S :   -0.072171
   9 C :   -0.362138
  10 S :   -0.072330
  11 P :    0.613933
  12 S :   -0.340925
  13 O :   -0.370701
  14 C :   -0.005490
  15 C :   -0.314383
  16 O :   -0.350724
  17 C :   -0.001240
  18 C :   -0.303803
  19 H :    0.113406
  20 H :    0.118816
  21 H :    0.126576
  22 H :    0.111063
  23 H :    0.105693
  24 H :    0.111207
  25 H :    0.104233
  26 H :    0.120023
  27 H :    0.110685
  28 H :    0.114192
  29 H :    0.190736
  30 H :    0.190599
  31 H :    0.111111
  32 H :    0.105870
  33 H :    0.126732
  34 H :    0.113427
  35 H :    0.118760
  36 H :    0.111464
  37 H :    0.104228
  38 H :    0.119874
  39 H :    0.110657
  40 H :    0.113985
Sum of atomic charges:   -0.0000000

LOEWDIN ATOMIC CHARGES
----------------------
   0 C :   -0.369101
   1 C :   -0.118996
   2 O :   -0.244344
   3 P :    0.573575
   4 S :   -0.326764
   5 O :   -0.231144
   6 C :   -0.117333
   7 C :   -0.364327
   8 S :    0.097856
   9 C :   -0.481244
  10 S :    0.098132
  11 P :    0.573523
  12 S :   -0.326759
  13 O :   -0.244301
  14 C :   -0.119142
  15 C :   -0.369052
  16 O :   -0.231156
  17 C :   -0.117366
  18 C :   -0.364285
  19 H :    0.131263
  20 H :    0.124946
  21 H :    0.121233
  22 H :    0.110496
  23 H :    0.118918
  24 H :    0.109345
  25 H :    0.118286
  26 H :    0.121498
  27 H :    0.129549
  28 H :    0.125126
  29 H :    0.130377
  30 H :    0.130405
  31 H :    0.110461
  32 H :    0.118941
  33 H :    0.121290
  34 H :    0.131258
  35 H :    0.125012
  36 H :    0.109437
  37 H :    0.118280
  38 H :    0.121494
  39 H :    0.129534
  40 H :    0.125082

  Mayer bond orders larger than 0.100000
B(  0-C ,  1-C ) :   1.1660 B(  0-C , 19-H ) :   0.9379 B(  0-C , 20-H ) :   0.9448
B(  0-C , 21-H ) :   0.9355 B(  1-C ,  2-O ) :   0.9083 B(  1-C , 22-H ) :   0.9162
B(  1-C , 23-H ) :   0.9340 B(  2-O ,  3-P ) :   1.1126 B(  3-P ,  4-S ) :   1.5814
B(  3-P ,  5-O ) :   1.1367 B(  3-P ,  8-S ) :   0.9569 B(  4-S ,  8-S ) :   0.1081
B(  5-O ,  6-C ) :   0.9059 B(  6-C ,  7-C ) :   1.1619 B(  6-C , 24-H ) :   0.9161
B(  6-C , 25-H ) :   0.9335 B(  7-C , 26-H ) :   0.9373 B(  7-C , 27-H ) :   0.9402
B(  7-C , 28-H ) :   0.9466 B(  8-S ,  9-C ) :   1.0041 B(  9-C , 10-S ) :   1.0042
B(  9-C , 29-H ) :   0.8845 B(  9-C , 30-H ) :   0.8848 B( 10-S , 11-P ) :   0.9567
B( 10-S , 12-S ) :   0.1080 B( 11-P , 12-S ) :   1.5822 B( 11-P , 13-O ) :   1.1124
B( 11-P , 16-O ) :   1.1366 B( 13-O , 14-C ) :   0.9085 B( 14-C , 15-C ) :   1.1662
B( 14-C , 31-H ) :   0.9159 B( 14-C , 32-H ) :   0.9340 B( 15-C , 33-H ) :   0.9357
B( 15-C , 34-H ) :   0.9379 B( 15-C , 35-H ) :   0.9448 B( 16-O , 17-C ) :   0.9061
B( 17-C , 18-C ) :   1.1620 B( 17-C , 36-H ) :   0.9161 B( 17-C , 37-H ) :   0.9336
B( 18-C , 38-H ) :   0.9374 B( 18-C , 39-H ) :   0.9402 B( 18-C , 40-H ) :   0.9465

Dispersion correction           -0.067113995
FINAL SINGLE POINT ENERGY     -2929.527911661103

DIPOLE MOMENT
-------------

Method             : SCF
Type of density    : Electron Density
Multiplicity       :   1
Irrep              :   0
Energy             : -2929.6454573364671887 Eh
Relativity type    :
Basis              : AO
                                X                 Y                 Z
Electronic contribution:      1.133444941       7.495513042      -6.728521798
Nuclear contribution   :     -1.233235894      -8.163618645       7.325161546
                        -----------------------------------------
Total Dipole Moment    :     -0.099790953      -0.668105603       0.596639748
                        -----------------------------------------
Magnitude (a.u.)       :      0.901278159
Magnitude (Debye)      :      2.290867021

Rotational constants in cm-1:             0.012790             0.004936             0.004923
Rotational constants in MHz :           383.440980           147.980726           147.594499

                             ****ORCA TERMINATED NORMALLY****
TOTAL RUN TIME: 0 days 0 hours 0 minutes 22 seconds 847 msec
