                         Program Version 6.0.0  -   RELEASE  -
|  1> ! pbe def2-sv(p) def2/J RI DEFGRID1 loosescf d4 GCP(DFT/SV(P)) printgap
|  2> %output
|  3>     printlevel normal
|  4> end
|  5> * xyz 0 1
|  6> C 5.6508056924 0.5334308523 0.3069393048
|  7> C 4.8179913599 0.1472331363 -0.8974879215
|  8> O 3.5958474256 0.9283836919 -0.9627731638
|  9> P 2.2310027991 0.4831365986 -0.3294124982
| 10> S 0.7902993025 1.7300589244 -0.7751985636
| 11> O 2.5918209528 0.390851749 1.2190106863
| 12> C 1.6359020965 0.1068253024 2.2573318753
| 13> C 1.7360328663 -1.3412324656 2.6973764101
| 14> S 1.975075235 -1.5267689458 -1.0201487851
| 15> C 0.2097422876 -1.519284101 -1.3712895787
| 16> S -0.8130013515 -1.7356133932 0.1346517265
| 17> P -2.1868574673 -0.1682780542 -0.0902450095
| 18> S -2.4599133384 0.5487227538 -1.9000949691
| 19> O -1.7221899959 0.8244159899 1.049373001
| 20> C -2.3221349524 2.1316579397 1.1957454464
| 21> C -1.4400497936 2.9442141713 2.1195831994
| 22> O -3.5188945678 -0.7465250061 0.5637921016
| 23> C -4.4189141708 -1.6080423267 -0.1605611121
| 24> C -5.8007093168 -1.4626206451 0.444872102
| 25> H 6.5858969086 -0.017269074 0.280264063
| 26> H 5.8614808995 1.5992316957 0.2873587179
| 27> H 5.1213216464 0.2986278196 1.2257083073
| 28> H 4.5566420173 -0.9140756566 -0.8795874723
| 29> H 5.3326802015 0.3844782473 -1.8301200367
| 30> H 1.9001649865 0.785514033 3.0709211954
| 31> H 0.6291445239 0.3508168128 1.9034772476
| 32> H 2.7514433026 -1.5648842417 3.0114372499
| 33> H 1.0583338341 -1.5039244418 3.5291250708
| 34> H 1.4598664508 -2.0126180761 1.8875464595
| 35> H 0.0314269603 -2.3687959049 -2.0251622901
| 36> H -0.0781497956 -0.5805795117 -1.8514979174
| 37> H -2.3923899508 2.5914675799 0.2039926164
| 38> H -3.3260927212 1.9988247049 1.6059960585
| 39> H -0.4542635783 3.0612132895 1.6760224448
| 40> H -1.8839119961 3.9236299645 2.2640873168
| 41> H -1.343740653 2.4425989434 3.0780009139
| 42> H -4.4104905138 -1.313486188 -1.2156566076
| 43> H -4.0489203288 -2.6322357704 -0.0681989087
| 44> H -6.156093455 -0.4425804373 0.3276886047
| 45> H -6.48265015 -2.1384555626 -0.0604881814
| 46> H -5.7684808746 -1.7061416299 1.5028500149
| 47> *
| 48>
| 49>                          ****END OF INPUT****

CARTESIAN COORDINATES (ANGSTROEM)
---------------------------------
  C      5.650806    0.533431    0.306939
  C      4.817991    0.147233   -0.897488
  O      3.595847    0.928384   -0.962773
  P      2.231003    0.483137   -0.329412
  S      0.790299    1.730059   -0.775199
  O      2.591821    0.390852    1.219011
  C      1.635902    0.106825    2.257332
  C      1.736033   -1.341232    2.697376
  S      1.975075   -1.526769   -1.020149
  C      0.209742   -1.519284   -1.371290
  S     -0.813001   -1.735613    0.134652
  P     -2.186857   -0.168278   -0.090245
  S     -2.459913    0.548723   -1.900095
  O     -1.722190    0.824416    1.049373
  C     -2.322135    2.131658    1.195745
  C     -1.440050    2.944214    2.119583
  O     -3.518895   -0.746525    0.563792
  C     -4.418914   -1.608042   -0.160561
  C     -5.800709   -1.462621    0.444872
  H      6.585897   -0.017269    0.280264
  H      5.861481    1.599232    0.287359
  H      5.121322    0.298628    1.225708
  H      4.556642   -0.914076   -0.879587
  H      5.332680    0.384478   -1.830120
  H      1.900165    0.785514    3.070921
  H      0.629145    0.350817    1.903477
  H      2.751443   -1.564884    3.011437
  H      1.058334   -1.503924    3.529125
  H      1.459866   -2.012618    1.887546
  H      0.031427   -2.368796   -2.025162
  H     -0.078150   -0.580580   -1.851498
  H     -2.392390    2.591468    0.203993
  H     -3.326093    1.998825    1.605996
  H     -0.454264    3.061213    1.676022
  H     -1.883912    3.923630    2.264087
  H     -1.343741    2.442599    3.078001
  H     -4.410491   -1.313486   -1.215657
  H     -4.048920   -2.632236   -0.068199
  H     -6.156093   -0.442580    0.327689
  H     -6.482650   -2.138456   -0.060488
  H     -5.768481   -1.706142    1.502850

 Total Charge           Charge          ....    0
 Multiplicity           Mult            ....    1
 Number of Electrons    NEL             ....  202
 Basis Dimension        Dim             ....  334

ORBITAL ENERGIES
----------------

  NO   OCC          E(Eh)            E(eV)
   0   2.0000     -88.045102     -2395.8290
   1   2.0000     -88.043715     -2395.7913
   2   2.0000     -87.982635     -2394.1292
   3   2.0000     -87.981346     -2394.0941
   4   2.0000     -76.424435     -2079.6146
   5   2.0000     -76.423027     -2079.5763
   6   2.0000     -18.793331      -511.3925
   7   2.0000     -18.788076      -511.2496
   8   2.0000     -18.788006      -511.2476
   9   2.0000     -18.787352      -511.2298
  10   2.0000      -9.961169      -271.0572
  11   2.0000      -9.955500      -270.9029
  12   2.0000      -9.949044      -270.7272
  13   2.0000      -9.947359      -270.6814
  14   2.0000      -9.946870      -270.6681
  15   2.0000      -9.888176      -269.0710
  16   2.0000      -9.886742      -269.0319
  17   2.0000      -9.879800      -268.8430
  18   2.0000      -9.879439      -268.8332
  19   2.0000      -7.690032      -209.2564
  20   2.0000      -7.688883      -209.2251
  21   2.0000      -7.627594      -207.5574
  22   2.0000      -7.626273      -207.5214
  23   2.0000      -6.422058      -174.7531
  24   2.0000      -6.420720      -174.7167
  25   2.0000      -5.717972      -155.5939
  26   2.0000      -5.716708      -155.5595
  27   2.0000      -5.714350      -155.4954
  28   2.0000      -5.713324      -155.4674
  29   2.0000      -5.707165      -155.2999
  30   2.0000      -5.705916      -155.2659
  31   2.0000      -5.656486      -153.9208
  32   2.0000      -5.655304      -153.8887
  33   2.0000      -5.648276      -153.6974
  34   2.0000      -5.647722      -153.6823
  35   2.0000      -5.646805      -153.6574
  36   2.0000      -5.646361      -153.6453
  37   2.0000      -4.644774      -126.3907
  38   2.0000      -4.643852      -126.3656
  39   2.0000      -4.643051      -126.3438
  40   2.0000      -4.642443      -126.3273
  41   2.0000      -4.642337      -126.3244
  42   2.0000      -4.641381      -126.2984
  43   2.0000      -0.987219       -26.8636
  44   2.0000      -0.983756       -26.7694
  45   2.0000      -0.943379       -25.6706
  46   2.0000      -0.940556       -25.5938
  47   2.0000      -0.762159       -20.7394
  48   2.0000      -0.722549       -19.6616
  49   2.0000      -0.711787       -19.3687
  50   2.0000      -0.688798       -18.7432
  51   2.0000      -0.685910       -18.6646
  52   2.0000      -0.674107       -18.3434
  53   2.0000      -0.646784       -17.5999
  54   2.0000      -0.632325       -17.2064
  55   2.0000      -0.594127       -16.1670
  56   2.0000      -0.587967       -15.9994
  57   2.0000      -0.574551       -15.6343
  58   2.0000      -0.566162       -15.4061
  59   2.0000      -0.557307       -15.1651
  60   2.0000      -0.507906       -13.8208
  61   2.0000      -0.499461       -13.5910
  62   2.0000      -0.479209       -13.0400
  63   2.0000      -0.478130       -13.0106
  64   2.0000      -0.448941       -12.2163
  65   2.0000      -0.446796       -12.1579
  66   2.0000      -0.441683       -12.0188
  67   2.0000      -0.434495       -11.8232
  68   2.0000      -0.430032       -11.7018
  69   2.0000      -0.420189       -11.4339
  70   2.0000      -0.405557       -11.0358
  71   2.0000      -0.393754       -10.7146
  72   2.0000      -0.390795       -10.6341
  73   2.0000      -0.382720       -10.4143
  74   2.0000      -0.381262       -10.3747
  75   2.0000      -0.368017       -10.0143
  76   2.0000      -0.364186        -9.9100
  77   2.0000      -0.356855        -9.7105
  78   2.0000      -0.354158        -9.6371
  79   2.0000      -0.350503        -9.5377
  80   2.0000      -0.347791        -9.4639
  81   2.0000      -0.343988        -9.3604
  82   2.0000      -0.338713        -9.2168
  83   2.0000      -0.335693        -9.1347
  84   2.0000      -0.329324        -8.9614
  85   2.0000      -0.318983        -8.6800
  86   2.0000      -0.310451        -8.4478
  87   2.0000      -0.298267        -8.1163
  88   2.0000      -0.294964        -8.0264
  89   2.0000      -0.292436        -7.9576
  90   2.0000      -0.284658        -7.7459
  91   2.0000      -0.277135        -7.5412
  92   2.0000      -0.269229        -7.3261
  93   2.0000      -0.262007        -7.1296
  94   2.0000      -0.258128        -7.0240
  95   2.0000      -0.236351        -6.4314
  96   2.0000      -0.219075        -5.9613
  97   2.0000      -0.213305        -5.8043
  98   2.0000      -0.200575        -5.4579
  99   2.0000      -0.196072        -5.3354
 100   2.0000      -0.187323        -5.0973
 101   0.0000      -0.043491        -1.1835
 102   0.0000      -0.033793        -0.9195
 103   0.0000      -0.013902        -0.3783
 104   0.0000       0.008251         0.2245
 105   0.0000       0.019133         0.5206

MULLIKEN ATOMIC CHARGES
-----------------------
   0 C :   -0.291686
   1 C :   -0.023422
   2 O :   -0.352595
   3 P :    0.598672
   4 S :   -0.288669
   5 O :   -0.379771
   6 C :   -0.038074
   7 C :   -0.293531
   8 S :   -0.138369
   9 C :   -0.334035
  10 S :   -0.113473
  11 P :    0.626330
  12 S :   -0.319899
  13 O :   -0.359641
  14 C :   -0.006208
  15 C :   -0.290458
  16 O :   -0.383894
  17 C :   -0.007238
  18 C :   -0.282100
  19 H :    0.110202
  20 H :    0.122136
  21 H :    0.125721
  22 H :    0.113568
  23 H :    0.115772
  24 H :    0.103077
  25 H :    0.139561
  26 H :    0.105804
  27 H :    0.106785
  28 H :    0.127038
  29 H :    0.182875
  30 H :    0.215695
  31 H :    0.111240
  32 H :    0.099699
  33 H :    0.134932
  34 H :    0.109595
  35 H :    0.108975
  36 H :    0.103585
  37 H :    0.097909
  38 H :    0.117443
  39 H :    0.111258
  40 H :    0.115188
Sum of atomic charges:    0.0000000

LOEWDIN ATOMIC CHARGES
----------------------
   0 C :   -0.360605
   1 C :   -0.111203
   2 O :   -0.233038
   3 P :    0.561772
   4 S :   -0.283796
   5 O :   -0.248293
   6 C :   -0.123013
   7 C :   -0.363158
   8 S :    0.061585
   9 C :   -0.475042
  10 S :    0.079538
  11 P :    0.567003
  12 S :   -0.309620
  13 O :   -0.237476
  14 C :   -0.114581
  15 C :   -0.355253
  16 O :   -0.253541
  17 C :   -0.122442
  18 C :   -0.351004
  19 H :    0.129721
  20 H :    0.130495
  21 H :    0.126566
  22 H :    0.105149
  23 H :    0.124235
  24 H :    0.117346
  25 H :    0.110800
  26 H :    0.120867
  27 H :    0.129339
  28 H :    0.112447
  29 H :    0.136994
  30 H :    0.127506
  31 H :    0.111913
  32 H :    0.110071
  33 H :    0.127627
  34 H :    0.129761
  35 H :    0.122637
  36 H :    0.105631
  37 H :    0.109315
  38 H :    0.127340
  39 H :    0.130421
  40 H :    0.125984

  Mayer bond orders larger than 0.100000
B(  0-C ,  1-C ) :   1.1642 B(  0-C , 19-H ) :   0.9385 B(  0-C , 20-H ) :   0.9464
B(  0-C , 21-H ) :   0.9389 B(  1-C ,  2-O ) :   0.8943 B(  1-C , 22-H ) :   0.9152
B(  1-C , 23-H ) :   0.9358 B(  2-O ,  3-P ) :   1.1502 B(  3-P ,  4-S ) :   1.6742
B(  3-P ,  5-O ) :   1.0831 B(  3-P ,  8-S ) :   0.9199 B(  4-S ,  8-S ) :   0.1089
B(  5-O ,  6-C ) :   0.8940 B(  6-C ,  7-C ) :   1.1686 B(  6-C , 24-H ) :   0.9353
B(  6-C , 25-H ) :   0.8918 B(  7-C , 26-H ) :   0.9472 B(  7-C , 27-H ) :   0.9408
B(  7-C , 28-H ) :   0.9297 B(  8-S ,  9-C ) :   1.0235 B(  9-C , 10-S ) :   0.9806
B(  9-C , 29-H ) :   0.9091 B(  9-C , 30-H ) :   0.8453 B( 10-S , 11-P ) :   0.9739
B( 10-S , 12-S ) :   0.1169 B( 11-P , 12-S ) :   1.6217 B( 11-P , 13-O ) :   1.1290
B( 11-P , 16-O ) :   1.0950 B( 13-O , 14-C ) :   0.8966 B( 14-C , 15-C ) :   1.1635
B( 14-C , 31-H ) :   0.9138 B( 14-C , 32-H ) :   0.9308 B( 15-C , 33-H ) :   0.9390
B( 15-C , 34-H ) :   0.9410 B( 15-C , 35-H ) :   0.9490 B( 16-O , 17-C ) :   0.9089
B( 17-C , 18-C ) :   1.1614 B( 17-C , 36-H ) :   0.9037 B( 17-C , 37-H ) :   0.9299
B( 18-C , 38-H ) :   0.9511 B( 18-C , 39-H ) :   0.9422 B( 18-C , 40-H ) :   0.9510

Dispersion correction           -0.065025766
FINAL SINGLE POINT ENERGY     -2929.520186368081

DIPOLE MOMENT
-------------

Method             : SCF
Type of density    : Electron Density
Multiplicity       :   1
Irrep              :   0
Energy             : -2929.6398829054755879 Eh
Relativity type    :
Basis              : AO
                                X                 Y                 Z
Electronic contribution:      1.287827271      -0.856295805     -16.226799725
Nuclear contribution   :     -1.002176417      -0.005729627      17.321298167
                        -----------------------------------------
Total Dipole Moment    :      0.285650854      -0.862025433       1.094498442
                        -----------------------------------------
Magnitude (a.u.)       :      1.422185324
Magnitude (Debye)      :      3.614907813

Rotational constants in cm-1:             0.013862             0.004729             0.004516
Rotational constants in MHz :           415.577216           141.767333           135.386837

                             ****ORCA TERMINATED NORMALLY****
TOTAL RUN TIME: 0 days 0 hours 0 minutes 21 seconds 201 msec
