                         Program Version 6.0.0  -   RELEASE  -
|  1> ! pbe def2-sv(p) def2/J RI DEFGRID1 loosescf d4 GCP(DFT/SV(P)) printgap
|  2> %output
|  3>     printlevel normal
|  4> end
|  5> * xyz 0 1
|  6> C 3.7037966771 -0.3740333944 -2.5256804971
|  7> C 2.4833648004 0.4942407663 -2.3075882424
|  8> O 1.7652527499 0.121461539 -1.116975369
|  9> P 2.3533571526 0.3278809593 0.3392276282
| 10> S 3.4912789794 1.8970369389 0.613801288
| 11> O 3.0645528692 -1.0803555905 0.5952089595
| 12> C 4.0367298677 -1.2570044442 1.6390499282
| 13> C 3.4099119026 -1.1918157165 3.0175151521
| 14> S 0.5626903825 0.2516421955 1.4332822732
| 15> C -0.1113874571 -1.3261459087 0.7711671038
| 16> S -1.9008316239 -1.3404408404 0.8990096541
| 17> P -2.2803122939 0.0801746362 -0.6503694069
| 18> S -1.2207056148 -0.2054113394 -2.2731690152
| 19> O -2.0052842083 1.541108851 -0.1236466831
| 20> C -2.816526576 2.2987605067 0.8074022061
| 21> C -2.8927325471 1.6626265078 2.1798913899
| 22> O -3.8627554143 0.0710245454 -0.7710164893
| 23> C -4.6790328776 -1.1128726187 -0.8562306815
| 24> C -4.2847876534 -2.0137456653 -2.0073582583
| 25> H 4.4305611799 -0.1949119548 -1.7340634417
| 26> H 3.4234935472 -1.4240952477 -2.5202482545
| 27> H 4.15299142 -0.1244727255 -3.4817096092
| 28> H 1.7416726679 0.37004 -3.0994347455
| 29> H 2.7650991998 1.548762116 -2.2243073567
| 30> H 4.4683146567 -2.2377986909 1.435119659
| 31> H 4.8020072752 -0.4816105893 1.5322121791
| 32> H 2.6134650585 -1.9252764367 3.1124633208
| 33> H 4.1701136633 -1.3901838014 3.7661877315
| 34> H 2.9969575154 -0.1978784541 3.1895923531
| 35> H 0.257221895 -2.1541285185 1.3700973177
| 36> H 0.1763033146 -1.4152189556 -0.2764126735
| 37> H -2.3080084562 3.2636954914 0.8440246272
| 38> H -3.8101701797 2.4172475664 0.371230274
| 39> H -3.4620482889 0.7364808967 2.1445966687
| 40> H -1.8926805326 1.4497790093 2.5530651843
| 41> H -3.3852456805 2.3531473829 2.8575123012
| 42> H -4.6053348568 -1.6469421547 0.0949049115
| 43> H -5.688267002 -0.7179124247 -0.9854666798
| 44> H -4.2931167077 -1.4600082251 -2.9433179438
| 45> H -3.2812292974 -2.4061506654 -1.8503793989
| 46> H -4.9830866158 -2.841764257 -2.0727342685
| 47> *
| 48>
| 49>                          ****END OF INPUT****

CARTESIAN COORDINATES (ANGSTROEM)
---------------------------------
  C      3.703797   -0.374033   -2.525680
  C      2.483365    0.494241   -2.307588
  O      1.765253    0.121462   -1.116975
  P      2.353357    0.327881    0.339228
  S      3.491279    1.897037    0.613801
  O      3.064553   -1.080356    0.595209
  C      4.036730   -1.257004    1.639050
  C      3.409912   -1.191816    3.017515
  S      0.562690    0.251642    1.433282
  C     -0.111387   -1.326146    0.771167
  S     -1.900832   -1.340441    0.899010
  P     -2.280312    0.080175   -0.650369
  S     -1.220706   -0.205411   -2.273169
  O     -2.005284    1.541109   -0.123647
  C     -2.816527    2.298761    0.807402
  C     -2.892733    1.662627    2.179891
  O     -3.862755    0.071025   -0.771016
  C     -4.679033   -1.112873   -0.856231
  C     -4.284788   -2.013746   -2.007358
  H      4.430561   -0.194912   -1.734063
  H      3.423494   -1.424095   -2.520248
  H      4.152991   -0.124473   -3.481710
  H      1.741673    0.370040   -3.099435
  H      2.765099    1.548762   -2.224307
  H      4.468315   -2.237799    1.435120
  H      4.802007   -0.481611    1.532212
  H      2.613465   -1.925276    3.112463
  H      4.170114   -1.390184    3.766188
  H      2.996958   -0.197878    3.189592
  H      0.257222   -2.154129    1.370097
  H      0.176303   -1.415219   -0.276413
  H     -2.308008    3.263695    0.844025
  H     -3.810170    2.417248    0.371230
  H     -3.462048    0.736481    2.144597
  H     -1.892681    1.449779    2.553065
  H     -3.385246    2.353147    2.857512
  H     -4.605335   -1.646942    0.094905
  H     -5.688267   -0.717912   -0.985467
  H     -4.293117   -1.460008   -2.943318
  H     -3.281229   -2.406151   -1.850379
  H     -4.983087   -2.841764   -2.072734

 Total Charge           Charge          ....    0
 Multiplicity           Mult            ....    1
 Number of Electrons    NEL             ....  202
 Basis Dimension        Dim             ....  334

ORBITAL ENERGIES
----------------

  NO   OCC          E(Eh)            E(eV)
   0   2.0000     -88.050673     -2395.9806
   1   2.0000     -88.037736     -2395.6286
   2   2.0000     -87.984462     -2394.1789
   3   2.0000     -87.979499     -2394.0439
   4   2.0000     -76.427545     -2079.6992
   5   2.0000     -76.420986     -2079.5207
   6   2.0000     -18.800466      -511.5867
   7   2.0000     -18.787872      -511.2440
   8   2.0000     -18.786642      -511.2105
   9   2.0000     -18.781064      -511.0587
  10   2.0000      -9.964689      -271.1530
  11   2.0000      -9.956329      -270.9255
  12   2.0000      -9.953860      -270.8583
  13   2.0000      -9.950149      -270.7573
  14   2.0000      -9.942119      -270.5388
  15   2.0000      -9.886633      -269.0290
  16   2.0000      -9.886327      -269.0206
  17   2.0000      -9.883906      -268.9548
  18   2.0000      -9.877237      -268.7733
  19   2.0000      -7.695495      -209.4051
  20   2.0000      -7.682816      -209.0601
  21   2.0000      -7.629594      -207.6118
  22   2.0000      -7.624663      -207.4776
  23   2.0000      -6.424533      -174.8204
  24   2.0000      -6.418798      -174.6644
  25   2.0000      -5.723187      -155.7358
  26   2.0000      -5.719997      -155.6490
  27   2.0000      -5.712713      -155.4508
  28   2.0000      -5.711230      -155.4105
  29   2.0000      -5.707228      -155.3016
  30   2.0000      -5.699331      -155.0867
  31   2.0000      -5.658576      -153.9777
  32   2.0000      -5.653782      -153.8472
  33   2.0000      -5.650236      -153.7507
  34   2.0000      -5.649693      -153.7360
  35   2.0000      -5.645158      -153.6126
  36   2.0000      -5.644716      -153.6005
  37   2.0000      -4.647578      -126.4670
  38   2.0000      -4.646485      -126.4373
  39   2.0000      -4.644453      -126.3820
  40   2.0000      -4.641072      -126.2900
  41   2.0000      -4.640758      -126.2815
  42   2.0000      -4.639355      -126.2433
  43   2.0000      -0.990502       -26.9529
  44   2.0000      -0.980444       -26.6792
  45   2.0000      -0.944719       -25.7071
  46   2.0000      -0.939337       -25.5606
  47   2.0000      -0.764818       -20.8118
  48   2.0000      -0.721001       -19.6194
  49   2.0000      -0.709336       -19.3020
  50   2.0000      -0.693516       -18.8715
  51   2.0000      -0.684044       -18.6138
  52   2.0000      -0.672827       -18.3085
  53   2.0000      -0.652001       -17.7418
  54   2.0000      -0.636437       -17.3183
  55   2.0000      -0.594112       -16.1666
  56   2.0000      -0.590736       -16.0747
  57   2.0000      -0.582887       -15.8612
  58   2.0000      -0.567469       -15.4416
  59   2.0000      -0.563389       -15.3306
  60   2.0000      -0.500680       -13.6242
  61   2.0000      -0.488448       -13.2914
  62   2.0000      -0.472269       -12.8511
  63   2.0000      -0.467496       -12.7212
  64   2.0000      -0.456485       -12.4216
  65   2.0000      -0.446488       -12.1496
  66   2.0000      -0.440000       -11.9730
  67   2.0000      -0.435015       -11.8374
  68   2.0000      -0.432807       -11.7773
  69   2.0000      -0.417560       -11.3624
  70   2.0000      -0.412200       -11.2165
  71   2.0000      -0.408091       -11.1047
  72   2.0000      -0.392405       -10.6779
  73   2.0000      -0.388358       -10.5678
  74   2.0000      -0.386454       -10.5159
  75   2.0000      -0.373237       -10.1563
  76   2.0000      -0.356412        -9.6985
  77   2.0000      -0.355009        -9.6603
  78   2.0000      -0.352724        -9.5981
  79   2.0000      -0.348434        -9.4814
  80   2.0000      -0.344334        -9.3698
  81   2.0000      -0.342961        -9.3324
  82   2.0000      -0.341773        -9.3001
  83   2.0000      -0.336176        -9.1478
  84   2.0000      -0.329597        -8.9688
  85   2.0000      -0.324415        -8.8278
  86   2.0000      -0.315032        -8.5725
  87   2.0000      -0.301098        -8.1933
  88   2.0000      -0.292829        -7.9683
  89   2.0000      -0.289184        -7.8691
  90   2.0000      -0.280645        -7.6367
  91   2.0000      -0.278085        -7.5671
  92   2.0000      -0.265913        -7.2359
  93   2.0000      -0.262865        -7.1529
  94   2.0000      -0.259097        -7.0504
  95   2.0000      -0.235654        -6.4125
  96   2.0000      -0.213937        -5.8215
  97   2.0000      -0.205498        -5.5919
  98   2.0000      -0.201204        -5.4751
  99   2.0000      -0.195784        -5.3276
 100   2.0000      -0.193303        -5.2600
 101   0.0000      -0.046070        -1.2536
 102   0.0000      -0.022312        -0.6071
 103   0.0000      -0.019797        -0.5387
 104   0.0000       0.000745         0.0203
 105   0.0000       0.013489         0.3671

MULLIKEN ATOMIC CHARGES
-----------------------
   0 C :   -0.308516
   1 C :    0.001019
   2 O :   -0.363689
   3 P :    0.618976
   4 S :   -0.324443
   5 O :   -0.386062
   6 C :   -0.006805
   7 C :   -0.311624
   8 S :   -0.085294
   9 C :   -0.354823
  10 S :   -0.123559
  11 P :    0.612337
  12 S :   -0.304966
  13 O :   -0.346886
  14 C :    0.007196
  15 C :   -0.326226
  16 O :   -0.382161
  17 C :   -0.016869
  18 C :   -0.307175
  19 H :    0.118774
  20 H :    0.115092
  21 H :    0.110628
  22 H :    0.111971
  23 H :    0.110311
  24 H :    0.103296
  25 H :    0.111003
  26 H :    0.111497
  27 H :    0.112141
  28 H :    0.127760
  29 H :    0.181891
  30 H :    0.213846
  31 H :    0.113781
  32 H :    0.107802
  33 H :    0.116546
  34 H :    0.136393
  35 H :    0.112944
  36 H :    0.115214
  37 H :    0.111265
  38 H :    0.128431
  39 H :    0.127027
  40 H :    0.111956
Sum of atomic charges:    0.0000000

LOEWDIN ATOMIC CHARGES
----------------------
   0 C :   -0.365564
   1 C :   -0.113979
   2 O :   -0.232506
   3 P :    0.568269
   4 S :   -0.322719
   5 O :   -0.252774
   6 C :   -0.121672
   7 C :   -0.367439
   8 S :    0.083463
   9 C :   -0.474211
  10 S :    0.076978
  11 P :    0.571288
  12 S :   -0.300548
  13 O :   -0.229723
  14 C :   -0.108152
  15 C :   -0.371702
  16 O :   -0.244670
  17 C :   -0.114578
  18 C :   -0.369048
  19 H :    0.120587
  20 H :    0.125610
  21 H :    0.129702
  22 H :    0.118074
  23 H :    0.111751
  24 H :    0.117427
  25 H :    0.109763
  26 H :    0.121336
  27 H :    0.130620
  28 H :    0.122050
  29 H :    0.131200
  30 H :    0.129343
  31 H :    0.124836
  32 H :    0.113425
  33 H :    0.114572
  34 H :    0.123813
  35 H :    0.130993
  36 H :    0.107644
  37 H :    0.122183
  38 H :    0.131771
  39 H :    0.122098
  40 H :    0.130491

  Mayer bond orders larger than 0.100000
B(  0-C ,  1-C ) :   1.1623 B(  0-C , 19-H ) :   0.9369 B(  0-C , 20-H ) :   0.9465
B(  0-C , 21-H ) :   0.9391 B(  1-C ,  2-O ) :   0.9056 B(  1-C , 22-H ) :   0.9276
B(  1-C , 23-H ) :   0.9210 B(  2-O ,  3-P ) :   1.1229 B(  3-P ,  4-S ) :   1.6300
B(  3-P ,  5-O ) :   1.0590 B(  3-P ,  8-S ) :   0.9798 B(  5-O ,  6-C ) :   0.9169
B(  6-C ,  7-C ) :   1.1638 B(  6-C , 24-H ) :   0.9340 B(  6-C , 25-H ) :   0.9138
B(  7-C , 26-H ) :   0.9453 B(  7-C , 27-H ) :   0.9385 B(  7-C , 28-H ) :   0.9349
B(  8-S ,  9-C ) :   0.9612 B(  9-C , 10-S ) :   1.0275 B(  9-C , 29-H ) :   0.9059
B(  9-C , 30-H ) :   0.8554 B( 10-S , 11-P ) :   0.9148 B( 10-S , 12-S ) :   0.1107
B( 11-P , 12-S ) :   1.6635 B( 11-P , 13-O ) :   1.1466 B( 11-P , 16-O ) :   1.0800
B( 13-O , 14-C ) :   0.8976 B( 14-C , 15-C ) :   1.1684 B( 14-C , 31-H ) :   0.9340
B( 14-C , 32-H ) :   0.9293 B( 15-C , 33-H ) :   0.9409 B( 15-C , 34-H ) :   0.9373
B( 15-C , 35-H ) :   0.9354 B( 16-O , 17-C ) :   0.9117 B( 17-C , 18-C ) :   1.1671
B( 17-C , 36-H ) :   0.9255 B( 17-C , 37-H ) :   0.9332 B( 18-C , 38-H ) :   0.9431
B( 18-C , 39-H ) :   0.9313 B( 18-C , 40-H ) :   0.9346

Dispersion correction           -0.065371558
FINAL SINGLE POINT ENERGY     -2929.511530656722

DIPOLE MOMENT
-------------

Method             : SCF
Type of density    : Electron Density
Multiplicity       :   1
Irrep              :   0
Energy             : -2929.6321675706099086 Eh
Relativity type    :
Basis              : AO
                                X                 Y                 Z
Electronic contribution:      0.643381727       7.254154212      -1.561961450
Nuclear contribution   :     -1.712832828      -8.327322240       2.191698202
                        -----------------------------------------
Total Dipole Moment    :     -1.069451101      -1.073168029       0.629736752
                        -----------------------------------------
Magnitude (a.u.)       :      1.640726562
Magnitude (Debye)      :      4.170395494

Rotational constants in cm-1:             0.012822             0.004795             0.004426
Rotational constants in MHz :           384.386302           143.749940           132.680662

                             ****ORCA TERMINATED NORMALLY****
TOTAL RUN TIME: 0 days 0 hours 0 minutes 21 seconds 238 msec
