                         Program Version 6.0.0  -   RELEASE  -
|  1> ! r2scan-3c def2/J RI DEFGRID2 scfconv6 printgap
|  2> %output
|  3>     printlevel normal
|  4> end
|  5> * xyz 0 1
|  6> C 5.2202204976 -2.5025883028 -0.8392651753
|  7> C 4.1486618653 -1.5267293657 -1.2807080901
|  8> O 3.3921593049 -1.1445110969 -0.1115359965
|  9> P 2.4205545756 0.1093735613 -0.1380482089
| 10> S 3.2068834324 1.7963500891 -0.7316188753
| 11> O 1.8945049307 0.1699876084 1.3424752527
| 12> C 1.401436118 -0.995120493 2.0508346228
| 13> C 2.4465421184 -1.4959738643 3.0253675491
| 14> S 0.7973161025 -0.6038759963 -1.339515733
| 15> C 0.0889520391 1.022262533 -1.6818078871
| 16> S -0.5608658551 1.8213862217 -0.1880744436
| 17> P -2.2643538741 0.5838432768 3.73281e-05
| 18> S -3.177695662 0.142056595 -1.6803658021
| 19> O -2.9851568788 1.5067668315 1.0665112683
| 20> C -4.0983097622 1.0634628147 1.8738317906
| 21> C -5.4025345041 1.0936042512 1.1017303729
| 22> O -1.8164680592 -0.6876233417 0.8528033598
| 23> C -1.9404781792 -2.0474175627 0.3898396504
| 24> C -3.248753506 -2.6492902451 0.862163714
| 25> H 5.7957867933 -2.812697527 -1.7050849452
| 26> H 5.8832339261 -2.0295775948 -0.1203574428
| 27> H 4.7638141801 -3.3746737006 -0.3803775957
| 28> H 3.460265302 -1.9829274086 -1.9970223837
| 29> H 4.5820561801 -0.6244365943 -1.7237557113
| 30> H 0.5008585955 -0.6502296403 2.5635902967
| 31> H 1.1412507723 -1.7662695648 1.3206071433
| 32> H 2.0395438888 -2.3306671972 3.5874262495
| 33> H 3.3327625202 -1.8210045711 2.486696891
| 34> H 2.7255741173 -0.7014187658 3.711745929
| 35> H -0.7166605309 0.8765975636 -2.4027014758
| 36> H 0.8663843993 1.6762379745 -2.0765886161
| 37> H -3.8837978873 0.0594744668 2.2488438124
| 38> H -4.1132067717 1.7711230276 2.7047637944
| 39> H -5.5850920272 2.0922159055 0.7135751414
| 40> H -5.3660471937 0.4014693595 0.2625901103
| 41> H -6.2166455702 0.810314763 1.7614126242
| 42> H -1.8787950142 -2.0631337821 -0.7021032593
| 43> H -1.0822432811 -2.5699300733 0.8132127619
| 44> H -3.2930251556 -3.6884861048 0.5530328224
| 45> H -3.3238727574 -2.5944257512 1.9448146435
| 46> H -4.0853928007 -2.1147438263 0.4161865045
| 47> *
| 48>
| 49>                          ****END OF INPUT****

CARTESIAN COORDINATES (ANGSTROEM)
---------------------------------
  C      5.220220   -2.502588   -0.839265
  C      4.148662   -1.526729   -1.280708
  O      3.392159   -1.144511   -0.111536
  P      2.420555    0.109374   -0.138048
  S      3.206883    1.796350   -0.731619
  O      1.894505    0.169988    1.342475
  C      1.401436   -0.995120    2.050835
  C      2.446542   -1.495974    3.025368
  S      0.797316   -0.603876   -1.339516
  C      0.088952    1.022263   -1.681808
  S     -0.560866    1.821386   -0.188074
  P     -2.264354    0.583843    0.000037
  S     -3.177696    0.142057   -1.680366
  O     -2.985157    1.506767    1.066511
  C     -4.098310    1.063463    1.873832
  C     -5.402535    1.093604    1.101730
  O     -1.816468   -0.687623    0.852803
  C     -1.940478   -2.047418    0.389840
  C     -3.248754   -2.649290    0.862164
  H      5.795787   -2.812698   -1.705085
  H      5.883234   -2.029578   -0.120357
  H      4.763814   -3.374674   -0.380378
  H      3.460265   -1.982927   -1.997022
  H      4.582056   -0.624437   -1.723756
  H      0.500859   -0.650230    2.563590
  H      1.141251   -1.766270    1.320607
  H      2.039544   -2.330667    3.587426
  H      3.332763   -1.821005    2.486697
  H      2.725574   -0.701419    3.711746
  H     -0.716661    0.876598   -2.402701
  H      0.866384    1.676238   -2.076589
  H     -3.883798    0.059474    2.248844
  H     -4.113207    1.771123    2.704764
  H     -5.585092    2.092216    0.713575
  H     -5.366047    0.401469    0.262590
  H     -6.216646    0.810315    1.761413
  H     -1.878795   -2.063134   -0.702103
  H     -1.082243   -2.569930    0.813213
  H     -3.293025   -3.688486    0.553033
  H     -3.323873   -2.594426    1.944815
  H     -4.085393   -2.114744    0.416187

 Total Charge           Charge          ....    0
 Multiplicity           Mult            ....    1
 Number of Electrons    NEL             ....  202
 Basis Dimension        Dim             ....  539

ORBITAL ENERGIES
----------------

  NO   OCC          E(Eh)            E(eV)
   0   2.0000     -88.573325     -2410.2027
   1   2.0000     -88.570704     -2410.1314
   2   2.0000     -88.522329     -2408.8150
   3   2.0000     -88.519558     -2408.7396
   4   2.0000     -76.915524     -2092.9778
   5   2.0000     -76.914061     -2092.9380
   6   2.0000     -18.997577      -516.9504
   7   2.0000     -18.995597      -516.8965
   8   2.0000     -18.994792      -516.8746
   9   2.0000     -18.991996      -516.7985
  10   2.0000     -10.106151      -275.0024
  11   2.0000     -10.103920      -274.9416
  12   2.0000     -10.103230      -274.9229
  13   2.0000     -10.101670      -274.8804
  14   2.0000     -10.099613      -274.8244
  15   2.0000     -10.037834      -273.1433
  16   2.0000     -10.036138      -273.0972
  17   2.0000     -10.033823      -273.0342
  18   2.0000     -10.030763      -272.9509
  19   2.0000      -7.867726      -214.0917
  20   2.0000      -7.864678      -214.0088
  21   2.0000      -7.817241      -212.7179
  22   2.0000      -7.814287      -212.6376
  23   2.0000      -6.593838      -179.4275
  24   2.0000      -6.592673      -179.3957
  25   2.0000      -5.814421      -158.2184
  26   2.0000      -5.811655      -158.1432
  27   2.0000      -5.811568      -158.1408
  28   2.0000      -5.808646      -158.0613
  29   2.0000      -5.805054      -157.9636
  30   2.0000      -5.801634      -157.8705
  31   2.0000      -5.764842      -156.8693
  32   2.0000      -5.762022      -156.7926
  33   2.0000      -5.757737      -156.6760
  34   2.0000      -5.757048      -156.6573
  35   2.0000      -5.754487      -156.5876
  36   2.0000      -5.754284      -156.5820
  37   2.0000      -4.739643      -128.9722
  38   2.0000      -4.738516      -128.9416
  39   2.0000      -4.738444      -128.9396
  40   2.0000      -4.737676      -128.9187
  41   2.0000      -4.737610      -128.9169
  42   2.0000      -4.736003      -128.8732
  43   2.0000      -1.054951       -28.7067
  44   2.0000      -1.052308       -28.6348
  45   2.0000      -1.013518       -27.5792
  46   2.0000      -1.012943       -27.5636
  47   2.0000      -0.800138       -21.7729
  48   2.0000      -0.763109       -20.7652
  49   2.0000      -0.753867       -20.5138
  50   2.0000      -0.740245       -20.1431
  51   2.0000      -0.736890       -20.0518
  52   2.0000      -0.709613       -19.3095
  53   2.0000      -0.685759       -18.6604
  54   2.0000      -0.668169       -18.1818
  55   2.0000      -0.629467       -17.1287
  56   2.0000      -0.621541       -16.9130
  57   2.0000      -0.615140       -16.7388
  58   2.0000      -0.606623       -16.5071
  59   2.0000      -0.592186       -16.1142
  60   2.0000      -0.538154       -14.6439
  61   2.0000      -0.525728       -14.3058
  62   2.0000      -0.504217       -13.7204
  63   2.0000      -0.499837       -13.6013
  64   2.0000      -0.477901       -13.0043
  65   2.0000      -0.466442       -12.6925
  66   2.0000      -0.462046       -12.5729
  67   2.0000      -0.457599       -12.4519
  68   2.0000      -0.450546       -12.2600
  69   2.0000      -0.432386       -11.7658
  70   2.0000      -0.424498       -11.5512
  71   2.0000      -0.415888       -11.3169
  72   2.0000      -0.410489       -11.1700
  73   2.0000      -0.400907       -10.9092
  74   2.0000      -0.396760       -10.7964
  75   2.0000      -0.390023       -10.6131
  76   2.0000      -0.384456       -10.4616
  77   2.0000      -0.376390       -10.2421
  78   2.0000      -0.372295       -10.1307
  79   2.0000      -0.370795       -10.0899
  80   2.0000      -0.368666       -10.0319
  81   2.0000      -0.364902        -9.9295
  82   2.0000      -0.361338        -9.8325
  83   2.0000      -0.357850        -9.7376
  84   2.0000      -0.352095        -9.5810
  85   2.0000      -0.339086        -9.2270
  86   2.0000      -0.326041        -8.8720
  87   2.0000      -0.320506        -8.7214
  88   2.0000      -0.315687        -8.5903
  89   2.0000      -0.310671        -8.4538
  90   2.0000      -0.309153        -8.4125
  91   2.0000      -0.296871        -8.0783
  92   2.0000      -0.290878        -7.9152
  93   2.0000      -0.282223        -7.6797
  94   2.0000      -0.272453        -7.4138
  95   2.0000      -0.245595        -6.6830
  96   2.0000      -0.230676        -6.2770
  97   2.0000      -0.226439        -6.1617
  98   2.0000      -0.217539        -5.9195
  99   2.0000      -0.213741        -5.8162
 100   2.0000      -0.210685        -5.7330
 101   0.0000      -0.046606        -1.2682
 102   0.0000      -0.023273        -0.6333
 103   0.0000      -0.000354        -0.0096
 104   0.0000       0.001948         0.0530
 105   0.0000       0.013271         0.3611

MULLIKEN ATOMIC CHARGES
-----------------------
   0 C :   -0.441621
   1 C :   -0.153535
   2 O :   -0.285216
   3 P :    0.663486
   4 S :   -0.439720
   5 O :   -0.258546
   6 C :   -0.087224
   7 C :   -0.484032
   8 S :   -0.197996
   9 C :   -0.232236
  10 S :   -0.098236
  11 P :    0.671918
  12 S :   -0.479087
  13 O :   -0.304702
  14 C :   -0.163705
  15 C :   -0.422213
  16 O :   -0.278389
  17 C :   -0.098882
  18 C :   -0.492398
  19 H :    0.148637
  20 H :    0.159907
  21 H :    0.150382
  22 H :    0.153477
  23 H :    0.171776
  24 H :    0.170924
  25 H :    0.143801
  26 H :    0.144628
  27 H :    0.165935
  28 H :    0.160591
  29 H :    0.211576
  30 H :    0.220077
  31 H :    0.156356
  32 H :    0.152730
  33 H :    0.159032
  34 H :    0.166367
  35 H :    0.145384
  36 H :    0.178851
  37 H :    0.145355
  38 H :    0.149513
  39 H :    0.153207
  40 H :    0.173826
Sum of atomic charges:   -0.0000000

LOEWDIN ATOMIC CHARGES
----------------------
   0 C :   -0.386179
   1 C :    0.020173
   2 O :   -0.676884
   3 P :    0.376278
   4 S :   -0.097723
   5 O :   -0.646119
   6 C :    0.020740
   7 C :   -0.390922
   8 S :    0.126051
   9 C :   -0.424560
  10 S :    0.197483
  11 P :    0.385901
  12 S :   -0.134522
  13 O :   -0.664186
  14 C :    0.030546
  15 C :   -0.401359
  16 O :   -0.680392
  17 C :   -0.000023
  18 C :   -0.401349
  19 H :    0.161173
  20 H :    0.162053
  21 H :    0.158241
  22 H :    0.172822
  23 H :    0.181872
  24 H :    0.185713
  25 H :    0.173221
  26 H :    0.158166
  27 H :    0.165233
  28 H :    0.163172
  29 H :    0.191343
  30 H :    0.192062
  31 H :    0.174000
  32 H :    0.181873
  33 H :    0.163633
  34 H :    0.165521
  35 H :    0.158000
  36 H :    0.183734
  37 H :    0.174355
  38 H :    0.161546
  39 H :    0.155572
  40 H :    0.163742

  Mayer bond orders larger than 0.100000
B(  0-C ,  1-C ) :   0.9542 B(  0-C , 19-H ) :   0.9632 B(  0-C , 20-H ) :   0.9711
B(  0-C , 21-H ) :   0.9719 B(  1-C ,  2-O ) :   0.7865 B(  1-C , 22-H ) :   0.9416
B(  1-C , 23-H ) :   0.9498 B(  2-O ,  3-P ) :   1.0504 B(  3-P ,  4-S ) :   1.8430
B(  3-P ,  5-O ) :   1.1592 B(  3-P ,  8-S ) :   0.9755 B(  5-O ,  6-C ) :   0.7297
B(  6-C ,  7-C ) :   0.9421 B(  6-C , 24-H ) :   0.9530 B(  6-C , 25-H ) :   0.9680
B(  7-C , 26-H ) :   0.9660 B(  7-C , 27-H ) :   0.9696 B(  7-C , 28-H ) :   0.9726
B(  8-S ,  9-C ) :   0.9052 B(  9-C , 10-S ) :   0.9125 B(  9-C , 29-H ) :   0.9047
B(  9-C , 30-H ) :   0.9057 B( 10-S , 11-P ) :   1.1101 B( 11-P , 12-S ) :   1.7580
B( 11-P , 13-O ) :   1.1579 B( 11-P , 16-O ) :   1.0362 B( 13-O , 14-C ) :   0.7900
B( 14-C , 15-C ) :   0.9453 B( 14-C , 31-H ) :   0.9682 B( 14-C , 32-H ) :   0.9601
B( 15-C , 33-H ) :   0.9689 B( 15-C , 34-H ) :   0.9539 B( 15-C , 35-H ) :   0.9663
B( 16-O , 17-C ) :   0.7501 B( 17-C , 18-C ) :   0.9218 B( 17-C , 36-H ) :   0.9519
B( 17-C , 37-H ) :   0.9609 B( 18-C , 38-H ) :   0.9612 B( 18-C , 39-H ) :   0.9787
B( 18-C , 40-H ) :   0.9689

Dispersion correction           -0.021305105
FINAL SINGLE POINT ENERGY     -2932.463203995835

DIPOLE MOMENT
-------------

Method             : SCF
Type of density    : Electron Density
Multiplicity       :   1
Irrep              :   0
Energy             : -2932.4883338873501089 Eh
Relativity type    :
Basis              : AO
                                X                 Y                 Z
Electronic contribution:      4.006772893      20.604387493     -12.239386278
Nuclear contribution   :     -4.317984122     -22.701159030      13.400126816
                        -----------------------------------------
Total Dipole Moment    :     -0.311211229      -2.096771537       1.160740539
                        -----------------------------------------
Magnitude (a.u.)       :      2.416737865
Magnitude (Debye)      :      6.142859471

Rotational constants in cm-1:             0.013622             0.004542             0.004278
Rotational constants in MHz :           408.366994           136.173515           128.263654

                             ****ORCA TERMINATED NORMALLY****
TOTAL RUN TIME: 0 days 0 hours 1 minutes 20 seconds 846 msec
