                         Program Version 6.0.0  -   RELEASE  -
|  1> ! r2scan-3c def2/J RI DEFGRID2 scfconv6 printgap
|  2> %output
|  3>     printlevel normal
|  4> end
|  5> %cpcm
|  6>     smd true
|  7>     smdsolvent "water"
|  8> end
|  9> * xyz 0 1
| 10> C 5.2202204976 -2.5025883028 -0.8392651753
| 11> C 4.1486618653 -1.5267293657 -1.2807080901
| 12> O 3.3921593049 -1.1445110969 -0.1115359965
| 13> P 2.4205545756 0.1093735613 -0.1380482089
| 14> S 3.2068834324 1.7963500891 -0.7316188753
| 15> O 1.8945049307 0.1699876084 1.3424752527
| 16> C 1.401436118 -0.995120493 2.0508346228
| 17> C 2.4465421184 -1.4959738643 3.0253675491
| 18> S 0.7973161025 -0.6038759963 -1.339515733
| 19> C 0.0889520391 1.022262533 -1.6818078871
| 20> S -0.5608658551 1.8213862217 -0.1880744436
| 21> P -2.2643538741 0.5838432768 3.73281e-05
| 22> S -3.177695662 0.142056595 -1.6803658021
| 23> O -2.9851568788 1.5067668315 1.0665112683
| 24> C -4.0983097622 1.0634628147 1.8738317906
| 25> C -5.4025345041 1.0936042512 1.1017303729
| 26> O -1.8164680592 -0.6876233417 0.8528033598
| 27> C -1.9404781792 -2.0474175627 0.3898396504
| 28> C -3.248753506 -2.6492902451 0.862163714
| 29> H 5.7957867933 -2.812697527 -1.7050849452
| 30> H 5.8832339261 -2.0295775948 -0.1203574428
| 31> H 4.7638141801 -3.3746737006 -0.3803775957
| 32> H 3.460265302 -1.9829274086 -1.9970223837
| 33> H 4.5820561801 -0.6244365943 -1.7237557113
| 34> H 0.5008585955 -0.6502296403 2.5635902967
| 35> H 1.1412507723 -1.7662695648 1.3206071433
| 36> H 2.0395438888 -2.3306671972 3.5874262495
| 37> H 3.3327625202 -1.8210045711 2.486696891
| 38> H 2.7255741173 -0.7014187658 3.711745929
| 39> H -0.7166605309 0.8765975636 -2.4027014758
| 40> H 0.8663843993 1.6762379745 -2.0765886161
| 41> H -3.8837978873 0.0594744668 2.2488438124
| 42> H -4.1132067717 1.7711230276 2.7047637944
| 43> H -5.5850920272 2.0922159055 0.7135751414
| 44> H -5.3660471937 0.4014693595 0.2625901103
| 45> H -6.2166455702 0.810314763 1.7614126242
| 46> H -1.8787950142 -2.0631337821 -0.7021032593
| 47> H -1.0822432811 -2.5699300733 0.8132127619
| 48> H -3.2930251556 -3.6884861048 0.5530328224
| 49> H -3.3238727574 -2.5944257512 1.9448146435
| 50> H -4.0853928007 -2.1147438263 0.4161865045
| 51> *
| 52>
| 53>                          ****END OF INPUT****

CARTESIAN COORDINATES (ANGSTROEM)
---------------------------------
  C      5.220220   -2.502588   -0.839265
  C      4.148662   -1.526729   -1.280708
  O      3.392159   -1.144511   -0.111536
  P      2.420555    0.109374   -0.138048
  S      3.206883    1.796350   -0.731619
  O      1.894505    0.169988    1.342475
  C      1.401436   -0.995120    2.050835
  C      2.446542   -1.495974    3.025368
  S      0.797316   -0.603876   -1.339516
  C      0.088952    1.022263   -1.681808
  S     -0.560866    1.821386   -0.188074
  P     -2.264354    0.583843    0.000037
  S     -3.177696    0.142057   -1.680366
  O     -2.985157    1.506767    1.066511
  C     -4.098310    1.063463    1.873832
  C     -5.402535    1.093604    1.101730
  O     -1.816468   -0.687623    0.852803
  C     -1.940478   -2.047418    0.389840
  C     -3.248754   -2.649290    0.862164
  H      5.795787   -2.812698   -1.705085
  H      5.883234   -2.029578   -0.120357
  H      4.763814   -3.374674   -0.380378
  H      3.460265   -1.982927   -1.997022
  H      4.582056   -0.624437   -1.723756
  H      0.500859   -0.650230    2.563590
  H      1.141251   -1.766270    1.320607
  H      2.039544   -2.330667    3.587426
  H      3.332763   -1.821005    2.486697
  H      2.725574   -0.701419    3.711746
  H     -0.716661    0.876598   -2.402701
  H      0.866384    1.676238   -2.076589
  H     -3.883798    0.059474    2.248844
  H     -4.113207    1.771123    2.704764
  H     -5.585092    2.092216    0.713575
  H     -5.366047    0.401469    0.262590
  H     -6.216646    0.810315    1.761413
  H     -1.878795   -2.063134   -0.702103
  H     -1.082243   -2.569930    0.813213
  H     -3.293025   -3.688486    0.553033
  H     -3.323873   -2.594426    1.944815
  H     -4.085393   -2.114744    0.416187

 Total Charge           Charge          ....    0
 Multiplicity           Mult            ....    1
 Number of Electrons    NEL             ....  202
 Basis Dimension        Dim             ....  539

ORBITAL ENERGIES
----------------

  NO   OCC          E(Eh)            E(eV)
   0   2.0000     -88.578770     -2410.3509
   1   2.0000     -88.577404     -2410.3137
   2   2.0000     -88.531281     -2409.0586
   3   2.0000     -88.528846     -2408.9924
   4   2.0000     -76.920837     -2093.1224
   5   2.0000     -76.920057     -2093.1011
   6   2.0000     -18.997661      -516.9527
   7   2.0000     -18.996285      -516.9152
   8   2.0000     -18.995982      -516.9070
   9   2.0000     -18.994087      -516.8554
  10   2.0000     -10.102635      -274.9067
  11   2.0000     -10.092975      -274.6438
  12   2.0000     -10.091889      -274.6143
  13   2.0000     -10.091698      -274.6091
  14   2.0000     -10.087528      -274.4956
  15   2.0000     -10.020316      -272.6667
  16   2.0000     -10.019241      -272.6374
  17   2.0000     -10.017610      -272.5930
  18   2.0000     -10.017269      -272.5837
  19   2.0000      -7.872933      -214.2334
  20   2.0000      -7.871746      -214.2011
  21   2.0000      -7.826397      -212.9671
  22   2.0000      -7.824041      -212.9030
  23   2.0000      -6.599478      -179.5809
  24   2.0000      -6.598354      -179.5503
  25   2.0000      -5.819790      -158.3645
  26   2.0000      -5.818469      -158.3286
  27   2.0000      -5.816830      -158.2840
  28   2.0000      -5.815625      -158.2512
  29   2.0000      -5.810075      -158.1002
  30   2.0000      -5.809008      -158.0712
  31   2.0000      -5.773994      -157.1184
  32   2.0000      -5.771593      -157.0530
  33   2.0000      -5.766580      -156.9166
  34   2.0000      -5.766475      -156.9138
  35   2.0000      -5.764451      -156.8587
  36   2.0000      -5.763931      -156.8445
  37   2.0000      -4.745246      -129.1247
  38   2.0000      -4.744438      -129.1027
  39   2.0000      -4.744049      -129.0921
  40   2.0000      -4.742989      -129.0633
  41   2.0000      -4.742973      -129.0629
  42   2.0000      -4.742247      -129.0431
  43   2.0000      -1.056757       -28.7558
  44   2.0000      -1.051661       -28.6171
  45   2.0000      -1.014758       -27.6130
  46   2.0000      -1.011307       -27.5191
  47   2.0000      -0.804588       -21.8940
  48   2.0000      -0.758224       -20.6323
  49   2.0000      -0.745663       -20.2905
  50   2.0000      -0.728373       -19.8200
  51   2.0000      -0.723191       -19.6790
  52   2.0000      -0.708206       -19.2713
  53   2.0000      -0.689287       -18.7565
  54   2.0000      -0.675248       -18.3744
  55   2.0000      -0.625680       -17.0256
  56   2.0000      -0.615475       -16.7479
  57   2.0000      -0.604221       -16.4417
  58   2.0000      -0.597416       -16.2565
  59   2.0000      -0.590980       -16.0814
  60   2.0000      -0.533542       -14.5184
  61   2.0000      -0.519025       -14.1234
  62   2.0000      -0.499462       -13.5911
  63   2.0000      -0.491910       -13.3855
  64   2.0000      -0.476763       -12.9734
  65   2.0000      -0.460232       -12.5235
  66   2.0000      -0.455730       -12.4010
  67   2.0000      -0.447910       -12.1882
  68   2.0000      -0.444215       -12.0877
  69   2.0000      -0.429745       -11.6940
  70   2.0000      -0.420875       -11.4526
  71   2.0000      -0.407819       -11.0973
  72   2.0000      -0.403513       -10.9802
  73   2.0000      -0.394838       -10.7441
  74   2.0000      -0.391374       -10.6498
  75   2.0000      -0.389941       -10.6108
  76   2.0000      -0.381781       -10.3888
  77   2.0000      -0.367020        -9.9871
  78   2.0000      -0.362813        -9.8726
  79   2.0000      -0.361127        -9.8268
  80   2.0000      -0.357248        -9.7212
  81   2.0000      -0.354690        -9.6516
  82   2.0000      -0.350284        -9.5317
  83   2.0000      -0.347167        -9.4469
  84   2.0000      -0.345585        -9.4038
  85   2.0000      -0.333404        -9.0724
  86   2.0000      -0.322734        -8.7820
  87   2.0000      -0.315854        -8.5948
  88   2.0000      -0.308804        -8.4030
  89   2.0000      -0.304733        -8.2922
  90   2.0000      -0.300353        -8.1730
  91   2.0000      -0.292305        -7.9540
  92   2.0000      -0.289565        -7.8795
  93   2.0000      -0.281114        -7.6495
  94   2.0000      -0.274056        -7.4574
  95   2.0000      -0.251042        -6.8312
  96   2.0000      -0.239614        -6.5202
  97   2.0000      -0.235543        -6.4094
  98   2.0000      -0.226783        -6.1711
  99   2.0000      -0.224476        -6.1083
 100   2.0000      -0.219055        -5.9608
 101   0.0000      -0.053402        -1.4531
 102   0.0000      -0.031008        -0.8438
 103   0.0000      -0.005955        -0.1620
 104   0.0000      -0.002284        -0.0621
 105   0.0000       0.012269         0.3339

MULLIKEN ATOMIC CHARGES
-----------------------
   0 C :   -0.481536
   1 C :   -0.139887
   2 O :   -0.300508
   3 P :    0.674863
   4 S :   -0.499638
   5 O :   -0.291501
   6 C :   -0.079729
   7 C :   -0.526918
   8 S :   -0.187049
   9 C :   -0.240645
  10 S :   -0.142302
  11 P :    0.699625
  12 S :   -0.518913
  13 O :   -0.339090
  14 C :   -0.144723
  15 C :   -0.476715
  16 O :   -0.294360
  17 C :   -0.097590
  18 C :   -0.515232
  19 H :    0.169977
  20 H :    0.167180
  21 H :    0.166589
  22 H :    0.170669
  23 H :    0.173005
  24 H :    0.182790
  25 H :    0.172494
  26 H :    0.172154
  27 H :    0.169909
  28 H :    0.168959
  29 H :    0.230645
  30 H :    0.235992
  31 H :    0.178204
  32 H :    0.175607
  33 H :    0.168353
  34 H :    0.165814
  35 H :    0.170720
  36 H :    0.172156
  37 H :    0.180555
  38 H :    0.169926
  39 H :    0.169618
  40 H :    0.170530
Sum of atomic charges:   -0.0000000

LOEWDIN ATOMIC CHARGES
----------------------
   0 C :   -0.388741
   1 C :    0.025820
   2 O :   -0.680024
   3 P :    0.378065
   4 S :   -0.144677
   5 O :   -0.669796
   6 C :    0.027833
   7 C :   -0.392848
   8 S :    0.138920
   9 C :   -0.421128
  10 S :    0.167058
  11 P :    0.388109
  12 S :   -0.160677
  13 O :   -0.681463
  14 C :    0.038236
  15 C :   -0.405872
  16 O :   -0.682334
  17 C :    0.006994
  18 C :   -0.402071
  19 H :    0.169469
  20 H :    0.163513
  21 H :    0.163544
  22 H :    0.180192
  23 H :    0.182028
  24 H :    0.191230
  25 H :    0.184113
  26 H :    0.169604
  27 H :    0.165056
  28 H :    0.164390
  29 H :    0.196663
  30 H :    0.196276
  31 H :    0.184251
  32 H :    0.191520
  33 H :    0.163149
  34 H :    0.162379
  35 H :    0.168322
  36 H :    0.181739
  37 H :    0.187859
  38 H :    0.168283
  39 H :    0.162880
  40 H :    0.162136

  Mayer bond orders larger than 0.100000
B(  0-C ,  1-C ) :   0.9543 B(  0-C , 19-H ) :   0.9575 B(  0-C , 20-H ) :   0.9689
B(  0-C , 21-H ) :   0.9681 B(  1-C ,  2-O ) :   0.7772 B(  1-C , 22-H ) :   0.9322
B(  1-C , 23-H ) :   0.9471 B(  2-O ,  3-P ) :   1.0657 B(  3-P ,  4-S ) :   1.8131
B(  3-P ,  5-O ) :   1.1666 B(  3-P ,  8-S ) :   0.9908 B(  5-O ,  6-C ) :   0.7164
B(  6-C ,  7-C ) :   0.9368 B(  6-C , 24-H ) :   0.9443 B(  6-C , 25-H ) :   0.9542
B(  7-C , 26-H ) :   0.9585 B(  7-C , 27-H ) :   0.9687 B(  7-C , 28-H ) :   0.9714
B(  8-S ,  9-C ) :   0.8990 B(  9-C , 10-S ) :   0.8989 B(  9-C , 29-H ) :   0.9018
B(  9-C , 30-H ) :   0.9008 B( 10-S , 11-P ) :   1.1083 B( 11-P , 12-S ) :   1.7354
B( 11-P , 13-O ) :   1.1675 B( 11-P , 16-O ) :   1.0516 B( 13-O , 14-C ) :   0.7831
B( 14-C , 15-C ) :   0.9266 B( 14-C , 31-H ) :   0.9583 B( 14-C , 32-H ) :   0.9523
B( 15-C , 33-H ) :   0.9707 B( 15-C , 34-H ) :   0.9585 B( 15-C , 35-H ) :   0.9595
B( 16-O , 17-C ) :   0.7338 B( 17-C , 18-C ) :   0.9271 B( 17-C , 36-H ) :   0.9500
B( 17-C , 37-H ) :   0.9501 B( 18-C , 38-H ) :   0.9580 B( 18-C , 39-H ) :   0.9721
B( 18-C , 40-H ) :   0.9679

Dispersion correction           -0.021305105
FINAL SINGLE POINT ENERGY     -2932.474790112333

DIPOLE MOMENT
-------------

Method             : SCF
Type of density    : Electron Density
Multiplicity       :   1
Irrep              :   0
Energy             : -2932.4999200038487288 Eh
Relativity type    :
Basis              : AO
                                X                 Y                 Z
Electronic contribution:      3.780929947      19.530128858     -11.929251423
Nuclear contribution   :     -4.317984122     -22.701159030      13.400126816
                        -----------------------------------------
Total Dipole Moment    :     -0.537054175      -3.171030172       1.470875393
                        -----------------------------------------
Magnitude (a.u.)       :      3.536570933
Magnitude (Debye)      :      8.989248923

Rotational constants in cm-1:             0.013622             0.004542             0.004278
Rotational constants in MHz :           408.366994           136.173515           128.263654

                             ****ORCA TERMINATED NORMALLY****
TOTAL RUN TIME: 0 days 0 hours 1 minutes 49 seconds 342 msec
