                         Program Version 6.0.1  -  RELEASE   -
|  1> ! pbe def2-sv(p) def2/J RI DEFGRID1 loosescf d4 GCP(DFT/SV(P)) printgap
|  2> %output
|  3>     printlevel normal
|  4> end
|  5> * xyz 0 1
|  6> C 4.2897243168 -1.4965989022 1.4686465566
|  7> C 2.8242664336 -1.8204950235 1.2356867058
|  8> O 2.4373343922 -1.3819443588 -0.08044266
|  9> C 1.518000673 -0.4654675802 -0.2156206137
| 10> O 0.9616288164 0.1212617097 0.7000163959
| 11> C 1.2320125693 -0.1438394979 -1.6653978667
| 12> C 0.1747444896 0.9469672994 -1.7413085025
| 13> H 0.1640717346 1.399101889 -2.7369721946
| 14> C 0.4263754148 2.0519037308 -0.7204208645
| 15> O -0.4418293929 2.5612635913 -0.050042405
| 16> O 1.6835994085 2.4440102297 -0.7655562699
| 17> C 2.1163985627 3.4791836944 0.1411807211
| 18> C 2.8197785435 2.8664580913 1.3410471196
| 19> S -1.5386114025 0.3490726962 -1.5614175021
| 20> P -1.6716334201 -0.8898138225 0.1599699281
| 21> S -0.6139345844 -2.5377282629 0.2307026211
| 22> O -1.648054721 -0.0693092309 1.5075048553
| 23> C -2.5191503235 1.0452959223 1.7820794197
| 24> O -3.2409249976 -1.2040692592 0.055532852
| 25> C -3.7648356062 -2.0741338579 -0.9531972523
| 26> H 4.894702486 -1.9467306069 0.6874298522
| 27> H 4.4453342508 -0.4207941961 1.4638667061
| 28> H 4.5927447586 -1.8935234121 2.4316686292
| 29> H 2.1768037574 -1.3350130739 1.9715245801
| 30> H 2.6433488424 -2.8975086623 1.249222723
| 31> H 0.9098483395 -1.0514638538 -2.1786885608
| 32> H 2.1605160522 0.1995187963 -2.1248461302
| 33> H 2.7940566087 4.1003031366 -0.4458160499
| 34> H 1.2411627801 4.0559956641 0.4519918747
| 35> H 3.0964274828 3.6500778658 2.0383576758
| 36> H 2.1530655885 2.1640328354 1.8385911982
| 37> H 3.7131225914 2.3359358575 1.0224091166
| 38> H -2.4521309388 1.1938063697 2.8566115436
| 39> H -3.5385808092 0.8084477581 1.4846444662
| 40> H -2.155566203 1.9248121851 1.2510424426
| 41> H -3.1390053743 -2.9639137837 -1.0397863543
| 42> H -3.805137335 -1.5508539785 -1.9075609339
| 43> H -4.7632037822 -2.3434297799 -0.6177682565
| 44> *
| 45>
| 46>                          ****END OF INPUT****

CARTESIAN COORDINATES (ANGSTROEM)
---------------------------------
  C      4.289724   -1.496599    1.468647
  C      2.824266   -1.820495    1.235687
  O      2.437334   -1.381944   -0.080443
  C      1.518001   -0.465468   -0.215621
  O      0.961629    0.121262    0.700016
  C      1.232013   -0.143839   -1.665398
  C      0.174744    0.946967   -1.741309
  H      0.164072    1.399102   -2.736972
  C      0.426375    2.051904   -0.720421
  O     -0.441829    2.561264   -0.050042
  O      1.683599    2.444010   -0.765556
  C      2.116399    3.479184    0.141181
  C      2.819779    2.866458    1.341047
  S     -1.538611    0.349073   -1.561418
  P     -1.671633   -0.889814    0.159970
  S     -0.613935   -2.537728    0.230703
  O     -1.648055   -0.069309    1.507505
  C     -2.519150    1.045296    1.782079
  O     -3.240925   -1.204069    0.055533
  C     -3.764836   -2.074134   -0.953197
  H      4.894702   -1.946731    0.687430
  H      4.445334   -0.420794    1.463867
  H      4.592745   -1.893523    2.431669
  H      2.176804   -1.335013    1.971525
  H      2.643349   -2.897509    1.249223
  H      0.909848   -1.051464   -2.178689
  H      2.160516    0.199519   -2.124846
  H      2.794057    4.100303   -0.445816
  H      1.241163    4.055996    0.451992
  H      3.096427    3.650078    2.038358
  H      2.153066    2.164033    1.838591
  H      3.713123    2.335936    1.022409
  H     -2.452131    1.193806    2.856612
  H     -3.538581    0.808448    1.484644
  H     -2.155566    1.924812    1.251042
  H     -3.139005   -2.963914   -1.039786
  H     -3.805137   -1.550854   -1.907561
  H     -4.763204   -2.343430   -0.617768

 Total Charge           Charge          ....    0
 Multiplicity           Mult            ....    1
 Number of Electrons    NEL             ....  174
 Basis Dimension        Dim             ....  316

ORBITAL ENERGIES
----------------

  NO   OCC          E(Eh)            E(eV)
   0   2.0000     -88.032198     -2395.4779
   1   2.0000     -87.971312     -2393.8211
   2   2.0000     -76.418268     -2079.4468
   3   2.0000     -18.804908      -511.7076
   4   2.0000     -18.803668      -511.6738
   5   2.0000     -18.784263      -511.1458
   6   2.0000     -18.779173      -511.0073
   7   2.0000     -18.741757      -509.9891
   8   2.0000     -18.735726      -509.8250
   9   2.0000     -10.015990      -272.5490
  10   2.0000     -10.014367      -272.5048
  11   2.0000      -9.948576      -270.7145
  12   2.0000      -9.947944      -270.6973
  13   2.0000      -9.943388      -270.5733
  14   2.0000      -9.937578      -270.4153
  15   2.0000      -9.927071      -270.1293
  16   2.0000      -9.911999      -269.7192
  17   2.0000      -9.889113      -269.0964
  18   2.0000      -9.885385      -268.9950
  19   2.0000      -7.677024      -208.9024
  20   2.0000      -7.616765      -207.2627
  21   2.0000      -6.414863      -174.5573
  22   2.0000      -5.705157      -155.2452
  23   2.0000      -5.701469      -155.1449
  24   2.0000      -5.693799      -154.9362
  25   2.0000      -5.645872      -153.6320
  26   2.0000      -5.637058      -153.3921
  27   2.0000      -5.636922      -153.3884
  28   2.0000      -4.637896      -126.2036
  29   2.0000      -4.636805      -126.1739
  30   2.0000      -4.634972      -126.1240
  31   2.0000      -1.015732       -27.6395
  32   2.0000      -1.009491       -27.4696
  33   2.0000      -0.975584       -26.5470
  34   2.0000      -0.930963       -25.3328
  35   2.0000      -0.920245       -25.0411
  36   2.0000      -0.915452       -24.9107
  37   2.0000      -0.761766       -20.7287
  38   2.0000      -0.711827       -19.3698
  39   2.0000      -0.704131       -19.1604
  40   2.0000      -0.686739       -18.6871
  41   2.0000      -0.655123       -17.8268
  42   2.0000      -0.627670       -17.0798
  43   2.0000      -0.620686       -16.8897
  44   2.0000      -0.607104       -16.5201
  45   2.0000      -0.592312       -16.1176
  46   2.0000      -0.563702       -15.3391
  47   2.0000      -0.508298       -13.8315
  48   2.0000      -0.504336       -13.7237
  49   2.0000      -0.495338       -13.4788
  50   2.0000      -0.484065       -13.1721
  51   2.0000      -0.464181       -12.6310
  52   2.0000      -0.452292       -12.3075
  53   2.0000      -0.443341       -12.0639
  54   2.0000      -0.432180       -11.7602
  55   2.0000      -0.430342       -11.7102
  56   2.0000      -0.420911       -11.4536
  57   2.0000      -0.420084       -11.4311
  58   2.0000      -0.413339       -11.2475
  59   2.0000      -0.402199       -10.9444
  60   2.0000      -0.397671       -10.8212
  61   2.0000      -0.392043       -10.6680
  62   2.0000      -0.388283       -10.5657
  63   2.0000      -0.381971       -10.3940
  64   2.0000      -0.375067       -10.2061
  65   2.0000      -0.372106       -10.1255
  66   2.0000      -0.358787        -9.7631
  67   2.0000      -0.355754        -9.6806
  68   2.0000      -0.338726        -9.2172
  69   2.0000      -0.333778        -9.0826
  70   2.0000      -0.330609        -8.9963
  71   2.0000      -0.326197        -8.8763
  72   2.0000      -0.324891        -8.8407
  73   2.0000      -0.307928        -8.3791
  74   2.0000      -0.296276        -8.0621
  75   2.0000      -0.294209        -8.0058
  76   2.0000      -0.292613        -7.9624
  77   2.0000      -0.284719        -7.7476
  78   2.0000      -0.263250        -7.1634
  79   2.0000      -0.258763        -7.0413
  80   2.0000      -0.252364        -6.8672
  81   2.0000      -0.248414        -6.7597
  82   2.0000      -0.231694        -6.3047
  83   2.0000      -0.228858        -6.2275
  84   2.0000      -0.218234        -5.9385
  85   2.0000      -0.191354        -5.2070
  86   2.0000      -0.184823        -5.0293
  87   0.0000      -0.034738        -0.9453
  88   0.0000      -0.020889        -0.5684
  89   0.0000      -0.019031        -0.5179
  90   0.0000      -0.004686        -0.1275
  91   0.0000       0.028421         0.7734

MULLIKEN ATOMIC CHARGES
-----------------------
   0 C :   -0.295978
   1 C :   -0.023341
   2 O :   -0.210907
   3 C :    0.126088
   4 O :   -0.211784
   5 C :   -0.076031
   6 C :   -0.292939
   7 H :    0.143879
   8 C :    0.212469
   9 O :   -0.178259
  10 O :   -0.248175
  11 C :   -0.016166
  12 C :   -0.317609
  13 S :   -0.099780
  14 P :    0.630782
  15 S :   -0.345653
  16 O :   -0.350674
  17 C :   -0.124777
  18 O :   -0.393067
  19 C :   -0.102970
  20 H :    0.115239
  21 H :    0.116478
  22 H :    0.114598
  23 H :    0.125311
  24 H :    0.112833
  25 H :    0.138802
  26 H :    0.124166
  27 H :    0.101396
  28 H :    0.112826
  29 H :    0.110628
  30 H :    0.143445
  31 H :    0.115471
  32 H :    0.119157
  33 H :    0.114579
  34 H :    0.152594
  35 H :    0.117586
  36 H :    0.117180
  37 H :    0.122601
Sum of atomic charges:    0.0000000

LOEWDIN ATOMIC CHARGES
----------------------
   0 C :   -0.353142
   1 C :   -0.109825
   2 O :   -0.036636
   3 C :    0.022367
   4 O :   -0.161629
   5 C :   -0.256636
   6 C :   -0.262576
   7 H :    0.151282
   8 C :    0.016404
   9 O :   -0.159308
  10 O :   -0.064396
  11 C :   -0.108387
  12 C :   -0.359062
  13 S :    0.102147
  14 P :    0.577807
  15 S :   -0.320982
  16 O :   -0.225558
  17 C :   -0.215110
  18 O :   -0.261012
  19 C :   -0.217760
  20 H :    0.125707
  21 H :    0.124218
  22 H :    0.131695
  23 H :    0.124447
  24 H :    0.121493
  25 H :    0.148240
  26 H :    0.148347
  27 H :    0.116095
  28 H :    0.121329
  29 H :    0.129227
  30 H :    0.135798
  31 H :    0.120900
  32 H :    0.121435
  33 H :    0.110248
  34 H :    0.123259
  35 H :    0.109713
  36 H :    0.108755
  37 H :    0.121105

  Mayer bond orders larger than 0.100000
B(  0-C ,  1-C ) :   1.1665 B(  0-C , 20-H ) :   0.9486 B(  0-C , 21-H ) :   0.9464
B(  0-C , 22-H ) :   0.9443 B(  1-C ,  2-O ) :   0.8974 B(  1-C , 23-H ) :   0.9089
B(  1-C , 24-H ) :   0.9330 B(  2-O ,  3-C ) :   1.2755 B(  3-C ,  4-O ) :   1.8941
B(  3-C ,  5-C ) :   1.0008 B(  5-C ,  6-C ) :   1.0376 B(  5-C , 25-H ) :   0.8855
B(  5-C , 26-H ) :   0.8743 B(  6-C ,  7-H ) :   0.8655 B(  6-C ,  8-C ) :   0.8644
B(  6-C , 13-S ) :   1.0570 B(  8-C ,  9-O ) :   2.0529 B(  8-C , 10-O ) :   1.2188
B( 10-O , 11-C ) :   0.9127 B( 11-C , 12-C ) :   1.1770 B( 11-C , 27-H ) :   0.9375
B( 11-C , 28-H ) :   0.9081 B( 12-C , 29-H ) :   0.9418 B( 12-C , 30-H ) :   0.9367
B( 12-C , 31-H ) :   0.9453 B( 13-S , 14-P ) :   0.9710 B( 13-S , 15-S ) :   0.1143
B( 14-P , 15-S ) :   1.6007 B( 14-P , 16-O ) :   1.1524 B( 14-P , 18-O ) :   1.0493
B( 16-O , 17-C ) :   0.9101 B( 17-C , 32-H ) :   0.9590 B( 17-C , 33-H ) :   0.9428
B( 17-C , 34-H ) :   0.9237 B( 18-O , 19-C ) :   0.9348 B( 19-C , 35-H ) :   0.9301
B( 19-C , 36-H ) :   0.9494 B( 19-C , 37-H ) :   0.9586

Dispersion correction           -0.054922625
FINAL SINGLE POINT ENERGY     -1979.012974628150

DIPOLE MOMENT
-------------

Method             : SCF
Type of density    : Electron Density
Multiplicity       :   1
Irrep              :   0
Energy             : -1979.1433239858215529 Eh
Relativity type    :
Basis              : AO
                                X                 Y                 Z
Electronic contribution:    -14.919422785      -5.325975588      -7.496227118
Nuclear contribution   :     15.748267503       5.988157575       7.135927646
                        -----------------------------------------
Total Dipole Moment    :      0.828844718       0.662181988      -0.360299472
                        -----------------------------------------
Magnitude (a.u.)       :      1.120394690
Magnitude (Debye)      :      2.847816982

Rotational constants in cm-1:             0.013254             0.008488             0.006580
Rotational constants in MHz :           397.338771           254.450899           197.278171

                             ****ORCA TERMINATED NORMALLY****
TOTAL RUN TIME: 0 days 0 hours 0 minutes 44 seconds 642 msec
