                         Program Version 6.0.0  -   RELEASE  -
|  1> ! pbe def2-sv(p) def2/J RI DEFGRID1 loosescf d4 GCP(DFT/SV(P)) printgap
|  2> %output
|  3>     printlevel normal
|  4> end
|  5> * xyz 0 1
|  6> C 5.3082372067 -0.4276169004 -2.3303021773
|  7> C 3.8722625277 -0.8075348435 -2.0297771561
|  8> O 3.5873372999 -0.4298453438 -0.667981257
|  9> P 2.1088581931 -0.185771483 -0.1458370755
| 10> S 1.0193291679 0.9118605822 -1.3591984346
| 11> O 2.343131141 0.3652547616 1.3150223067
| 12> C 2.4900590866 1.7691996412 1.6097233515
| 13> C 3.714457945 2.3600810094 0.9458220925
| 14> S 1.491435552 -2.1524061087 0.291547854
| 15> C -0.1755067884 -1.8584298062 0.9412520083
| 16> S -1.3952333601 -1.4729391751 -0.355534608
| 17> P -2.2348288602 0.2752909646 0.5308272485
| 18> S -1.053987673 1.3509938684 1.6579456024
| 19> O -3.4650841822 -0.2192625619 1.3796524153
| 20> C -4.5306868863 -1.0466158338 0.8413347862
| 21> C -4.4453419099 -2.444126308 1.4212606997
| 22> O -2.9565260674 1.0021418994 -0.6786866829
| 23> C -2.2789567561 1.7676928853 -1.6934013993
| 24> C -3.323911035 2.5917766149 -2.4162681004
| 25> H 5.9748278533 -0.9207572209 -1.6289298174
| 26> H 5.5537157143 -0.7384550817 -3.3404015422
| 27> H 5.4390644469 0.6474474759 -2.2444660807
| 28> H 3.7171438022 -1.8856550969 -2.1208549951
| 29> H 3.17118838 -0.2865390463 -2.6909668066
| 30> H 1.5786130557 2.2863800275 1.2932711715
| 31> H 2.5581545072 1.796361568 2.6979796121
| 32> H 3.5902140462 2.34436922 -0.136540692
| 33> H 3.8382208357 3.3879178852 1.2720543526
| 34> H 4.597846918 1.7840514288 1.2088226373
| 35> H -0.147504054 -1.0275319623 1.6506417667
| 36> H -0.4642684271 -2.787312693 1.4256092154
| 37> H -5.45117783 -0.5448963005 1.1428076945
| 38> H -4.458944736 -1.0606703512 -0.247871158
| 39> H -5.3172137998 -3.0100351075 1.1089930032
| 40> H -3.5501228888 -2.9494315255 1.0675611456
| 41> H -4.4195983587 -2.3946407478 2.5062478826
| 42> H -1.5238062002 2.3995184438 -1.2158789692
| 43> H -1.7695741198 1.0762211953 -2.3696874499
| 44> H -3.8180366407 3.2617248177 -1.7182095516
| 45> H -2.83798929 3.1743514883 -3.1917187111
| 46> H -4.0657225199 1.938747243 -2.8663465701
| 47> *
| 48>
| 49>                          ****END OF INPUT****

CARTESIAN COORDINATES (ANGSTROEM)
---------------------------------
  C      5.308237   -0.427617   -2.330302
  C      3.872263   -0.807535   -2.029777
  O      3.587337   -0.429845   -0.667981
  P      2.108858   -0.185771   -0.145837
  S      1.019329    0.911861   -1.359198
  O      2.343131    0.365255    1.315022
  C      2.490059    1.769200    1.609723
  C      3.714458    2.360081    0.945822
  S      1.491436   -2.152406    0.291548
  C     -0.175507   -1.858430    0.941252
  S     -1.395233   -1.472939   -0.355535
  P     -2.234829    0.275291    0.530827
  S     -1.053988    1.350994    1.657946
  O     -3.465084   -0.219263    1.379652
  C     -4.530687   -1.046616    0.841335
  C     -4.445342   -2.444126    1.421261
  O     -2.956526    1.002142   -0.678687
  C     -2.278957    1.767693   -1.693401
  C     -3.323911    2.591777   -2.416268
  H      5.974828   -0.920757   -1.628930
  H      5.553716   -0.738455   -3.340402
  H      5.439064    0.647447   -2.244466
  H      3.717144   -1.885655   -2.120855
  H      3.171188   -0.286539   -2.690967
  H      1.578613    2.286380    1.293271
  H      2.558155    1.796362    2.697980
  H      3.590214    2.344369   -0.136541
  H      3.838221    3.387918    1.272054
  H      4.597847    1.784051    1.208823
  H     -0.147504   -1.027532    1.650642
  H     -0.464268   -2.787313    1.425609
  H     -5.451178   -0.544896    1.142808
  H     -4.458945   -1.060670   -0.247871
  H     -5.317214   -3.010035    1.108993
  H     -3.550123   -2.949432    1.067561
  H     -4.419598   -2.394641    2.506248
  H     -1.523806    2.399518   -1.215879
  H     -1.769574    1.076221   -2.369687
  H     -3.818037    3.261725   -1.718210
  H     -2.837989    3.174351   -3.191719
  H     -4.065723    1.938747   -2.866347

 Total Charge           Charge          ....    0
 Multiplicity           Mult            ....    1
 Number of Electrons    NEL             ....  202
 Basis Dimension        Dim             ....  334

ORBITAL ENERGIES
----------------

  NO   OCC          E(Eh)            E(eV)
   0   2.0000     -88.039427     -2395.6746
   1   2.0000     -88.037953     -2395.6345
   2   2.0000     -87.980586     -2394.0735
   3   2.0000     -87.979755     -2394.0509
   4   2.0000     -76.422344     -2079.5577
   5   2.0000     -76.422110     -2079.5513
   6   2.0000     -18.792478      -511.3693
   7   2.0000     -18.789698      -511.2937
   8   2.0000     -18.785839      -511.1887
   9   2.0000     -18.785491      -511.1792
  10   2.0000      -9.955032      -270.8902
  11   2.0000      -9.953843      -270.8578
  12   2.0000      -9.950941      -270.7789
  13   2.0000      -9.947312      -270.6801
  14   2.0000      -9.942729      -270.5554
  15   2.0000      -9.887331      -269.0480
  16   2.0000      -9.886122      -269.0151
  17   2.0000      -9.884797      -268.9790
  18   2.0000      -9.877998      -268.7940
  19   2.0000      -7.685174      -209.1242
  20   2.0000      -7.682828      -209.0604
  21   2.0000      -7.625785      -207.5082
  22   2.0000      -7.624600      -207.4759
  23   2.0000      -6.420003      -174.6972
  24   2.0000      -6.419686      -174.6885
  25   2.0000      -5.712997      -155.4585
  26   2.0000      -5.710635      -155.3943
  27   2.0000      -5.709702      -155.3689
  28   2.0000      -5.707499      -155.3089
  29   2.0000      -5.702069      -155.1612
  30   2.0000      -5.699751      -155.0981
  31   2.0000      -5.654816      -153.8754
  32   2.0000      -5.653390      -153.8366
  33   2.0000      -5.646610      -153.6521
  34   2.0000      -5.645535      -153.6228
  35   2.0000      -5.645221      -153.6143
  36   2.0000      -5.644883      -153.6051
  37   2.0000      -4.642779      -126.3364
  38   2.0000      -4.642166      -126.3197
  39   2.0000      -4.641739      -126.3081
  40   2.0000      -4.641526      -126.3023
  41   2.0000      -4.640288      -126.2687
  42   2.0000      -4.640160      -126.2652
  43   2.0000      -0.985713       -26.8226
  44   2.0000      -0.983263       -26.7560
  45   2.0000      -0.942472       -25.6460
  46   2.0000      -0.941472       -25.6188
  47   2.0000      -0.758725       -20.6460
  48   2.0000      -0.720862       -19.6157
  49   2.0000      -0.709384       -19.3033
  50   2.0000      -0.689520       -18.7628
  51   2.0000      -0.685377       -18.6500
  52   2.0000      -0.670478       -18.2446
  53   2.0000      -0.647024       -17.6064
  54   2.0000      -0.632007       -17.1978
  55   2.0000      -0.594733       -16.1835
  56   2.0000      -0.582888       -15.8612
  57   2.0000      -0.571140       -15.5415
  58   2.0000      -0.563908       -15.3447
  59   2.0000      -0.560674       -15.2567
  60   2.0000      -0.509524       -13.8649
  61   2.0000      -0.497843       -13.5470
  62   2.0000      -0.477472       -12.9927
  63   2.0000      -0.472013       -12.8441
  64   2.0000      -0.450392       -12.2558
  65   2.0000      -0.445666       -12.1272
  66   2.0000      -0.436850       -11.8873
  67   2.0000      -0.431856       -11.7514
  68   2.0000      -0.428460       -11.6590
  69   2.0000      -0.420120       -11.4321
  70   2.0000      -0.405261       -11.0277
  71   2.0000      -0.393219       -10.7000
  72   2.0000      -0.388310       -10.5665
  73   2.0000      -0.381354       -10.3772
  74   2.0000      -0.376865       -10.2550
  75   2.0000      -0.371204       -10.1010
  76   2.0000      -0.364412        -9.9162
  77   2.0000      -0.355401        -9.6710
  78   2.0000      -0.352597        -9.5946
  79   2.0000      -0.350794        -9.5456
  80   2.0000      -0.345493        -9.4013
  81   2.0000      -0.342256        -9.3133
  82   2.0000      -0.339642        -9.2421
  83   2.0000      -0.335353        -9.1254
  84   2.0000      -0.331951        -9.0329
  85   2.0000      -0.313269        -8.5245
  86   2.0000      -0.308978        -8.4077
  87   2.0000      -0.298414        -8.1203
  88   2.0000      -0.296087        -8.0569
  89   2.0000      -0.295038        -8.0284
  90   2.0000      -0.279755        -7.6125
  91   2.0000      -0.271128        -7.3778
  92   2.0000      -0.267129        -7.2689
  93   2.0000      -0.259994        -7.0748
  94   2.0000      -0.257322        -7.0021
  95   2.0000      -0.240713        -6.5501
  96   2.0000      -0.222448        -6.0531
  97   2.0000      -0.203497        -5.5374
  98   2.0000      -0.201632        -5.4867
  99   2.0000      -0.189595        -5.1591
 100   2.0000      -0.182696        -4.9714
 101   0.0000      -0.037755        -1.0274
 102   0.0000      -0.029030        -0.7900
 103   0.0000      -0.008411        -0.2289
 104   0.0000       0.005648         0.1537
 105   0.0000       0.022276         0.6062

MULLIKEN ATOMIC CHARGES
-----------------------
   0 C :   -0.283772
   1 C :   -0.010693
   2 O :   -0.378085
   3 P :    0.627792
   4 S :   -0.339039
   5 O :   -0.364142
   6 C :   -0.009769
   7 C :   -0.309757
   8 S :   -0.095199
   9 C :   -0.348535
  10 S :   -0.102986
  11 P :    0.607283
  12 S :   -0.308499
  13 O :   -0.358016
  14 C :   -0.008421
  15 C :   -0.288308
  16 O :   -0.383072
  17 C :   -0.027588
  18 C :   -0.273432
  19 H :    0.117403
  20 H :    0.111421
  21 H :    0.120543
  22 H :    0.102585
  23 H :    0.104808
  24 H :    0.130034
  25 H :    0.104606
  26 H :    0.121505
  27 H :    0.110785
  28 H :    0.114740
  29 H :    0.195105
  30 H :    0.181548
  31 H :    0.111164
  32 H :    0.103440
  33 H :    0.108592
  34 H :    0.116013
  35 H :    0.119607
  36 H :    0.119997
  37 H :    0.118195
  38 H :    0.117885
  39 H :    0.113423
  40 H :    0.110835
Sum of atomic charges:   -0.0000000

LOEWDIN ATOMIC CHARGES
----------------------
   0 C :   -0.350873
   1 C :   -0.120778
   2 O :   -0.246839
   3 P :    0.570128
   4 S :   -0.320088
   5 O :   -0.234613
   6 C :   -0.117744
   7 C :   -0.367435
   8 S :    0.079216
   9 C :   -0.477743
  10 S :    0.062523
  11 P :    0.569013
  12 S :   -0.296458
  13 O :   -0.241500
  14 C :   -0.112785
  15 C :   -0.360059
  16 O :   -0.244973
  17 C :   -0.119072
  18 C :   -0.350854
  19 H :    0.127175
  20 H :    0.130597
  21 H :    0.128122
  22 H :    0.110982
  23 H :    0.106728
  24 H :    0.110667
  25 H :    0.119745
  26 H :    0.120052
  27 H :    0.130094
  28 H :    0.124856
  29 H :    0.124046
  30 H :    0.134833
  31 H :    0.121803
  32 H :    0.107558
  33 H :    0.129228
  34 H :    0.119025
  35 H :    0.128824
  36 H :    0.111481
  37 H :    0.111187
  38 H :    0.127848
  39 H :    0.131775
  40 H :    0.124309

  Mayer bond orders larger than 0.100000
B(  0-C ,  1-C ) :   1.1605 B(  0-C , 19-H ) :   0.9503 B(  0-C , 20-H ) :   0.9418
B(  0-C , 21-H ) :   0.9514 B(  1-C ,  2-O ) :   0.9053 B(  1-C , 22-H ) :   0.9310
B(  1-C , 23-H ) :   0.9047 B(  2-O ,  3-P ) :   1.1000 B(  3-P ,  4-S ) :   1.6180
B(  3-P ,  5-O ) :   1.1410 B(  3-P ,  8-S ) :   0.9683 B(  4-S ,  8-S ) :   0.1156
B(  5-O ,  6-C ) :   0.8965 B(  6-C ,  7-C ) :   1.1634 B(  6-C , 24-H ) :   0.9099
B(  6-C , 25-H ) :   0.9359 B(  7-C , 26-H ) :   0.9329 B(  7-C , 27-H ) :   0.9383
B(  7-C , 28-H ) :   0.9447 B(  8-S ,  9-C ) :   1.0049 B(  9-C , 10-S ) :   0.9925
B(  9-C , 29-H ) :   0.8536 B(  9-C , 30-H ) :   0.9115 B( 10-S , 11-P ) :   0.9444
B( 10-S , 12-S ) :   0.1137 B( 11-P , 12-S ) :   1.6323 B( 11-P , 13-O ) :   1.1351
B( 11-P , 16-O ) :   1.1083 B( 12-S , 29-H ) :   0.1044 B( 13-O , 14-C ) :   0.8908
B( 14-C , 15-C ) :   1.1636 B( 14-C , 31-H ) :   0.9346 B( 14-C , 32-H ) :   0.9179
B( 15-C , 33-H ) :   0.9401 B( 15-C , 34-H ) :   0.9383 B( 15-C , 35-H ) :   0.9464
B( 16-O , 17-C ) :   0.8959 B( 17-C , 18-C ) :   1.1531 B( 17-C , 36-H ) :   0.9152
B( 17-C , 37-H ) :   0.9278 B( 18-C , 38-H ) :   0.9499 B( 18-C , 39-H ) :   0.9423
B( 18-C , 40-H ) :   0.9505

Dispersion correction           -0.064356779
FINAL SINGLE POINT ENERGY     -2929.517816621972

DIPOLE MOMENT
-------------

Method             : SCF
Type of density    : Electron Density
Multiplicity       :   1
Irrep              :   0
Energy             : -2929.6370106102745012 Eh
Relativity type    :
Basis              : AO
                                X                 Y                 Z
Electronic contribution:     -2.305428878      -6.475233156       7.562810642
Nuclear contribution   :      2.162815903       6.059920784      -8.209480107
                        -----------------------------------------
Total Dipole Moment    :     -0.142612976      -0.415312373      -0.646669465
                        -----------------------------------------
Magnitude (a.u.)       :      0.781667592
Magnitude (Debye)      :      1.986841121

Rotational constants in cm-1:             0.012298             0.004823             0.004492
Rotational constants in MHz :           368.690616           144.596554           134.680723

                             ****ORCA TERMINATED NORMALLY****
TOTAL RUN TIME: 0 days 0 hours 0 minutes 20 seconds 469 msec
