                         Program Version 6.0.0  -   RELEASE  -
|  1> ! pbe def2-sv(p) def2/J RI DEFGRID1 loosescf d4 GCP(DFT/SV(P)) printgap
|  2> %output
|  3>     printlevel normal
|  4> end
|  5> * xyz 0 1
|  6> C 3.6390477233 1.555734147 -1.6945807001
|  7> C 2.2614923231 1.7356918984 -1.0936786533
|  8> O 1.639584818 0.4729054631 -0.7876814818
|  9> P 2.1919671844 -0.5120556438 0.3191521595
| 10> S 3.0369923022 0.3199770124 1.8834408594
| 11> O 3.1300420911 -1.4723959148 -0.5274340917
| 12> C 4.0921768041 -2.3486922979 0.08693627
| 13> C 3.4296757029 -3.4731795334 0.8563562297
| 14> S 0.450763635 -1.6524794089 0.6676334607
| 15> C -0.2325170759 -0.5871590728 1.9637125861
| 16> S -0.7342340612 1.0580101486 1.3734822486
| 17> P -2.0279446955 0.4952866038 -0.2195444212
| 18> S -1.3019865854 0.2226938189 -2.0238060142
| 19> O -3.1303891965 1.6390937421 -0.1571115225
| 20> C -3.0087550024 2.8898326946 -0.858886038
| 21> C -4.404900735 3.4142860835 -1.1306121784
| 22> O -2.763099573 -0.7290141849 0.4532690187
| 23> C -3.4153192144 -1.7467442203 -0.338052663
| 24> C -4.6648961874 -1.2123529369 -1.004056181
| 25> H 3.5866882787 0.8956919448 -2.5567133414
| 26> H 4.027410655 2.522388577 -1.999505577
| 27> H 4.31067861 1.1200873879 -0.9552963971
| 28> H 1.5676722691 2.1990216858 -1.7974938051
| 29> H 2.3089763822 2.3272799656 -0.1731921385
| 30> H 4.6775518989 -2.7239295078 -0.753474195
| 31> H 4.7279044144 -1.7523710155 0.7494258348
| 32> H 4.1878607422 -4.172073449 1.1947501091
| 33> H 2.9050181988 -3.0731276899 1.7231109253
| 34> H 2.7142019843 -3.9927797731 0.2237534063
| 35> H 0.5282897875 -0.4045322326 2.7238178227
| 36> H -1.0938901207 -1.1030283609 2.378780814
| 37> H -2.4402915025 3.5776017636 -0.226934607
| 38> H -2.4577936387 2.7167513072 -1.7902521297
| 39> H -4.3327004643 4.3800520303 -1.6198125291
| 40> H -4.9460350661 2.7263650919 -1.7741012125
| 41> H -4.946549005 3.5228820037 -0.1956124143
| 42> H -2.7036521723 -2.1162001303 -1.0832490799
| 43> H -3.6400093579 -2.5338914612 0.3825104541
| 44> H -5.3257737711 -0.7707117944 -0.2630914863
| 45> H -4.3933525631 -0.4507359149 -1.7340094365
| 46> H -5.1776805868 -2.0225549067 -1.5127360364
| 47> *
| 48>
| 49>                          ****END OF INPUT****

CARTESIAN COORDINATES (ANGSTROEM)
---------------------------------
  C      3.639048    1.555734   -1.694581
  C      2.261492    1.735692   -1.093679
  O      1.639585    0.472905   -0.787681
  P      2.191967   -0.512056    0.319152
  S      3.036992    0.319977    1.883441
  O      3.130042   -1.472396   -0.527434
  C      4.092177   -2.348692    0.086936
  C      3.429676   -3.473180    0.856356
  S      0.450764   -1.652479    0.667633
  C     -0.232517   -0.587159    1.963713
  S     -0.734234    1.058010    1.373482
  P     -2.027945    0.495287   -0.219544
  S     -1.301987    0.222694   -2.023806
  O     -3.130389    1.639094   -0.157112
  C     -3.008755    2.889833   -0.858886
  C     -4.404901    3.414286   -1.130612
  O     -2.763100   -0.729014    0.453269
  C     -3.415319   -1.746744   -0.338053
  C     -4.664896   -1.212353   -1.004056
  H      3.586688    0.895692   -2.556713
  H      4.027411    2.522389   -1.999506
  H      4.310679    1.120087   -0.955296
  H      1.567672    2.199022   -1.797494
  H      2.308976    2.327280   -0.173192
  H      4.677552   -2.723930   -0.753474
  H      4.727904   -1.752371    0.749426
  H      4.187861   -4.172073    1.194750
  H      2.905018   -3.073128    1.723111
  H      2.714202   -3.992780    0.223753
  H      0.528290   -0.404532    2.723818
  H     -1.093890   -1.103028    2.378781
  H     -2.440292    3.577602   -0.226935
  H     -2.457794    2.716751   -1.790252
  H     -4.332700    4.380052   -1.619813
  H     -4.946035    2.726365   -1.774101
  H     -4.946549    3.522882   -0.195612
  H     -2.703652   -2.116200   -1.083249
  H     -3.640009   -2.533891    0.382510
  H     -5.325774   -0.770712   -0.263091
  H     -4.393353   -0.450736   -1.734009
  H     -5.177681   -2.022555   -1.512736

 Total Charge           Charge          ....    0
 Multiplicity           Mult            ....    1
 Number of Electrons    NEL             ....  202
 Basis Dimension        Dim             ....  334

ORBITAL ENERGIES
----------------

  NO   OCC          E(Eh)            E(eV)
   0   2.0000     -88.040612     -2395.7068
   1   2.0000     -88.034745     -2395.5472
   2   2.0000     -87.986777     -2394.2419
   3   2.0000     -87.981048     -2394.0860
   4   2.0000     -76.423647     -2079.5932
   5   2.0000     -76.423395     -2079.5863
   6   2.0000     -18.795463      -511.4506
   7   2.0000     -18.792458      -511.3688
   8   2.0000     -18.788690      -511.2663
   9   2.0000     -18.781249      -511.0638
  10   2.0000      -9.954119      -270.8654
  11   2.0000      -9.953552      -270.8499
  12   2.0000      -9.951852      -270.8036
  13   2.0000      -9.951531      -270.7949
  14   2.0000      -9.942409      -270.5467
  15   2.0000      -9.887569      -269.0544
  16   2.0000      -9.884550      -268.9723
  17   2.0000      -9.883667      -268.9482
  18   2.0000      -9.877632      -268.7840
  19   2.0000      -7.685732      -209.1394
  20   2.0000      -7.680063      -208.9851
  21   2.0000      -7.631736      -207.6701
  22   2.0000      -7.626031      -207.5149
  23   2.0000      -6.421213      -174.7301
  24   2.0000      -6.420967      -174.7234
  25   2.0000      -5.713561      -155.4739
  26   2.0000      -5.710385      -155.3875
  27   2.0000      -5.708203      -155.3281
  28   2.0000      -5.704666      -155.2319
  29   2.0000      -5.702541      -155.1740
  30   2.0000      -5.696643      -155.0135
  31   2.0000      -5.660486      -154.0297
  32   2.0000      -5.654811      -153.8752
  33   2.0000      -5.652488      -153.8120
  34   2.0000      -5.651958      -153.7976
  35   2.0000      -5.646824      -153.6579
  36   2.0000      -5.646172      -153.6402
  37   2.0000      -4.643646      -126.3600
  38   2.0000      -4.643554      -126.3575
  39   2.0000      -4.642905      -126.3399
  40   2.0000      -4.642782      -126.3365
  41   2.0000      -4.641957      -126.3141
  42   2.0000      -4.641243      -126.2946
  43   2.0000      -0.987318       -26.8663
  44   2.0000      -0.983206       -26.7544
  45   2.0000      -0.946889       -25.7662
  46   2.0000      -0.941436       -25.6178
  47   2.0000      -0.761362       -20.7177
  48   2.0000      -0.719991       -19.5920
  49   2.0000      -0.705738       -19.2041
  50   2.0000      -0.689145       -18.7526
  51   2.0000      -0.683534       -18.5999
  52   2.0000      -0.668919       -18.2022
  53   2.0000      -0.648575       -17.6486
  54   2.0000      -0.636476       -17.3194
  55   2.0000      -0.600042       -16.3280
  56   2.0000      -0.593648       -16.1540
  57   2.0000      -0.568641       -15.4735
  58   2.0000      -0.566238       -15.4081
  59   2.0000      -0.560135       -15.2421
  60   2.0000      -0.502380       -13.6705
  61   2.0000      -0.488934       -13.3046
  62   2.0000      -0.479943       -13.0599
  63   2.0000      -0.469034       -12.7631
  64   2.0000      -0.455214       -12.3870
  65   2.0000      -0.441904       -12.0248
  66   2.0000      -0.437126       -11.8948
  67   2.0000      -0.435194       -11.8422
  68   2.0000      -0.424096       -11.5402
  69   2.0000      -0.410757       -11.1773
  70   2.0000      -0.407569       -11.0905
  71   2.0000      -0.397681       -10.8215
  72   2.0000      -0.388481       -10.5711
  73   2.0000      -0.382925       -10.4199
  74   2.0000      -0.379890       -10.3373
  75   2.0000      -0.374566       -10.1925
  76   2.0000      -0.370046       -10.0695
  77   2.0000      -0.357285        -9.7222
  78   2.0000      -0.355453        -9.6724
  79   2.0000      -0.349467        -9.5095
  80   2.0000      -0.346478        -9.4281
  81   2.0000      -0.344654        -9.3785
  82   2.0000      -0.342465        -9.3190
  83   2.0000      -0.337581        -9.1860
  84   2.0000      -0.329900        -8.9770
  85   2.0000      -0.318865        -8.6767
  86   2.0000      -0.307499        -8.3675
  87   2.0000      -0.296981        -8.0813
  88   2.0000      -0.293814        -7.9951
  89   2.0000      -0.286788        -7.8039
  90   2.0000      -0.278551        -7.5798
  91   2.0000      -0.274240        -7.4625
  92   2.0000      -0.268523        -7.3069
  93   2.0000      -0.262274        -7.1368
  94   2.0000      -0.258457        -7.0330
  95   2.0000      -0.232692        -6.3319
  96   2.0000      -0.215498        -5.8640
  97   2.0000      -0.208501        -5.6736
  98   2.0000      -0.204026        -5.5518
  99   2.0000      -0.195382        -5.3166
 100   2.0000      -0.189613        -5.1596
 101   0.0000      -0.045434        -1.2363
 102   0.0000      -0.019333        -0.5261
 103   0.0000      -0.014785        -0.4023
 104   0.0000       0.006727         0.1831
 105   0.0000       0.023339         0.6351

MULLIKEN ATOMIC CHARGES
-----------------------
   0 C :   -0.311032
   1 C :    0.005241
   2 O :   -0.343080
   3 P :    0.620839
   4 S :   -0.342638
   5 O :   -0.368436
   6 C :   -0.005148
   7 C :   -0.314467
   8 S :   -0.082654
   9 C :   -0.347895
  10 S :   -0.099781
  11 P :    0.623697
  12 S :   -0.313462
  13 O :   -0.375876
  14 C :   -0.009670
  15 C :   -0.285130
  16 O :   -0.375532
  17 C :   -0.005367
  18 C :   -0.308195
  19 H :    0.118777
  20 H :    0.109487
  21 H :    0.119211
  22 H :    0.102812
  23 H :    0.107873
  24 H :    0.106568
  25 H :    0.111153
  26 H :    0.113015
  27 H :    0.125103
  28 H :    0.119035
  29 H :    0.190698
  30 H :    0.186894
  31 H :    0.100948
  32 H :    0.103369
  33 H :    0.110946
  34 H :    0.119628
  35 H :    0.117866
  36 H :    0.117010
  37 H :    0.103266
  38 H :    0.117282
  39 H :    0.125016
  40 H :    0.112630
Sum of atomic charges:   -0.0000000

LOEWDIN ATOMIC CHARGES
----------------------
   0 C :   -0.365823
   1 C :   -0.115816
   2 O :   -0.226775
   3 P :    0.576883
   4 S :   -0.328093
   5 O :   -0.240656
   6 C :   -0.118803
   7 C :   -0.369445
   8 S :    0.094965
   9 C :   -0.476485
  10 S :    0.069595
  11 P :    0.568966
  12 S :   -0.308462
  13 O :   -0.249587
  14 C :   -0.121419
  15 C :   -0.350950
  16 O :   -0.239282
  17 C :   -0.117004
  18 C :   -0.365152
  19 H :    0.127144
  20 H :    0.129043
  21 H :    0.120126
  22 H :    0.117370
  23 H :    0.109360
  24 H :    0.119376
  25 H :    0.110478
  26 H :    0.131030
  27 H :    0.120540
  28 H :    0.124938
  29 H :    0.129220
  30 H :    0.133350
  31 H :    0.111010
  32 H :    0.104876
  33 H :    0.130274
  34 H :    0.127413
  35 H :    0.127222
  36 H :    0.113081
  37 H :    0.117543
  38 H :    0.126713
  39 H :    0.122267
  40 H :    0.130969

  Mayer bond orders larger than 0.100000
B(  0-C ,  1-C ) :   1.1635 B(  0-C , 19-H ) :   0.9456 B(  0-C , 20-H ) :   0.9396
B(  0-C , 21-H ) :   0.9366 B(  1-C ,  2-O ) :   0.9071 B(  1-C , 22-H ) :   0.9293
B(  1-C , 23-H ) :   0.9201 B(  2-O ,  3-P ) :   1.1498 B(  3-P ,  4-S ) :   1.5820
B(  3-P ,  5-O ) :   1.1129 B(  3-P ,  8-S ) :   0.9500 B(  4-S ,  8-S ) :   0.1090
B(  5-O ,  6-C ) :   0.9077 B(  6-C ,  7-C ) :   1.1667 B(  6-C , 24-H ) :   0.9337
B(  6-C , 25-H ) :   0.9157 B(  7-C , 26-H ) :   0.9379 B(  7-C , 27-H ) :   0.9352
B(  7-C , 28-H ) :   0.9447 B(  8-S ,  9-C ) :   1.0109 B(  9-C , 10-S ) :   1.0034
B(  9-C , 29-H ) :   0.8796 B(  9-C , 30-H ) :   0.9031 B( 10-S , 11-P ) :   0.9529
B( 10-S , 12-S ) :   0.1062 B( 11-P , 12-S ) :   1.6322 B( 11-P , 13-O ) :   1.0992
B( 11-P , 16-O ) :   1.1157 B( 13-O , 14-C ) :   0.9099 B( 14-C , 15-C ) :   1.1617
B( 14-C , 31-H ) :   0.9308 B( 14-C , 32-H ) :   0.9029 B( 15-C , 33-H ) :   0.9417
B( 15-C , 34-H ) :   0.9514 B( 15-C , 35-H ) :   0.9505 B( 16-O , 17-C ) :   0.8976
B( 17-C , 18-C ) :   1.1657 B( 17-C , 36-H ) :   0.9150 B( 17-C , 37-H ) :   0.9341
B( 18-C , 38-H ) :   0.9459 B( 18-C , 39-H ) :   0.9329 B( 18-C , 40-H ) :   0.9384

Dispersion correction           -0.065883341
FINAL SINGLE POINT ENERGY     -2929.521090861530

DIPOLE MOMENT
-------------

Method             : SCF
Type of density    : Electron Density
Multiplicity       :   1
Irrep              :   0
Energy             : -2929.6389172611816321 Eh
Relativity type    :
Basis              : AO
                                X                 Y                 Z
Electronic contribution:      5.218914194      -1.104177769       8.426883042
Nuclear contribution   :     -5.754949236       0.833418307      -8.658315792
                        -----------------------------------------
Total Dipole Moment    :     -0.536035043      -0.270759461      -0.231432750
                        -----------------------------------------
Magnitude (a.u.)       :      0.643587889
Magnitude (Debye)      :      1.635870408

Rotational constants in cm-1:             0.013227             0.004938             0.004447
Rotational constants in MHz :           396.529522           148.030234           133.329261

                             ****ORCA TERMINATED NORMALLY****
TOTAL RUN TIME: 0 days 0 hours 0 minutes 20 seconds 888 msec
