                         Program Version 6.0.0  -   RELEASE  -
|  1> ! pbe def2-sv(p) def2/J RI DEFGRID1 loosescf d4 GCP(DFT/SV(P)) printgap
|  2> %output
|  3>     printlevel normal
|  4> end
|  5> * xyz 0 1
|  6> C 2.9105630817 -1.7273659394 -2.3942308371
|  7> C 3.0888870826 -0.5043261301 -1.5173850739
|  8> O 2.7146920338 -0.828510126 -0.1651203221
|  9> P 1.7676523057 0.0160043382 0.7961392588
| 10> S 1.1678937888 1.7419332842 0.0526715099
| 11> O 2.5793903033 0.1757820346 2.154813677
| 12> C 3.4022460816 1.3187067787 2.4443219565
| 13> C 4.6417212604 1.3536666426 1.5727929105
| 14> S 0.5167746828 -1.4542886279 1.6168196999
| 15> C -0.2637724734 -2.1631209819 0.1175122052
| 16> S -0.368131288 -1.0281718808 -1.2906864486
| 17> P -1.9703078645 0.1961596323 -0.6901727855
| 18> S -2.3406661126 1.7946213092 -1.7572873779
| 19> O -1.6077805001 0.4022537741 0.8377635815
| 20> C -2.4038676034 1.2615399945 1.6833397693
| 21> C -1.5818161308 1.5868702362 2.9128284836
| 22> O -3.2248387664 -0.7871976628 -0.5491831997
| 23> C -4.1433271818 -1.0097232964 -1.6305369757
| 24> C -3.5075817648 -1.7982304938 -2.7577460652
| 25> H 1.8578077574 -1.9888304275 -2.4703913162
| 26> H 3.2932548653 -1.5073230058 -3.385376336
| 27> H 3.459961053 -2.5643582235 -1.9733776346
| 28> H 2.4777654663 0.3355256293 -1.8656958879
| 29> H 4.1367744283 -0.1960203384 -1.4844819561
| 30> H 2.8059349838 2.2257096144 2.2987842389
| 31> H 3.651341596 1.2032716319 3.5000967481
| 32> H 4.3562156077 1.5316199888 0.536176916
| 33> H 5.2920221692 2.1583244249 1.9012951308
| 34> H 5.172584662 0.4074844794 1.6392000311
| 35> H -1.2624259757 -2.4835950648 0.4070188319
| 36> H 0.3379150378 -3.0017919395 -0.2258123334
| 37> H -2.6580788914 2.1651297785 1.118221148
| 38> H -3.3201208435 0.7245418448 1.9400104342
| 39> H -1.3072969385 0.6711825561 3.430178802
| 40> H -0.6734687343 2.1098096762 2.6213037103
| 41> H -2.1623303721 2.2212451268 3.5742718514
| 42> H -4.9688041623 -1.5530691206 -1.1688485272
| 43> H -4.4904752503 -0.0365960455 -1.9920645143
| 44> H -3.1036484113 -2.7370505997 -2.3882213561
| 45> H -4.2544656996 -2.0016970041 -3.518203873
| 46> H -2.7001467904 -1.2169419822 -3.203020096
| 47> *
| 48>
| 49>                          ****END OF INPUT****

CARTESIAN COORDINATES (ANGSTROEM)
---------------------------------
  C      2.910563   -1.727366   -2.394231
  C      3.088887   -0.504326   -1.517385
  O      2.714692   -0.828510   -0.165120
  P      1.767652    0.016004    0.796139
  S      1.167894    1.741933    0.052672
  O      2.579390    0.175782    2.154814
  C      3.402246    1.318707    2.444322
  C      4.641721    1.353667    1.572793
  S      0.516775   -1.454289    1.616820
  C     -0.263772   -2.163121    0.117512
  S     -0.368131   -1.028172   -1.290686
  P     -1.970308    0.196160   -0.690173
  S     -2.340666    1.794621   -1.757287
  O     -1.607781    0.402254    0.837764
  C     -2.403868    1.261540    1.683340
  C     -1.581816    1.586870    2.912828
  O     -3.224839   -0.787198   -0.549183
  C     -4.143327   -1.009723   -1.630537
  C     -3.507582   -1.798230   -2.757746
  H      1.857808   -1.988830   -2.470391
  H      3.293255   -1.507323   -3.385376
  H      3.459961   -2.564358   -1.973378
  H      2.477765    0.335526   -1.865696
  H      4.136774   -0.196020   -1.484482
  H      2.805935    2.225710    2.298784
  H      3.651342    1.203272    3.500097
  H      4.356216    1.531620    0.536177
  H      5.292022    2.158324    1.901295
  H      5.172585    0.407484    1.639200
  H     -1.262426   -2.483595    0.407019
  H      0.337915   -3.001792   -0.225812
  H     -2.658079    2.165130    1.118221
  H     -3.320121    0.724542    1.940010
  H     -1.307297    0.671183    3.430179
  H     -0.673469    2.109810    2.621304
  H     -2.162330    2.221245    3.574272
  H     -4.968804   -1.553069   -1.168849
  H     -4.490475   -0.036596   -1.992065
  H     -3.103648   -2.737051   -2.388221
  H     -4.254466   -2.001697   -3.518204
  H     -2.700147   -1.216942   -3.203020

 Total Charge           Charge          ....    0
 Multiplicity           Mult            ....    1
 Number of Electrons    NEL             ....  202
 Basis Dimension        Dim             ....  334

ORBITAL ENERGIES
----------------

  NO   OCC          E(Eh)            E(eV)
   0   2.0000     -88.050989     -2395.9892
   1   2.0000     -88.036356     -2395.5910
   2   2.0000     -87.984227     -2394.1725
   3   2.0000     -87.979235     -2394.0367
   4   2.0000     -76.423697     -2079.5945
   5   2.0000     -76.422761     -2079.5691
   6   2.0000     -18.789426      -511.2863
   7   2.0000     -18.788757      -511.2681
   8   2.0000     -18.784409      -511.1498
   9   2.0000     -18.783086      -511.1138
  10   2.0000      -9.962952      -271.1057
  11   2.0000      -9.949931      -270.7514
  12   2.0000      -9.949726      -270.7458
  13   2.0000      -9.947774      -270.6927
  14   2.0000      -9.945007      -270.6174
  15   2.0000      -9.886836      -269.0345
  16   2.0000      -9.884517      -268.9714
  17   2.0000      -9.883454      -268.9424
  18   2.0000      -9.874361      -268.6950
  19   2.0000      -7.695228      -209.3978
  20   2.0000      -7.681758      -209.0313
  21   2.0000      -7.629405      -207.6067
  22   2.0000      -7.623870      -207.4561
  23   2.0000      -6.421295      -174.7323
  24   2.0000      -6.419545      -174.6847
  25   2.0000      -5.723525      -155.7450
  26   2.0000      -5.719430      -155.6336
  27   2.0000      -5.712106      -155.4343
  28   2.0000      -5.710101      -155.3797
  29   2.0000      -5.706390      -155.2788
  30   2.0000      -5.698028      -155.0512
  31   2.0000      -5.658407      -153.9731
  32   2.0000      -5.652891      -153.8230
  33   2.0000      -5.650202      -153.7498
  34   2.0000      -5.649324      -153.7259
  35   2.0000      -5.644423      -153.5926
  36   2.0000      -5.644025      -153.5817
  37   2.0000      -4.643679      -126.3609
  38   2.0000      -4.643242      -126.3490
  39   2.0000      -4.642243      -126.3218
  40   2.0000      -4.641764      -126.3088
  41   2.0000      -4.641232      -126.2943
  42   2.0000      -4.640105      -126.2637
  43   2.0000      -0.982832       -26.7442
  44   2.0000      -0.978694       -26.6316
  45   2.0000      -0.941009       -25.6062
  46   2.0000      -0.939553       -25.5665
  47   2.0000      -0.765645       -20.8343
  48   2.0000      -0.721544       -19.6342
  49   2.0000      -0.706517       -19.2253
  50   2.0000      -0.687078       -18.6963
  51   2.0000      -0.683144       -18.5893
  52   2.0000      -0.669194       -18.2097
  53   2.0000      -0.649479       -17.6732
  54   2.0000      -0.635916       -17.3042
  55   2.0000      -0.597482       -16.2583
  56   2.0000      -0.588269       -16.0076
  57   2.0000      -0.571199       -15.5431
  58   2.0000      -0.569770       -15.5042
  59   2.0000      -0.557667       -15.1749
  60   2.0000      -0.500893       -13.6300
  61   2.0000      -0.495770       -13.4906
  62   2.0000      -0.475161       -12.9298
  63   2.0000      -0.469469       -12.7749
  64   2.0000      -0.458301       -12.4710
  65   2.0000      -0.441071       -12.0021
  66   2.0000      -0.437201       -11.8969
  67   2.0000      -0.433778       -11.8037
  68   2.0000      -0.423442       -11.5225
  69   2.0000      -0.414145       -11.2695
  70   2.0000      -0.402697       -10.9579
  71   2.0000      -0.394666       -10.7394
  72   2.0000      -0.389865       -10.6088
  73   2.0000      -0.387681       -10.5493
  74   2.0000      -0.385515       -10.4904
  75   2.0000      -0.374558       -10.1922
  76   2.0000      -0.365017        -9.9326
  77   2.0000      -0.356903        -9.7118
  78   2.0000      -0.352629        -9.5955
  79   2.0000      -0.349757        -9.5174
  80   2.0000      -0.346472        -9.4280
  81   2.0000      -0.340543        -9.2666
  82   2.0000      -0.335960        -9.1419
  83   2.0000      -0.331477        -9.0199
  84   2.0000      -0.327968        -8.9245
  85   2.0000      -0.319377        -8.6907
  86   2.0000      -0.315884        -8.5956
  87   2.0000      -0.296098        -8.0572
  88   2.0000      -0.291735        -7.9385
  89   2.0000      -0.290699        -7.9103
  90   2.0000      -0.277013        -7.5379
  91   2.0000      -0.272627        -7.4186
  92   2.0000      -0.267861        -7.2889
  93   2.0000      -0.264134        -7.1875
  94   2.0000      -0.256067        -6.9680
  95   2.0000      -0.235874        -6.4185
  96   2.0000      -0.213095        -5.7986
  97   2.0000      -0.207098        -5.6354
  98   2.0000      -0.199036        -5.4160
  99   2.0000      -0.191476        -5.2103
 100   2.0000      -0.187810        -5.1106
 101   0.0000      -0.054274        -1.4769
 102   0.0000      -0.030332        -0.8254
 103   0.0000      -0.009096        -0.2475
 104   0.0000      -0.000568        -0.0154
 105   0.0000       0.019207         0.5227

MULLIKEN ATOMIC CHARGES
-----------------------
   0 C :   -0.296902
   1 C :   -0.011905
   2 O :   -0.385234
   3 P :    0.629632
   4 S :   -0.311970
   5 O :   -0.381528
   6 C :   -0.000734
   7 C :   -0.316396
   8 S :   -0.078908
   9 C :   -0.321774
  10 S :   -0.108384
  11 P :    0.641922
  12 S :   -0.307620
  13 O :   -0.370262
  14 C :   -0.004028
  15 C :   -0.285337
  16 O :   -0.387228
  17 C :   -0.005914
  18 C :   -0.308757
  19 H :    0.123559
  20 H :    0.111871
  21 H :    0.114311
  22 H :    0.118699
  23 H :    0.104051
  24 H :    0.111505
  25 H :    0.103034
  26 H :    0.122375
  27 H :    0.112350
  28 H :    0.116721
  29 H :    0.183026
  30 H :    0.183992
  31 H :    0.105448
  32 H :    0.096942
  33 H :    0.115364
  34 H :    0.126213
  35 H :    0.103341
  36 H :    0.101737
  37 H :    0.110968
  38 H :    0.109436
  39 H :    0.112713
  40 H :    0.123673
Sum of atomic charges:   -0.0000000

LOEWDIN ATOMIC CHARGES
----------------------
   0 C :   -0.357150
   1 C :   -0.120977
   2 O :   -0.253291
   3 P :    0.560603
   4 S :   -0.303657
   5 O :   -0.251710
   6 C :   -0.119484
   7 C :   -0.365400
   8 S :    0.095564
   9 C :   -0.468383
  10 S :    0.115853
  11 P :    0.570332
  12 S :   -0.306344
  13 O :   -0.241221
  14 C :   -0.112314
  15 C :   -0.355830
  16 O :   -0.255015
  17 C :   -0.123347
  18 C :   -0.367449
  19 H :    0.113887
  20 H :    0.131807
  21 H :    0.125385
  22 H :    0.108951
  23 H :    0.112934
  24 H :    0.108933
  25 H :    0.117906
  26 H :    0.120915
  27 H :    0.130688
  28 H :    0.125659
  29 H :    0.133833
  30 H :    0.135686
  31 H :    0.110027
  32 H :    0.109298
  33 H :    0.123440
  34 H :    0.125709
  35 H :    0.126449
  36 H :    0.116627
  37 H :    0.109446
  38 H :    0.121111
  39 H :    0.130572
  40 H :    0.119957

  Mayer bond orders larger than 0.100000
B(  0-C ,  1-C ) :   1.1620 B(  0-C , 19-H ) :   0.9397 B(  0-C , 20-H ) :   0.9401
B(  0-C , 21-H ) :   0.9476 B(  1-C ,  2-O ) :   0.9038 B(  1-C , 22-H ) :   0.9019
B(  1-C , 23-H ) :   0.9293 B(  2-O ,  3-P ) :   1.0960 B(  3-P ,  4-S ) :   1.5774
B(  3-P ,  5-O ) :   1.1064 B(  3-P ,  8-S ) :   0.9811 B(  4-S ,  8-S ) :   0.1135
B(  5-O ,  6-C ) :   0.9165 B(  6-C ,  7-C ) :   1.1615 B(  6-C , 24-H ) :   0.9130
B(  6-C , 25-H ) :   0.9340 B(  7-C , 26-H ) :   0.9326 B(  7-C , 27-H ) :   0.9389
B(  7-C , 28-H ) :   0.9467 B(  8-S ,  9-C ) :   0.9745 B(  9-C , 10-S ) :   1.0031
B(  9-C , 29-H ) :   0.9040 B(  9-C , 30-H ) :   0.9088 B( 10-S , 11-P ) :   0.9429
B( 11-P , 12-S ) :   1.6644 B( 11-P , 13-O ) :   1.1241 B( 11-P , 16-O ) :   1.0605
B( 13-O , 14-C ) :   0.8943 B( 14-C , 15-C ) :   1.1626 B( 14-C , 31-H ) :   0.9135
B( 14-C , 32-H ) :   0.9321 B( 15-C , 33-H ) :   0.9480 B( 15-C , 34-H ) :   0.9410
B( 15-C , 35-H ) :   0.9399 B( 16-O , 17-C ) :   0.9167 B( 17-C , 18-C ) :   1.1636
B( 17-C , 36-H ) :   0.9337 B( 17-C , 37-H ) :   0.9120 B( 18-C , 38-H ) :   0.9468
B( 18-C , 39-H ) :   0.9387 B( 18-C , 40-H ) :   0.9354

Dispersion correction           -0.068655107
FINAL SINGLE POINT ENERGY     -2929.512870949864

DIPOLE MOMENT
-------------

Method             : SCF
Type of density    : Electron Density
Multiplicity       :   1
Irrep              :   0
Energy             : -2929.6290562284857515 Eh
Relativity type    :
Basis              : AO
                                X                 Y                 Z
Electronic contribution:     -5.613477004       2.395435582       0.918449035
Nuclear contribution   :      5.790590312      -3.550414156      -0.686140515
                        -----------------------------------------
Total Dipole Moment    :      0.177113308      -1.154978574       0.232308520
                        -----------------------------------------
Magnitude (a.u.)       :      1.191348765
Magnitude (Debye)      :      3.028167908

Rotational constants in cm-1:             0.012182             0.005856             0.005104
Rotational constants in MHz :           365.220037           175.543657           153.013080

                             ****ORCA TERMINATED NORMALLY****
TOTAL RUN TIME: 0 days 0 hours 0 minutes 21 seconds 969 msec
