                         Program Version 6.0.1  -  RELEASE   -
|  1> ! pbe def2-sv(p) def2/J RI DEFGRID1 loosescf d4 GCP(DFT/SV(P)) printgap
|  2> %output
|  3>     printlevel normal
|  4> end
|  5> * xyz 0 1
|  6> C 4.4789651443 -3.1243192587 -2.1420347107
|  7> C 3.0957960739 -3.1693313753 -1.5222382957
|  8> O 2.8484324492 -1.9007261555 -0.8846064121
|  9> C 1.8944476389 -1.8297822789 0.0160387351
| 10> O 1.2111925511 -2.7657821674 0.3704309326
| 11> C 1.7235997812 -0.4128437484 0.5328311395
| 12> C 1.0284281655 0.4201985054 -0.5500790604
| 13> H 1.7061748072 0.5772269156 -1.3925821575
| 14> C 0.5673814703 1.7585911919 -0.00310987
| 15> O -0.6041327345 2.083346518 0.0153975252
| 16> O 1.5579289198 2.4700785008 0.4478838807
| 17> C 1.2705018456 3.7600000061 1.0351860953
| 18> C 1.1691335899 4.8330204178 -0.0356282132
| 19> S -0.4276809856 -0.4219496511 -1.2653193645
| 20> P -1.8929944937 -0.1079221131 0.238409206
| 21> S -1.4323087332 0.1727009001 2.1327953618
| 22> O -3.0379048066 0.791257458 -0.3872963703
| 23> C -3.4096370849 2.0954964447 0.0645860601
| 24> O -2.7091396625 -1.4761083683 0.0424812306
| 25> C -2.2015745846 -2.7114283306 0.5509097634
| 26> H 5.2298295389 -2.9689304043 -1.3730073378
| 27> H 4.6750867926 -4.0638632907 -2.6476508292
| 28> H 4.5371283772 -2.311993859 -2.8598751465
| 29> H 3.0069421105 -3.9592448465 -0.7701083789
| 30> H 2.3192112262 -3.3195954167 -2.2783546677
| 31> H 2.6966487919 0.0281935005 0.7462574932
| 32> H 1.1176103402 -0.4462036624 1.4402780901
| 33> H 0.3411098933 3.6818941936 1.6055373828
| 34> H 2.1125890711 3.9396211944 1.7029380136
| 35> H 0.3306756344 4.6283420334 -0.6972559848
| 36> H 1.0136981104 5.7958875348 0.4394036309
| 37> H 2.0836365062 4.8660055751 -0.6209760027
| 38> H -2.9432248267 2.8418573774 -0.5754017388
| 39> H -3.091665849 2.2458393256 1.0975122064
| 40> H -4.4939380747 2.1408822943 -0.0098005429
| 41> H -2.9062373449 -3.4725839016 0.2278036648
| 42> H -2.1525765885 -2.6711580753 1.6404134123
| 43> H -1.2046174237 -2.9214980949 0.1582344913
| 44> *
| 45>
| 46>                          ****END OF INPUT****

CARTESIAN COORDINATES (ANGSTROEM)
---------------------------------
  C      4.478965   -3.124319   -2.142035
  C      3.095796   -3.169331   -1.522238
  O      2.848432   -1.900726   -0.884606
  C      1.894448   -1.829782    0.016039
  O      1.211193   -2.765782    0.370431
  C      1.723600   -0.412844    0.532831
  C      1.028428    0.420199   -0.550079
  H      1.706175    0.577227   -1.392582
  C      0.567381    1.758591   -0.003110
  O     -0.604133    2.083347    0.015398
  O      1.557929    2.470079    0.447884
  C      1.270502    3.760000    1.035186
  C      1.169134    4.833020   -0.035628
  S     -0.427681   -0.421950   -1.265319
  P     -1.892994   -0.107922    0.238409
  S     -1.432309    0.172701    2.132795
  O     -3.037905    0.791257   -0.387296
  C     -3.409637    2.095496    0.064586
  O     -2.709140   -1.476108    0.042481
  C     -2.201575   -2.711428    0.550910
  H      5.229830   -2.968930   -1.373007
  H      4.675087   -4.063863   -2.647651
  H      4.537128   -2.311994   -2.859875
  H      3.006942   -3.959245   -0.770108
  H      2.319211   -3.319595   -2.278355
  H      2.696649    0.028194    0.746257
  H      1.117610   -0.446204    1.440278
  H      0.341110    3.681894    1.605537
  H      2.112589    3.939621    1.702938
  H      0.330676    4.628342   -0.697256
  H      1.013698    5.795888    0.439404
  H      2.083637    4.866006   -0.620976
  H     -2.943225    2.841857   -0.575402
  H     -3.091666    2.245839    1.097512
  H     -4.493938    2.140882   -0.009801
  H     -2.906237   -3.472584    0.227804
  H     -2.152577   -2.671158    1.640413
  H     -1.204617   -2.921498    0.158234

 Total Charge           Charge          ....    0
 Multiplicity           Mult            ....    1
 Number of Electrons    NEL             ....  174
 Basis Dimension        Dim             ....  316

ORBITAL ENERGIES
----------------

  NO   OCC          E(Eh)            E(eV)
   0   2.0000     -88.032654     -2395.4903
   1   2.0000     -87.970947     -2393.8112
   2   2.0000     -76.415801     -2079.3796
   3   2.0000     -18.828455      -512.3483
   4   2.0000     -18.807244      -511.7711
   5   2.0000     -18.775709      -510.9130
   6   2.0000     -18.765705      -510.6408
   7   2.0000     -18.761601      -510.5291
   8   2.0000     -18.738792      -509.9085
   9   2.0000     -10.032795      -273.0062
  10   2.0000     -10.010792      -272.4075
  11   2.0000      -9.963626      -271.1240
  12   2.0000      -9.955481      -270.9024
  13   2.0000      -9.951856      -270.8038
  14   2.0000      -9.930369      -270.2191
  15   2.0000      -9.916645      -269.8456
  16   2.0000      -9.906960      -269.5821
  17   2.0000      -9.899979      -269.3921
  18   2.0000      -9.893650      -269.2199
  19   2.0000      -7.677590      -208.9178
  20   2.0000      -7.616035      -207.2429
  21   2.0000      -6.411514      -174.4662
  22   2.0000      -5.705747      -155.2613
  23   2.0000      -5.702205      -155.1649
  24   2.0000      -5.694141      -154.9455
  25   2.0000      -5.645125      -153.6117
  26   2.0000      -5.636990      -153.3903
  27   2.0000      -5.635649      -153.3538
  28   2.0000      -4.633847      -126.0934
  29   2.0000      -4.633726      -126.0901
  30   2.0000      -4.632154      -126.0473
  31   2.0000      -1.037765       -28.2390
  32   2.0000      -1.014747       -27.6127
  33   2.0000      -0.967260       -26.3205
  34   2.0000      -0.941522       -25.6201
  35   2.0000      -0.920638       -25.0518
  36   2.0000      -0.915677       -24.9168
  37   2.0000      -0.768763       -20.9191
  38   2.0000      -0.721225       -19.6255
  39   2.0000      -0.713051       -19.4031
  40   2.0000      -0.684526       -18.6269
  41   2.0000      -0.651934       -17.7400
  42   2.0000      -0.632196       -17.2029
  43   2.0000      -0.619576       -16.8595
  44   2.0000      -0.602159       -16.3856
  45   2.0000      -0.593613       -16.1530
  46   2.0000      -0.568188       -15.4612
  47   2.0000      -0.516963       -14.0673
  48   2.0000      -0.513908       -13.9841
  49   2.0000      -0.500280       -13.6133
  50   2.0000      -0.486098       -13.2274
  51   2.0000      -0.459866       -12.5136
  52   2.0000      -0.455000       -12.3812
  53   2.0000      -0.450773       -12.2662
  54   2.0000      -0.447443       -12.1755
  55   2.0000      -0.433951       -11.8084
  56   2.0000      -0.423225       -11.5165
  57   2.0000      -0.419221       -11.4076
  58   2.0000      -0.408224       -11.1083
  59   2.0000      -0.407991       -11.1020
  60   2.0000      -0.398361       -10.8400
  61   2.0000      -0.392242       -10.6734
  62   2.0000      -0.383306       -10.4303
  63   2.0000      -0.381781       -10.3888
  64   2.0000      -0.373475       -10.1628
  65   2.0000      -0.367577       -10.0023
  66   2.0000      -0.366086        -9.9617
  67   2.0000      -0.359661        -9.7869
  68   2.0000      -0.353793        -9.6272
  69   2.0000      -0.347581        -9.4582
  70   2.0000      -0.340131        -9.2554
  71   2.0000      -0.334213        -9.0944
  72   2.0000      -0.323647        -8.8069
  73   2.0000      -0.312992        -8.5169
  74   2.0000      -0.306583        -8.3426
  75   2.0000      -0.300558        -8.1786
  76   2.0000      -0.289581        -7.8799
  77   2.0000      -0.285502        -7.7689
  78   2.0000      -0.272963        -7.4277
  79   2.0000      -0.265083        -7.2133
  80   2.0000      -0.259147        -7.0517
  81   2.0000      -0.244596        -6.6558
  82   2.0000      -0.239468        -6.5163
  83   2.0000      -0.221381        -6.0241
  84   2.0000      -0.212401        -5.7797
  85   2.0000      -0.191810        -5.2194
  86   2.0000      -0.183601        -4.9960
  87   0.0000      -0.049703        -1.3525
  88   0.0000      -0.036338        -0.9888
  89   0.0000      -0.018667        -0.5080
  90   0.0000       0.007683         0.2091
  91   0.0000       0.032445         0.8829

MULLIKEN ATOMIC CHARGES
-----------------------
   0 C :   -0.276782
   1 C :   -0.029078
   2 O :   -0.236233
   3 C :    0.120641
   4 O :   -0.187513
   5 C :   -0.047613
   6 C :   -0.344412
   7 H :    0.149590
   8 C :    0.232973
   9 O :   -0.190557
  10 O :   -0.217446
  11 C :   -0.010046
  12 C :   -0.312093
  13 S :   -0.084008
  14 P :    0.627526
  15 S :   -0.352533
  16 O :   -0.368187
  17 C :   -0.085051
  18 O :   -0.375359
  19 C :   -0.121136
  20 H :    0.116106
  21 H :    0.114083
  22 H :    0.113818
  23 H :    0.114141
  24 H :    0.108747
  25 H :    0.109724
  26 H :    0.121000
  27 H :    0.122686
  28 H :    0.111115
  29 H :    0.131003
  30 H :    0.120849
  31 H :    0.118150
  32 H :    0.112903
  33 H :    0.114753
  34 H :    0.118266
  35 H :    0.112114
  36 H :    0.112434
  37 H :    0.135425
Sum of atomic charges:    0.0000000

LOEWDIN ATOMIC CHARGES
----------------------
   0 C :   -0.350761
   1 C :   -0.107739
   2 O :   -0.063612
   3 C :    0.021553
   4 O :   -0.155066
   5 C :   -0.253924
   6 C :   -0.261296
   7 H :    0.148266
   8 C :    0.026489
   9 O :   -0.153685
  10 O :   -0.034184
  11 C :   -0.104899
  12 C :   -0.356066
  13 S :    0.109990
  14 P :    0.590779
  15 S :   -0.335110
  16 O :   -0.239094
  17 C :   -0.207554
  18 O :   -0.259211
  19 C :   -0.227081
  20 H :    0.127052
  21 H :    0.131772
  22 H :    0.126032
  23 H :    0.120097
  24 H :    0.118695
  25 H :    0.139128
  26 H :    0.134738
  27 H :    0.127024
  28 H :    0.122691
  29 H :    0.131336
  30 H :    0.134978
  31 H :    0.127010
  32 H :    0.111014
  33 H :    0.107966
  34 H :    0.116966
  35 H :    0.116187
  36 H :    0.108986
  37 H :    0.110536

  Mayer bond orders larger than 0.100000
B(  0-C ,  1-C ) :   1.1547 B(  0-C , 20-H ) :   0.9517 B(  0-C , 21-H ) :   0.9441
B(  0-C , 22-H ) :   0.9485 B(  1-C ,  2-O ) :   0.9026 B(  1-C , 23-H ) :   0.9227
B(  1-C , 24-H ) :   0.9341 B(  2-O ,  3-C ) :   1.2177 B(  3-C ,  4-O ) :   2.0244
B(  3-C ,  5-C ) :   1.0270 B(  5-C ,  6-C ) :   1.0404 B(  5-C , 25-H ) :   0.8766
B(  5-C , 26-H ) :   0.8696 B(  6-C ,  7-H ) :   0.8642 B(  6-C ,  8-C ) :   0.9171
B(  6-C , 13-S ) :   1.0408 B(  8-C ,  9-O ) :   1.9373 B(  8-C , 10-O ) :   1.2836
B(  9-O , 14-P ) :   0.1049 B( 10-O , 11-C ) :   0.8968 B( 11-C , 12-C ) :   1.1739
B( 11-C , 27-H ) :   0.9153 B( 11-C , 28-H ) :   0.9361 B( 12-C , 29-H ) :   0.9454
B( 12-C , 30-H ) :   0.9430 B( 12-C , 31-H ) :   0.9473 B( 13-S , 14-P ) :   0.9254
B( 13-S , 15-S ) :   0.1183 B( 14-P , 15-S ) :   1.5486 B( 14-P , 16-O ) :   1.1385
B( 14-P , 18-O ) :   1.0952 B( 16-O , 17-C ) :   0.9302 B( 17-C , 32-H ) :   0.9541
B( 17-C , 33-H ) :   0.9338 B( 17-C , 34-H ) :   0.9549 B( 18-O , 19-C ) :   0.9344
B( 19-C , 35-H ) :   0.9570 B( 19-C , 36-H ) :   0.9428 B( 19-C , 37-H ) :   0.9243

Dispersion correction           -0.051952272
FINAL SINGLE POINT ENERGY     -1979.014066873031

DIPOLE MOMENT
-------------

Method             : SCF
Type of density    : Electron Density
Multiplicity       :   1
Irrep              :   0
Energy             : -1979.1446216975546122 Eh
Relativity type    :
Basis              : AO
                                X                 Y                 Z
Electronic contribution:    -13.548166286      -3.317193622       3.397413219
Nuclear contribution   :     15.223485536       4.417433424      -4.153010016
                        -----------------------------------------
Total Dipole Moment    :      1.675319251       1.100239803      -0.755596797
                        -----------------------------------------
Magnitude (a.u.)       :      2.141996437
Magnitude (Debye)      :      5.444522259

Rotational constants in cm-1:             0.011612             0.007703             0.005411
Rotational constants in MHz :           348.119504           230.934934           162.211570

                             ****ORCA TERMINATED NORMALLY****
TOTAL RUN TIME: 0 days 0 hours 0 minutes 36 seconds 982 msec
