                         Program Version 6.0.0  -   RELEASE  -
|  1> ! pbe def2-sv(p) def2/J RI DEFGRID1 loosescf d4 GCP(DFT/SV(P)) printgap
|  2> %output
|  3>     printlevel normal
|  4> end
|  5> * xyz 0 1
|  6> C 4.2636061868 2.0944979942 -0.9847693855
|  7> C 4.5047442392 0.6034408842 -0.8663845356
|  8> O 3.282718247 -0.1516968638 -0.9541614674
|  9> P 2.1719008688 -0.1074210719 0.1787773419
| 10> S 2.85446625 -0.0504433104 2.0191655638
| 11> O 1.2678977943 -1.3507414013 -0.1967646984
| 12> C 1.4630479199 -2.6592835258 0.3713086658
| 13> C 2.782826643 -3.2681929743 -0.0515883322
| 14> S 0.8817229731 1.4491206696 -0.4120829402
| 15> C 0.0139398202 1.611182675 1.1709131279
| 16> S -0.9626860365 0.1462773783 1.6256056046
| 17> P -2.1975258994 0.0011410527 -0.0968524848
| 18> S -1.5783363793 -0.9537796562 -1.6970162847
| 19> O -2.6141506171 1.5106002507 -0.2783861101
| 20> C -2.8665238977 2.1346760554 -1.5593477931
| 21> C -2.0292458004 3.3922569592 -1.6751904883
| 22> O -3.524313787 -0.6246180604 0.5179855012
| 23> C -3.7680923273 -2.0400997078 0.6140691369
| 24> C -5.2585855533 -2.274267392 0.4659576103
| 25> H 3.6840999287 2.3131996303 -1.8782848198
| 26> H 3.7157253208 2.4538544834 -0.1145574096
| 27> H 5.217656731 2.6090983794 -1.0375846857
| 28> H 4.9882939913 0.3665822046 0.0868761893
| 29> H 5.1058105648 0.2239797566 -1.6937152856
| 30> H 1.4021571826 -2.5731588527 1.4615670296
| 31> H 0.6126049657 -3.2317488597 -0.0034937556
| 32> H 2.8423970791 -4.288119235 0.3151132522
| 33> H 2.8647542705 -3.2652371161 -1.1355684997
| 34> H 3.6069742423 -2.6914117757 0.3673335769
| 35> H -0.6415577292 2.4741239193 1.0891621339
| 36> H 0.7416968844 1.7369509935 1.9732562661
| 37> H -2.6249222842 1.4213660351 -2.3545059672
| 38> H -3.9342019457 2.3598592377 -1.5831854653
| 39> H -2.2593176156 4.0720172051 -0.8597466004
| 40> H -0.9698186028 3.1440675114 -1.6442627176
| 41> H -2.2526868381 3.8783132246 -2.619226648
| 42> H -3.2056078642 -2.5478781224 -0.1775255176
| 43> H -3.4058485287 -2.3764601884 1.5890517991
| 44> H -5.5924957539 -1.9442513745 -0.5138331263
| 45> H -5.4652470158 -3.3336060954 0.5774172709
| 46> H -5.7971629388 -1.718617966 1.2280093437
| 47> *
| 48>
| 49>                          ****END OF INPUT****

CARTESIAN COORDINATES (ANGSTROEM)
---------------------------------
  C      4.263606    2.094498   -0.984769
  C      4.504744    0.603441   -0.866385
  O      3.282718   -0.151697   -0.954161
  P      2.171901   -0.107421    0.178777
  S      2.854466   -0.050443    2.019166
  O      1.267898   -1.350741   -0.196765
  C      1.463048   -2.659284    0.371309
  C      2.782827   -3.268193   -0.051588
  S      0.881723    1.449121   -0.412083
  C      0.013940    1.611183    1.170913
  S     -0.962686    0.146277    1.625606
  P     -2.197526    0.001141   -0.096852
  S     -1.578336   -0.953780   -1.697016
  O     -2.614151    1.510600   -0.278386
  C     -2.866524    2.134676   -1.559348
  C     -2.029246    3.392257   -1.675190
  O     -3.524314   -0.624618    0.517986
  C     -3.768092   -2.040100    0.614069
  C     -5.258586   -2.274267    0.465958
  H      3.684100    2.313200   -1.878285
  H      3.715725    2.453854   -0.114557
  H      5.217657    2.609098   -1.037585
  H      4.988294    0.366582    0.086876
  H      5.105811    0.223980   -1.693715
  H      1.402157   -2.573159    1.461567
  H      0.612605   -3.231749   -0.003494
  H      2.842397   -4.288119    0.315113
  H      2.864754   -3.265237   -1.135568
  H      3.606974   -2.691412    0.367334
  H     -0.641558    2.474124    1.089162
  H      0.741697    1.736951    1.973256
  H     -2.624922    1.421366   -2.354506
  H     -3.934202    2.359859   -1.583185
  H     -2.259318    4.072017   -0.859747
  H     -0.969819    3.144068   -1.644263
  H     -2.252687    3.878313   -2.619227
  H     -3.205608   -2.547878   -0.177526
  H     -3.405849   -2.376460    1.589052
  H     -5.592496   -1.944251   -0.513833
  H     -5.465247   -3.333606    0.577417
  H     -5.797163   -1.718618    1.228009

 Total Charge           Charge          ....    0
 Multiplicity           Mult            ....    1
 Number of Electrons    NEL             ....  202
 Basis Dimension        Dim             ....  334

ORBITAL ENERGIES
----------------

  NO   OCC          E(Eh)            E(eV)
   0   2.0000     -88.042747     -2395.7649
   1   2.0000     -88.036003     -2395.5814
   2   2.0000     -87.987748     -2394.2684
   3   2.0000     -87.980181     -2394.0624
   4   2.0000     -76.424885     -2079.6268
   5   2.0000     -76.422932     -2079.5737
   6   2.0000     -18.794421      -511.4222
   7   2.0000     -18.793393      -511.3942
   8   2.0000     -18.785518      -511.1799
   9   2.0000     -18.782073      -511.0862
  10   2.0000      -9.955902      -270.9139
  11   2.0000      -9.953317      -270.8435
  12   2.0000      -9.952676      -270.8261
  13   2.0000      -9.949389      -270.7366
  14   2.0000      -9.943288      -270.5706
  15   2.0000      -9.889092      -269.0959
  16   2.0000      -9.885255      -268.9915
  17   2.0000      -9.884614      -268.9740
  18   2.0000      -9.878216      -268.7999
  19   2.0000      -7.687578      -209.1896
  20   2.0000      -7.681305      -209.0189
  21   2.0000      -7.632692      -207.6961
  22   2.0000      -7.625236      -207.4932
  23   2.0000      -6.422411      -174.7627
  24   2.0000      -6.420441      -174.7091
  25   2.0000      -5.715384      -155.5235
  26   2.0000      -5.712251      -155.4382
  27   2.0000      -5.709400      -155.3607
  28   2.0000      -5.705878      -155.2648
  29   2.0000      -5.704430      -155.2254
  30   2.0000      -5.697965      -155.0495
  31   2.0000      -5.661459      -154.0561
  32   2.0000      -5.654000      -153.8532
  33   2.0000      -5.653430      -153.8376
  34   2.0000      -5.652918      -153.8237
  35   2.0000      -5.646066      -153.6373
  36   2.0000      -5.645330      -153.6172
  37   2.0000      -4.644757      -126.3903
  38   2.0000      -4.644106      -126.3726
  39   2.0000      -4.643156      -126.3467
  40   2.0000      -4.643118      -126.3457
  41   2.0000      -4.642276      -126.3227
  42   2.0000      -4.640691      -126.2796
  43   2.0000      -0.984963       -26.8022
  44   2.0000      -0.984033       -26.7769
  45   2.0000      -0.944087       -25.6899
  46   2.0000      -0.942248       -25.6399
  47   2.0000      -0.762869       -20.7587
  48   2.0000      -0.722010       -19.6469
  49   2.0000      -0.707355       -19.2481
  50   2.0000      -0.688234       -18.7278
  51   2.0000      -0.684478       -18.6256
  52   2.0000      -0.669855       -18.2277
  53   2.0000      -0.647679       -17.6242
  54   2.0000      -0.637074       -17.3357
  55   2.0000      -0.600459       -16.3393
  56   2.0000      -0.591744       -16.1022
  57   2.0000      -0.569459       -15.4958
  58   2.0000      -0.566650       -15.4193
  59   2.0000      -0.560493       -15.2518
  60   2.0000      -0.504792       -13.7361
  61   2.0000      -0.489885       -13.3305
  62   2.0000      -0.480422       -13.0729
  63   2.0000      -0.470605       -12.8058
  64   2.0000      -0.455133       -12.3848
  65   2.0000      -0.439639       -11.9632
  66   2.0000      -0.438317       -11.9272
  67   2.0000      -0.434119       -11.8130
  68   2.0000      -0.429723       -11.6934
  69   2.0000      -0.412673       -11.2294
  70   2.0000      -0.407087       -11.0774
  71   2.0000      -0.391652       -10.6574
  72   2.0000      -0.389259       -10.5923
  73   2.0000      -0.384384       -10.4596
  74   2.0000      -0.380171       -10.3450
  75   2.0000      -0.376608       -10.2480
  76   2.0000      -0.371560       -10.1107
  77   2.0000      -0.356966        -9.7135
  78   2.0000      -0.355335        -9.6691
  79   2.0000      -0.352843        -9.6014
  80   2.0000      -0.345559        -9.4031
  81   2.0000      -0.344575        -9.3764
  82   2.0000      -0.341342        -9.2884
  83   2.0000      -0.338413        -9.2087
  84   2.0000      -0.331127        -9.0104
  85   2.0000      -0.320083        -8.7099
  86   2.0000      -0.307179        -8.3588
  87   2.0000      -0.296916        -8.0795
  88   2.0000      -0.294477        -8.0131
  89   2.0000      -0.285928        -7.7805
  90   2.0000      -0.279412        -7.6032
  91   2.0000      -0.273306        -7.4370
  92   2.0000      -0.269001        -7.3199
  93   2.0000      -0.262998        -7.1565
  94   2.0000      -0.257242        -6.9999
  95   2.0000      -0.234615        -6.3842
  96   2.0000      -0.216469        -5.8904
  97   2.0000      -0.209333        -5.6962
  98   2.0000      -0.204936        -5.5766
  99   2.0000      -0.195297        -5.3143
 100   2.0000      -0.188932        -5.1411
 101   0.0000      -0.046955        -1.2777
 102   0.0000      -0.023548        -0.6408
 103   0.0000      -0.012374        -0.3367
 104   0.0000       0.004342         0.1182
 105   0.0000       0.021111         0.5745

MULLIKEN ATOMIC CHARGES
-----------------------
   0 C :   -0.315016
   1 C :   -0.004283
   2 O :   -0.368695
   3 P :    0.628123
   4 S :   -0.341758
   5 O :   -0.343597
   6 C :    0.004659
   7 C :   -0.310661
   8 S :   -0.090773
   9 C :   -0.356917
  10 S :   -0.094184
  11 P :    0.617276
  12 S :   -0.315232
  13 O :   -0.375134
  14 C :   -0.004212
  15 C :   -0.309874
  16 O :   -0.373363
  17 C :   -0.008226
  18 C :   -0.281997
  19 H :    0.118813
  20 H :    0.124965
  21 H :    0.113351
  22 H :    0.111101
  23 H :    0.106807
  24 H :    0.108057
  25 H :    0.103045
  26 H :    0.109612
  27 H :    0.119005
  28 H :    0.118991
  29 H :    0.188943
  30 H :    0.191514
  31 H :    0.113770
  32 H :    0.106310
  33 H :    0.117224
  34 H :    0.132350
  35 H :    0.114384
  36 H :    0.103064
  37 H :    0.099305
  38 H :    0.116688
  39 H :    0.109691
  40 H :    0.116873
Sum of atomic charges:    0.0000000

LOEWDIN ATOMIC CHARGES
----------------------
   0 C :   -0.369486
   1 C :   -0.118598
   2 O :   -0.240524
   3 P :    0.576893
   4 S :   -0.327774
   5 O :   -0.227043
   6 C :   -0.116045
   7 C :   -0.365772
   8 S :    0.100062
   9 C :   -0.476676
  10 S :    0.073529
  11 P :    0.563793
  12 S :   -0.307548
  13 O :   -0.241400
  14 C :   -0.115406
  15 C :   -0.358800
  16 O :   -0.251048
  17 C :   -0.121150
  18 C :   -0.351165
  19 H :    0.124749
  20 H :    0.120398
  21 H :    0.131208
  22 H :    0.110601
  23 H :    0.119542
  24 H :    0.109312
  25 H :    0.117639
  26 H :    0.129105
  27 H :    0.127227
  28 H :    0.120047
  29 H :    0.132422
  30 H :    0.130194
  31 H :    0.109051
  32 H :    0.117267
  33 H :    0.124805
  34 H :    0.119432
  35 H :    0.132841
  36 H :    0.104083
  37 H :    0.110625
  38 H :    0.127404
  39 H :    0.129575
  40 H :    0.126631

  Mayer bond orders larger than 0.100000
B(  0-C ,  1-C ) :   1.1664 B(  0-C , 19-H ) :   0.9447 B(  0-C , 20-H ) :   0.9352
B(  0-C , 21-H ) :   0.9378 B(  1-C ,  2-O ) :   0.9076 B(  1-C , 22-H ) :   0.9158
B(  1-C , 23-H ) :   0.9338 B(  2-O ,  3-P ) :   1.1134 B(  3-P ,  4-S ) :   1.5825
B(  3-P ,  5-O ) :   1.1489 B(  3-P ,  8-S ) :   0.9481 B(  4-S ,  8-S ) :   0.1064
B(  5-O ,  6-C ) :   0.9075 B(  6-C ,  7-C ) :   1.1637 B(  6-C , 24-H ) :   0.9198
B(  6-C , 25-H ) :   0.9299 B(  7-C , 26-H ) :   0.9396 B(  7-C , 27-H ) :   0.9455
B(  7-C , 28-H ) :   0.9364 B(  8-S ,  9-C ) :   1.0119 B(  9-C , 10-S ) :   1.0033
B(  9-C , 29-H ) :   0.9005 B(  9-C , 30-H ) :   0.8819 B( 10-S , 11-P ) :   0.9552
B( 10-S , 12-S ) :   0.1067 B( 11-P , 12-S ) :   1.6383 B( 11-P , 13-O ) :   1.1200
B( 11-P , 16-O ) :   1.1097 B( 13-O , 14-C ) :   0.8952 B( 14-C , 15-C ) :   1.1662
B( 14-C , 31-H ) :   0.8994 B( 14-C , 32-H ) :   0.9332 B( 15-C , 33-H ) :   0.9472
B( 15-C , 34-H ) :   0.9366 B( 15-C , 35-H ) :   0.9391 B( 16-O , 17-C ) :   0.9120
B( 17-C , 18-C ) :   1.1624 B( 17-C , 36-H ) :   0.9015 B( 17-C , 37-H ) :   0.9314
B( 18-C , 38-H ) :   0.9512 B( 18-C , 39-H ) :   0.9418 B( 18-C , 40-H ) :   0.9511

Dispersion correction           -0.065712429
FINAL SINGLE POINT ENERGY     -2929.520015518680

DIPOLE MOMENT
-------------

Method             : SCF
Type of density    : Electron Density
Multiplicity       :   1
Irrep              :   0
Energy             : -2929.6376923515481394 Eh
Relativity type    :
Basis              : AO
                                X                 Y                 Z
Electronic contribution:      1.061033039       1.077453571       6.232465114
Nuclear contribution   :     -1.317412538      -0.791656834      -6.630526897
                        -----------------------------------------
Total Dipole Moment    :     -0.256379499       0.285796737      -0.398061783
                        -----------------------------------------
Magnitude (a.u.)       :      0.553049189
Magnitude (Debye)      :      1.405739321

Rotational constants in cm-1:             0.011926             0.005343             0.004539
Rotational constants in MHz :           357.537003           160.181971           136.085086

                             ****ORCA TERMINATED NORMALLY****
TOTAL RUN TIME: 0 days 0 hours 0 minutes 21 seconds 118 msec
