                         Program Version 6.0.0  -   RELEASE  -
|  1> ! pbe def2-sv(p) def2/J RI DEFGRID1 loosescf d4 GCP(DFT/SV(P)) printgap
|  2> %output
|  3>     printlevel normal
|  4> end
|  5> * xyz 0 1
|  6> C 3.5185026688 -2.241032788 -1.7781694296
|  7> C 3.9785707828 -0.8029191663 -1.905217153
|  8> O 3.5441514077 0.0176227953 -0.8080926244
|  9> P 2.0115582754 0.3682272965 -0.5240905963
| 10> S 0.9504603786 0.685990087 -2.137106501
| 11> O 2.1661950547 1.659444215 0.3599915612
| 12> C 3.1808573172 1.888856801 1.3661961743
| 13> C 3.0743298849 0.9199297715 2.523898876
| 14> S 1.3283414868 -1.2270481826 0.716603913
| 15> C -0.0352272452 -1.8731735032 -0.2972238269
| 16> S -1.650744157 -1.8265358179 0.5210941463
| 17> P -2.0630183093 0.2590699248 0.4354496924
| 18> S -0.8076693414 1.4994533626 1.2820304086
| 19> O -3.5682749502 0.3113724332 0.944623819
| 20> C -4.0681489598 -0.3257735025 2.1365196185
| 21> C -3.2474458751 -0.001814812 3.3666161048
| 22> O -2.2249336664 0.633536834 -1.0852933479
| 23> C -3.1322233571 -0.0481602938 -1.9899860912
| 24> C -2.7080944675 0.2874325353 -3.4045555777
| 25> H 3.7753122163 -2.6370603038 -0.7990658562
| 26> H 2.4399979633 -2.2986669489 -1.9144664665
| 27> H 4.0009646922 -2.8367937046 -2.546341255
| 28> H 3.6046080613 -0.3606564975 -2.8339273446
| 29> H 5.0661997087 -0.7242475873 -1.8685183077
| 30> H 4.1592253942 1.8267447268 0.8848679841
| 31> H 2.9809182431 2.9135054054 1.6835889693
| 32> H 2.0617123507 0.9288492867 2.9218478963
| 33> H 3.3171961897 -0.0906627991 2.1984458037
| 34> H 3.7687874813 1.2182968537 3.302915874
| 35> H 0.1541964915 -2.9268042039 -0.4860104519
| 36> H -0.0756603522 -1.2951917383 -1.2258550548
| 37> H -5.0864751871 0.0573683307 2.2227122775
| 38> H -4.0891934656 -1.4043862833 1.9583964181
| 39> H -3.1798045495 1.0748048128 3.5053919962
| 40> H -3.7119270856 -0.4505053089 4.2386843366
| 41> H -2.2377929114 -0.3964976512 3.2584785869
| 42> H -3.0759285423 -1.1238429633 -1.7977614289
| 43> H -4.142575095 0.3049443674 -1.7753572298
| 44> H -1.6679124923 0.0098859495 -3.559974974
| 45> H -3.3373253517 -0.2515740267 -4.1049880548
| 46> H -2.8013338348 1.355443878 -3.5790525815
| 47> *
| 48>
| 49>                          ****END OF INPUT****

CARTESIAN COORDINATES (ANGSTROEM)
---------------------------------
  C      3.518503   -2.241033   -1.778169
  C      3.978571   -0.802919   -1.905217
  O      3.544151    0.017623   -0.808093
  P      2.011558    0.368227   -0.524091
  S      0.950460    0.685990   -2.137107
  O      2.166195    1.659444    0.359992
  C      3.180857    1.888857    1.366196
  C      3.074330    0.919930    2.523899
  S      1.328341   -1.227048    0.716604
  C     -0.035227   -1.873174   -0.297224
  S     -1.650744   -1.826536    0.521094
  P     -2.063018    0.259070    0.435450
  S     -0.807669    1.499453    1.282030
  O     -3.568275    0.311372    0.944624
  C     -4.068149   -0.325774    2.136520
  C     -3.247446   -0.001815    3.366616
  O     -2.224934    0.633537   -1.085293
  C     -3.132223   -0.048160   -1.989986
  C     -2.708094    0.287433   -3.404556
  H      3.775312   -2.637060   -0.799066
  H      2.439998   -2.298667   -1.914466
  H      4.000965   -2.836794   -2.546341
  H      3.604608   -0.360656   -2.833927
  H      5.066200   -0.724248   -1.868518
  H      4.159225    1.826745    0.884868
  H      2.980918    2.913505    1.683589
  H      2.061712    0.928849    2.921848
  H      3.317196   -0.090663    2.198446
  H      3.768787    1.218297    3.302916
  H      0.154196   -2.926804   -0.486010
  H     -0.075660   -1.295192   -1.225855
  H     -5.086475    0.057368    2.222712
  H     -4.089193   -1.404386    1.958396
  H     -3.179805    1.074805    3.505392
  H     -3.711927   -0.450505    4.238684
  H     -2.237793   -0.396498    3.258479
  H     -3.075929   -1.123843   -1.797761
  H     -4.142575    0.304944   -1.775357
  H     -1.667912    0.009886   -3.559975
  H     -3.337325   -0.251574   -4.104988
  H     -2.801334    1.355444   -3.579053

 Total Charge           Charge          ....    0
 Multiplicity           Mult            ....    1
 Number of Electrons    NEL             ....  202
 Basis Dimension        Dim             ....  334

ORBITAL ENERGIES
----------------

  NO   OCC          E(Eh)            E(eV)
   0   2.0000     -88.041783     -2395.7387
   1   2.0000     -88.036729     -2395.6012
   2   2.0000     -87.981196     -2394.0900
   3   2.0000     -87.970607     -2393.8019
   4   2.0000     -76.421815     -2079.5433
   5   2.0000     -76.416874     -2079.4089
   6   2.0000     -18.785683      -511.1844
   7   2.0000     -18.785080      -511.1680
   8   2.0000     -18.783323      -511.1202
   9   2.0000     -18.780348      -511.0393
  10   2.0000      -9.955840      -270.9122
  11   2.0000      -9.954472      -270.8749
  12   2.0000      -9.951511      -270.7944
  13   2.0000      -9.951170      -270.7851
  14   2.0000      -9.947055      -270.6731
  15   2.0000      -9.885333      -268.9936
  16   2.0000      -9.883715      -268.9496
  17   2.0000      -9.879846      -268.8443
  18   2.0000      -9.879332      -268.8303
  19   2.0000      -7.686734      -209.1667
  20   2.0000      -7.681289      -209.0185
  21   2.0000      -7.626358      -207.5238
  22   2.0000      -7.615628      -207.2318
  23   2.0000      -6.418906      -174.6673
  24   2.0000      -6.414147      -174.5378
  25   2.0000      -5.714348      -155.4953
  26   2.0000      -5.711081      -155.4064
  27   2.0000      -5.709277      -155.3573
  28   2.0000      -5.705902      -155.2655
  29   2.0000      -5.704147      -155.2177
  30   2.0000      -5.698124      -155.0538
  31   2.0000      -5.655241      -153.8869
  32   2.0000      -5.646973      -153.6619
  33   2.0000      -5.646459      -153.6480
  34   2.0000      -5.644733      -153.6010
  35   2.0000      -5.636062      -153.3650
  36   2.0000      -5.635791      -153.3577
  37   2.0000      -4.641795      -126.3097
  38   2.0000      -4.640336      -126.2700
  39   2.0000      -4.639469      -126.2464
  40   2.0000      -4.637084      -126.1815
  41   2.0000      -4.636341      -126.1613
  42   2.0000      -4.633905      -126.0950
  43   2.0000      -0.981699       -26.7134
  44   2.0000      -0.980062       -26.6688
  45   2.0000      -0.936768       -25.4908
  46   2.0000      -0.936518       -25.4839
  47   2.0000      -0.758091       -20.6287
  48   2.0000      -0.715732       -19.4761
  49   2.0000      -0.708152       -19.2698
  50   2.0000      -0.687800       -18.7160
  51   2.0000      -0.685246       -18.6465
  52   2.0000      -0.675607       -18.3842
  53   2.0000      -0.645725       -17.5711
  54   2.0000      -0.630355       -17.1528
  55   2.0000      -0.594828       -16.1861
  56   2.0000      -0.581333       -15.8189
  57   2.0000      -0.576495       -15.6872
  58   2.0000      -0.563108       -15.3229
  59   2.0000      -0.561495       -15.2791
  60   2.0000      -0.501289       -13.6408
  61   2.0000      -0.491874       -13.3846
  62   2.0000      -0.468387       -12.7455
  63   2.0000      -0.464816       -12.6483
  64   2.0000      -0.453946       -12.3525
  65   2.0000      -0.446441       -12.1483
  66   2.0000      -0.442828       -12.0500
  67   2.0000      -0.429277       -11.6812
  68   2.0000      -0.423775       -11.5315
  69   2.0000      -0.423194       -11.5157
  70   2.0000      -0.410852       -11.1799
  71   2.0000      -0.397128       -10.8064
  72   2.0000      -0.393852       -10.7173
  73   2.0000      -0.383925       -10.4471
  74   2.0000      -0.378284       -10.2936
  75   2.0000      -0.367079        -9.9887
  76   2.0000      -0.353698        -9.6246
  77   2.0000      -0.352950        -9.6043
  78   2.0000      -0.349835        -9.5195
  79   2.0000      -0.345593        -9.4041
  80   2.0000      -0.342416        -9.3176
  81   2.0000      -0.339552        -9.2397
  82   2.0000      -0.337856        -9.1935
  83   2.0000      -0.334868        -9.1122
  84   2.0000      -0.331495        -9.0204
  85   2.0000      -0.315787        -8.5930
  86   2.0000      -0.307019        -8.3544
  87   2.0000      -0.293116        -7.9761
  88   2.0000      -0.291325        -7.9274
  89   2.0000      -0.289408        -7.8752
  90   2.0000      -0.286688        -7.8012
  91   2.0000      -0.267902        -7.2900
  92   2.0000      -0.266910        -7.2630
  93   2.0000      -0.258878        -7.0444
  94   2.0000      -0.252362        -6.8671
  95   2.0000      -0.236348        -6.4314
  96   2.0000      -0.216228        -5.8839
  97   2.0000      -0.199911        -5.4399
  98   2.0000      -0.198263        -5.3950
  99   2.0000      -0.182214        -4.9583
 100   2.0000      -0.180328        -4.9070
 101   0.0000      -0.036631        -0.9968
 102   0.0000      -0.029811        -0.8112
 103   0.0000      -0.012135        -0.3302
 104   0.0000       0.003479         0.0947
 105   0.0000       0.017591         0.4787

MULLIKEN ATOMIC CHARGES
-----------------------
   0 C :   -0.319932
   1 C :    0.007205
   2 O :   -0.390469
   3 P :    0.625780
   4 S :   -0.303707
   5 O :   -0.347329
   6 C :    0.006319
   7 C :   -0.335276
   8 S :   -0.100978
   9 C :   -0.345521
  10 S :   -0.126784
  11 P :    0.592596
  12 S :   -0.290921
  13 O :   -0.384203
  14 C :   -0.012683
  15 C :   -0.310841
  16 O :   -0.346825
  17 C :   -0.013346
  18 C :   -0.284820
  19 H :    0.119029
  20 H :    0.120909
  21 H :    0.111239
  22 H :    0.109399
  23 H :    0.101932
  24 H :    0.108056
  25 H :    0.112542
  26 H :    0.142005
  27 H :    0.124588
  28 H :    0.114121
  29 H :    0.180994
  30 H :    0.194200
  31 H :    0.109142
  32 H :    0.112195
  33 H :    0.128396
  34 H :    0.108920
  35 H :    0.127856
  36 H :    0.093942
  37 H :    0.104477
  38 H :    0.131674
  39 H :    0.104774
  40 H :    0.121346
Sum of atomic charges:   -0.0000000

LOEWDIN ATOMIC CHARGES
----------------------
   0 C :   -0.370583
   1 C :   -0.115937
   2 O :   -0.256585
   3 P :    0.577875
   4 S :   -0.289545
   5 O :   -0.223245
   6 C :   -0.107019
   7 C :   -0.371593
   8 S :    0.079298
   9 C :   -0.486031
  10 S :    0.059803
  11 P :    0.558743
  12 S :   -0.299565
  13 O :   -0.250050
  14 C :   -0.114758
  15 C :   -0.371316
  16 O :   -0.228670
  17 C :   -0.117344
  18 C :   -0.352537
  19 H :    0.124061
  20 H :    0.118768
  21 H :    0.129841
  22 H :    0.110759
  23 H :    0.117392
  24 H :    0.112912
  25 H :    0.124385
  26 H :    0.133214
  27 H :    0.115405
  28 H :    0.131875
  29 H :    0.134804
  30 H :    0.118991
  31 H :    0.121274
  32 H :    0.107094
  33 H :    0.130855
  34 H :    0.128791
  35 H :    0.121855
  36 H :    0.099208
  37 H :    0.113443
  38 H :    0.126961
  39 H :    0.126918
  40 H :    0.130253

  Mayer bond orders larger than 0.100000
B(  0-C ,  1-C ) :   1.1643 B(  0-C , 19-H ) :   0.9416 B(  0-C , 20-H ) :   0.9376
B(  0-C , 21-H ) :   0.9366 B(  1-C ,  2-O ) :   0.9205 B(  1-C , 22-H ) :   0.9171
B(  1-C , 23-H ) :   0.9348 B(  2-O ,  3-P ) :   1.0539 B(  3-P ,  4-S ) :   1.6142
B(  3-P ,  5-O ) :   1.1498 B(  3-P ,  8-S ) :   0.9402 B(  4-S ,  8-S ) :   0.1172
B(  4-S , 30-H ) :   0.1270 B(  5-O ,  6-C ) :   0.9009 B(  6-C ,  7-C ) :   1.1701
B(  6-C , 24-H ) :   0.9261 B(  6-C , 25-H ) :   0.9325 B(  7-C , 26-H ) :   0.9381
B(  7-C , 27-H ) :   0.9327 B(  7-C , 28-H ) :   0.9356 B(  8-S ,  9-C ) :   1.0097
B(  9-C , 10-S ) :   0.9933 B(  9-C , 29-H ) :   0.9077 B(  9-C , 30-H ) :   0.8404
B( 10-S , 11-P ) :   0.9374 B( 10-S , 12-S ) :   0.1144 B( 11-P , 12-S ) :   1.6851
B( 11-P , 13-O ) :   1.0743 B( 11-P , 16-O ) :   1.1346 B( 13-O , 14-C ) :   0.9188
B( 14-C , 15-C ) :   1.1671 B( 14-C , 31-H ) :   0.9336 B( 14-C , 32-H ) :   0.9267
B( 15-C , 33-H ) :   0.9416 B( 15-C , 34-H ) :   0.9341 B( 15-C , 35-H ) :   0.9313
B( 16-O , 17-C ) :   0.8945 B( 17-C , 18-C ) :   1.1627 B( 17-C , 36-H ) :   0.9116
B( 17-C , 37-H ) :   0.9301 B( 18-C , 38-H ) :   0.9447 B( 18-C , 39-H ) :   0.9409
B( 18-C , 40-H ) :   0.9494

Dispersion correction           -0.067758693
FINAL SINGLE POINT ENERGY     -2929.507875069150

DIPOLE MOMENT
-------------

Method             : SCF
Type of density    : Electron Density
Multiplicity       :   1
Irrep              :   0
Energy             : -2929.6253272087296864 Eh
Relativity type    :
Basis              : AO
                                X                 Y                 Z
Electronic contribution:     -1.727144724       5.855556351       0.394395298
Nuclear contribution   :      1.854234388      -7.164161662      -0.237046253
                        -----------------------------------------
Total Dipole Moment    :      0.127089664      -1.308605311       0.157349045
                        -----------------------------------------
Magnitude (a.u.)       :      1.324144390
Magnitude (Debye)      :      3.365707562

Rotational constants in cm-1:             0.011583             0.005769             0.004979
Rotational constants in MHz :           347.258554           172.963813           149.266032

                             ****ORCA TERMINATED NORMALLY****
TOTAL RUN TIME: 0 days 0 hours 0 minutes 21 seconds 725 msec
