                         Program Version 6.0.0  -   RELEASE  -
|  1> ! pbe def2-sv(p) def2/J RI DEFGRID1 loosescf d4 GCP(DFT/SV(P)) printgap
|  2> %output
|  3>     printlevel normal
|  4> end
|  5> * xyz 0 1
|  6> C 3.3533887891 -1.2590703648 -2.160315445
|  7> C 1.8763353264 -0.9355473108 -2.1362818185
|  8> O 1.5467744829 0.1404176248 -1.223026069
|  9> P 1.8825277713 0.2279849929 0.3128885151
| 10> S 0.8523648272 1.6265382413 1.2137598627
| 11> O 3.4521666618 0.463856005 0.3264577518
| 12> C 4.1488431587 0.9949538647 1.4674092892
| 13> C 4.1382781889 0.042116971 2.6452718851
| 14> S 1.6188780175 -1.7308625508 1.0904714367
| 15> C -0.1681390272 -1.6249020348 1.3378518789
| 16> S -1.1187153711 -1.7511937767 -0.2185313294
| 17> P -2.0332163044 0.1367726482 -0.4774557869
| 18> S -1.2942092427 1.4960755568 -1.6921840775
| 19> O -2.2497678879 0.532322897 1.0378271155
| 20> C -2.7449825125 1.8407729971 1.4022315827
| 21> C -2.4678255717 2.0480483931 2.8756986712
| 22> O -3.5199191635 -0.2627273054 -0.9019972326
| 23> C -3.9024926197 -0.4281393794 -2.2747604218
| 24> C -3.2460656528 -1.6470370286 -2.8901651662
| 25> H 3.5385458241 -1.9888683094 -2.9424797661
| 26> H 3.9323191482 -0.3611434442 -2.3603339831
| 27> H 3.6648065907 -1.6754684354 -1.204538486
| 28> H 1.2861400027 -1.8134158336 -1.8554140367
| 29> H 1.5266041346 -0.5518367395 -3.0964953328
| 30> H 5.1599702415 1.1652936726 1.0950205026
| 31> H 3.6882284038 1.9497510365 1.7404335499
| 32> H 4.7893555271 0.4298492946 3.4221673271
| 33> H 3.1293168882 -0.0473705039 3.0440747402
| 34> H 4.4851467375 -0.9418678342 2.3406810761
| 35> H -0.4135474468 -0.6839265345 1.829317994
| 36> H -0.4476713954 -2.4809206786 1.9456272404
| 37> H -2.2304276853 2.5893824131 0.789801042
| 38> H -3.8145475361 1.8665339469 1.1804901518
| 39> H -1.3946675615 2.0454978249 3.0516741706
| 40> H -2.8754769699 3.0061431183 3.1802922661
| 41> H -2.9296154426 1.2548476344 3.4562757239
| 42> H -4.9882716218 -0.5236236728 -2.2389013208
| 43> H -3.6232921337 0.4785111404 -2.8222371945
| 44> H -2.1642116621 -1.507643803 -2.9045722198
| 45> H -3.4744603674 -2.5360298519 -2.3081407306
| 46> H -3.5996377181 -1.7763512608 -3.9077944461
| 47> *
| 48>
| 49>                          ****END OF INPUT****

CARTESIAN COORDINATES (ANGSTROEM)
---------------------------------
  C      3.353389   -1.259070   -2.160315
  C      1.876335   -0.935547   -2.136282
  O      1.546774    0.140418   -1.223026
  P      1.882528    0.227985    0.312889
  S      0.852365    1.626538    1.213760
  O      3.452167    0.463856    0.326458
  C      4.148843    0.994954    1.467409
  C      4.138278    0.042117    2.645272
  S      1.618878   -1.730863    1.090471
  C     -0.168139   -1.624902    1.337852
  S     -1.118715   -1.751194   -0.218531
  P     -2.033216    0.136773   -0.477456
  S     -1.294209    1.496076   -1.692184
  O     -2.249768    0.532323    1.037827
  C     -2.744983    1.840773    1.402232
  C     -2.467826    2.048048    2.875699
  O     -3.519919   -0.262727   -0.901997
  C     -3.902493   -0.428139   -2.274760
  C     -3.246066   -1.647037   -2.890165
  H      3.538546   -1.988868   -2.942480
  H      3.932319   -0.361143   -2.360334
  H      3.664807   -1.675468   -1.204538
  H      1.286140   -1.813416   -1.855414
  H      1.526604   -0.551837   -3.096495
  H      5.159970    1.165294    1.095021
  H      3.688228    1.949751    1.740434
  H      4.789356    0.429849    3.422167
  H      3.129317   -0.047371    3.044075
  H      4.485147   -0.941868    2.340681
  H     -0.413547   -0.683927    1.829318
  H     -0.447671   -2.480921    1.945627
  H     -2.230428    2.589382    0.789801
  H     -3.814548    1.866534    1.180490
  H     -1.394668    2.045498    3.051674
  H     -2.875477    3.006143    3.180292
  H     -2.929615    1.254848    3.456276
  H     -4.988272   -0.523624   -2.238901
  H     -3.623292    0.478511   -2.822237
  H     -2.164212   -1.507644   -2.904572
  H     -3.474460   -2.536030   -2.308141
  H     -3.599638   -1.776351   -3.907794

 Total Charge           Charge          ....    0
 Multiplicity           Mult            ....    1
 Number of Electrons    NEL             ....  202
 Basis Dimension        Dim             ....  334

ORBITAL ENERGIES
----------------

  NO   OCC          E(Eh)            E(eV)
   0   2.0000     -88.045257     -2395.8332
   1   2.0000     -88.039532     -2395.6775
   2   2.0000     -87.982025     -2394.1126
   3   2.0000     -87.973241     -2393.8736
   4   2.0000     -76.425177     -2079.6348
   5   2.0000     -76.417422     -2079.4238
   6   2.0000     -18.793406      -511.3946
   7   2.0000     -18.785324      -511.1747
   8   2.0000     -18.784991      -511.1656
   9   2.0000     -18.780040      -511.0309
  10   2.0000      -9.958212      -270.9767
  11   2.0000      -9.952890      -270.8319
  12   2.0000      -9.948300      -270.7070
  13   2.0000      -9.944251      -270.5968
  14   2.0000      -9.944206      -270.5956
  15   2.0000      -9.885092      -268.9870
  16   2.0000      -9.883551      -268.9451
  17   2.0000      -9.882614      -268.9196
  18   2.0000      -9.878768      -268.8149
  19   2.0000      -7.690290      -209.2634
  20   2.0000      -7.684707      -209.1115
  21   2.0000      -7.627028      -207.5420
  22   2.0000      -7.618170      -207.3010
  23   2.0000      -6.422399      -174.7624
  24   2.0000      -6.415149      -174.5651
  25   2.0000      -5.718024      -155.5954
  26   2.0000      -5.714722      -155.5055
  27   2.0000      -5.713000      -155.4586
  28   2.0000      -5.708955      -155.3486
  29   2.0000      -5.707476      -155.3083
  30   2.0000      -5.701457      -155.1445
  31   2.0000      -5.655868      -153.9040
  32   2.0000      -5.647625      -153.6797
  33   2.0000      -5.647211      -153.6684
  34   2.0000      -5.647164      -153.6672
  35   2.0000      -5.639082      -153.4472
  36   2.0000      -5.638000      -153.4178
  37   2.0000      -4.645156      -126.4011
  38   2.0000      -4.644291      -126.3776
  39   2.0000      -4.642628      -126.3323
  40   2.0000      -4.637758      -126.1998
  41   2.0000      -4.637010      -126.1795
  42   2.0000      -4.635428      -126.1364
  43   2.0000      -0.984733       -26.7959
  44   2.0000      -0.978984       -26.6395
  45   2.0000      -0.942454       -25.6455
  46   2.0000      -0.937183       -25.5020
  47   2.0000      -0.761876       -20.7317
  48   2.0000      -0.717600       -19.5269
  49   2.0000      -0.706985       -19.2380
  50   2.0000      -0.688950       -18.7473
  51   2.0000      -0.681970       -18.5574
  52   2.0000      -0.673159       -18.3176
  53   2.0000      -0.648477       -17.6460
  54   2.0000      -0.629376       -17.1262
  55   2.0000      -0.598577       -16.2881
  56   2.0000      -0.586671       -15.9641
  57   2.0000      -0.573610       -15.6087
  58   2.0000      -0.564429       -15.3589
  59   2.0000      -0.560795       -15.2600
  60   2.0000      -0.497318       -13.5327
  61   2.0000      -0.490694       -13.3525
  62   2.0000      -0.469247       -12.7689
  63   2.0000      -0.465614       -12.6700
  64   2.0000      -0.450673       -12.2634
  65   2.0000      -0.443617       -12.0714
  66   2.0000      -0.442387       -12.0380
  67   2.0000      -0.433329       -11.7915
  68   2.0000      -0.424942       -11.5633
  69   2.0000      -0.421747       -11.4763
  70   2.0000      -0.413484       -11.2515
  71   2.0000      -0.393434       -10.7059
  72   2.0000      -0.389209       -10.5909
  73   2.0000      -0.384577       -10.4649
  74   2.0000      -0.380062       -10.3420
  75   2.0000      -0.367731       -10.0065
  76   2.0000      -0.364994        -9.9320
  77   2.0000      -0.358017        -9.7421
  78   2.0000      -0.350523        -9.5382
  79   2.0000      -0.349644        -9.5143
  80   2.0000      -0.347736        -9.4624
  81   2.0000      -0.344830        -9.3833
  82   2.0000      -0.336401        -9.1539
  83   2.0000      -0.331711        -9.0263
  84   2.0000      -0.327494        -8.9116
  85   2.0000      -0.312394        -8.5007
  86   2.0000      -0.306133        -8.3303
  87   2.0000      -0.293245        -7.9796
  88   2.0000      -0.292521        -7.9599
  89   2.0000      -0.288147        -7.8409
  90   2.0000      -0.282649        -7.6913
  91   2.0000      -0.267958        -7.2915
  92   2.0000      -0.266561        -7.2535
  93   2.0000      -0.261613        -7.1188
  94   2.0000      -0.253765        -6.9053
  95   2.0000      -0.238977        -6.5029
  96   2.0000      -0.218419        -5.9435
  97   2.0000      -0.208934        -5.6854
  98   2.0000      -0.200492        -5.4557
  99   2.0000      -0.188569        -5.1312
 100   2.0000      -0.176721        -4.8088
 101   0.0000      -0.044523        -1.2115
 102   0.0000      -0.027440        -0.7467
 103   0.0000      -0.022804        -0.6205
 104   0.0000       0.002784         0.0757
 105   0.0000       0.023326         0.6347

MULLIKEN ATOMIC CHARGES
-----------------------
   0 C :   -0.304775
   1 C :   -0.005202
   2 O :   -0.338568
   3 P :    0.603590
   4 S :   -0.312140
   5 O :   -0.372261
   6 C :   -0.001680
   7 C :   -0.317566
   8 S :   -0.109260
   9 C :   -0.347585
  10 S :   -0.114843
  11 P :    0.615204
  12 S :   -0.306272
  13 O :   -0.376376
  14 C :   -0.001914
  15 C :   -0.291196
  16 O :   -0.376925
  17 C :   -0.000994
  18 C :   -0.324170
  19 H :    0.111668
  20 H :    0.121656
  21 H :    0.113713
  22 H :    0.114936
  23 H :    0.111814
  24 H :    0.105267
  25 H :    0.114352
  26 H :    0.114020
  27 H :    0.126313
  28 H :    0.115818
  29 H :    0.215289
  30 H :    0.183774
  31 H :    0.114916
  32 H :    0.101340
  33 H :    0.133140
  34 H :    0.108675
  35 H :    0.110405
  36 H :    0.101535
  37 H :    0.107431
  38 H :    0.122588
  39 H :    0.120519
  40 H :    0.113764
Sum of atomic charges:    0.0000000

LOEWDIN ATOMIC CHARGES
----------------------
   0 C :   -0.366308
   1 C :   -0.115859
   2 O :   -0.221833
   3 P :    0.572731
   4 S :   -0.298347
   5 O :   -0.240037
   6 C :   -0.117837
   7 C :   -0.371346
   8 S :    0.071690
   9 C :   -0.475541
  10 S :    0.078212
  11 P :    0.564921
  12 S :   -0.303092
  13 O :   -0.241239
  14 C :   -0.115751
  15 C :   -0.354673
  16 O :   -0.250530
  17 C :   -0.124915
  18 C :   -0.370424
  19 H :    0.130505
  20 H :    0.128301
  21 H :    0.116301
  22 H :    0.102611
  23 H :    0.123444
  24 H :    0.118902
  25 H :    0.112975
  26 H :    0.131655
  27 H :    0.120768
  28 H :    0.122804
  29 H :    0.132961
  30 H :    0.139071
  31 H :    0.111981
  32 H :    0.111615
  33 H :    0.125283
  34 H :    0.129797
  35 H :    0.123980
  36 H :    0.117204
  37 H :    0.106783
  38 H :    0.117180
  39 H :    0.124805
  40 H :    0.131250

  Mayer bond orders larger than 0.100000
B(  0-C ,  1-C ) :   1.1686 B(  0-C , 19-H ) :   0.9365 B(  0-C , 20-H ) :   0.9434
B(  0-C , 21-H ) :   0.9388 B(  1-C ,  2-O ) :   0.8961 B(  1-C , 22-H ) :   0.9096
B(  1-C , 23-H ) :   0.9321 B(  2-O ,  3-P ) :   1.1673 B(  3-P ,  4-S ) :   1.6177
B(  3-P ,  5-O ) :   1.0957 B(  3-P ,  8-S ) :   0.9314 B(  4-S ,  8-S ) :   0.1052
B(  5-O ,  6-C ) :   0.9052 B(  6-C ,  7-C ) :   1.1654 B(  6-C , 24-H ) :   0.9338
B(  6-C , 25-H ) :   0.9154 B(  7-C , 26-H ) :   0.9375 B(  7-C , 27-H ) :   0.9340
B(  7-C , 28-H ) :   0.9449 B(  8-S ,  9-C ) :   1.0060 B(  9-C , 10-S ) :   0.9947
B(  9-C , 29-H ) :   0.8592 B(  9-C , 30-H ) :   0.9103 B( 10-S , 11-P ) :   0.9437
B( 10-S , 12-S ) :   0.1055 B( 11-P , 12-S ) :   1.6490 B( 11-P , 13-O ) :   1.1206
B( 11-P , 16-O ) :   1.0785 B( 13-O , 14-C ) :   0.8880 B( 14-C , 15-C ) :   1.1642
B( 14-C , 31-H ) :   0.9100 B( 14-C , 32-H ) :   0.9314 B( 15-C , 33-H ) :   0.9430
B( 15-C , 34-H ) :   0.9410 B( 15-C , 35-H ) :   0.9492 B( 16-O , 17-C ) :   0.9213
B( 17-C , 18-C ) :   1.1622 B( 17-C , 36-H ) :   0.9318 B( 17-C , 37-H ) :   0.9080
B( 18-C , 38-H ) :   0.9314 B( 18-C , 39-H ) :   0.9438 B( 18-C , 40-H ) :   0.9391

Dispersion correction           -0.068541889
FINAL SINGLE POINT ENERGY     -2929.511559427083

DIPOLE MOMENT
-------------

Method             : SCF
Type of density    : Electron Density
Multiplicity       :   1
Irrep              :   0
Energy             : -2929.6290928890198302 Eh
Relativity type    :
Basis              : AO
                                X                 Y                 Z
Electronic contribution:     -2.890701737       1.388848433      -1.185550800
Nuclear contribution   :      3.165535840      -2.275219154       1.470611726
                        -----------------------------------------
Total Dipole Moment    :      0.274834103      -0.886370721       0.285060926
                        -----------------------------------------
Magnitude (a.u.)       :      0.970796874
Magnitude (Debye)      :      2.467569552

Rotational constants in cm-1:             0.011841             0.005951             0.005056
Rotational constants in MHz :           354.978259           178.393047           151.577464

                             ****ORCA TERMINATED NORMALLY****
TOTAL RUN TIME: 0 days 0 hours 0 minutes 21 seconds 902 msec
