                         Program Version 6.0.1  -  RELEASE   -
|  1> ! pbe def2-sv(p) def2/J RI DEFGRID1 loosescf d4 GCP(DFT/SV(P)) printgap
|  2> %output
|  3>     printlevel normal
|  4> end
|  5> * xyz 0 1
|  6> C 3.1790523168 -3.7928709445 1.1220401315
|  7> C 2.8984973617 -3.3166299719 -0.2941120429
|  8> O 2.8949793066 -1.8767193969 -0.3633243991
|  9> C 1.7869826698 -1.2352260752 -0.068692215
| 10> O 0.7442087972 -1.7818930625 0.2378866382
| 11> C 1.964608052 0.2637038448 -0.1597928829
| 12> C 0.6422435341 0.9352924211 -0.4871623744
| 13> H 0.1833679 0.4941873778 -1.3820045587
| 14> C 0.7118224734 2.4427706139 -0.6737548885
| 15> O -0.1646866315 3.0672141767 -1.2274769599
| 16> O 1.8001749178 2.9585740595 -0.1532128062
| 17> C 1.9539763513 4.3933648555 -0.174755199
| 18> C 1.2753058736 5.0225310528 1.0310276791
| 19> S -0.5851708905 0.7069791537 0.8596869276
| 20> P -1.7364325072 -0.8760892957 0.0091043042
| 21> S -1.4180327546 -1.3732639267 -1.8577322833
| 22> O -1.8030753143 -2.0821832377 1.0195141068
| 23> C -2.1000511035 -1.898619438 2.4177281567
| 24> O -3.2270120634 -0.2927463849 0.2199730789
| 25> C -3.6953589127 0.8099248229 -0.5553691144
| 26> H 3.2499527834 -4.8754879319 1.1271646
| 27> H 4.113484886 -3.3699042117 1.4802326653
| 28> H 2.3721643021 -3.489988699 1.7854035851
| 29> H 1.929635061 -3.6842460515 -0.6453584178
| 30> H 3.6896408003 -3.6171714511 -0.9808927248
| 31> H 2.7073701178 0.4849954378 -0.9263813059
| 32> H 2.3414866376 0.6260917528 0.7996007869
| 33> H 3.0322343572 4.5500145754 -0.1546168466
| 34> H 1.5266226118 4.7761422637 -1.105439352
| 35> H 1.673521961 4.599681738 1.9489090614
| 36> H 1.4501889677 6.0931928799 1.0228402562
| 37> H 0.2039652697 4.8384514912 0.9940416523
| 38> H -1.3856006885 -1.2047300299 2.8608150044
| 39> H -2.0003496444 -2.887615461 2.8574816627
| 40> H -3.1138237841 -1.5196424084 2.5351221388
| 41> H -3.6152624493 0.5810114617 -1.6195158797
| 42> H -3.1129905872 1.7057937424 -0.3325771644
| 43> H -4.7350976525 0.9494918624 -0.2719594849
| 44> *
| 45>
| 46>                          ****END OF INPUT****

CARTESIAN COORDINATES (ANGSTROEM)
---------------------------------
  C      3.179052   -3.792871    1.122040
  C      2.898497   -3.316630   -0.294112
  O      2.894979   -1.876719   -0.363324
  C      1.786983   -1.235226   -0.068692
  O      0.744209   -1.781893    0.237887
  C      1.964608    0.263704   -0.159793
  C      0.642244    0.935292   -0.487162
  H      0.183368    0.494187   -1.382005
  C      0.711822    2.442771   -0.673755
  O     -0.164687    3.067214   -1.227477
  O      1.800175    2.958574   -0.153213
  C      1.953976    4.393365   -0.174755
  C      1.275306    5.022531    1.031028
  S     -0.585171    0.706979    0.859687
  P     -1.736433   -0.876089    0.009104
  S     -1.418033   -1.373264   -1.857732
  O     -1.803075   -2.082183    1.019514
  C     -2.100051   -1.898619    2.417728
  O     -3.227012   -0.292746    0.219973
  C     -3.695359    0.809925   -0.555369
  H      3.249953   -4.875488    1.127165
  H      4.113485   -3.369904    1.480233
  H      2.372164   -3.489989    1.785404
  H      1.929635   -3.684246   -0.645358
  H      3.689641   -3.617171   -0.980893
  H      2.707370    0.484995   -0.926381
  H      2.341487    0.626092    0.799601
  H      3.032234    4.550015   -0.154617
  H      1.526623    4.776142   -1.105439
  H      1.673522    4.599682    1.948909
  H      1.450189    6.093193    1.022840
  H      0.203965    4.838451    0.994042
  H     -1.385601   -1.204730    2.860815
  H     -2.000350   -2.887615    2.857482
  H     -3.113824   -1.519642    2.535122
  H     -3.615262    0.581011   -1.619516
  H     -3.112991    1.705794   -0.332577
  H     -4.735098    0.949492   -0.271959

 Total Charge           Charge          ....    0
 Multiplicity           Mult            ....    1
 Number of Electrons    NEL             ....  174
 Basis Dimension        Dim             ....  316

ORBITAL ENERGIES
----------------

  NO   OCC          E(Eh)            E(eV)
   0   2.0000     -88.034293     -2395.5349
   1   2.0000     -87.972778     -2393.8610
   2   2.0000     -76.416191     -2079.3903
   3   2.0000     -18.813152      -511.9319
   4   2.0000     -18.808283      -511.7994
   5   2.0000     -18.783655      -511.1292
   6   2.0000     -18.774460      -510.8790
   7   2.0000     -18.742933      -510.0211
   8   2.0000     -18.740101      -509.9441
   9   2.0000     -10.016335      -272.5583
  10   2.0000     -10.014405      -272.5058
  11   2.0000      -9.955209      -270.8950
  12   2.0000      -9.949908      -270.7508
  13   2.0000      -9.944688      -270.6087
  14   2.0000      -9.939461      -270.4665
  15   2.0000      -9.926844      -270.1232
  16   2.0000      -9.911130      -269.6956
  17   2.0000      -9.892522      -269.1892
  18   2.0000      -9.889781      -269.1146
  19   2.0000      -7.678507      -208.9428
  20   2.0000      -7.618081      -207.2985
  21   2.0000      -6.412606      -174.4959
  22   2.0000      -5.706500      -155.2818
  23   2.0000      -5.703321      -155.1953
  24   2.0000      -5.695219      -154.9748
  25   2.0000      -5.647293      -153.6707
  26   2.0000      -5.638968      -153.4441
  27   2.0000      -5.637594      -153.4067
  28   2.0000      -4.635359      -126.1345
  29   2.0000      -4.634514      -126.1115
  30   2.0000      -4.633000      -126.0703
  31   2.0000      -1.020218       -27.7615
  32   2.0000      -1.016264       -27.6539
  33   2.0000      -0.975313       -26.5396
  34   2.0000      -0.928313       -25.2607
  35   2.0000      -0.920548       -25.0494
  36   2.0000      -0.920050       -25.0358
  37   2.0000      -0.761340       -20.7171
  38   2.0000      -0.714546       -19.4438
  39   2.0000      -0.708154       -19.2699
  40   2.0000      -0.686849       -18.6901
  41   2.0000      -0.656421       -17.8621
  42   2.0000      -0.626386       -17.0448
  43   2.0000      -0.619315       -16.8524
  44   2.0000      -0.611228       -16.6324
  45   2.0000      -0.598720       -16.2920
  46   2.0000      -0.568204       -15.4616
  47   2.0000      -0.508685       -13.8420
  48   2.0000      -0.502462       -13.6727
  49   2.0000      -0.499120       -13.5817
  50   2.0000      -0.475015       -12.9258
  51   2.0000      -0.464550       -12.6411
  52   2.0000      -0.459413       -12.5013
  53   2.0000      -0.452440       -12.3115
  54   2.0000      -0.435091       -11.8394
  55   2.0000      -0.429411       -11.6849
  56   2.0000      -0.423201       -11.5159
  57   2.0000      -0.418713       -11.3938
  58   2.0000      -0.409458       -11.1419
  59   2.0000      -0.403964       -10.9924
  60   2.0000      -0.400877       -10.9084
  61   2.0000      -0.393966       -10.7204
  62   2.0000      -0.389613       -10.6019
  63   2.0000      -0.386802       -10.5254
  64   2.0000      -0.378894       -10.3102
  65   2.0000      -0.367763       -10.0073
  66   2.0000      -0.361517        -9.8374
  67   2.0000      -0.357486        -9.7277
  68   2.0000      -0.351608        -9.5677
  69   2.0000      -0.338500        -9.2111
  70   2.0000      -0.336527        -9.1574
  71   2.0000      -0.330224        -8.9859
  72   2.0000      -0.325531        -8.8582
  73   2.0000      -0.305143        -8.3034
  74   2.0000      -0.302523        -8.2321
  75   2.0000      -0.299610        -8.1528
  76   2.0000      -0.287286        -7.8175
  77   2.0000      -0.285735        -7.7752
  78   2.0000      -0.267921        -7.2905
  79   2.0000      -0.266579        -7.2540
  80   2.0000      -0.260412        -7.0862
  81   2.0000      -0.249376        -6.7859
  82   2.0000      -0.237708        -6.4684
  83   2.0000      -0.226863        -6.1733
  84   2.0000      -0.204528        -5.5655
  85   2.0000      -0.194906        -5.3037
  86   2.0000      -0.184529        -5.0213
  87   0.0000      -0.047200        -1.2844
  88   0.0000      -0.032783        -0.8921
  89   0.0000      -0.026690        -0.7263
  90   0.0000       0.027491         0.7481
  91   0.0000       0.033594         0.9141

MULLIKEN ATOMIC CHARGES
-----------------------
   0 C :   -0.307004
   1 C :   -0.014136
   2 O :   -0.223862
   3 C :    0.142497
   4 O :   -0.201632
   5 C :   -0.029789
   6 C :   -0.384427
   7 H :    0.156617
   8 C :    0.222207
   9 O :   -0.185006
  10 O :   -0.228322
  11 C :   -0.013327
  12 C :   -0.305221
  13 S :   -0.112822
  14 P :    0.634763
  15 S :   -0.310825
  16 O :   -0.356072
  17 C :   -0.104738
  18 O :   -0.395196
  19 C :   -0.102346
  20 H :    0.115656
  21 H :    0.113127
  22 H :    0.125880
  23 H :    0.122234
  24 H :    0.104728
  25 H :    0.113856
  26 H :    0.120547
  27 H :    0.105389
  28 H :    0.113823
  29 H :    0.115110
  30 H :    0.116458
  31 H :    0.131907
  32 H :    0.117906
  33 H :    0.129478
  34 H :    0.124846
  35 H :    0.115636
  36 H :    0.116324
  37 H :    0.115736
Sum of atomic charges:    0.0000000

LOEWDIN ATOMIC CHARGES
----------------------
   0 C :   -0.356148
   1 C :   -0.109942
   2 O :   -0.052783
   3 C :    0.041665
   4 O :   -0.166565
   5 C :   -0.255783
   6 C :   -0.266761
   7 H :    0.135074
   8 C :    0.010287
   9 O :   -0.157664
  10 O :   -0.051193
  11 C :   -0.109206
  12 C :   -0.355334
  13 S :    0.094326
  14 P :    0.596914
  15 S :   -0.303706
  16 O :   -0.230021
  17 C :   -0.207912
  18 O :   -0.269938
  19 C :   -0.222960
  20 H :    0.132070
  21 H :    0.124294
  22 H :    0.129861
  23 H :    0.126235
  24 H :    0.119053
  25 H :    0.142250
  26 H :    0.145722
  27 H :    0.118984
  28 H :    0.122987
  29 H :    0.125508
  30 H :    0.132463
  31 H :    0.133196
  32 H :    0.109046
  33 H :    0.125456
  34 H :    0.116023
  35 H :    0.109791
  36 H :    0.107185
  37 H :    0.117528

  Mayer bond orders larger than 0.100000
B(  0-C ,  1-C ) :   1.1731 B(  0-C , 20-H ) :   0.9442 B(  0-C , 21-H ) :   0.9487
B(  0-C , 22-H ) :   0.9461 B(  1-C ,  2-O ) :   0.9105 B(  1-C , 23-H ) :   0.9144
B(  1-C , 24-H ) :   0.9372 B(  2-O ,  3-C ) :   1.2573 B(  3-C ,  4-O ) :   1.9534
B(  3-C ,  5-C ) :   1.0049 B(  5-C ,  6-C ) :   0.9916 B(  5-C , 25-H ) :   0.8965
B(  5-C , 26-H ) :   0.8702 B(  6-C ,  7-H ) :   0.8337 B(  6-C ,  8-C ) :   0.9046
B(  6-C , 13-S ) :   1.0221 B(  7-H , 15-S ) :   0.1217 B(  8-C ,  9-O ) :   2.0698
B(  8-C , 10-O ) :   1.2483 B( 10-O , 11-C ) :   0.9066 B( 11-C , 12-C ) :   1.1775
B( 11-C , 27-H ) :   0.9369 B( 11-C , 28-H ) :   0.9125 B( 12-C , 29-H ) :   0.9485
B( 12-C , 30-H ) :   0.9437 B( 12-C , 31-H ) :   0.9445 B( 13-S , 14-P ) :   0.9237
B( 13-S , 15-S ) :   0.1148 B( 14-P , 15-S ) :   1.6090 B( 14-P , 16-O ) :   1.1366
B( 14-P , 18-O ) :   1.0481 B( 16-O , 17-C ) :   0.9228 B( 17-C , 32-H ) :   0.9399
B( 17-C , 33-H ) :   0.9600 B( 17-C , 34-H ) :   0.9463 B( 18-O , 19-C ) :   0.9401
B( 19-C , 35-H ) :   0.9377 B( 19-C , 36-H ) :   0.9382 B( 19-C , 37-H ) :   0.9584

Dispersion correction           -0.050599339
FINAL SINGLE POINT ENERGY     -1979.013639779900

DIPOLE MOMENT
-------------

Method             : SCF
Type of density    : Electron Density
Multiplicity       :   1
Irrep              :   0
Energy             : -1979.1446977529485594 Eh
Relativity type    :
Basis              : AO
                                X                 Y                 Z
Electronic contribution:    -10.125817086      -5.074672385      -8.038471650
Nuclear contribution   :     11.473786205       5.539981540       9.391828626
                        -----------------------------------------
Total Dipole Moment    :      1.347969119       0.465309155       1.353356976
                        -----------------------------------------
Magnitude (a.u.)       :      1.965987909
Magnitude (Debye)      :      4.997144135

Rotational constants in cm-1:             0.010235             0.007941             0.005423
Rotational constants in MHz :           306.825294           238.069530           162.567582

                             ****ORCA TERMINATED NORMALLY****
TOTAL RUN TIME: 0 days 0 hours 0 minutes 44 seconds 857 msec
