                         Program Version 6.0.0  -   RELEASE  -
|  1> ! pbe def2-sv(p) def2/J RI DEFGRID1 loosescf d4 GCP(DFT/SV(P)) printgap
|  2> %output
|  3>     printlevel normal
|  4> end
|  5> * xyz 0 1
|  6> C 4.114065656 -1.4508248084 -2.3637597315
|  7> C 4.455251282 -1.5080076029 -0.8886413523
|  8> O 3.2793884343 -1.5474007892 -0.062177097
|  9> P 2.2941679658 -0.3107843155 0.0812297106
| 10> S 3.1590798578 1.4512000623 0.1657168499
| 11> O 1.4378586046 -0.7310113341 1.3481045847
| 12> C 1.7769957869 -0.2969340007 2.6816393664
| 13> C 3.0604414868 -0.9350248231 3.1690396039
| 14> S 0.8494385474 -0.602308118 -1.4335473702
| 15> C 0.1249705236 1.0574401032 -1.3292857823
| 16> S -0.7599466627 1.3499170238 0.2184185744
| 17> P -2.6058816669 0.3816549903 -0.2922419509
| 18> S -2.9175357926 0.0834078529 -2.1977269443
| 19> O -3.7149460468 1.3160227602 0.311301355
| 20> C -3.7225571113 1.7383705265 1.700777141
| 21> C -4.4016814524 3.089765553 1.7735501971
| 22> O -2.7026054958 -0.8625860599 0.7015745068
| 23> C -1.8054038537 -1.9833169317 0.7652457077
| 24> C -1.9207156932 -2.8909702779 -0.4427335572
| 25> H 3.43009381 -2.2543974547 -2.6252942505
| 26> H 3.6413762964 -0.4985495608 -2.6015018089
| 27> H 5.0238047347 -1.5463078785 -2.9478621542
| 28> H 5.0531522564 -0.6377258972 -0.5990262853
| 29> H 4.9861011607 -2.4260164226 -0.6332098352
| 30> H 1.8601750703 0.7945969084 2.6780689988
| 31> H 0.9188186095 -0.5998205586 3.2827928943
| 32> H 3.8996614152 -0.5797688872 2.5721599525
| 33> H 3.2264990409 -0.6635546488 4.2068150669
| 34> H 2.9994520357 -2.0165073848 3.0808753337
| 35> H -0.5679168052 1.1482359916 -2.1666199573
| 36> H 0.9194702665 1.8014789168 -1.3791132071
| 37> H -4.2662372915 0.981214944 2.2684400138
| 38> H -2.6900065731 1.7916333189 2.0579740817
| 39> H -3.8392683237 3.8230265925 1.2021505371
| 40> H -5.4052390635 3.0225703634 1.3635276736
| 41> H -4.4557126093 3.4069091589 2.8099568246
| 42> H -0.7812083566 -1.6155637544 0.8795576118
| 43> H -2.1100103978 -2.5004108145 1.6774426594
| 44> H -2.9547049734 -3.193310928 -0.5877929965
| 45> H -1.5793995495 -2.3794811248 -1.3408068707
| 46> H -1.3054379452 -3.7712274645 -0.2866008186
| 47> *
| 48>
| 49>                          ****END OF INPUT****

CARTESIAN COORDINATES (ANGSTROEM)
---------------------------------
  C      4.114066   -1.450825   -2.363760
  C      4.455251   -1.508008   -0.888641
  O      3.279388   -1.547401   -0.062177
  P      2.294168   -0.310784    0.081230
  S      3.159080    1.451200    0.165717
  O      1.437859   -0.731011    1.348105
  C      1.776996   -0.296934    2.681639
  C      3.060441   -0.935025    3.169040
  S      0.849439   -0.602308   -1.433547
  C      0.124971    1.057440   -1.329286
  S     -0.759947    1.349917    0.218419
  P     -2.605882    0.381655   -0.292242
  S     -2.917536    0.083408   -2.197727
  O     -3.714946    1.316023    0.311301
  C     -3.722557    1.738371    1.700777
  C     -4.401681    3.089766    1.773550
  O     -2.702605   -0.862586    0.701575
  C     -1.805404   -1.983317    0.765246
  C     -1.920716   -2.890970   -0.442734
  H      3.430094   -2.254397   -2.625294
  H      3.641376   -0.498550   -2.601502
  H      5.023805   -1.546308   -2.947862
  H      5.053152   -0.637726   -0.599026
  H      4.986101   -2.426016   -0.633210
  H      1.860175    0.794597    2.678069
  H      0.918819   -0.599821    3.282793
  H      3.899661   -0.579769    2.572160
  H      3.226499   -0.663555    4.206815
  H      2.999452   -2.016507    3.080875
  H     -0.567917    1.148236   -2.166620
  H      0.919470    1.801479   -1.379113
  H     -4.266237    0.981215    2.268440
  H     -2.690007    1.791633    2.057974
  H     -3.839268    3.823027    1.202151
  H     -5.405239    3.022570    1.363528
  H     -4.455713    3.406909    2.809957
  H     -0.781208   -1.615564    0.879558
  H     -2.110010   -2.500411    1.677443
  H     -2.954705   -3.193311   -0.587793
  H     -1.579400   -2.379481   -1.340807
  H     -1.305438   -3.771227   -0.286601

 Total Charge           Charge          ....    0
 Multiplicity           Mult            ....    1
 Number of Electrons    NEL             ....  202
 Basis Dimension        Dim             ....  334

ORBITAL ENERGIES
----------------

  NO   OCC          E(Eh)            E(eV)
   0   2.0000     -88.046474     -2395.8664
   1   2.0000     -88.040533     -2395.7047
   2   2.0000     -87.996000     -2394.4929
   3   2.0000     -87.985055     -2394.1951
   4   2.0000     -76.432405     -2079.8315
   5   2.0000     -76.424528     -2079.6171
   6   2.0000     -18.799998      -511.5740
   7   2.0000     -18.796423      -511.4767
   8   2.0000     -18.791140      -511.3329
   9   2.0000     -18.787707      -511.2395
  10   2.0000      -9.959542      -271.0129
  11   2.0000      -9.958067      -270.9728
  12   2.0000      -9.956408      -270.9276
  13   2.0000      -9.952841      -270.8306
  14   2.0000      -9.946196      -270.6498
  15   2.0000      -9.889926      -269.1186
  16   2.0000      -9.888859      -269.0895
  17   2.0000      -9.888074      -269.0682
  18   2.0000      -9.873368      -268.6680
  19   2.0000      -7.691308      -209.2911
  20   2.0000      -7.685306      -209.1278
  21   2.0000      -7.640830      -207.9175
  22   2.0000      -7.630290      -207.6307
  23   2.0000      -6.430035      -174.9701
  24   2.0000      -6.421933      -174.7497
  25   2.0000      -5.719084      -155.6242
  26   2.0000      -5.715959      -155.5391
  27   2.0000      -5.713137      -155.4624
  28   2.0000      -5.709847      -155.3728
  29   2.0000      -5.708255      -155.3295
  30   2.0000      -5.702368      -155.1693
  31   2.0000      -5.669584      -154.2772
  32   2.0000      -5.661513      -154.0576
  33   2.0000      -5.661141      -154.0475
  34   2.0000      -5.659348      -153.9987
  35   2.0000      -5.650857      -153.7676
  36   2.0000      -5.650309      -153.7527
  37   2.0000      -4.652432      -126.5991
  38   2.0000      -4.651789      -126.5816
  39   2.0000      -4.650635      -126.5502
  40   2.0000      -4.644625      -126.3867
  41   2.0000      -4.643801      -126.3643
  42   2.0000      -4.642237      -126.3217
  43   2.0000      -0.993679       -27.0394
  44   2.0000      -0.986064       -26.8322
  45   2.0000      -0.952777       -25.9264
  46   2.0000      -0.940459       -25.5912
  47   2.0000      -0.765156       -20.8210
  48   2.0000      -0.724150       -19.7051
  49   2.0000      -0.713110       -19.4047
  50   2.0000      -0.692190       -18.8355
  51   2.0000      -0.685608       -18.6563
  52   2.0000      -0.676444       -18.4070
  53   2.0000      -0.653151       -17.7731
  54   2.0000      -0.640991       -17.4423
  55   2.0000      -0.606551       -16.5051
  56   2.0000      -0.583231       -15.8705
  57   2.0000      -0.577697       -15.7199
  58   2.0000      -0.573758       -15.6128
  59   2.0000      -0.564158       -15.3515
  60   2.0000      -0.507470       -13.8090
  61   2.0000      -0.497218       -13.5300
  62   2.0000      -0.479538       -13.0489
  63   2.0000      -0.472190       -12.8489
  64   2.0000      -0.461924       -12.5696
  65   2.0000      -0.447172       -12.1682
  66   2.0000      -0.445269       -12.1164
  67   2.0000      -0.435661       -11.8549
  68   2.0000      -0.428692       -11.6653
  69   2.0000      -0.418956       -11.4004
  70   2.0000      -0.404575       -11.0090
  71   2.0000      -0.400520       -10.8987
  72   2.0000      -0.397825       -10.8254
  73   2.0000      -0.390574       -10.6281
  74   2.0000      -0.386550       -10.5186
  75   2.0000      -0.377422       -10.2702
  76   2.0000      -0.364322        -9.9137
  77   2.0000      -0.358534        -9.7562
  78   2.0000      -0.358243        -9.7483
  79   2.0000      -0.353265        -9.6128
  80   2.0000      -0.348743        -9.4898
  81   2.0000      -0.343420        -9.3449
  82   2.0000      -0.341882        -9.3031
  83   2.0000      -0.338769        -9.2184
  84   2.0000      -0.332274        -9.0416
  85   2.0000      -0.323163        -8.7937
  86   2.0000      -0.316495        -8.6123
  87   2.0000      -0.301588        -8.2066
  88   2.0000      -0.296026        -8.0553
  89   2.0000      -0.292932        -7.9711
  90   2.0000      -0.286054        -7.7839
  91   2.0000      -0.279293        -7.6000
  92   2.0000      -0.274082        -7.4581
  93   2.0000      -0.269662        -7.3379
  94   2.0000      -0.257055        -6.9948
  95   2.0000      -0.236867        -6.4455
  96   2.0000      -0.219046        -5.9605
  97   2.0000      -0.216556        -5.8928
  98   2.0000      -0.208863        -5.6835
  99   2.0000      -0.204096        -5.5537
 100   2.0000      -0.198565        -5.4032
 101   0.0000      -0.047881        -1.3029
 102   0.0000      -0.029164        -0.7936
 103   0.0000      -0.006401        -0.1742
 104   0.0000      -0.000108        -0.0029
 105   0.0000       0.009615         0.2616

MULLIKEN ATOMIC CHARGES
-----------------------
   0 C :   -0.317143
   1 C :   -0.006015
   2 O :   -0.369522
   3 P :    0.612409
   4 S :   -0.332325
   5 O :   -0.356228
   6 C :    0.000474
   7 C :   -0.307221
   8 S :   -0.075334
   9 C :   -0.353234
  10 S :   -0.120663
  11 P :    0.605878
  12 S :   -0.305670
  13 O :   -0.359216
  14 C :   -0.017655
  15 C :   -0.278298
  16 O :   -0.381855
  17 C :   -0.039376
  18 C :   -0.305039
  19 H :    0.120643
  20 H :    0.128965
  21 H :    0.115699
  22 H :    0.112309
  23 H :    0.107473
  24 H :    0.113617
  25 H :    0.102995
  26 H :    0.122953
  27 H :    0.113716
  28 H :    0.117193
  29 H :    0.195540
  30 H :    0.192799
  31 H :    0.111599
  32 H :    0.108163
  33 H :    0.122242
  34 H :    0.124860
  35 H :    0.110512
  36 H :    0.137597
  37 H :    0.096525
  38 H :    0.113655
  39 H :    0.133379
  40 H :    0.103598
Sum of atomic charges:   -0.0000000

LOEWDIN ATOMIC CHARGES
----------------------
   0 C :   -0.369213
   1 C :   -0.118748
   2 O :   -0.241716
   3 P :    0.573575
   4 S :   -0.320048
   5 O :   -0.236025
   6 C :   -0.116896
   7 C :   -0.364686
   8 S :    0.105701
   9 C :   -0.485509
  10 S :    0.060196
  11 P :    0.566849
  12 S :   -0.295477
  13 O :   -0.237792
  14 C :   -0.112105
  15 C :   -0.350179
  16 O :   -0.249080
  17 C :   -0.124773
  18 C :   -0.367974
  19 H :    0.125774
  20 H :    0.122188
  21 H :    0.132468
  22 H :    0.111166
  23 H :    0.119834
  24 H :    0.111387
  25 H :    0.117485
  26 H :    0.122636
  27 H :    0.131187
  28 H :    0.126676
  29 H :    0.128810
  30 H :    0.129685
  31 H :    0.117917
  32 H :    0.103852
  33 H :    0.130514
  34 H :    0.131650
  35 H :    0.130043
  36 H :    0.106333
  37 H :    0.115370
  38 H :    0.125393
  39 H :    0.116048
  40 H :    0.127485

  Mayer bond orders larger than 0.100000
B(  0-C ,  1-C ) :   1.1663 B(  0-C , 19-H ) :   0.9445 B(  0-C , 20-H ) :   0.9357
B(  0-C , 21-H ) :   0.9375 B(  1-C ,  2-O ) :   0.9054 B(  1-C , 22-H ) :   0.9165
B(  1-C , 23-H ) :   0.9337 B(  2-O ,  3-P ) :   1.1150 B(  3-P ,  4-S ) :   1.5904
B(  3-P ,  5-O ) :   1.1147 B(  3-P ,  8-S ) :   0.9634 B(  4-S ,  8-S ) :   0.1079
B(  5-O ,  6-C ) :   0.9006 B(  6-C ,  7-C ) :   1.1642 B(  6-C , 24-H ) :   0.9172
B(  6-C , 25-H ) :   0.9340 B(  7-C , 26-H ) :   0.9364 B(  7-C , 27-H ) :   0.9391
B(  7-C , 28-H ) :   0.9458 B(  8-S ,  9-C ) :   0.9989 B(  9-C , 10-S ) :   1.0172
B(  9-C , 29-H ) :   0.8641 B(  9-C , 30-H ) :   0.8765 B( 10-S , 11-P ) :   0.9317
B( 10-S , 12-S ) :   0.1121 B( 11-P , 12-S ) :   1.6544 B( 11-P , 13-O ) :   1.1426
B( 11-P , 16-O ) :   1.0842 B( 13-O , 14-C ) :   0.8899 B( 14-C , 15-C ) :   1.1633
B( 14-C , 31-H ) :   0.9314 B( 14-C , 32-H ) :   0.9152 B( 15-C , 33-H ) :   0.9493
B( 15-C , 34-H ) :   0.9486 B( 15-C , 35-H ) :   0.9407 B( 16-O , 17-C ) :   0.9108
B( 17-C , 18-C ) :   1.1664 B( 17-C , 36-H ) :   0.8981 B( 17-C , 37-H ) :   0.9346
B( 18-C , 38-H ) :   0.9452 B( 18-C , 39-H ) :   0.9292 B( 18-C , 40-H ) :   0.9381

Dispersion correction           -0.064933832
FINAL SINGLE POINT ENERGY     -2929.524142073409

DIPOLE MOMENT
-------------

Method             : SCF
Type of density    : Electron Density
Multiplicity       :   1
Irrep              :   0
Energy             : -2929.6442202380826529 Eh
Relativity type    :
Basis              : AO
                                X                 Y                 Z
Electronic contribution:     -5.129498342       6.954613306     -10.928307411
Nuclear contribution   :      5.876032998      -7.580146964      12.430193878
                        -----------------------------------------
Total Dipole Moment    :      0.746534656      -0.625533658       1.501886467
                        -----------------------------------------
Magnitude (a.u.)       :      1.790047293
Magnitude (Debye)      :      4.549938629

Rotational constants in cm-1:             0.012379             0.004793             0.004419
Rotational constants in MHz :           371.104103           143.676508           132.468612

                             ****ORCA TERMINATED NORMALLY****
TOTAL RUN TIME: 0 days 0 hours 0 minutes 21 seconds 167 msec
