                         Program Version 6.0.1  -  RELEASE   -
|  1> ! pbe def2-sv(p) def2/J RI DEFGRID1 loosescf d4 GCP(DFT/SV(P)) printgap
|  2> %output
|  3>     printlevel normal
|  4> end
|  5> * xyz 0 1
|  6> C 2.7953989234 -3.9682365526 0.0046511903
|  7> C 2.7444946706 -2.5059422613 0.398218234
|  8> O 2.3034163618 -1.7545081761 -0.7498305717
|  9> C 2.0866639167 -0.4696994615 -0.6104268369
| 10> O 2.2272880134 0.1505753291 0.4265244547
| 11> C 1.6496008347 0.1898188805 -1.9045273457
| 12> C 0.3753117913 1.0079071641 -1.6744740478
| 13> H 0.2357322069 1.7183175189 -2.4922338197
| 14> C 0.4387423988 1.7588066028 -0.3592584114
| 15> O -0.3337664464 1.518343432 0.5568208909
| 16> O 1.3307386491 2.6980027592 -0.3557010749
| 17> C 1.5484951668 3.4266038764 0.873302788
| 18> C 2.4827831625 4.5795038387 0.5685349621
| 19> S -1.1228863898 -0.0343564297 -1.6726415743
| 20> P -1.582143582 -0.4763186126 0.3484482746
| 21> S -0.4390359585 -1.1815647473 1.7737091132
| 22> O -2.6951004443 0.5172440936 0.9328977365
| 23> C -3.7278138476 1.0702470724 0.1014296064
| 24> O -2.4961762119 -1.6944545469 -0.2481221797
| 25> C -3.1830253058 -2.5955920376 0.6165598205
| 26> H 1.8047162671 -4.3068896243 -0.2837621811
| 27> H 3.4749141088 -4.1057882653 -0.8310584182
| 28> H 3.1389895283 -4.5527793644 0.8512280387
| 29> H 3.7269630807 -2.1264745807 0.6952323552
| 30> H 2.0414295072 -2.3254533215 1.218710541
| 31> H 1.4814105785 -0.5664932076 -2.6692974582
| 32> H 2.4496820646 0.8648909644 -2.2153418512
| 33> H 0.5793630511 3.7654999821 1.2515743629
| 34> H 1.9776777286 2.7239481341 1.5944410035
| 35> H 3.4235054418 4.2013375547 0.1810615144
| 36> H 2.0354634203 5.2399072027 -0.1680398685
| 37> H 2.6700992481 5.1347482535 1.4813371108
| 38> H -3.3656089114 1.9885307969 -0.3599329009
| 39> H -4.5590613059 1.2828296382 0.769753762
| 40> H -4.0235563575 0.3579060353 -0.6704610959
| 41> H -3.9929674313 -2.0840811121 1.1389026297
| 42> H -2.4883702652 -3.0127589173 1.348719023
| 43> H -3.5751289914 -3.3786709072 -0.0275999771
| 44> *
| 45>
| 46>                          ****END OF INPUT****

CARTESIAN COORDINATES (ANGSTROEM)
---------------------------------
  C      2.795399   -3.968237    0.004651
  C      2.744495   -2.505942    0.398218
  O      2.303416   -1.754508   -0.749831
  C      2.086664   -0.469699   -0.610427
  O      2.227288    0.150575    0.426524
  C      1.649601    0.189819   -1.904527
  C      0.375312    1.007907   -1.674474
  H      0.235732    1.718318   -2.492234
  C      0.438742    1.758807   -0.359258
  O     -0.333766    1.518343    0.556821
  O      1.330739    2.698003   -0.355701
  C      1.548495    3.426604    0.873303
  C      2.482783    4.579504    0.568535
  S     -1.122886   -0.034356   -1.672642
  P     -1.582144   -0.476319    0.348448
  S     -0.439036   -1.181565    1.773709
  O     -2.695100    0.517244    0.932898
  C     -3.727814    1.070247    0.101430
  O     -2.496176   -1.694455   -0.248122
  C     -3.183025   -2.595592    0.616560
  H      1.804716   -4.306890   -0.283762
  H      3.474914   -4.105788   -0.831058
  H      3.138990   -4.552779    0.851228
  H      3.726963   -2.126475    0.695232
  H      2.041430   -2.325453    1.218711
  H      1.481411   -0.566493   -2.669297
  H      2.449682    0.864891   -2.215342
  H      0.579363    3.765500    1.251574
  H      1.977678    2.723948    1.594441
  H      3.423505    4.201338    0.181062
  H      2.035463    5.239907   -0.168040
  H      2.670099    5.134748    1.481337
  H     -3.365609    1.988531   -0.359933
  H     -4.559061    1.282830    0.769754
  H     -4.023556    0.357906   -0.670461
  H     -3.992967   -2.084081    1.138903
  H     -2.488370   -3.012759    1.348719
  H     -3.575129   -3.378671   -0.027600

 Total Charge           Charge          ....    0
 Multiplicity           Mult            ....    1
 Number of Electrons    NEL             ....  174
 Basis Dimension        Dim             ....  316

ORBITAL ENERGIES
----------------

  NO   OCC          E(Eh)            E(eV)
   0   2.0000     -88.033428     -2395.5114
   1   2.0000     -87.958474     -2393.4718
   2   2.0000     -76.411741     -2079.2692
   3   2.0000     -18.818150      -512.0679
   4   2.0000     -18.803682      -511.6742
   5   2.0000     -18.771228      -510.7911
   6   2.0000     -18.762812      -510.5621
   7   2.0000     -18.757786      -510.4253
   8   2.0000     -18.738229      -509.8931
   9   2.0000     -10.028383      -272.8862
  10   2.0000     -10.011194      -272.4184
  11   2.0000      -9.954070      -270.8640
  12   2.0000      -9.952189      -270.8128
  13   2.0000      -9.938087      -270.4291
  14   2.0000      -9.936638      -270.3897
  15   2.0000      -9.924090      -270.0482
  16   2.0000      -9.916682      -269.8466
  17   2.0000      -9.893187      -269.2073
  18   2.0000      -9.881306      -268.8840
  19   2.0000      -7.678388      -208.9395
  20   2.0000      -7.603839      -206.9110
  21   2.0000      -6.406801      -174.3379
  22   2.0000      -5.706726      -155.2879
  23   2.0000      -5.702625      -155.1763
  24   2.0000      -5.695143      -154.9727
  25   2.0000      -5.633218      -153.2877
  26   2.0000      -5.624649      -153.0545
  27   2.0000      -5.623203      -153.0151
  28   2.0000      -4.630048      -125.9900
  29   2.0000      -4.628873      -125.9580
  30   2.0000      -4.626992      -125.9069
  31   2.0000      -1.030525       -28.0420
  32   2.0000      -1.010392       -27.4942
  33   2.0000      -0.960257       -26.1299
  34   2.0000      -0.934304       -25.4237
  35   2.0000      -0.915694       -24.9173
  36   2.0000      -0.914603       -24.8876
  37   2.0000      -0.767045       -20.8724
  38   2.0000      -0.715639       -19.4735
  39   2.0000      -0.707259       -19.2455
  40   2.0000      -0.684870       -18.6363
  41   2.0000      -0.653447       -17.7812
  42   2.0000      -0.627338       -17.0707
  43   2.0000      -0.612483       -16.6665
  44   2.0000      -0.600030       -16.3276
  45   2.0000      -0.585263       -15.9258
  46   2.0000      -0.556839       -15.1524
  47   2.0000      -0.517769       -14.0892
  48   2.0000      -0.505615       -13.7585
  49   2.0000      -0.500809       -13.6277
  50   2.0000      -0.488167       -13.2837
  51   2.0000      -0.459912       -12.5148
  52   2.0000      -0.458251       -12.4697
  53   2.0000      -0.451079       -12.2745
  54   2.0000      -0.444154       -12.0861
  55   2.0000      -0.424366       -11.5476
  56   2.0000      -0.417833       -11.3698
  57   2.0000      -0.415650       -11.3104
  58   2.0000      -0.409522       -11.1437
  59   2.0000      -0.408016       -11.1027
  60   2.0000      -0.397980       -10.8296
  61   2.0000      -0.392376       -10.6771
  62   2.0000      -0.384734       -10.4691
  63   2.0000      -0.372654       -10.1404
  64   2.0000      -0.367063        -9.9883
  65   2.0000      -0.363111        -9.8808
  66   2.0000      -0.359696        -9.7878
  67   2.0000      -0.353083        -9.6079
  68   2.0000      -0.349156        -9.5010
  69   2.0000      -0.340112        -9.2549
  70   2.0000      -0.329202        -8.9580
  71   2.0000      -0.325374        -8.8539
  72   2.0000      -0.316828        -8.6213
  73   2.0000      -0.310559        -8.4507
  74   2.0000      -0.306739        -8.3468
  75   2.0000      -0.296960        -8.0807
  76   2.0000      -0.292327        -7.9546
  77   2.0000      -0.275846        -7.5061
  78   2.0000      -0.266436        -7.2501
  79   2.0000      -0.257745        -7.0136
  80   2.0000      -0.252377        -6.8675
  81   2.0000      -0.249318        -6.7843
  82   2.0000      -0.235336        -6.4038
  83   2.0000      -0.224773        -6.1164
  84   2.0000      -0.214123        -5.8266
  85   2.0000      -0.179820        -4.8932
  86   2.0000      -0.170366        -4.6359
  87   0.0000      -0.040003        -1.0885
  88   0.0000      -0.033688        -0.9167
  89   0.0000      -0.025393        -0.6910
  90   0.0000       0.007116         0.1936
  91   0.0000       0.035773         0.9734

MULLIKEN ATOMIC CHARGES
-----------------------
   0 C :   -0.274178
   1 C :   -0.041817
   2 O :   -0.215246
   3 C :    0.097578
   4 O :   -0.203787
   5 C :   -0.024552
   6 C :   -0.296723
   7 H :    0.144328
   8 C :    0.226232
   9 O :   -0.203620
  10 O :   -0.216620
  11 C :   -0.030374
  12 C :   -0.277555
  13 S :   -0.082928
  14 P :    0.646441
  15 S :   -0.328779
  16 O :   -0.381621
  17 C :   -0.101073
  18 O :   -0.420549
  19 C :   -0.096881
  20 H :    0.121953
  21 H :    0.108467
  22 H :    0.110297
  23 H :    0.097080
  24 H :    0.137745
  25 H :    0.117861
  26 H :    0.123052
  27 H :    0.114375
  28 H :    0.130841
  29 H :    0.119096
  30 H :    0.113355
  31 H :    0.116283
  32 H :    0.108961
  33 H :    0.122746
  34 H :    0.115040
  35 H :    0.098830
  36 H :    0.112275
  37 H :    0.113468
Sum of atomic charges:    0.0000000

LOEWDIN ATOMIC CHARGES
----------------------
   0 C :   -0.350060
   1 C :   -0.111359
   2 O :   -0.043084
   3 C :    0.027789
   4 O :   -0.155355
   5 C :   -0.246671
   6 C :   -0.262380
   7 H :    0.146422
   8 C :    0.025165
   9 O :   -0.144217
  10 O :   -0.034426
  11 C :   -0.101431
  12 C :   -0.350621
  13 S :    0.113956
  14 P :    0.585434
  15 S :   -0.313401
  16 O :   -0.255842
  17 C :   -0.214351
  18 O :   -0.295474
  19 C :   -0.220608
  20 H :    0.130155
  21 H :    0.122968
  22 H :    0.130671
  23 H :    0.113359
  24 H :    0.119414
  25 H :    0.137164
  26 H :    0.147197
  27 H :    0.120454
  28 H :    0.130191
  29 H :    0.128676
  30 H :    0.125632
  31 H :    0.133760
  32 H :    0.109067
  33 H :    0.120611
  34 H :    0.106864
  35 H :    0.103409
  36 H :    0.105222
  37 H :    0.115701

  Mayer bond orders larger than 0.100000
B(  0-C ,  1-C ) :   1.1575 B(  0-C , 20-H ) :   0.9488 B(  0-C , 21-H ) :   0.9503
B(  0-C , 22-H ) :   0.9440 B(  1-C ,  2-O ) :   0.8933 B(  1-C , 23-H ) :   0.9317
B(  1-C , 24-H ) :   0.9094 B(  2-O ,  3-C ) :   1.2742 B(  2-O ,  4-O ) :   0.1017
B(  3-C ,  4-O ) :   1.9560 B(  3-C ,  5-C ) :   1.0062 B(  4-O ,  8-C ) :   0.1138
B(  5-C ,  6-C ) :   1.0199 B(  5-C , 25-H ) :   0.9041 B(  5-C , 26-H ) :   0.8765
B(  6-C ,  7-H ) :   0.8765 B(  6-C ,  8-C ) :   0.9153 B(  6-C , 13-S ) :   1.0408
B(  8-C ,  9-O ) :   1.8719 B(  8-C , 10-O ) :   1.2804 B(  9-O , 14-P ) :   0.1831
B( 10-O , 11-C ) :   0.8872 B( 11-C , 12-C ) :   1.1551 B( 11-C , 27-H ) :   0.9293
B( 11-C , 28-H ) :   0.9259 B( 12-C , 29-H ) :   0.9487 B( 12-C , 30-H ) :   0.9511
B( 12-C , 31-H ) :   0.9429 B( 13-S , 14-P ) :   0.9275 B( 13-S , 15-S ) :   0.1062
B( 14-P , 15-S ) :   1.6091 B( 14-P , 16-O ) :   1.0671 B( 14-P , 18-O ) :   0.9913
B( 16-O , 17-C ) :   0.9377 B( 17-C , 32-H ) :   0.9519 B( 17-C , 33-H ) :   0.9577
B( 17-C , 34-H ) :   0.9380 B( 18-O , 19-C ) :   0.9511 B( 19-C , 35-H ) :   0.9498
B( 19-C , 36-H ) :   0.9320 B( 19-C , 37-H ) :   0.9592

Dispersion correction           -0.052893779
FINAL SINGLE POINT ENERGY     -1979.003901420736

DIPOLE MOMENT
-------------

Method             : SCF
Type of density    : Electron Density
Multiplicity       :   1
Irrep              :   0
Energy             : -1979.1337194264178834 Eh
Relativity type    :
Basis              : AO
                                X                 Y                 Z
Electronic contribution:     -7.712554763      -0.385552250      -1.487990108
Nuclear contribution   :      8.064125893       1.249967086       0.457016968
                        -----------------------------------------
Total Dipole Moment    :      0.351571130       0.864414837      -1.030973140
                        -----------------------------------------
Magnitude (a.u.)       :      1.390582930
Magnitude (Debye)      :      3.534580911

Rotational constants in cm-1:             0.010827             0.009210             0.006303
Rotational constants in MHz :           324.598246           276.110124           188.959144

                             ****ORCA TERMINATED NORMALLY****
TOTAL RUN TIME: 0 days 0 hours 0 minutes 45 seconds 357 msec
