                         Program Version 6.0.0  -   RELEASE  -
|  1> ! pbe def2-sv(p) def2/J RI DEFGRID1 loosescf d4 GCP(DFT/SV(P)) printgap
|  2> %output
|  3>     printlevel normal
|  4> end
|  5> * xyz 0 1
|  6> C 4.4117846446 -1.4225189375 -2.2040604597
|  7> C 4.2809818498 -1.2550254267 -0.7033705338
|  8> O 3.6919014785 0.0347801351 -0.3984150854
|  9> P 2.2362150062 0.2183755379 0.1750948044
| 10> S 1.8409938426 2.1250444646 0.3440468643
| 11> O 2.3338671591 -0.6646454505 1.4978152549
| 12> C 1.2659559789 -0.8502379401 2.4420846692
| 13> C 1.2608891698 0.2496518389 3.4855667326
| 14> S 0.95653883 -0.9292490044 -1.0892904095
| 15> C 0.0708271392 0.4176821122 -1.9252242132
| 16> S -1.7288264623 0.1867193217 -2.0015802779
| 17> P -2.2351386723 0.0198633428 0.0575853205
| 18> S -4.1382833171 0.2257260023 0.4644121836
| 19> O -1.2304265457 0.9937872178 0.8145117438
| 20> C -1.6498094275 2.3154545005 1.201081806
| 21> C -1.7786378137 3.2468727256 0.0130179097
| 22> O -1.5875401831 -1.3396257079 0.5738023003
| 23> C -2.2788824813 -2.5968011802 0.4663793535
| 24> C -2.3067809957 -3.1119596011 -0.9591660216
| 25> H 3.4305301976 -1.4768156081 -2.6687192122
| 26> H 4.9559560363 -0.5814768271 -2.6246063372
| 27> H 4.9535738025 -2.3396401312 -2.4121766211
| 28> H 5.2579276782 -1.2394547917 -0.2178783448
| 29> H 3.6666199093 -2.0444507882 -0.2654766787
| 30> H 0.3117318154 -0.8882116747 1.9112430383
| 31> H 1.4721670498 -1.8227030895 2.8940379101
| 32> H 2.2177024454 0.2844662722 3.9997045333
| 33> H 1.0842252469 1.2137109332 3.013449074
| 34> H 0.4705975551 0.0585121411 4.2044644339
| 35> H 0.3828418673 0.4544511756 -2.966097569
| 36> H 0.3090032122 1.3502933423 -1.4073693525
| 37> H -2.6034583735 2.2321703614 1.7311186656
| 38> H -0.8689234541 2.6541477766 1.8832616435
| 39> H -0.8210061888 3.3507606332 -0.4919482648
| 40> H -2.5199367456 2.8606056208 -0.6864063137
| 41> H -2.0989439843 4.2234169714 0.3614324833
| 42> H -1.7147763834 -3.262494764 1.1212447908
| 43> H -3.294682075 -2.4673468792 0.854154991
| 44> H -1.3006216075 -3.1275975018 -1.3722482099
| 45> H -2.7154179473 -4.1172928464 -0.9669474007
| 46> H -2.9330605507 -2.4715334954 -1.5788153787
| 47> *
| 48>
| 49>                          ****END OF INPUT****

CARTESIAN COORDINATES (ANGSTROEM)
---------------------------------
  C      4.411785   -1.422519   -2.204060
  C      4.280982   -1.255025   -0.703371
  O      3.691901    0.034780   -0.398415
  P      2.236215    0.218376    0.175095
  S      1.840994    2.125044    0.344047
  O      2.333867   -0.664645    1.497815
  C      1.265956   -0.850238    2.442085
  C      1.260889    0.249652    3.485567
  S      0.956539   -0.929249   -1.089290
  C      0.070827    0.417682   -1.925224
  S     -1.728826    0.186719   -2.001580
  P     -2.235139    0.019863    0.057585
  S     -4.138283    0.225726    0.464412
  O     -1.230427    0.993787    0.814512
  C     -1.649809    2.315455    1.201082
  C     -1.778638    3.246873    0.013018
  O     -1.587540   -1.339626    0.573802
  C     -2.278882   -2.596801    0.466379
  C     -2.306781   -3.111960   -0.959166
  H      3.430530   -1.476816   -2.668719
  H      4.955956   -0.581477   -2.624606
  H      4.953574   -2.339640   -2.412177
  H      5.257928   -1.239455   -0.217878
  H      3.666620   -2.044451   -0.265477
  H      0.311732   -0.888212    1.911243
  H      1.472167   -1.822703    2.894038
  H      2.217702    0.284466    3.999705
  H      1.084225    1.213711    3.013449
  H      0.470598    0.058512    4.204464
  H      0.382842    0.454451   -2.966098
  H      0.309003    1.350293   -1.407369
  H     -2.603458    2.232170    1.731119
  H     -0.868923    2.654148    1.883262
  H     -0.821006    3.350761   -0.491948
  H     -2.519937    2.860606   -0.686406
  H     -2.098944    4.223417    0.361432
  H     -1.714776   -3.262495    1.121245
  H     -3.294682   -2.467347    0.854155
  H     -1.300622   -3.127598   -1.372248
  H     -2.715418   -4.117293   -0.966947
  H     -2.933061   -2.471533   -1.578815

 Total Charge           Charge          ....    0
 Multiplicity           Mult            ....    1
 Number of Electrons    NEL             ....  202
 Basis Dimension        Dim             ....  334

ORBITAL ENERGIES
----------------

  NO   OCC          E(Eh)            E(eV)
   0   2.0000     -88.047763     -2395.9014
   1   2.0000     -88.047222     -2395.8867
   2   2.0000     -87.991863     -2394.3803
   3   2.0000     -87.990808     -2394.3516
   4   2.0000     -76.430374     -2079.7762
   5   2.0000     -76.428404     -2079.7226
   6   2.0000     -18.795998      -511.4651
   7   2.0000     -18.792947      -511.3821
   8   2.0000     -18.791817      -511.3513
   9   2.0000     -18.790916      -511.3268
  10   2.0000      -9.960248      -271.0321
  11   2.0000      -9.958547      -270.9858
  12   2.0000      -9.953801      -270.8567
  13   2.0000      -9.949738      -270.7461
  14   2.0000      -9.947174      -270.6764
  15   2.0000      -9.889532      -269.1078
  16   2.0000      -9.884817      -268.9795
  17   2.0000      -9.879700      -268.8403
  18   2.0000      -9.877745      -268.7871
  19   2.0000      -7.692296      -209.3180
  20   2.0000      -7.692048      -209.3113
  21   2.0000      -7.636972      -207.8126
  22   2.0000      -7.635923      -207.7840
  23   2.0000      -6.427909      -174.9123
  24   2.0000      -6.425916      -174.8581
  25   2.0000      -5.720322      -155.6579
  26   2.0000      -5.720149      -155.6532
  27   2.0000      -5.716845      -155.5633
  28   2.0000      -5.716210      -155.5460
  29   2.0000      -5.709280      -155.3574
  30   2.0000      -5.709046      -155.3510
  31   2.0000      -5.665926      -154.1777
  32   2.0000      -5.664905      -154.1499
  33   2.0000      -5.657595      -153.9510
  34   2.0000      -5.656986      -153.9344
  35   2.0000      -5.656552      -153.9226
  36   2.0000      -5.656023      -153.9082
  37   2.0000      -4.650548      -126.5478
  38   2.0000      -4.649717      -126.5252
  39   2.0000      -4.648317      -126.4871
  40   2.0000      -4.648222      -126.4845
  41   2.0000      -4.648080      -126.4807
  42   2.0000      -4.646219      -126.4300
  43   2.0000      -0.990463       -26.9519
  44   2.0000      -0.988540       -26.8995
  45   2.0000      -0.945854       -25.7380
  46   2.0000      -0.945746       -25.7350
  47   2.0000      -0.763814       -20.7844
  48   2.0000      -0.723447       -19.6860
  49   2.0000      -0.711595       -19.3635
  50   2.0000      -0.689387       -18.7592
  51   2.0000      -0.683097       -18.5880
  52   2.0000      -0.679724       -18.4962
  53   2.0000      -0.656456       -17.8631
  54   2.0000      -0.641478       -17.4555
  55   2.0000      -0.600824       -16.3493
  56   2.0000      -0.589565       -16.0429
  57   2.0000      -0.577420       -15.7124
  58   2.0000      -0.567646       -15.4464
  59   2.0000      -0.566355       -15.4113
  60   2.0000      -0.508753       -13.8439
  61   2.0000      -0.494169       -13.4470
  62   2.0000      -0.479384       -13.0447
  63   2.0000      -0.467545       -12.7226
  64   2.0000      -0.453787       -12.3482
  65   2.0000      -0.450581       -12.2609
  66   2.0000      -0.443794       -12.0762
  67   2.0000      -0.440135       -11.9767
  68   2.0000      -0.427275       -11.6267
  69   2.0000      -0.421465       -11.4686
  70   2.0000      -0.410040       -11.1577
  71   2.0000      -0.399386       -10.8679
  72   2.0000      -0.396692       -10.7945
  73   2.0000      -0.391663       -10.6577
  74   2.0000      -0.387752       -10.5513
  75   2.0000      -0.372519       -10.1367
  76   2.0000      -0.365132        -9.9357
  77   2.0000      -0.359348        -9.7784
  78   2.0000      -0.353408        -9.6167
  79   2.0000      -0.351636        -9.5685
  80   2.0000      -0.349964        -9.5230
  81   2.0000      -0.346570        -9.4306
  82   2.0000      -0.337138        -9.1740
  83   2.0000      -0.335043        -9.1170
  84   2.0000      -0.330211        -8.9855
  85   2.0000      -0.323798        -8.8110
  86   2.0000      -0.317741        -8.6462
  87   2.0000      -0.302694        -8.2367
  88   2.0000      -0.299442        -8.1482
  89   2.0000      -0.295394        -8.0381
  90   2.0000      -0.285346        -7.7647
  91   2.0000      -0.278054        -7.5662
  92   2.0000      -0.270088        -7.3495
  93   2.0000      -0.265157        -7.2153
  94   2.0000      -0.261918        -7.1272
  95   2.0000      -0.231497        -6.2994
  96   2.0000      -0.221209        -6.0194
  97   2.0000      -0.215234        -5.8568
  98   2.0000      -0.209560        -5.7024
  99   2.0000      -0.204161        -5.5555
 100   2.0000      -0.203594        -5.5401
 101   0.0000      -0.044583        -1.2132
 102   0.0000      -0.035039        -0.9535
 103   0.0000      -0.026609        -0.7241
 104   0.0000      -0.003884        -0.1057
 105   0.0000       0.010845         0.2951

MULLIKEN ATOMIC CHARGES
-----------------------
   0 C :   -0.285882
   1 C :   -0.011684
   2 O :   -0.357153
   3 P :    0.613111
   4 S :   -0.306302
   5 O :   -0.379599
   6 C :   -0.043648
   7 C :   -0.304979
   8 S :   -0.119039
   9 C :   -0.349480
  10 S :   -0.092460
  11 P :    0.605722
  12 S :   -0.315437
  13 O :   -0.369151
  14 C :   -0.005353
  15 C :   -0.330561
  16 O :   -0.357164
  17 C :   -0.002129
  18 C :   -0.315443
  19 H :    0.116551
  20 H :    0.121353
  21 H :    0.109604
  22 H :    0.113397
  23 H :    0.103398
  24 H :    0.146291
  25 H :    0.098367
  26 H :    0.110969
  27 H :    0.136859
  28 H :    0.108351
  29 H :    0.181078
  30 H :    0.209809
  31 H :    0.112600
  32 H :    0.115204
  33 H :    0.135258
  34 H :    0.124870
  35 H :    0.111093
  36 H :    0.101443
  37 H :    0.112658
  38 H :    0.118983
  39 H :    0.111955
  40 H :    0.126540
Sum of atomic charges:    0.0000000

LOEWDIN ATOMIC CHARGES
----------------------
   0 C :   -0.359675
   1 C :   -0.112639
   2 O :   -0.239155
   3 P :    0.570317
   4 S :   -0.281911
   5 O :   -0.244572
   6 C :   -0.123933
   7 C :   -0.362390
   8 S :    0.072986
   9 C :   -0.481275
  10 S :    0.086454
  11 P :    0.569643
  12 S :   -0.312990
  13 O :   -0.237173
  14 C :   -0.122955
  15 C :   -0.370085
  16 O :   -0.236024
  17 C :   -0.119286
  18 C :   -0.369324
  19 H :    0.119557
  20 H :    0.129847
  21 H :    0.129579
  22 H :    0.122956
  23 H :    0.106890
  24 H :    0.113725
  25 H :    0.115297
  26 H :    0.124388
  27 H :    0.123391
  28 H :    0.129531
  29 H :    0.137109
  30 H :    0.120967
  31 H :    0.109041
  32 H :    0.117449
  33 H :    0.123298
  34 H :    0.120230
  35 H :    0.131733
  36 H :    0.116883
  37 H :    0.110004
  38 H :    0.121248
  39 H :    0.130082
  40 H :    0.120781

  Mayer bond orders larger than 0.100000
B(  0-C ,  1-C ) :   1.1629 B(  0-C , 19-H ) :   0.9397 B(  0-C , 20-H ) :   0.9462
B(  0-C , 21-H ) :   0.9402 B(  1-C ,  2-O ) :   0.8906 B(  1-C , 22-H ) :   0.9344
B(  1-C , 23-H ) :   0.9185 B(  2-O ,  3-P ) :   1.1388 B(  3-P ,  4-S ) :   1.6296
B(  3-P ,  5-O ) :   1.1034 B(  3-P ,  8-S ) :   0.9457 B(  4-S ,  8-S ) :   0.1180
B(  4-S , 30-H ) :   0.1092 B(  5-O ,  6-C ) :   0.8974 B(  6-C ,  7-C ) :   1.1693
B(  6-C , 24-H ) :   0.8944 B(  6-C , 25-H ) :   0.9348 B(  7-C , 26-H ) :   0.9464
B(  7-C , 27-H ) :   0.9300 B(  7-C , 28-H ) :   0.9399 B(  8-S ,  9-C ) :   1.0060
B(  9-C , 10-S ) :   0.9923 B(  9-C , 29-H ) :   0.9085 B(  9-C , 30-H ) :   0.8422
B( 10-S , 11-P ) :   0.9625 B( 11-P , 12-S ) :   1.6470 B( 11-P , 13-O ) :   1.0967
B( 11-P , 16-O ) :   1.0749 B( 13-O , 14-C ) :   0.8994 B( 14-C , 15-C ) :   1.1691
B( 14-C , 31-H ) :   0.9160 B( 14-C , 32-H ) :   0.9196 B( 15-C , 33-H ) :   0.9338
B( 15-C , 34-H ) :   0.9348 B( 15-C , 35-H ) :   0.9377 B( 16-O , 17-C ) :   0.9136
B( 17-C , 18-C ) :   1.1635 B( 17-C , 36-H ) :   0.9336 B( 17-C , 37-H ) :   0.9142
B( 18-C , 38-H ) :   0.9426 B( 18-C , 39-H ) :   0.9382 B( 18-C , 40-H ) :   0.9383

Dispersion correction           -0.067801318
FINAL SINGLE POINT ENERGY     -2929.520088028648

DIPOLE MOMENT
-------------

Method             : SCF
Type of density    : Electron Density
Multiplicity       :   1
Irrep              :   0
Energy             : -2929.6399561430366703 Eh
Relativity type    :
Basis              : AO
                                X                 Y                 Z
Electronic contribution:     -6.362348993       5.737177559      -3.920183881
Nuclear contribution   :      7.304957414      -6.987882959       3.943619278
                        -----------------------------------------
Total Dipole Moment    :      0.942608421      -1.250705400       0.023435397
                        -----------------------------------------
Magnitude (a.u.)       :      1.566308989
Magnitude (Debye)      :      3.981241056

Rotational constants in cm-1:             0.011402             0.005775             0.005272
Rotational constants in MHz :           341.811786           173.139008           158.048362

                             ****ORCA TERMINATED NORMALLY****
TOTAL RUN TIME: 0 days 0 hours 0 minutes 22 seconds 267 msec
