                         Program Version 6.0.0  -   RELEASE  -
|  1> ! pbe def2-sv(p) def2/J RI DEFGRID1 loosescf d4 GCP(DFT/SV(P)) printgap
|  2> %output
|  3>     printlevel normal
|  4> end
|  5> * xyz 0 1
|  6> C 5.4013027208 0.523836567 -0.3533237281
|  7> C 4.1390665425 1.1449651347 -0.919563353
|  8> O 3.0977614442 0.1577477008 -1.070767769
|  9> P 2.0192633075 -0.1299410986 0.0579458883
| 10> S 2.6872891883 -0.6044456325 1.8428537616
| 11> O 1.1116841186 -1.2106277895 -0.6507350231
| 12> C 1.2621504031 -2.6242507909 -0.4178369237
| 13> C 2.5762663985 -3.1389766126 -0.9638720112
| 14> S 0.7910760405 1.5839206419 -0.0291259389
| 15> C -0.0542568742 1.3180779311 1.552810202
| 16> S -1.0573027247 -0.1950700399 1.5901394322
| 17> P -2.3053438728 0.1571453873 -0.0900451056
| 18> S -1.7370563255 -0.316325819 -1.9100580365
| 19> O -2.6599767699 1.674599305 0.1680124666
| 20> C -2.9745150459 2.6218140481 -0.8782305406
| 21> C -2.1265678255 3.8640183577 -0.6918452425
| 22> O -3.6646725553 -0.560194783 0.3294764703
| 23> C -3.9339370012 -1.9338757361 0.0097004044
| 24> C -3.037102725 -2.8738975685 0.7898609445
| 25> H 6.1798754226 1.2783756835 -0.3067464972
| 26> H 5.217950889 0.1415554423 0.6484526398
| 27> H 5.7315327907 -0.2946670679 -0.9868729421
| 28> H 4.3010643245 1.5249351549 -1.9300032059
| 29> H 3.7780440027 1.9554065542 -0.2795756281
| 30> H 1.1858194255 -2.8080072182 0.6593645176
| 31> H 0.4065696685 -3.0637877539 -0.9338890561
| 32> H 3.4022567665 -2.6814904932 -0.419856826
| 33> H 2.6223979592 -4.2162897417 -0.8400073652
| 34> H 2.6665729936 -2.8878276116 -2.0175386253
| 35> H -0.68737398 2.1840846108 1.7262675983
| 36> H 0.6863182524 1.1980396285 2.3445856792
| 37> H -2.7836584729 2.1530955489 -1.8496502339
| 38> H -4.0390374349 2.8440712524 -0.7842692748
| 39> H -2.3853270073 4.5865738136 -1.4588216069
| 40> H -2.3094897535 4.2993602681 0.2864297118
| 41> H -1.0704947806 3.6148478033 -0.7782659781
| 42> H -4.9848714781 -2.0668716065 0.2690026531
| 43> H -3.7941113697 -2.0714054909 -1.0679351766
| 44> H -3.1335273215 -2.6912915503 1.8571133939
| 45> H -3.3070037195 -3.9018765813 0.570916002
| 46> H -1.99733973 -2.7103294834 0.5035191544
| 47> *
| 48>
| 49>                          ****END OF INPUT****

CARTESIAN COORDINATES (ANGSTROEM)
---------------------------------
  C      5.401303    0.523837   -0.353324
  C      4.139067    1.144965   -0.919563
  O      3.097761    0.157748   -1.070768
  P      2.019263   -0.129941    0.057946
  S      2.687289   -0.604446    1.842854
  O      1.111684   -1.210628   -0.650735
  C      1.262150   -2.624251   -0.417837
  C      2.576266   -3.138977   -0.963872
  S      0.791076    1.583921   -0.029126
  C     -0.054257    1.318078    1.552810
  S     -1.057303   -0.195070    1.590139
  P     -2.305344    0.157145   -0.090045
  S     -1.737056   -0.316326   -1.910058
  O     -2.659977    1.674599    0.168012
  C     -2.974515    2.621814   -0.878231
  C     -2.126568    3.864018   -0.691845
  O     -3.664673   -0.560195    0.329476
  C     -3.933937   -1.933876    0.009700
  C     -3.037103   -2.873898    0.789861
  H      6.179875    1.278376   -0.306746
  H      5.217951    0.141555    0.648453
  H      5.731533   -0.294667   -0.986873
  H      4.301064    1.524935   -1.930003
  H      3.778044    1.955407   -0.279576
  H      1.185819   -2.808007    0.659365
  H      0.406570   -3.063788   -0.933889
  H      3.402257   -2.681490   -0.419857
  H      2.622398   -4.216290   -0.840007
  H      2.666573   -2.887828   -2.017539
  H     -0.687374    2.184085    1.726268
  H      0.686318    1.198040    2.344586
  H     -2.783658    2.153096   -1.849650
  H     -4.039037    2.844071   -0.784269
  H     -2.385327    4.586574   -1.458822
  H     -2.309490    4.299360    0.286430
  H     -1.070495    3.614848   -0.778266
  H     -4.984871   -2.066872    0.269003
  H     -3.794111   -2.071405   -1.067935
  H     -3.133527   -2.691292    1.857113
  H     -3.307004   -3.901877    0.570916
  H     -1.997340   -2.710329    0.503519

 Total Charge           Charge          ....    0
 Multiplicity           Mult            ....    1
 Number of Electrons    NEL             ....  202
 Basis Dimension        Dim             ....  334

ORBITAL ENERGIES
----------------

  NO   OCC          E(Eh)            E(eV)
   0   2.0000     -88.043205     -2395.7774
   1   2.0000     -88.038736     -2395.6558
   2   2.0000     -87.987633     -2394.2652
   3   2.0000     -87.980290     -2394.0654
   4   2.0000     -76.425878     -2079.6539
   5   2.0000     -76.422920     -2079.5734
   6   2.0000     -18.793262      -511.3907
   7   2.0000     -18.792678      -511.3748
   8   2.0000     -18.785691      -511.1846
   9   2.0000     -18.784124      -511.1420
  10   2.0000      -9.955927      -270.9146
  11   2.0000      -9.955616      -270.9061
  12   2.0000      -9.951930      -270.8058
  13   2.0000      -9.949150      -270.7301
  14   2.0000      -9.945352      -270.6268
  15   2.0000      -9.888115      -269.0693
  16   2.0000      -9.885720      -269.0041
  17   2.0000      -9.881609      -268.8923
  18   2.0000      -9.878958      -268.8201
  19   2.0000      -7.688089      -209.2035
  20   2.0000      -7.683715      -209.0845
  21   2.0000      -7.632572      -207.6928
  22   2.0000      -7.625303      -207.4950
  23   2.0000      -6.423333      -174.7878
  24   2.0000      -6.420400      -174.7080
  25   2.0000      -5.715896      -155.5374
  26   2.0000      -5.712659      -155.4494
  27   2.0000      -5.711880      -155.4282
  28   2.0000      -5.708195      -155.3279
  29   2.0000      -5.705057      -155.2425
  30   2.0000      -5.700437      -155.1168
  31   2.0000      -5.661330      -154.0526
  32   2.0000      -5.654146      -153.8571
  33   2.0000      -5.653254      -153.8329
  34   2.0000      -5.652843      -153.8217
  35   2.0000      -5.646150      -153.6396
  36   2.0000      -5.645323      -153.6171
  37   2.0000      -4.645723      -126.4165
  38   2.0000      -4.645112      -126.3999
  39   2.0000      -4.643977      -126.3690
  40   2.0000      -4.643087      -126.3448
  41   2.0000      -4.642194      -126.3205
  42   2.0000      -4.640700      -126.2799
  43   2.0000      -0.985177       -26.8080
  44   2.0000      -0.984222       -26.7821
  45   2.0000      -0.944082       -25.6898
  46   2.0000      -0.943339       -25.6696
  47   2.0000      -0.763773       -20.7833
  48   2.0000      -0.720558       -19.6074
  49   2.0000      -0.707776       -19.2596
  50   2.0000      -0.686279       -18.6746
  51   2.0000      -0.684101       -18.6153
  52   2.0000      -0.671417       -18.2702
  53   2.0000      -0.649709       -17.6795
  54   2.0000      -0.638034       -17.3618
  55   2.0000      -0.598369       -16.2824
  56   2.0000      -0.592331       -16.1181
  57   2.0000      -0.571851       -15.5609
  58   2.0000      -0.569013       -15.4836
  59   2.0000      -0.560095       -15.2410
  60   2.0000      -0.501849       -13.6560
  61   2.0000      -0.497652       -13.5418
  62   2.0000      -0.472206       -12.8494
  63   2.0000      -0.470819       -12.8116
  64   2.0000      -0.456081       -12.4106
  65   2.0000      -0.439662       -11.9638
  66   2.0000      -0.437938       -11.9169
  67   2.0000      -0.434315       -11.8183
  68   2.0000      -0.427774       -11.6403
  69   2.0000      -0.414454       -11.2779
  70   2.0000      -0.403990       -10.9931
  71   2.0000      -0.398038       -10.8312
  72   2.0000      -0.390112       -10.6155
  73   2.0000      -0.386753       -10.5241
  74   2.0000      -0.385795       -10.4980
  75   2.0000      -0.375694       -10.2232
  76   2.0000      -0.368539       -10.0285
  77   2.0000      -0.357575        -9.7301
  78   2.0000      -0.354733        -9.6528
  79   2.0000      -0.350600        -9.5403
  80   2.0000      -0.346779        -9.4363
  81   2.0000      -0.342934        -9.3317
  82   2.0000      -0.342019        -9.3068
  83   2.0000      -0.333925        -9.0866
  84   2.0000      -0.331699        -9.0260
  85   2.0000      -0.323184        -8.7943
  86   2.0000      -0.306145        -8.3306
  87   2.0000      -0.297588        -8.0978
  88   2.0000      -0.295115        -8.0305
  89   2.0000      -0.284132        -7.7316
  90   2.0000      -0.282563        -7.6889
  91   2.0000      -0.273292        -7.4367
  92   2.0000      -0.270826        -7.3696
  93   2.0000      -0.262811        -7.1514
  94   2.0000      -0.258432        -7.0323
  95   2.0000      -0.236421        -6.4333
  96   2.0000      -0.217820        -5.9272
  97   2.0000      -0.208257        -5.6670
  98   2.0000      -0.203322        -5.5327
  99   2.0000      -0.195907        -5.3309
 100   2.0000      -0.189376        -5.1532
 101   0.0000      -0.047384        -1.2894
 102   0.0000      -0.024083        -0.6553
 103   0.0000      -0.015458        -0.4206
 104   0.0000       0.001718         0.0468
 105   0.0000       0.021594         0.5876

MULLIKEN ATOMIC CHARGES
-----------------------
   0 C :   -0.295377
   1 C :   -0.011437
   2 O :   -0.367712
   3 P :    0.624584
   4 S :   -0.340754
   5 O :   -0.342615
   6 C :   -0.017949
   7 C :   -0.300511
   8 S :   -0.094614
   9 C :   -0.349628
  10 S :   -0.094042
  11 P :    0.608630
  12 S :   -0.315893
  13 O :   -0.376924
  14 C :   -0.003514
  15 C :   -0.307625
  16 O :   -0.367075
  17 C :    0.001345
  18 C :   -0.343210
  19 H :    0.107694
  20 H :    0.130317
  21 H :    0.115049
  22 H :    0.109500
  23 H :    0.101454
  24 H :    0.112821
  25 H :    0.114106
  26 H :    0.122231
  27 H :    0.109199
  28 H :    0.118018
  29 H :    0.188231
  30 H :    0.192830
  31 H :    0.112660
  32 H :    0.106293
  33 H :    0.113685
  34 H :    0.116210
  35 H :    0.130608
  36 H :    0.105029
  37 H :    0.108057
  38 H :    0.123947
  39 H :    0.114802
  40 H :    0.141579
Sum of atomic charges:    0.0000000

LOEWDIN ATOMIC CHARGES
----------------------
   0 C :   -0.364069
   1 C :   -0.115427
   2 O :   -0.242009
   3 P :    0.573436
   4 S :   -0.323560
   5 O :   -0.224209
   6 C :   -0.118324
   7 C :   -0.365438
   8 S :    0.090037
   9 C :   -0.477454
  10 S :    0.085927
  11 P :    0.566194
  12 S :   -0.309459
  13 O :   -0.243529
  14 C :   -0.115750
  15 C :   -0.358306
  16 O :   -0.247387
  17 C :   -0.121595
  18 C :   -0.371754
  19 H :    0.128871
  20 H :    0.124510
  21 H :    0.125854
  22 H :    0.119946
  23 H :    0.106488
  24 H :    0.109503
  25 H :    0.118197
  26 H :    0.120979
  27 H :    0.129409
  28 H :    0.127217
  29 H :    0.132724
  30 H :    0.130459
  31 H :    0.108708
  32 H :    0.116959
  33 H :    0.132291
  34 H :    0.124361
  35 H :    0.120349
  36 H :    0.118762
  37 H :    0.107952
  38 H :    0.126844
  39 H :    0.131865
  40 H :    0.120425

  Mayer bond orders larger than 0.100000
B(  0-C ,  1-C ) :   1.1674 B(  0-C , 19-H ) :   0.9393 B(  0-C , 20-H ) :   0.9313
B(  0-C , 21-H ) :   0.9465 B(  1-C ,  2-O ) :   0.9047 B(  1-C , 22-H ) :   0.9357
B(  1-C , 23-H ) :   0.9156 B(  2-O ,  3-P ) :   1.1160 B(  3-P ,  4-S ) :   1.5878
B(  3-P ,  5-O ) :   1.1520 B(  3-P ,  8-S ) :   0.9497 B(  4-S ,  8-S ) :   0.1084
B(  5-O ,  6-C ) :   0.9044 B(  6-C ,  7-C ) :   1.1622 B(  6-C , 24-H ) :   0.9172
B(  6-C , 25-H ) :   0.9247 B(  7-C , 26-H ) :   0.9332 B(  7-C , 27-H ) :   0.9391
B(  7-C , 28-H ) :   0.9450 B(  8-S ,  9-C ) :   1.0119 B(  9-C , 10-S ) :   1.0020
B(  9-C , 29-H ) :   0.8994 B(  9-C , 30-H ) :   0.8803 B( 10-S , 11-P ) :   0.9501
B( 10-S , 12-S ) :   0.1073 B( 11-P , 12-S ) :   1.6317 B( 11-P , 13-O ) :   1.1157
B( 11-P , 16-O ) :   1.1058 B( 13-O , 14-C ) :   0.8961 B( 14-C , 15-C ) :   1.1654
B( 14-C , 31-H ) :   0.8999 B( 14-C , 32-H ) :   0.9333 B( 15-C , 33-H ) :   0.9397
B( 15-C , 34-H ) :   0.9478 B( 15-C , 35-H ) :   0.9384 B( 16-O , 17-C ) :   0.9171
B( 17-C , 18-C ) :   1.1600 B( 17-C , 36-H ) :   0.9327 B( 17-C , 37-H ) :   0.9117
B( 18-C , 38-H ) :   0.9430 B( 18-C , 39-H ) :   0.9386 B( 18-C , 40-H ) :   0.9284

Dispersion correction           -0.067008084
FINAL SINGLE POINT ENERGY     -2929.520941359279

DIPOLE MOMENT
-------------

Method             : SCF
Type of density    : Electron Density
Multiplicity       :   1
Irrep              :   0
Energy             : -2929.6380370661736379 Eh
Relativity type    :
Basis              : AO
                                X                 Y                 Z
Electronic contribution:     -5.716108308       3.768562309       4.279360193
Nuclear contribution   :      5.539089764      -3.427028349      -4.524449965
                        -----------------------------------------
Total Dipole Moment    :     -0.177018544       0.341533960      -0.245089772
                        -----------------------------------------
Magnitude (a.u.)       :      0.456124990
Magnitude (Debye)      :      1.159377588

Rotational constants in cm-1:             0.011845             0.005625             0.004757
Rotational constants in MHz :           355.093780           168.633089           142.621319

                             ****ORCA TERMINATED NORMALLY****
TOTAL RUN TIME: 0 days 0 hours 0 minutes 21 seconds 460 msec
