                         Program Version 6.0.1  -  RELEASE   -
|  1> ! pbe def2-sv(p) def2/J RI DEFGRID1 loosescf d4 GCP(DFT/SV(P)) printgap
|  2> %output
|  3>     printlevel normal
|  4> end
|  5> * xyz 0 1
|  6> C 5.3835586013 -1.9582933061 -1.2192010121
|  7> C 4.6087860692 -0.6681602571 -1.00261196
|  8> O 3.1905342345 -0.8901035908 -1.1235452199
|  9> C 2.5262051357 -1.28862539 -0.0552325326
| 10> O 3.0216933172 -1.481950649 1.0307753032
| 11> C 1.0521234255 -1.4905633999 -0.3617422156
| 12> C 0.4590997028 -0.2475151848 -1.0247579294
| 13> H 1.010423514 -0.0213003303 -1.9418774274
| 14> C 0.5084912878 0.9549384183 -0.1045066071
| 15> O -0.4890466968 1.5705201372 0.2166994746
| 16> O 1.7209949495 1.2230343513 0.2931087864
| 17> C 1.9125894678 2.3139480994 1.2223437011
| 18> C 2.0334580768 3.6387398621 0.4888888628
| 19> S -1.2644360388 -0.4929874717 -1.5428395976
| 20> P -2.3310451613 -0.2021245931 0.289191101
| 21> S -1.5178928112 -0.4877243744 2.0520552394
| 22> O -3.2832553191 1.066895827 0.0967155269
| 23> C -3.0858612632 2.4034102506 0.5536179837
| 24> O -3.4265531683 -1.3475066041 0.1233248786
| 25> C -4.3025268807 -1.4531021213 -1.0114548466
| 26> H 6.4474205143 -1.7475973796 -1.1883043231
| 27> H 5.1432281552 -2.6739580879 -0.4362188664
| 28> H 5.1311651645 -2.3898318636 -2.1837836911
| 29> H 4.8361512701 0.0660311123 -1.7754142689
| 30> H 4.8123352866 -0.2564959484 -0.0103941325
| 31> H 0.5344531324 -1.7218246685 0.5721341108
| 32> H 0.9518842796 -2.3343006852 -1.0466110002
| 33> H 1.0719064522 2.3211719084 1.921561865
| 34> H 2.8326300013 2.05633016 1.7472849368
| 35> H 2.2411321515 4.4229961076 1.2091208353
| 36> H 2.841505476 3.5944003803 -0.2357313405
| 37> H 1.1041334112 3.8703339041 -0.0258392943
| 38> H -2.5162720138 2.9643522974 -0.1846931564
| 39> H -2.5552768287 2.4050145967 1.5053717552
| 40> H -4.0844716053 2.8189283727 0.6718995861
| 41> H -4.9660067073 -0.5912681566 -1.0500055883
| 42> H -4.866474054 -2.3682329655 -0.8496530637
| 43> H -3.7181350698 -1.5185713442 -1.9296506785
| 44> *
| 45>
| 46>                          ****END OF INPUT****

CARTESIAN COORDINATES (ANGSTROEM)
---------------------------------
  C      5.383559   -1.958293   -1.219201
  C      4.608786   -0.668160   -1.002612
  O      3.190534   -0.890104   -1.123545
  C      2.526205   -1.288625   -0.055233
  O      3.021693   -1.481951    1.030775
  C      1.052123   -1.490563   -0.361742
  C      0.459100   -0.247515   -1.024758
  H      1.010424   -0.021300   -1.941877
  C      0.508491    0.954938   -0.104507
  O     -0.489047    1.570520    0.216699
  O      1.720995    1.223034    0.293109
  C      1.912589    2.313948    1.222344
  C      2.033458    3.638740    0.488889
  S     -1.264436   -0.492987   -1.542840
  P     -2.331045   -0.202125    0.289191
  S     -1.517893   -0.487724    2.052055
  O     -3.283255    1.066896    0.096716
  C     -3.085861    2.403410    0.553618
  O     -3.426553   -1.347507    0.123325
  C     -4.302527   -1.453102   -1.011455
  H      6.447421   -1.747597   -1.188304
  H      5.143228   -2.673958   -0.436219
  H      5.131165   -2.389832   -2.183784
  H      4.836151    0.066031   -1.775414
  H      4.812335   -0.256496   -0.010394
  H      0.534453   -1.721825    0.572134
  H      0.951884   -2.334301   -1.046611
  H      1.071906    2.321172    1.921562
  H      2.832630    2.056330    1.747285
  H      2.241132    4.422996    1.209121
  H      2.841505    3.594400   -0.235731
  H      1.104133    3.870334   -0.025839
  H     -2.516272    2.964352   -0.184693
  H     -2.555277    2.405015    1.505372
  H     -4.084472    2.818928    0.671900
  H     -4.966007   -0.591268   -1.050006
  H     -4.866474   -2.368233   -0.849653
  H     -3.718135   -1.518571   -1.929651

 Total Charge           Charge          ....    0
 Multiplicity           Mult            ....    1
 Number of Electrons    NEL             ....  174
 Basis Dimension        Dim             ....  316

ORBITAL ENERGIES
----------------

  NO   OCC          E(Eh)            E(eV)
   0   2.0000     -88.032975     -2395.4990
   1   2.0000     -87.969134     -2393.7618
   2   2.0000     -76.418642     -2079.4570
   3   2.0000     -18.827223      -512.3148
   4   2.0000     -18.803115      -511.6588
   5   2.0000     -18.782099      -511.0869
   6   2.0000     -18.772806      -510.8340
   7   2.0000     -18.760687      -510.5042
   8   2.0000     -18.736541      -509.8472
   9   2.0000     -10.031701      -272.9765
  10   2.0000     -10.008869      -272.3552
  11   2.0000      -9.959988      -271.0251
  12   2.0000      -9.953432      -270.8467
  13   2.0000      -9.951601      -270.7968
  14   2.0000      -9.938561      -270.4420
  15   2.0000      -9.935264      -270.3523
  16   2.0000      -9.905439      -269.5407
  17   2.0000      -9.898312      -269.3468
  18   2.0000      -9.889712      -269.1128
  19   2.0000      -7.678141      -208.9328
  20   2.0000      -7.614390      -207.1981
  21   2.0000      -6.414298      -174.5419
  22   2.0000      -5.706192      -155.2734
  23   2.0000      -5.702771      -155.1803
  24   2.0000      -5.694748      -154.9620
  25   2.0000      -5.643839      -153.5767
  26   2.0000      -5.635212      -153.3419
  27   2.0000      -5.633777      -153.3029
  28   2.0000      -4.637185      -126.1842
  29   2.0000      -4.636203      -126.1575
  30   2.0000      -4.634794      -126.1192
  31   2.0000      -1.036392       -28.2017
  32   2.0000      -1.010538       -27.4981
  33   2.0000      -0.971733       -26.4422
  34   2.0000      -0.941125       -25.6093
  35   2.0000      -0.926150       -25.2018
  36   2.0000      -0.913927       -24.8692
  37   2.0000      -0.768699       -20.9174
  38   2.0000      -0.716759       -19.5040
  39   2.0000      -0.711024       -19.3479
  40   2.0000      -0.688168       -18.7260
  41   2.0000      -0.655637       -17.8408
  42   2.0000      -0.629502       -17.1296
  43   2.0000      -0.629049       -17.1173
  44   2.0000      -0.606711       -16.5094
  45   2.0000      -0.596641       -16.2354
  46   2.0000      -0.571435       -15.5495
  47   2.0000      -0.515227       -14.0200
  48   2.0000      -0.507837       -13.8189
  49   2.0000      -0.500855       -13.6290
  50   2.0000      -0.487514       -13.2659
  51   2.0000      -0.468751       -12.7554
  52   2.0000      -0.464086       -12.6284
  53   2.0000      -0.451303       -12.2806
  54   2.0000      -0.440723       -11.9927
  55   2.0000      -0.431116       -11.7313
  56   2.0000      -0.423485       -11.5236
  57   2.0000      -0.418406       -11.3854
  58   2.0000      -0.417837       -11.3699
  59   2.0000      -0.408627       -11.1193
  60   2.0000      -0.400511       -10.8985
  61   2.0000      -0.394875       -10.7451
  62   2.0000      -0.391598       -10.6559
  63   2.0000      -0.388591       -10.5741
  64   2.0000      -0.378668       -10.3041
  65   2.0000      -0.370580       -10.0840
  66   2.0000      -0.362785        -9.8719
  67   2.0000      -0.356906        -9.7119
  68   2.0000      -0.350977        -9.5506
  69   2.0000      -0.340784        -9.2732
  70   2.0000      -0.339148        -9.2287
  71   2.0000      -0.330177        -8.9846
  72   2.0000      -0.326871        -8.8946
  73   2.0000      -0.312166        -8.4945
  74   2.0000      -0.307374        -8.3641
  75   2.0000      -0.297368        -8.0918
  76   2.0000      -0.291592        -7.9346
  77   2.0000      -0.287753        -7.8302
  78   2.0000      -0.283127        -7.7043
  79   2.0000      -0.261202        -7.1077
  80   2.0000      -0.260334        -7.0841
  81   2.0000      -0.251239        -6.8366
  82   2.0000      -0.246858        -6.7174
  83   2.0000      -0.224902        -6.1199
  84   2.0000      -0.207586        -5.6487
  85   2.0000      -0.189569        -5.1584
  86   2.0000      -0.181082        -4.9275
  87   0.0000      -0.048208        -1.3118
  88   0.0000      -0.038424        -1.0456
  89   0.0000      -0.019183        -0.5220
  90   0.0000       0.002956         0.0804
  91   0.0000       0.028918         0.7869

MULLIKEN ATOMIC CHARGES
-----------------------
   0 C :   -0.304329
   1 C :   -0.010173
   2 O :   -0.246023
   3 C :    0.107640
   4 O :   -0.191916
   5 C :   -0.045529
   6 C :   -0.312647
   7 H :    0.157334
   8 C :    0.218766
   9 O :   -0.195444
  10 O :   -0.217271
  11 C :   -0.009771
  12 C :   -0.309352
  13 S :   -0.113479
  14 P :    0.634451
  15 S :   -0.323410
  16 O :   -0.398991
  17 C :   -0.077833
  18 O :   -0.369628
  19 C :   -0.112206
  20 H :    0.112861
  21 H :    0.130048
  22 H :    0.113533
  23 H :    0.098863
  24 H :    0.106107
  25 H :    0.124785
  26 H :    0.120636
  27 H :    0.124383
  28 H :    0.116573
  29 H :    0.120644
  30 H :    0.115573
  31 H :    0.126547
  32 H :    0.111560
  33 H :    0.115931
  34 H :    0.115693
  35 H :    0.118079
  36 H :    0.128300
  37 H :    0.119694
Sum of atomic charges:   -0.0000000

LOEWDIN ATOMIC CHARGES
----------------------
   0 C :   -0.356029
   1 C :   -0.110481
   2 O :   -0.067041
   3 C :    0.022412
   4 O :   -0.159380
   5 C :   -0.248958
   6 C :   -0.267234
   7 H :    0.150779
   8 C :    0.028385
   9 O :   -0.154356
  10 O :   -0.025767
  11 C :   -0.103653
  12 C :   -0.355826
  13 S :    0.087343
  14 P :    0.584973
  15 S :   -0.322533
  16 O :   -0.254175
  17 C :   -0.205613
  18 O :   -0.254563
  19 C :   -0.214395
  20 H :    0.130646
  21 H :    0.132115
  22 H :    0.124677
  23 H :    0.115764
  24 H :    0.118904
  25 H :    0.137729
  26 H :    0.144289
  27 H :    0.127674
  28 H :    0.124806
  29 H :    0.134854
  30 H :    0.125814
  31 H :    0.129588
  32 H :    0.110794
  33 H :    0.111914
  34 H :    0.115685
  35 H :    0.112684
  36 H :    0.124353
  37 H :    0.103822

  Mayer bond orders larger than 0.100000
B(  0-C ,  1-C ) :   1.1757 B(  0-C , 20-H ) :   0.9441 B(  0-C , 21-H ) :   0.9456
B(  0-C , 22-H ) :   0.9487 B(  1-C ,  2-O ) :   0.9175 B(  1-C , 23-H ) :   0.9372
B(  1-C , 24-H ) :   0.9133 B(  2-O ,  3-C ) :   1.1889 B(  3-C ,  4-O ) :   2.0703
B(  3-C ,  5-C ) :   1.0180 B(  5-C ,  6-C ) :   1.0248 B(  5-C , 25-H ) :   0.8777
B(  5-C , 26-H ) :   0.8856 B(  6-C ,  7-H ) :   0.8636 B(  6-C ,  8-C ) :   0.9016
B(  6-C , 13-S ) :   1.0449 B(  8-C ,  9-O ) :   1.9316 B(  8-C , 10-O ) :   1.2750
B(  9-O , 14-P ) :   0.1038 B( 10-O , 11-C ) :   0.8922 B( 11-C , 12-C ) :   1.1719
B( 11-C , 27-H ) :   0.9155 B( 11-C , 28-H ) :   0.9343 B( 12-C , 29-H ) :   0.9437
B( 12-C , 30-H ) :   0.9476 B( 12-C , 31-H ) :   0.9455 B( 13-S , 14-P ) :   0.9161
B( 13-S , 15-S ) :   0.1110 B( 14-P , 15-S ) :   1.5875 B( 14-P , 16-O ) :   1.0856
B( 14-P , 18-O ) :   1.1022 B( 16-O , 17-C ) :   0.9301 B( 17-C , 32-H ) :   0.9533
B( 17-C , 33-H ) :   0.9426 B( 17-C , 34-H ) :   0.9539 B( 18-O , 19-C ) :   0.9343
B( 19-C , 35-H ) :   0.9461 B( 19-C , 36-H ) :   0.9607 B( 19-C , 37-H ) :   0.9364

Dispersion correction           -0.051798481
FINAL SINGLE POINT ENERGY     -1979.007410071149

DIPOLE MOMENT
-------------

Method             : SCF
Type of density    : Electron Density
Multiplicity       :   1
Irrep              :   0
Energy             : -1979.1394598105412115 Eh
Relativity type    :
Basis              : AO
                                X                 Y                 Z
Electronic contribution:    -16.534840666      -7.230740985       3.661200083
Nuclear contribution   :     17.421134226       8.557215171      -5.171090272
                        -----------------------------------------
Total Dipole Moment    :      0.886293560       1.326474186      -1.509890189
                        -----------------------------------------
Magnitude (a.u.)       :      2.196546931
Magnitude (Debye)      :      5.583178597

Rotational constants in cm-1:             0.015913             0.006186             0.005289
Rotational constants in MHz :           477.074647           185.454598           158.569028

                             ****ORCA TERMINATED NORMALLY****
TOTAL RUN TIME: 0 days 0 hours 0 minutes 32 seconds 846 msec
