                         Program Version 6.0.1  -  RELEASE   -
|  1> ! pbe def2-sv(p) def2/J RI DEFGRID1 loosescf d4 GCP(DFT/SV(P)) printgap
|  2> %output
|  3>     printlevel normal
|  4> end
|  5> * xyz 0 1
|  6> C 3.5019677713 -3.0413409831 0.4903914418
|  7> C 2.9806614935 -1.6837960584 0.9326712466
|  8> O 2.7147214849 -0.8388113777 -0.2033937861
|  9> C 1.5735678598 -0.9664494021 -0.8394994288
| 10> O 0.6858692062 -1.7403039803 -0.5304659392
| 11> C 1.46844282 -0.0178278686 -2.0143557433
| 12> C 0.2389941549 0.8812040888 -1.8699347208
| 13> H 0.1173442861 1.4777324062 -2.7792382487
| 14> C 0.3258033741 1.8305284836 -0.6860432968
| 15> O -0.619898298 2.0318693912 0.0499907555
| 16> O 1.499566738 2.390114676 -0.5928228157
| 17> C 1.7742847793 3.2686142557 0.5203822538
| 18> C 2.4586058548 2.4959102944 1.635279602
| 19> S -1.3260958087 -0.0415453088 -1.7326909994
| 20> P -1.53747197 -0.4572554767 0.3594904211
| 21> S -0.297841285 -0.2041524586 1.8589954026
| 22> O -2.9833550216 0.1891099237 0.649847084
| 23> C -3.2384211135 1.5152277926 1.1029814687
| 24> O -1.971303724 -1.9823941563 0.3609228364
| 25> C -2.91731562 -2.5531331757 -0.556564571
| 26> H 4.3812504568 -2.9186664973 -0.1360643313
| 27> H 3.7628403102 -3.6245459578 1.3671385267
| 28> H 2.7349719094 -3.5724155281 -0.0690564962
| 29> H 3.727717752 -1.1356398489 1.5062873007
| 30> H 2.0618591344 -1.7839247923 1.5179448702
| 31> H 1.3566308654 -0.6132972926 -2.9215654194
| 32> H 2.3688969121 0.5928631358 -2.0666375163
| 33> H 2.428023634 4.0365870296 0.1061908896
| 34> H 0.8340057261 3.7056373962 0.8650998319
| 35> H 3.3679459645 2.0315601436 1.2644385535
| 36> H 2.7040185354 3.1750888282 2.4445564583
| 37> H 1.7972746044 1.7184203306 2.0161388565
| 38> H -2.5064480066 1.8018679485 1.8588140363
| 39> H -4.2392188352 1.4898301653 1.5280273528
| 40> H -3.1873585754 2.2110207283 0.2667494517
| 41> H -3.0825525911 -3.5653165421 -0.1960979989
| 42> H -2.4941968015 -2.568506707 -1.5609184913
| 43> H -3.8443147071 -1.9816578701 -0.5461526229
| 44> *
| 45>
| 46>                          ****END OF INPUT****

CARTESIAN COORDINATES (ANGSTROEM)
---------------------------------
  C      3.501968   -3.041341    0.490391
  C      2.980661   -1.683796    0.932671
  O      2.714721   -0.838811   -0.203394
  C      1.573568   -0.966449   -0.839499
  O      0.685869   -1.740304   -0.530466
  C      1.468443   -0.017828   -2.014356
  C      0.238994    0.881204   -1.869935
  H      0.117344    1.477732   -2.779238
  C      0.325803    1.830528   -0.686043
  O     -0.619898    2.031869    0.049991
  O      1.499567    2.390115   -0.592823
  C      1.774285    3.268614    0.520382
  C      2.458606    2.495910    1.635280
  S     -1.326096   -0.041545   -1.732691
  P     -1.537472   -0.457255    0.359490
  S     -0.297841   -0.204152    1.858995
  O     -2.983355    0.189110    0.649847
  C     -3.238421    1.515228    1.102981
  O     -1.971304   -1.982394    0.360923
  C     -2.917316   -2.553133   -0.556565
  H      4.381250   -2.918666   -0.136064
  H      3.762840   -3.624546    1.367139
  H      2.734972   -3.572416   -0.069056
  H      3.727718   -1.135640    1.506287
  H      2.061859   -1.783925    1.517945
  H      1.356631   -0.613297   -2.921565
  H      2.368897    0.592863   -2.066638
  H      2.428024    4.036587    0.106191
  H      0.834006    3.705637    0.865100
  H      3.367946    2.031560    1.264439
  H      2.704019    3.175089    2.444556
  H      1.797275    1.718420    2.016139
  H     -2.506448    1.801868    1.858814
  H     -4.239219    1.489830    1.528027
  H     -3.187359    2.211021    0.266749
  H     -3.082553   -3.565317   -0.196098
  H     -2.494197   -2.568507   -1.560918
  H     -3.844315   -1.981658   -0.546153

 Total Charge           Charge          ....    0
 Multiplicity           Mult            ....    1
 Number of Electrons    NEL             ....  174
 Basis Dimension        Dim             ....  316

ORBITAL ENERGIES
----------------

  NO   OCC          E(Eh)            E(eV)
   0   2.0000     -88.026990     -2395.3362
   1   2.0000     -87.965276     -2393.6568
   2   2.0000     -76.412613     -2079.2929
   3   2.0000     -18.821079      -512.1476
   4   2.0000     -18.805136      -511.7138
   5   2.0000     -18.769489      -510.7438
   6   2.0000     -18.767633      -510.6932
   7   2.0000     -18.753818      -510.3173
   8   2.0000     -18.734164      -509.7825
   9   2.0000     -10.023660      -272.7577
  10   2.0000     -10.007762      -272.3250
  11   2.0000      -9.954716      -270.8816
  12   2.0000      -9.953555      -270.8500
  13   2.0000      -9.939558      -270.4691
  14   2.0000      -9.932042      -270.2646
  15   2.0000      -9.922547      -270.0062
  16   2.0000      -9.911984      -269.7188
  17   2.0000      -9.883933      -268.9555
  18   2.0000      -9.881811      -268.8977
  19   2.0000      -7.671932      -208.7639
  20   2.0000      -7.610243      -207.0852
  21   2.0000      -6.407700      -174.3624
  22   2.0000      -5.700268      -155.1122
  23   2.0000      -5.696791      -155.0176
  24   2.0000      -5.688072      -154.7803
  25   2.0000      -5.639729      -153.4648
  26   2.0000      -5.630700      -153.2191
  27   2.0000      -5.629888      -153.1970
  28   2.0000      -4.630529      -126.0031
  29   2.0000      -4.629877      -125.9853
  30   2.0000      -4.628094      -125.9368
  31   2.0000      -1.028506       -27.9871
  32   2.0000      -1.009471       -27.4691
  33   2.0000      -0.962835       -26.2001
  34   2.0000      -0.933069       -25.3901
  35   2.0000      -0.917386       -24.9633
  36   2.0000      -0.912475       -24.8297
  37   2.0000      -0.764304       -20.7978
  38   2.0000      -0.709862       -19.3163
  39   2.0000      -0.705406       -19.1951
  40   2.0000      -0.682268       -18.5655
  41   2.0000      -0.652401       -17.7527
  42   2.0000      -0.622577       -16.9412
  43   2.0000      -0.615695       -16.7539
  44   2.0000      -0.603067       -16.4103
  45   2.0000      -0.593918       -16.1613
  46   2.0000      -0.567310       -15.4373
  47   2.0000      -0.509471       -13.8634
  48   2.0000      -0.498073       -13.5533
  49   2.0000      -0.497390       -13.5347
  50   2.0000      -0.481127       -13.0921
  51   2.0000      -0.459519       -12.5042
  52   2.0000      -0.454514       -12.3680
  53   2.0000      -0.449793       -12.2395
  54   2.0000      -0.435717       -11.8565
  55   2.0000      -0.427634       -11.6365
  56   2.0000      -0.417356       -11.3568
  57   2.0000      -0.412844       -11.2341
  58   2.0000      -0.410568       -11.1721
  59   2.0000      -0.400303       -10.8928
  60   2.0000      -0.392564       -10.6822
  61   2.0000      -0.386789       -10.5251
  62   2.0000      -0.385279       -10.4840
  63   2.0000      -0.381010       -10.3678
  64   2.0000      -0.375907       -10.2289
  65   2.0000      -0.370891       -10.0924
  66   2.0000      -0.357780        -9.7357
  67   2.0000      -0.353482        -9.6187
  68   2.0000      -0.347682        -9.4609
  69   2.0000      -0.338819        -9.2197
  70   2.0000      -0.332188        -9.0393
  71   2.0000      -0.325741        -8.8639
  72   2.0000      -0.317848        -8.6491
  73   2.0000      -0.304938        -8.2978
  74   2.0000      -0.300478        -8.1764
  75   2.0000      -0.290445        -7.9034
  76   2.0000      -0.281798        -7.6681
  77   2.0000      -0.278395        -7.5755
  78   2.0000      -0.274419        -7.4673
  79   2.0000      -0.258562        -7.0358
  80   2.0000      -0.249144        -6.7796
  81   2.0000      -0.247242        -6.7278
  82   2.0000      -0.240398        -6.5416
  83   2.0000      -0.225013        -6.1229
  84   2.0000      -0.193291        -5.2597
  85   2.0000      -0.181374        -4.9354
  86   2.0000      -0.174625        -4.7518
  87   0.0000      -0.044211        -1.2030
  88   0.0000      -0.041550        -1.1306
  89   0.0000      -0.027519        -0.7488
  90   0.0000       0.003528         0.0960
  91   0.0000       0.037387         1.0173

MULLIKEN ATOMIC CHARGES
-----------------------
   0 C :   -0.305515
   1 C :   -0.028135
   2 O :   -0.221238
   3 C :    0.092967
   4 O :   -0.198682
   5 C :   -0.012101
   6 C :   -0.319758
   7 H :    0.154446
   8 C :    0.200270
   9 O :   -0.179551
  10 O :   -0.220424
  11 C :   -0.013317
  12 C :   -0.318226
  13 S :   -0.099753
  14 P :    0.642515
  15 S :   -0.330970
  16 O :   -0.395944
  17 C :   -0.080683
  18 O :   -0.360359
  19 C :   -0.110543
  20 H :    0.107359
  21 H :    0.113587
  22 H :    0.128325
  23 H :    0.098082
  24 H :    0.135910
  25 H :    0.119079
  26 H :    0.112880
  27 H :    0.105124
  28 H :    0.114970
  29 H :    0.114955
  30 H :    0.110231
  31 H :    0.150389
  32 H :    0.112539
  33 H :    0.110351
  34 H :    0.105672
  35 H :    0.125704
  36 H :    0.123518
  37 H :    0.116324
Sum of atomic charges:   -0.0000000

LOEWDIN ATOMIC CHARGES
----------------------
   0 C :   -0.356797
   1 C :   -0.115507
   2 O :   -0.045831
   3 C :    0.022832
   4 O :   -0.169548
   5 C :   -0.250217
   6 C :   -0.261116
   7 H :    0.153165
   8 C :    0.011750
   9 O :   -0.152724
  10 O :   -0.037646
  11 C :   -0.104804
  12 C :   -0.361060
  13 S :    0.099064
  14 P :    0.599977
  15 S :   -0.303782
  16 O :   -0.264512
  17 C :   -0.210619
  18 O :   -0.238580
  19 C :   -0.215011
  20 H :    0.121313
  21 H :    0.131440
  22 H :    0.130776
  23 H :    0.115557
  24 H :    0.122350
  25 H :    0.145553
  26 H :    0.137765
  27 H :    0.118666
  28 H :    0.122914
  29 H :    0.124323
  30 H :    0.130226
  31 H :    0.128521
  32 H :    0.108219
  33 H :    0.113213
  34 H :    0.107287
  35 H :    0.123706
  36 H :    0.108573
  37 H :    0.110566

  Mayer bond orders larger than 0.100000
B(  0-C ,  1-C ) :   1.1686 B(  0-C , 20-H ) :   0.9480 B(  0-C , 21-H ) :   0.9447
B(  0-C , 22-H ) :   0.9454 B(  1-C ,  2-O ) :   0.9063 B(  1-C , 23-H ) :   0.9372
B(  1-C , 24-H ) :   0.9028 B(  2-O ,  3-C ) :   1.2543 B(  3-C ,  4-O ) :   1.9686
B(  3-C ,  5-C ) :   1.0003 B(  5-C ,  6-C ) :   1.0217 B(  5-C , 25-H ) :   0.8867
B(  5-C , 26-H ) :   0.8839 B(  6-C ,  7-H ) :   0.8713 B(  6-C ,  8-C ) :   0.8892
B(  6-C , 13-S ) :   1.0635 B(  8-C ,  9-O ) :   1.9816 B(  8-C , 10-O ) :   1.2715
B( 10-O , 11-C ) :   0.8941 B( 11-C , 12-C ) :   1.1816 B( 11-C , 27-H ) :   0.9364
B( 11-C , 28-H ) :   0.9101 B( 12-C , 29-H ) :   0.9459 B( 12-C , 30-H ) :   0.9398
B( 12-C , 31-H ) :   0.9252 B( 13-S , 14-P ) :   0.8987 B( 13-S , 15-S ) :   0.1185
B( 14-P , 15-S ) :   1.5398 B( 14-P , 16-O ) :   1.0714 B( 14-P , 18-O ) :   1.1215
B( 16-O , 17-C ) :   0.9404 B( 17-C , 32-H ) :   0.9384 B( 17-C , 33-H ) :   0.9562
B( 17-C , 34-H ) :   0.9510 B( 18-O , 19-C ) :   0.9331 B( 19-C , 35-H ) :   0.9602
B( 19-C , 36-H ) :   0.9379 B( 19-C , 37-H ) :   0.9443

Dispersion correction           -0.056406284
FINAL SINGLE POINT ENERGY     -1978.997442761735

DIPOLE MOMENT
-------------

Method             : SCF
Type of density    : Electron Density
Multiplicity       :   1
Irrep              :   0
Energy             : -1979.1258309471236316 Eh
Relativity type    :
Basis              : AO
                                X                 Y                 Z
Electronic contribution:    -12.058043082      -0.104999888      -4.730599088
Nuclear contribution   :     12.939661327       0.863574918       3.860747686
                        -----------------------------------------
Total Dipole Moment    :      0.881618245       0.758575031      -0.869851403
                        -----------------------------------------
Magnitude (a.u.)       :      1.452352667
Magnitude (Debye)      :      3.691587105

Rotational constants in cm-1:             0.012259             0.009539             0.007507
Rotational constants in MHz :           367.530317           285.962071           225.065473

                             ****ORCA TERMINATED NORMALLY****
TOTAL RUN TIME: 0 days 0 hours 1 minutes 31 seconds 397 msec
