                         Program Version 6.0.0  -   RELEASE  -
|  1> ! r2scan-3c def2/J RI DEFGRID2 scfconv6 printgap
|  2> %output
|  3>     printlevel normal
|  4> end
|  5> * xyz 0 1
|  6> C 0.595739106 1.7076290244 -0.0669904828
|  7> C 1.3933963969 0.4116250075 -0.2670490709
|  8> H 1.5999210048 0.2652111542 -1.3383957051
|  9> C 0.5466466554 -0.7732779515 0.2178820123
| 10> H 0.3647861067 -0.6663403821 1.2973251556
| 11> C -0.796678429 -0.7503278281 -0.5154316957
| 12> H -0.5993749293 -0.8254091345 -1.5979270117
| 13> C -1.4837191466 0.6012666257 -0.258991112
| 14> H -2.3913173778 0.6594769559 -0.8735141365
| 15> O -0.6660849488 1.6544911856 -0.7181226317
| 16> O -1.7662362401 0.7164122066 1.0945415579
| 17> O -1.6534144446 -1.7792616382 -0.1079599057
| 18> O 1.1660385203 -2.00741471 -0.0560536944
| 19> O 2.5880005531 0.4041582043 0.4776454552
| 20> H 1.1044986792 2.5634081502 -0.5111331414
| 21> H 0.4594822447 1.8703231629 1.00924516
| 22> H -2.4135209258 1.4215498789 1.2468008766
| 23> H -1.135537562 -2.5989324652 -0.0692663716
| 24> H 2.0522470616 -1.9944416072 0.334689918
| 25> H 3.1807838699 1.1000589991 0.1612308195
| 26> *
| 27>
| 28>                          ****END OF INPUT****

CARTESIAN COORDINATES (ANGSTROEM)
---------------------------------
  C      0.595739    1.707629   -0.066990
  C      1.393396    0.411625   -0.267049
  H      1.599921    0.265211   -1.338396
  C      0.546647   -0.773278    0.217882
  H      0.364786   -0.666340    1.297325
  C     -0.796678   -0.750328   -0.515432
  H     -0.599375   -0.825409   -1.597927
  C     -1.483719    0.601267   -0.258991
  H     -2.391317    0.659477   -0.873514
  O     -0.666085    1.654491   -0.718123
  O     -1.766236    0.716412    1.094542
  O     -1.653414   -1.779262   -0.107960
  O      1.166039   -2.007415   -0.056054
  O      2.588001    0.404158    0.477645
  H      1.104499    2.563408   -0.511133
  H      0.459482    1.870323    1.009245
  H     -2.413521    1.421550    1.246801
  H     -1.135538   -2.598932   -0.069266
  H      2.052247   -1.994442    0.334690
  H      3.180784    1.100059    0.161231

 Total Charge           Charge          ....    0
 Multiplicity           Mult            ....    1
 Number of Electrons    NEL             ....   80
 Basis Dimension        Dim             ....  265

ORBITAL ENERGIES
----------------

  NO   OCC          E(Eh)            E(eV)
   0   2.0000     -18.971279      -516.2347
   1   2.0000     -18.965537      -516.0785
   2   2.0000     -18.964623      -516.0536
   3   2.0000     -18.958738      -515.8935
   4   2.0000     -18.948359      -515.6111
   5   2.0000     -10.135222      -275.7934
   6   2.0000     -10.092169      -274.6219
   7   2.0000     -10.086422      -274.4655
   8   2.0000     -10.085578      -274.4425
   9   2.0000     -10.083276      -274.3799
  10   2.0000      -1.045932       -28.4612
  11   2.0000      -1.015411       -27.6307
  12   2.0000      -0.999438       -27.1961
  13   2.0000      -0.981620       -26.7112
  14   2.0000      -0.975605       -26.5476
  15   2.0000      -0.748947       -20.3799
  16   2.0000      -0.722493       -19.6600
  17   2.0000      -0.619995       -16.8709
  18   2.0000      -0.610094       -16.6015
  19   2.0000      -0.554694       -15.0940
  20   2.0000      -0.520424       -14.1615
  21   2.0000      -0.507998       -13.8233
  22   2.0000      -0.496181       -13.5018
  23   2.0000      -0.470701       -12.8084
  24   2.0000      -0.452106       -12.3024
  25   2.0000      -0.433455       -11.7949
  26   2.0000      -0.417741       -11.3673
  27   2.0000      -0.396949       -10.8015
  28   2.0000      -0.386303       -10.5119
  29   2.0000      -0.374915       -10.2019
  30   2.0000      -0.359096        -9.7715
  31   2.0000      -0.341607        -9.2956
  32   2.0000      -0.329749        -8.9729
  33   2.0000      -0.300217        -8.1693
  34   2.0000      -0.279427        -7.6036
  35   2.0000      -0.277875        -7.5614
  36   2.0000      -0.262843        -7.1523
  37   2.0000      -0.247793        -6.7428
  38   2.0000      -0.237234        -6.4555
  39   2.0000      -0.232917        -6.3380
  40   0.0000       0.027568         0.7502
  41   0.0000       0.049894         1.3577
  42   0.0000       0.065535         1.7833
  43   0.0000       0.093200         2.5361
  44   0.0000       0.095056         2.5866

MULLIKEN ATOMIC CHARGES
-----------------------
   0 C :   -0.263485
   1 C :    0.008119
   2 H :    0.149836
   3 C :   -0.012267
   4 H :    0.180493
   5 C :   -0.058356
   6 H :    0.165538
   7 C :    0.013315
   8 H :    0.132510
   9 O :   -0.195856
  10 O :   -0.382479
  11 O :   -0.416942
  12 O :   -0.441847
  13 O :   -0.428480
  14 H :    0.141664
  15 H :    0.178584
  16 H :    0.305260
  17 H :    0.316551
  18 H :    0.311217
  19 H :    0.296625
Sum of atomic charges:    0.0000000

LOEWDIN ATOMIC CHARGES
----------------------
   0 C :    0.037562
   1 C :    0.096013
   2 H :    0.176965
   3 C :    0.108869
   4 H :    0.194317
   5 C :    0.127333
   6 H :    0.185121
   7 C :    0.290838
   8 H :    0.198631
   9 O :   -0.680744
  10 O :   -0.505574
  11 O :   -0.548292
  12 O :   -0.577917
  13 O :   -0.591550
  14 H :    0.182539
  15 H :    0.184647
  16 H :    0.278775
  17 H :    0.284623
  18 H :    0.282970
  19 H :    0.274873

  Mayer bond orders larger than 0.100000
B(  0-C ,  1-C ) :   0.8508 B(  0-C ,  9-O ) :   0.9399 B(  0-C , 14-H ) :   0.9392
B(  0-C , 15-H ) :   0.9904 B(  1-C ,  2-H ) :   0.9689 B(  1-C ,  3-C ) :   0.9045
B(  1-C , 13-O ) :   0.9138 B(  3-C ,  4-H ) :   0.9627 B(  3-C ,  5-C ) :   0.8801
B(  3-C , 12-O ) :   0.9369 B(  5-C ,  6-H ) :   0.9757 B(  5-C ,  7-C ) :   0.9643
B(  5-C , 11-O ) :   0.9060 B(  7-C ,  8-H ) :   0.9454 B(  7-C ,  9-O ) :   0.9399
B(  7-C , 10-O ) :   1.0527 B( 10-O , 16-H ) :   0.8913 B( 11-O , 17-H ) :   0.8737
B( 12-O , 18-H ) :   0.8802 B( 13-O , 19-H ) :   0.8973

Dispersion correction           -0.006260757
FINAL SINGLE POINT ENERGY      -572.561217590263

DIPOLE MOMENT
-------------

Method             : SCF
Type of density    : Electron Density
Multiplicity       :   1
Irrep              :   0
Energy             :  -572.5712172001871068 Eh
Relativity type    :
Basis              : AO
                                X                 Y                 Z
Electronic contribution:     -1.415001834      -0.922716335       0.210079274
Nuclear contribution   :      2.079670226       1.668939408      -0.309641131
                        -----------------------------------------
Total Dipole Moment    :      0.664668393       0.746223072      -0.099561857
                        -----------------------------------------
Magnitude (a.u.)       :      1.004263665
Magnitude (Debye)      :      2.552635376

Rotational constants in cm-1:             0.056660             0.045144             0.029175
Rotational constants in MHz :          1698.633335          1353.380825           874.653773

                             ****ORCA TERMINATED NORMALLY****
TOTAL RUN TIME: 0 days 0 hours 0 minutes 44 seconds 608 msec
