                         Program Version 6.0.0  -   RELEASE  -
|  1> ! r2scan-3c def2/J RI DEFGRID2 scfconv6 printgap
|  2> %output
|  3>     printlevel normal
|  4> end
|  5> %cpcm
|  6>     smd true
|  7>     smdsolvent "water"
|  8> end
|  9> * xyz 0 1
| 10> C 0.595739106 1.7076290244 -0.0669904828
| 11> C 1.3933963969 0.4116250075 -0.2670490709
| 12> H 1.5999210048 0.2652111542 -1.3383957051
| 13> C 0.5466466554 -0.7732779515 0.2178820123
| 14> H 0.3647861067 -0.6663403821 1.2973251556
| 15> C -0.796678429 -0.7503278281 -0.5154316957
| 16> H -0.5993749293 -0.8254091345 -1.5979270117
| 17> C -1.4837191466 0.6012666257 -0.258991112
| 18> H -2.3913173778 0.6594769559 -0.8735141365
| 19> O -0.6660849488 1.6544911856 -0.7181226317
| 20> O -1.7662362401 0.7164122066 1.0945415579
| 21> O -1.6534144446 -1.7792616382 -0.1079599057
| 22> O 1.1660385203 -2.00741471 -0.0560536944
| 23> O 2.5880005531 0.4041582043 0.4776454552
| 24> H 1.1044986792 2.5634081502 -0.5111331414
| 25> H 0.4594822447 1.8703231629 1.00924516
| 26> H -2.4135209258 1.4215498789 1.2468008766
| 27> H -1.135537562 -2.5989324652 -0.0692663716
| 28> H 2.0522470616 -1.9944416072 0.334689918
| 29> H 3.1807838699 1.1000589991 0.1612308195
| 30> *
| 31>
| 32>                          ****END OF INPUT****

CARTESIAN COORDINATES (ANGSTROEM)
---------------------------------
  C      0.595739    1.707629   -0.066990
  C      1.393396    0.411625   -0.267049
  H      1.599921    0.265211   -1.338396
  C      0.546647   -0.773278    0.217882
  H      0.364786   -0.666340    1.297325
  C     -0.796678   -0.750328   -0.515432
  H     -0.599375   -0.825409   -1.597927
  C     -1.483719    0.601267   -0.258991
  H     -2.391317    0.659477   -0.873514
  O     -0.666085    1.654491   -0.718123
  O     -1.766236    0.716412    1.094542
  O     -1.653414   -1.779262   -0.107960
  O      1.166039   -2.007415   -0.056054
  O      2.588001    0.404158    0.477645
  H      1.104499    2.563408   -0.511133
  H      0.459482    1.870323    1.009245
  H     -2.413521    1.421550    1.246801
  H     -1.135538   -2.598932   -0.069266
  H      2.052247   -1.994442    0.334690
  H      3.180784    1.100059    0.161231

 Total Charge           Charge          ....    0
 Multiplicity           Mult            ....    1
 Number of Electrons    NEL             ....   80
 Basis Dimension        Dim             ....  265

ORBITAL ENERGIES
----------------

  NO   OCC          E(Eh)            E(eV)
   0   2.0000     -18.969870      -516.1964
   1   2.0000     -18.965778      -516.0851
   2   2.0000     -18.962099      -515.9850
   3   2.0000     -18.961048      -515.9563
   4   2.0000     -18.960723      -515.9475
   5   2.0000     -10.134566      -275.7755
   6   2.0000     -10.088085      -274.5108
   7   2.0000     -10.085181      -274.4317
   8   2.0000     -10.084944      -274.4253
   9   2.0000     -10.075470      -274.1675
  10   2.0000      -1.047945       -28.5160
  11   2.0000      -1.013116       -27.5683
  12   2.0000      -1.001245       -27.2453
  13   2.0000      -0.984760       -26.7967
  14   2.0000      -0.977959       -26.6116
  15   2.0000      -0.747321       -20.3356
  16   2.0000      -0.720063       -19.5939
  17   2.0000      -0.618090       -16.8191
  18   2.0000      -0.607251       -16.5241
  19   2.0000      -0.553650       -15.0656
  20   2.0000      -0.518138       -14.0993
  21   2.0000      -0.503887       -13.7115
  22   2.0000      -0.494417       -13.4538
  23   2.0000      -0.468401       -12.7458
  24   2.0000      -0.453258       -12.3338
  25   2.0000      -0.433273       -11.7900
  26   2.0000      -0.419953       -11.4275
  27   2.0000      -0.395582       -10.7643
  28   2.0000      -0.387282       -10.5385
  29   2.0000      -0.375927       -10.2295
  30   2.0000      -0.358159        -9.7460
  31   2.0000      -0.345588        -9.4039
  32   2.0000      -0.335135        -9.1195
  33   2.0000      -0.303122        -8.2484
  34   2.0000      -0.283010        -7.7011
  35   2.0000      -0.279037        -7.5930
  36   2.0000      -0.264512        -7.1977
  37   2.0000      -0.249848        -6.7987
  38   2.0000      -0.247949        -6.7470
  39   2.0000      -0.233608        -6.3568
  40   0.0000       0.038495         1.0475
  41   0.0000       0.067347         1.8326
  42   0.0000       0.080372         2.1870
  43   0.0000       0.100342         2.7304
  44   0.0000       0.104924         2.8551

MULLIKEN ATOMIC CHARGES
-----------------------
   0 C :   -0.281329
   1 C :    0.019614
   2 H :    0.172946
   3 C :   -0.000041
   4 H :    0.183118
   5 C :   -0.060045
   6 H :    0.185010
   7 C :    0.025708
   8 H :    0.162962
   9 O :   -0.257358
  10 O :   -0.447704
  11 O :   -0.487508
  12 O :   -0.495722
  13 O :   -0.489388
  14 H :    0.174270
  15 H :    0.181111
  16 H :    0.357710
  17 H :    0.355799
  18 H :    0.350187
  19 H :    0.350661
Sum of atomic charges:    0.0000000

LOEWDIN ATOMIC CHARGES
----------------------
   0 C :    0.042367
   1 C :    0.102152
   2 H :    0.185461
   3 C :    0.106100
   4 H :    0.194787
   5 C :    0.123740
   6 H :    0.194337
   7 C :    0.290337
   8 H :    0.209391
   9 O :   -0.704893
  10 O :   -0.527619
  11 O :   -0.581738
  12 O :   -0.597152
  13 O :   -0.605366
  14 H :    0.196001
  15 H :    0.186143
  16 H :    0.298479
  17 H :    0.297224
  18 H :    0.295629
  19 H :    0.294621

  Mayer bond orders larger than 0.100000
B(  0-C ,  1-C ) :   0.8517 B(  0-C ,  9-O ) :   0.9205 B(  0-C , 14-H ) :   0.9337
B(  0-C , 15-H ) :   0.9849 B(  1-C ,  2-H ) :   0.9676 B(  1-C ,  3-C ) :   0.9126
B(  1-C , 13-O ) :   0.9116 B(  3-C ,  4-H ) :   0.9503 B(  3-C ,  5-C ) :   0.8910
B(  3-C , 12-O ) :   0.9196 B(  5-C ,  6-H ) :   0.9691 B(  5-C ,  7-C ) :   0.9452
B(  5-C , 11-O ) :   0.8985 B(  7-C ,  8-H ) :   0.9461 B(  7-C ,  9-O ) :   0.9407
B(  7-C , 10-O ) :   1.0288 B( 10-O , 16-H ) :   0.8640 B( 11-O , 17-H ) :   0.8552
B( 12-O , 18-H ) :   0.8608 B( 13-O , 19-H ) :   0.8702

Dispersion correction           -0.006260757
FINAL SINGLE POINT ENERGY      -572.589990663319

DIPOLE MOMENT
-------------

Method             : SCF
Type of density    : Electron Density
Multiplicity       :   1
Irrep              :   0
Energy             :  -572.5999902732429518 Eh
Relativity type    :
Basis              : AO
                                X                 Y                 Z
Electronic contribution:     -1.112052818      -0.595278002       0.051816511
Nuclear contribution   :      2.079670226       1.668939408      -0.309641131
                        -----------------------------------------
Total Dipole Moment    :      0.967617408       1.073661405      -0.257824620
                        -----------------------------------------
Magnitude (a.u.)       :      1.468164090
Magnitude (Debye)      :      3.731776549

Rotational constants in cm-1:             0.056660             0.045144             0.029175
Rotational constants in MHz :          1698.633335          1353.380825           874.653773

                             ****ORCA TERMINATED NORMALLY****
TOTAL RUN TIME: 0 days 0 hours 0 minutes 49 seconds 172 msec
