                         Program Version 6.0.1  -  RELEASE   -
|  1> ! pbe def2-sv(p) def2/J RI DEFGRID1 loosescf d4 GCP(DFT/SV(P)) printgap
|  2> %output
|  3>     printlevel normal
|  4> end
|  5> * xyz 0 1
|  6> C 3.3490703864 -3.3902113218 0.1127594011
|  7> C 2.9523789508 -2.0472699207 0.7047322151
|  8> O 2.7146631062 -1.0731539049 -0.3293265183
|  9> C 1.5561951159 -1.078251598 -0.9514391563
| 10> O 0.6412012855 -1.84127985 -0.7134085755
| 11> C 1.4774329533 0.0063086567 -2.0058977987
| 12> C 0.3355333518 0.9736426678 -1.6909984643
| 13> H 0.2418169135 1.702123946 -2.5025216382
| 14> C 0.5277545069 1.7374104819 -0.3939097639
| 15> O -0.4020266116 2.0002890124 0.3443060539
| 16> O 1.7737736218 2.0621873045 -0.1861979162
| 17> C 2.1015532938 2.7835748039 1.0207935306
| 18> C 1.8408659905 4.2712881695 0.8560186326
| 19> S -1.2975599478 0.1597078425 -1.6266868391
| 20> P -1.6180061555 -0.2831281958 0.4371480854
| 21> S -0.2787920608 -0.5236010234 1.8499264175
| 22> O -2.7355707798 0.7215994197 0.9392583209
| 23> C -3.9335215847 1.0136549144 0.2000881044
| 24> O -2.5471927801 -1.5843268811 0.2594661103
| 25> C -2.0585513466 -2.8945746229 -0.0229639642
| 26> H 2.5279439828 -3.8003066499 -0.4706235588
| 27> H 4.2189325392 -3.2737581757 -0.5279032453
| 28> H 3.5849874593 -4.0775989059 0.9181823726
| 29> H 3.7605680186 -1.6173916539 1.295870756
| 30> H 2.0491936868 -2.1328888446 1.316549168
| 31> H 1.2744897202 -0.465608479 -2.9680362438
| 32> H 2.421980698 0.5476770371 -2.0347729256
| 33> H 1.5118993061 2.3669687172 1.8428879773
| 34> H 3.1605261678 2.5751451499 1.1707612998
| 35> H 2.3883725237 4.6550668026 -0.0002697165
| 36> H 0.7779619588 4.452742283 0.7129331562
| 37> H 2.1664594538 4.7893816479 1.7518099896
| 38> H -3.6791759693 1.4246298647 -0.7770956583
| 39> H -4.4602682366 1.7503225535 0.8011392907
| 40> H -4.5280977083 0.1089441685 0.0833120141
| 41> H -2.9018210559 -3.5605904057 0.1422061566
| 42> H -1.2347223458 -3.1402345453 0.6475220157
| 43> H -1.7109449908 -2.9504309565 -1.0535691846
| 44> *
| 45>
| 46>                          ****END OF INPUT****

CARTESIAN COORDINATES (ANGSTROEM)
---------------------------------
  C      3.349070   -3.390211    0.112759
  C      2.952379   -2.047270    0.704732
  O      2.714663   -1.073154   -0.329327
  C      1.556195   -1.078252   -0.951439
  O      0.641201   -1.841280   -0.713409
  C      1.477433    0.006309   -2.005898
  C      0.335533    0.973643   -1.690998
  H      0.241817    1.702124   -2.502522
  C      0.527755    1.737410   -0.393910
  O     -0.402027    2.000289    0.344306
  O      1.773774    2.062187   -0.186198
  C      2.101553    2.783575    1.020794
  C      1.840866    4.271288    0.856019
  S     -1.297560    0.159708   -1.626687
  P     -1.618006   -0.283128    0.437148
  S     -0.278792   -0.523601    1.849926
  O     -2.735571    0.721599    0.939258
  C     -3.933522    1.013655    0.200088
  O     -2.547193   -1.584327    0.259466
  C     -2.058551   -2.894575   -0.022964
  H      2.527944   -3.800307   -0.470624
  H      4.218933   -3.273758   -0.527903
  H      3.584987   -4.077599    0.918182
  H      3.760568   -1.617392    1.295871
  H      2.049194   -2.132889    1.316549
  H      1.274490   -0.465608   -2.968036
  H      2.421981    0.547677   -2.034773
  H      1.511899    2.366969    1.842888
  H      3.160526    2.575145    1.170761
  H      2.388373    4.655067   -0.000270
  H      0.777962    4.452742    0.712933
  H      2.166459    4.789382    1.751810
  H     -3.679176    1.424630   -0.777096
  H     -4.460268    1.750323    0.801139
  H     -4.528098    0.108944    0.083312
  H     -2.901821   -3.560590    0.142206
  H     -1.234722   -3.140235    0.647522
  H     -1.710945   -2.950431   -1.053569

 Total Charge           Charge          ....    0
 Multiplicity           Mult            ....    1
 Number of Electrons    NEL             ....  174
 Basis Dimension        Dim             ....  316

ORBITAL ENERGIES
----------------

  NO   OCC          E(Eh)            E(eV)
   0   2.0000     -88.029462     -2395.4034
   1   2.0000     -87.963571     -2393.6105
   2   2.0000     -76.413043     -2079.3046
   3   2.0000     -18.817098      -512.0393
   4   2.0000     -18.802141      -511.6323
   5   2.0000     -18.771360      -510.7947
   6   2.0000     -18.768867      -510.7268
   7   2.0000     -18.747958      -510.1579
   8   2.0000     -18.735912      -509.8301
   9   2.0000     -10.021548      -272.7002
  10   2.0000     -10.008754      -272.3520
  11   2.0000      -9.953981      -270.8616
  12   2.0000      -9.952311      -270.8162
  13   2.0000      -9.941065      -270.5101
  14   2.0000      -9.931482      -270.2494
  15   2.0000      -9.922381      -270.0017
  16   2.0000      -9.912427      -269.7309
  17   2.0000      -9.890364      -269.1305
  18   2.0000      -9.883572      -268.9457
  19   2.0000      -7.674339      -208.8294
  20   2.0000      -7.608831      -207.0468
  21   2.0000      -6.408345      -174.3799
  22   2.0000      -5.702601      -155.1757
  23   2.0000      -5.698967      -155.0768
  24   2.0000      -5.690774      -154.8538
  25   2.0000      -5.638228      -153.4240
  26   2.0000      -5.629258      -153.1799
  27   2.0000      -5.628566      -153.1611
  28   2.0000      -4.631167      -126.0205
  29   2.0000      -4.630535      -126.0033
  30   2.0000      -4.628692      -125.9531
  31   2.0000      -1.025902       -27.9162
  32   2.0000      -1.008559       -27.4443
  33   2.0000      -0.964892       -26.2560
  34   2.0000      -0.928691       -25.2710
  35   2.0000      -0.918883       -25.0041
  36   2.0000      -0.913846       -24.8670
  37   2.0000      -0.764813       -20.8116
  38   2.0000      -0.709160       -19.2972
  39   2.0000      -0.705697       -19.2030
  40   2.0000      -0.682517       -18.5722
  41   2.0000      -0.653032       -17.7699
  42   2.0000      -0.623928       -16.9779
  43   2.0000      -0.616599       -16.7785
  44   2.0000      -0.602258       -16.3883
  45   2.0000      -0.595661       -16.2088
  46   2.0000      -0.568132       -15.4597
  47   2.0000      -0.510386       -13.8883
  48   2.0000      -0.498494       -13.5647
  49   2.0000      -0.494235       -13.4488
  50   2.0000      -0.479690       -13.0530
  51   2.0000      -0.458120       -12.4661
  52   2.0000      -0.454388       -12.3645
  53   2.0000      -0.445626       -12.1261
  54   2.0000      -0.434054       -11.8112
  55   2.0000      -0.426382       -11.6025
  56   2.0000      -0.417124       -11.3505
  57   2.0000      -0.416347       -11.3294
  58   2.0000      -0.410126       -11.1601
  59   2.0000      -0.400385       -10.8950
  60   2.0000      -0.394898       -10.7457
  61   2.0000      -0.390365       -10.6224
  62   2.0000      -0.388189       -10.5632
  63   2.0000      -0.380068       -10.3422
  64   2.0000      -0.376115       -10.2346
  65   2.0000      -0.368318       -10.0224
  66   2.0000      -0.362812        -9.8726
  67   2.0000      -0.353000        -9.6056
  68   2.0000      -0.348742        -9.4897
  69   2.0000      -0.334891        -9.1129
  70   2.0000      -0.334296        -9.0967
  71   2.0000      -0.326069        -8.8728
  72   2.0000      -0.318963        -8.6794
  73   2.0000      -0.306185        -8.3317
  74   2.0000      -0.301250        -8.1974
  75   2.0000      -0.291295        -7.9265
  76   2.0000      -0.283204        -7.7064
  77   2.0000      -0.278690        -7.5835
  78   2.0000      -0.267431        -7.2772
  79   2.0000      -0.262595        -7.1456
  80   2.0000      -0.252904        -6.8819
  81   2.0000      -0.244589        -6.6556
  82   2.0000      -0.235300        -6.4028
  83   2.0000      -0.229820        -6.2537
  84   2.0000      -0.196743        -5.3536
  85   2.0000      -0.180888        -4.9222
  86   2.0000      -0.175025        -4.7627
  87   0.0000      -0.043899        -1.1946
  88   0.0000      -0.035253        -0.9593
  89   0.0000      -0.026643        -0.7250
  90   0.0000       0.005702         0.1552
  91   0.0000       0.036718         0.9992

MULLIKEN ATOMIC CHARGES
-----------------------
   0 C :   -0.308472
   1 C :   -0.024528
   2 O :   -0.221834
   3 C :    0.090979
   4 O :   -0.197445
   5 C :   -0.009873
   6 C :   -0.314586
   7 H :    0.155303
   8 C :    0.195313
   9 O :   -0.181937
  10 O :   -0.218404
  11 C :   -0.010616
  12 C :   -0.311927
  13 S :   -0.098314
  14 P :    0.641288
  15 S :   -0.333590
  16 O :   -0.358894
  17 C :   -0.101870
  18 O :   -0.400024
  19 C :   -0.088033
  20 H :    0.126221
  21 H :    0.108750
  22 H :    0.113189
  23 H :    0.098053
  24 H :    0.132576
  25 H :    0.117419
  26 H :    0.111817
  27 H :    0.129194
  28 H :    0.104941
  29 H :    0.111706
  30 H :    0.132779
  31 H :    0.118019
  32 H :    0.112881
  33 H :    0.123738
  34 H :    0.116055
  35 H :    0.110490
  36 H :    0.115917
  37 H :    0.113718
Sum of atomic charges:    0.0000000

LOEWDIN ATOMIC CHARGES
----------------------
   0 C :   -0.357737
   1 C :   -0.114507
   2 O :   -0.047794
   3 C :    0.024829
   4 O :   -0.168349
   5 C :   -0.250238
   6 C :   -0.259755
   7 H :    0.152541
   8 C :    0.007276
   9 O :   -0.152169
  10 O :   -0.036524
  11 C :   -0.106206
  12 C :   -0.357220
  13 S :    0.102752
  14 P :    0.594768
  15 S :   -0.315303
  16 O :   -0.238007
  17 C :   -0.213275
  18 O :   -0.263855
  19 C :   -0.213095
  20 H :    0.129205
  21 H :    0.122103
  22 H :    0.131019
  23 H :    0.116739
  24 H :    0.120528
  25 H :    0.144171
  26 H :    0.138810
  27 H :    0.128565
  28 H :    0.119787
  29 H :    0.123685
  30 H :    0.132529
  31 H :    0.133680
  32 H :    0.104649
  33 H :    0.122524
  34 H :    0.111500
  35 H :    0.113571
  36 H :    0.109780
  37 H :    0.109021

  Mayer bond orders larger than 0.100000
B(  0-C ,  1-C ) :   1.1666 B(  0-C , 20-H ) :   0.9456 B(  0-C , 21-H ) :   0.9478
B(  0-C , 22-H ) :   0.9445 B(  1-C ,  2-O ) :   0.9104 B(  1-C , 23-H ) :   0.9387
B(  1-C , 24-H ) :   0.9062 B(  2-O ,  3-C ) :   1.2537 B(  3-C ,  4-O ) :   1.9739
B(  3-C ,  5-C ) :   1.0063 B(  5-C ,  6-C ) :   1.0304 B(  5-C , 25-H ) :   0.8873
B(  5-C , 26-H ) :   0.8816 B(  6-C ,  7-H ) :   0.8716 B(  6-C ,  8-C ) :   0.8954
B(  6-C , 13-S ) :   1.0396 B(  8-C ,  9-O ) :   1.9837 B(  8-C , 10-O ) :   1.2746
B( 10-O , 11-C ) :   0.8984 B( 11-C , 12-C ) :   1.1719 B( 11-C , 27-H ) :   0.9122
B( 11-C , 28-H ) :   0.9371 B( 12-C , 29-H ) :   0.9477 B( 12-C , 30-H ) :   0.9442
B( 12-C , 31-H ) :   0.9438 B( 13-S , 14-P ) :   0.9243 B( 13-S , 15-S ) :   0.1195
B( 14-P , 15-S ) :   1.5699 B( 14-P , 16-O ) :   1.1218 B( 14-P , 18-O ) :   1.0622
B( 16-O , 17-C ) :   0.9319 B( 17-C , 32-H ) :   0.9364 B( 17-C , 33-H ) :   0.9603
B( 17-C , 34-H ) :   0.9464 B( 18-O , 19-C ) :   0.9364 B( 19-C , 35-H ) :   0.9564
B( 19-C , 36-H ) :   0.9394 B( 19-C , 37-H ) :   0.9486

Dispersion correction           -0.055397971
FINAL SINGLE POINT ENERGY     -1979.001456514778

DIPOLE MOMENT
-------------

Method             : SCF
Type of density    : Electron Density
Multiplicity       :   1
Irrep              :   0
Energy             : -1979.1300465673598410 Eh
Relativity type    :
Basis              : AO
                                X                 Y                 Z
Electronic contribution:    -11.321838851       0.782197072      -0.916527955
Nuclear contribution   :     12.337848552      -0.338140359      -0.065563394
                        -----------------------------------------
Total Dipole Moment    :      1.016009702       0.444056714      -0.982091348
                        -----------------------------------------
Magnitude (a.u.)       :      1.481204069
Magnitude (Debye)      :      3.764921541

Rotational constants in cm-1:             0.011299             0.009878             0.006924
Rotational constants in MHz :           338.749258           296.131185           207.586456

                             ****ORCA TERMINATED NORMALLY****
TOTAL RUN TIME: 0 days 0 hours 1 minutes 31 seconds 396 msec
