                         Program Version 6.0.0  -   RELEASE  -
|  1> ! pbe def2-sv(p) def2/J RI DEFGRID1 loosescf d4 GCP(DFT/SV(P)) printgap
|  2> %output
|  3>     printlevel normal
|  4> end
|  5> * xyz 0 1
|  6> C 4.3055172568 2.0308731773 0.8426843001
|  7> C 4.3218604485 1.3406593385 -0.5066006208
|  8> O 3.5885200101 0.1018548746 -0.4709461093
|  9> P 1.9929577546 0.0699333565 -0.4327960592
| 10> S 1.1010056747 1.6011630911 -1.2507633634
| 11> O 1.5752471713 -0.1024208329 1.0901982884
| 12> C 2.1659447923 -1.1176673456 1.9404403078
| 13> C 2.1543685915 -0.5969354533 3.3626063489
| 14> S 1.8295137377 -1.8402824598 -1.321258112
| 15> C 0.0235925083 -1.9578263958 -1.4586072745
| 16> S -0.8426051305 -1.923445599 0.1399235691
| 17> P -1.8937535771 -0.0998570325 -0.0243134609
| 18> S -2.2553498294 0.449406809 -1.8794211258
| 19> O -1.0777559813 0.8286725492 0.9553964339
| 20> C -1.6044229405 2.0062042905 1.6063537989
| 21> C -2.1138965606 3.0316095592 0.6162729688
| 22> O -3.2097111627 -0.3546249211 0.8308255596
| 23> C -4.3578189043 -1.0395214354 0.2930005856
| 24> C -5.5870536237 -0.5565826974 1.0366282402
| 25> H 4.8923879331 2.942385233 0.7886951535
| 26> H 3.2792418566 2.2848627749 1.1080856721
| 27> H 4.7216596426 1.3790599498 1.6066466381
| 28> H 5.3291518124 1.0448655361 -0.8027891697
| 29> H 3.8820108275 1.9850905355 -1.2743921012
| 30> H 1.5569981864 -2.0208278804 1.843846337
| 31> H 3.1809416374 -1.3248365793 1.590703717
| 32> H 2.7503343148 0.3082391092 3.4411381715
| 33> H 1.1347280106 -0.3724673893 3.6629748776
| 34> H 2.5640485053 -1.3563115759 4.0207734323
| 35> H -0.1702322834 -2.9217464635 -1.9222167524
| 36> H -0.3638380998 -1.1420218862 -2.0770166227
| 37> H -2.3942805925 1.6907673392 2.2916500247
| 38> H -0.7478859836 2.3855659307 2.166264903
| 39> H -2.9736726084 2.6377842239 0.0750892435
| 40> H -2.4068266206 3.9336486409 1.1439846257
| 41> H -1.3356847437 3.2717258579 -0.1065422994
| 42> H -4.4245677875 -0.820623617 -0.7782148572
| 43> H -4.2021554725 -2.1119505263 0.432229633
| 44> H -5.4762370855 -0.7464338562 2.1002787577
| 45> H -5.726962779 0.509531398 0.8801123612
| 46> H -6.4569008821 -1.0880348073 0.6650856293
| 47> *
| 48>
| 49>                          ****END OF INPUT****

CARTESIAN COORDINATES (ANGSTROEM)
---------------------------------
  C      4.305517    2.030873    0.842684
  C      4.321860    1.340659   -0.506601
  O      3.588520    0.101855   -0.470946
  P      1.992958    0.069933   -0.432796
  S      1.101006    1.601163   -1.250763
  O      1.575247   -0.102421    1.090198
  C      2.165945   -1.117667    1.940440
  C      2.154369   -0.596935    3.362606
  S      1.829514   -1.840282   -1.321258
  C      0.023593   -1.957826   -1.458607
  S     -0.842605   -1.923446    0.139924
  P     -1.893754   -0.099857   -0.024313
  S     -2.255350    0.449407   -1.879421
  O     -1.077756    0.828673    0.955396
  C     -1.604423    2.006204    1.606354
  C     -2.113897    3.031610    0.616273
  O     -3.209711   -0.354625    0.830826
  C     -4.357819   -1.039521    0.293001
  C     -5.587054   -0.556583    1.036628
  H      4.892388    2.942385    0.788695
  H      3.279242    2.284863    1.108086
  H      4.721660    1.379060    1.606647
  H      5.329152    1.044866   -0.802789
  H      3.882011    1.985091   -1.274392
  H      1.556998   -2.020828    1.843846
  H      3.180942   -1.324837    1.590704
  H      2.750334    0.308239    3.441138
  H      1.134728   -0.372467    3.662975
  H      2.564049   -1.356312    4.020773
  H     -0.170232   -2.921746   -1.922217
  H     -0.363838   -1.142022   -2.077017
  H     -2.394281    1.690767    2.291650
  H     -0.747886    2.385566    2.166265
  H     -2.973673    2.637784    0.075089
  H     -2.406827    3.933649    1.143985
  H     -1.335685    3.271726   -0.106542
  H     -4.424568   -0.820624   -0.778215
  H     -4.202155   -2.111951    0.432230
  H     -5.476237   -0.746434    2.100279
  H     -5.726963    0.509531    0.880112
  H     -6.456901   -1.088035    0.665086

 Total Charge           Charge          ....    0
 Multiplicity           Mult            ....    1
 Number of Electrons    NEL             ....  202
 Basis Dimension        Dim             ....  334

ORBITAL ENERGIES
----------------

  NO   OCC          E(Eh)            E(eV)
   0   2.0000     -88.040040     -2395.6913
   1   2.0000     -88.037187     -2395.6136
   2   2.0000     -87.979905     -2394.0549
   3   2.0000     -87.978519     -2394.0172
   4   2.0000     -76.422157     -2079.5526
   5   2.0000     -76.418863     -2079.4630
   6   2.0000     -18.792127      -511.3598
   7   2.0000     -18.789379      -511.2850
   8   2.0000     -18.784832      -511.1613
   9   2.0000     -18.781519      -511.0711
  10   2.0000      -9.950556      -270.7684
  11   2.0000      -9.950339      -270.7625
  12   2.0000      -9.949828      -270.7486
  13   2.0000      -9.949095      -270.7286
  14   2.0000      -9.948891      -270.7231
  15   2.0000      -9.888054      -269.0676
  16   2.0000      -9.887872      -269.0627
  17   2.0000      -9.885763      -269.0053
  18   2.0000      -9.874867      -268.7088
  19   2.0000      -7.685110      -209.1225
  20   2.0000      -7.682675      -209.0562
  21   2.0000      -7.624830      -207.4822
  22   2.0000      -7.623710      -207.4517
  23   2.0000      -6.419442      -174.6819
  24   2.0000      -6.416701      -174.6073
  25   2.0000      -5.712920      -155.4565
  26   2.0000      -5.710587      -155.3930
  27   2.0000      -5.709603      -155.3662
  28   2.0000      -5.707163      -155.2998
  29   2.0000      -5.702125      -155.1627
  30   2.0000      -5.699579      -155.0934
  31   2.0000      -5.653685      -153.8446
  32   2.0000      -5.652722      -153.8184
  33   2.0000      -5.645701      -153.6273
  34   2.0000      -5.644791      -153.6026
  35   2.0000      -5.644523      -153.5953
  36   2.0000      -5.643504      -153.5676
  37   2.0000      -4.642265      -126.3225
  38   2.0000      -4.640975      -126.2873
  39   2.0000      -4.639907      -126.2583
  40   2.0000      -4.639692      -126.2524
  41   2.0000      -4.638196      -126.2117
  42   2.0000      -4.637038      -126.1802
  43   2.0000      -0.984218       -26.7819
  44   2.0000      -0.980221       -26.6732
  45   2.0000      -0.940083       -25.5810
  46   2.0000      -0.938148       -25.5283
  47   2.0000      -0.758545       -20.6411
  48   2.0000      -0.719723       -19.5847
  49   2.0000      -0.707109       -19.2414
  50   2.0000      -0.690273       -18.7833
  51   2.0000      -0.685898       -18.6642
  52   2.0000      -0.669408       -18.2155
  53   2.0000      -0.647793       -17.6274
  54   2.0000      -0.630477       -17.1562
  55   2.0000      -0.594174       -16.1683
  56   2.0000      -0.586045       -15.9471
  57   2.0000      -0.569152       -15.4874
  58   2.0000      -0.567749       -15.4492
  59   2.0000      -0.558051       -15.1853
  60   2.0000      -0.503717       -13.7068
  61   2.0000      -0.497217       -13.5300
  62   2.0000      -0.477088       -12.9822
  63   2.0000      -0.468232       -12.7412
  64   2.0000      -0.447220       -12.1695
  65   2.0000      -0.444180       -12.0867
  66   2.0000      -0.438651       -11.9363
  67   2.0000      -0.435603       -11.8534
  68   2.0000      -0.426030       -11.5929
  69   2.0000      -0.406202       -11.0533
  70   2.0000      -0.404535       -11.0080
  71   2.0000      -0.396974       -10.8022
  72   2.0000      -0.389340       -10.5945
  73   2.0000      -0.386493       -10.5170
  74   2.0000      -0.380015       -10.3407
  75   2.0000      -0.366609        -9.9759
  76   2.0000      -0.363493        -9.8911
  77   2.0000      -0.357496        -9.7280
  78   2.0000      -0.353282        -9.6133
  79   2.0000      -0.348354        -9.4792
  80   2.0000      -0.344130        -9.3642
  81   2.0000      -0.339626        -9.2417
  82   2.0000      -0.336796        -9.1647
  83   2.0000      -0.333440        -9.0734
  84   2.0000      -0.330175        -8.9845
  85   2.0000      -0.318060        -8.6549
  86   2.0000      -0.312208        -8.4956
  87   2.0000      -0.306382        -8.3371
  88   2.0000      -0.298284        -8.1167
  89   2.0000      -0.283212        -7.7066
  90   2.0000      -0.276653        -7.5281
  91   2.0000      -0.270726        -7.3668
  92   2.0000      -0.265936        -7.2365
  93   2.0000      -0.260676        -7.0934
  94   2.0000      -0.254614        -6.9284
  95   2.0000      -0.231894        -6.3101
  96   2.0000      -0.220884        -6.0106
  97   2.0000      -0.211614        -5.7583
  98   2.0000      -0.197552        -5.3757
  99   2.0000      -0.188339        -5.1250
 100   2.0000      -0.181889        -4.9494
 101   0.0000      -0.038505        -1.0478
 102   0.0000      -0.028678        -0.7804
 103   0.0000       0.000180         0.0049
 104   0.0000       0.012909         0.3513
 105   0.0000       0.020053         0.5457

MULLIKEN ATOMIC CHARGES
-----------------------
   0 C :   -0.317734
   1 C :   -0.005357
   2 O :   -0.395045
   3 P :    0.607343
   4 S :   -0.290622
   5 O :   -0.357860
   6 C :   -0.018589
   7 C :   -0.283948
   8 S :   -0.091842
   9 C :   -0.354418
  10 S :   -0.107616
  11 P :    0.626389
  12 S :   -0.309197
  13 O :   -0.348745
  14 C :    0.007698
  15 C :   -0.322550
  16 O :   -0.389111
  17 C :   -0.006124
  18 C :   -0.285154
  19 H :    0.113278
  20 H :    0.129105
  21 H :    0.114908
  22 H :    0.104674
  23 H :    0.114208
  24 H :    0.107038
  25 H :    0.104171
  26 H :    0.114363
  27 H :    0.120464
  28 H :    0.109258
  29 H :    0.180489
  30 H :    0.206664
  31 H :    0.103133
  32 H :    0.104184
  33 H :    0.123033
  34 H :    0.105449
  35 H :    0.137989
  36 H :    0.105656
  37 H :    0.099336
  38 H :    0.114589
  39 H :    0.118148
  40 H :    0.112345
Sum of atomic charges:   -0.0000000

LOEWDIN ATOMIC CHARGES
----------------------
   0 C :   -0.365796
   1 C :   -0.118406
   2 O :   -0.259231
   3 P :    0.560291
   4 S :   -0.290001
   5 O :   -0.238568
   6 C :   -0.124756
   7 C :   -0.350565
   8 S :    0.077678
   9 C :   -0.481233
  10 S :    0.078579
  11 P :    0.568708
  12 S :   -0.298112
  13 O :   -0.227162
  14 C :   -0.107160
  15 C :   -0.369587
  16 O :   -0.252318
  17 C :   -0.122567
  18 C :   -0.351504
  19 H :    0.131228
  20 H :    0.124798
  21 H :    0.121925
  22 H :    0.118197
  23 H :    0.110839
  24 H :    0.105288
  25 H :    0.106348
  26 H :    0.123967
  27 H :    0.129249
  28 H :    0.129434
  29 H :    0.137415
  30 H :    0.125396
  31 H :    0.109775
  32 H :    0.119731
  33 H :    0.119265
  34 H :    0.126892
  35 H :    0.131984
  36 H :    0.106137
  37 H :    0.110465
  38 H :    0.125385
  39 H :    0.126923
  40 H :    0.131070

  Mayer bond orders larger than 0.100000
B(  0-C ,  1-C ) :   1.1604 B(  0-C , 19-H ) :   0.9387 B(  0-C , 20-H ) :   0.9349
B(  0-C , 21-H ) :   0.9442 B(  1-C ,  2-O ) :   0.9098 B(  1-C , 22-H ) :   0.9347
B(  1-C , 23-H ) :   0.9112 B(  2-O ,  3-P ) :   1.0692 B(  3-P ,  4-S ) :   1.6606
B(  3-P ,  5-O ) :   1.1080 B(  3-P ,  8-S ) :   0.9520 B(  4-S ,  8-S ) :   0.1042
B(  5-O ,  6-C ) :   0.8973 B(  6-C ,  7-C ) :   1.1640 B(  6-C , 24-H ) :   0.9149
B(  6-C , 25-H ) :   0.9171 B(  7-C , 26-H ) :   0.9494 B(  7-C , 27-H ) :   0.9484
B(  7-C , 28-H ) :   0.9412 B(  8-S ,  9-C ) :   0.9963 B(  9-C , 10-S ) :   1.0028
B(  9-C , 29-H ) :   0.9133 B(  9-C , 30-H ) :   0.8465 B( 10-S , 11-P ) :   0.9539
B( 10-S , 12-S ) :   0.1225 B( 11-P , 12-S ) :   1.6114 B( 11-P , 13-O ) :   1.1518
B( 11-P , 16-O ) :   1.0779 B( 12-S , 30-H ) :   0.1071 B( 13-O , 14-C ) :   0.9042
B( 14-C , 15-C ) :   1.1678 B( 14-C , 31-H ) :   0.9311 B( 14-C , 32-H ) :   0.9320
B( 15-C , 33-H ) :   0.9346 B( 15-C , 34-H ) :   0.9357 B( 15-C , 35-H ) :   0.9396
B( 16-O , 17-C ) :   0.9058 B( 17-C , 18-C ) :   1.1595 B( 17-C , 36-H ) :   0.9018
B( 17-C , 37-H ) :   0.9307 B( 18-C , 38-H ) :   0.9508 B( 18-C , 39-H ) :   0.9513
B( 18-C , 40-H ) :   0.9422

Dispersion correction           -0.067053476
FINAL SINGLE POINT ENERGY     -2929.516932361339

DIPOLE MOMENT
-------------

Method             : SCF
Type of density    : Electron Density
Multiplicity       :   1
Irrep              :   0
Energy             : -2929.6353013754874155 Eh
Relativity type    :
Basis              : AO
                                X                 Y                 Z
Electronic contribution:      3.348077454     -10.211575266     -18.528912032
Nuclear contribution   :     -3.249098637       9.904378042      20.135736327
                        -----------------------------------------
Total Dipole Moment    :      0.098978817      -0.307197224       1.606824296
                        -----------------------------------------
Magnitude (a.u.)       :      1.638917709
Magnitude (Debye)      :      4.165797755

Rotational constants in cm-1:             0.012548             0.005351             0.005133
Rotational constants in MHz :           376.175034           160.405699           153.892184

                             ****ORCA TERMINATED NORMALLY****
TOTAL RUN TIME: 0 days 0 hours 0 minutes 21 seconds 386 msec
