                         Program Version 6.0.0  -   RELEASE  -
|  1> ! pbe def2-sv(p) def2/J RI DEFGRID1 loosescf d4 GCP(DFT/SV(P)) printgap
|  2> %output
|  3>     printlevel normal
|  4> end
|  5> * xyz 0 1
|  6> C 5.5896534098 -0.1348678243 -1.377685359
|  7> C 4.1255872369 -0.4934679988 -1.5304801888
|  8> O 3.3838778908 0.242752533 -0.5377178437
|  9> P 1.8003305968 0.3640312991 -0.6280096933
| 10> S 1.1717462715 0.9934132237 -2.374099121
| 11> O 1.4952002243 1.3550517103 0.5608495212
| 12> C 2.3171142238 1.5061123859 1.7476967972
| 13> C 2.4646002418 0.2226506816 2.5353920428
| 14> S 1.1566818619 -1.5981311964 -0.083998393
| 15> C -0.1697423495 -1.8526867407 -1.2870767454
| 16> S -1.8247323801 -1.9434582921 -0.5462871302
| 17> P -1.899753747 -0.1571659374 0.5791048409
| 18> S -1.2022533607 -0.1201854846 2.4142147014
| 19> O -3.4294619045 0.2722358369 0.5128487922
| 20> C -4.3802170311 -0.1789072465 1.4926626707
| 21> C -4.6705181396 -1.6579336964 1.3460361046
| 22> O -1.2140422507 0.84746737 -0.4419468274
| 23> C -1.410464984 2.2743080096 -0.3132676095
| 24> C -2.4249492121 2.7533959267 -1.3292492056
| 25> H 5.9344798855 -0.3913100669 -0.3802487001
| 26> H 6.1678654434 -0.6872677594 -2.1108783164
| 27> H 5.7320911978 0.9301262133 -1.5380178727
| 28> H 3.9546706709 -1.5604489288 -1.3625889434
| 29> H 3.7464340579 -0.2208746811 -2.5210106007
| 30> H 3.289943331 1.8884798572 1.4335094402
| 31> H 1.7817069478 2.2634399847 2.3223955483
| 32> H 3.051966239 0.4227277108 3.4259453421
| 33> H 1.4893302542 -0.1554988766 2.8336307764
| 34> H 2.9687464148 -0.536114204 1.9397339047
| 35> H -0.0174342857 -2.8216401586 -1.7568954808
| 36> H -0.1339221994 -1.0436810834 -2.0224627003
| 37> H -3.982221441 0.040509109 2.4892294478
| 38> H -5.2651672725 0.4296774121 1.3034376186
| 39> H -5.4470921176 -1.9457789456 2.0472009922
| 40> H -4.9937182288 -1.8820033442 0.3328915531
| 41> H -3.7691986227 -2.233419238 1.5586865087
| 42> H -1.7194365861 2.4985852349 0.7120900288
| 43> H -0.4273513112 2.7134922278 -0.4970354963
| 44> H -2.5251830249 3.8311540913 -1.2483344199
| 45> H -2.085002562 2.4980576257 -2.3297961146
| 46> H -3.3883643942 2.2835700579 -1.1503164554
| 47> *
| 48>
| 49>                          ****END OF INPUT****

CARTESIAN COORDINATES (ANGSTROEM)
---------------------------------
  C      5.589653   -0.134868   -1.377685
  C      4.125587   -0.493468   -1.530480
  O      3.383878    0.242753   -0.537718
  P      1.800331    0.364031   -0.628010
  S      1.171746    0.993413   -2.374099
  O      1.495200    1.355052    0.560850
  C      2.317114    1.506112    1.747697
  C      2.464600    0.222651    2.535392
  S      1.156682   -1.598131   -0.083998
  C     -0.169742   -1.852687   -1.287077
  S     -1.824732   -1.943458   -0.546287
  P     -1.899754   -0.157166    0.579105
  S     -1.202253   -0.120185    2.414215
  O     -3.429462    0.272236    0.512849
  C     -4.380217   -0.178907    1.492663
  C     -4.670518   -1.657934    1.346036
  O     -1.214042    0.847467   -0.441947
  C     -1.410465    2.274308   -0.313268
  C     -2.424949    2.753396   -1.329249
  H      5.934480   -0.391310   -0.380249
  H      6.167865   -0.687268   -2.110878
  H      5.732091    0.930126   -1.538018
  H      3.954671   -1.560449   -1.362589
  H      3.746434   -0.220875   -2.521011
  H      3.289943    1.888480    1.433509
  H      1.781707    2.263440    2.322396
  H      3.051966    0.422728    3.425945
  H      1.489330   -0.155499    2.833631
  H      2.968746   -0.536114    1.939734
  H     -0.017434   -2.821640   -1.756895
  H     -0.133922   -1.043681   -2.022463
  H     -3.982221    0.040509    2.489229
  H     -5.265167    0.429677    1.303438
  H     -5.447092   -1.945779    2.047201
  H     -4.993718   -1.882003    0.332892
  H     -3.769199   -2.233419    1.558687
  H     -1.719437    2.498585    0.712090
  H     -0.427351    2.713492   -0.497035
  H     -2.525183    3.831154   -1.248334
  H     -2.085003    2.498058   -2.329796
  H     -3.388364    2.283570   -1.150316

 Total Charge           Charge          ....    0
 Multiplicity           Mult            ....    1
 Number of Electrons    NEL             ....  202
 Basis Dimension        Dim             ....  334

ORBITAL ENERGIES
----------------

  NO   OCC          E(Eh)            E(eV)
   0   2.0000     -88.042348     -2395.7541
   1   2.0000     -88.037969     -2395.6349
   2   2.0000     -87.985254     -2394.2005
   3   2.0000     -87.980133     -2394.0611
   4   2.0000     -76.426995     -2079.6843
   5   2.0000     -76.422618     -2079.5652
   6   2.0000     -18.795059      -511.4395
   7   2.0000     -18.791741      -511.3493
   8   2.0000     -18.790374      -511.3121
   9   2.0000     -18.783356      -511.1211
  10   2.0000      -9.953263      -270.8421
  11   2.0000      -9.952884      -270.8317
  12   2.0000      -9.952681      -270.8262
  13   2.0000      -9.950742      -270.7734
  14   2.0000      -9.940275      -270.4886
  15   2.0000      -9.890241      -269.1271
  16   2.0000      -9.885421      -268.9960
  17   2.0000      -9.878718      -268.8136
  18   2.0000      -9.873654      -268.6758
  19   2.0000      -7.686872      -209.1704
  20   2.0000      -7.683659      -209.0830
  21   2.0000      -7.630212      -207.6286
  22   2.0000      -7.625181      -207.4917
  23   2.0000      -6.424115      -174.8091
  24   2.0000      -6.420345      -174.7065
  25   2.0000      -5.714724      -155.5055
  26   2.0000      -5.711874      -155.4280
  27   2.0000      -5.711390      -155.4148
  28   2.0000      -5.708076      -155.3247
  29   2.0000      -5.703933      -155.2119
  30   2.0000      -5.700285      -155.1126
  31   2.0000      -5.659263      -153.9964
  32   2.0000      -5.653913      -153.8508
  33   2.0000      -5.650713      -153.7637
  34   2.0000      -5.650286      -153.7521
  35   2.0000      -5.645735      -153.6283
  36   2.0000      -5.645589      -153.6243
  37   2.0000      -4.647096      -126.4539
  38   2.0000      -4.645644      -126.4144
  39   2.0000      -4.644482      -126.3828
  40   2.0000      -4.643329      -126.3514
  41   2.0000      -4.642147      -126.3193
  42   2.0000      -4.640375      -126.2710
  43   2.0000      -0.989381       -26.9224
  44   2.0000      -0.984086       -26.7783
  45   2.0000      -0.943930       -25.6856
  46   2.0000      -0.940440       -25.5907
  47   2.0000      -0.760197       -20.6860
  48   2.0000      -0.719410       -19.5761
  49   2.0000      -0.705382       -19.1944
  50   2.0000      -0.691473       -18.8159
  51   2.0000      -0.685317       -18.6484
  52   2.0000      -0.670994       -18.2587
  53   2.0000      -0.646858       -17.6019
  54   2.0000      -0.634338       -17.2612
  55   2.0000      -0.596302       -16.2262
  56   2.0000      -0.589623       -16.0445
  57   2.0000      -0.572063       -15.5666
  58   2.0000      -0.568257       -15.4631
  59   2.0000      -0.557336       -15.1659
  60   2.0000      -0.506315       -13.7775
  61   2.0000      -0.494292       -13.4504
  62   2.0000      -0.472160       -12.8481
  63   2.0000      -0.469490       -12.7755
  64   2.0000      -0.451142       -12.2762
  65   2.0000      -0.450118       -12.2483
  66   2.0000      -0.443610       -12.0712
  67   2.0000      -0.432444       -11.7674
  68   2.0000      -0.427186       -11.6243
  69   2.0000      -0.412791       -11.2326
  70   2.0000      -0.409391       -11.1401
  71   2.0000      -0.398470       -10.8429
  72   2.0000      -0.387335       -10.5399
  73   2.0000      -0.383382       -10.4324
  74   2.0000      -0.379076       -10.3152
  75   2.0000      -0.369482       -10.0541
  76   2.0000      -0.366469        -9.9721
  77   2.0000      -0.354578        -9.6486
  78   2.0000      -0.354140        -9.6366
  79   2.0000      -0.349209        -9.5025
  80   2.0000      -0.346278        -9.4227
  81   2.0000      -0.342763        -9.3270
  82   2.0000      -0.337899        -9.1947
  83   2.0000      -0.332079        -9.0363
  84   2.0000      -0.331160        -9.0113
  85   2.0000      -0.315863        -8.5951
  86   2.0000      -0.310016        -8.4360
  87   2.0000      -0.300173        -8.1681
  88   2.0000      -0.294655        -8.0180
  89   2.0000      -0.291310        -7.9270
  90   2.0000      -0.283098        -7.7035
  91   2.0000      -0.277177        -7.5424
  92   2.0000      -0.268136        -7.2964
  93   2.0000      -0.259669        -7.0659
  94   2.0000      -0.254151        -6.9158
  95   2.0000      -0.235501        -6.4083
  96   2.0000      -0.222173        -6.0456
  97   2.0000      -0.202372        -5.5068
  98   2.0000      -0.201629        -5.4866
  99   2.0000      -0.192762        -5.2453
 100   2.0000      -0.190919        -5.1952
 101   0.0000      -0.045080        -1.2267
 102   0.0000      -0.035347        -0.9619
 103   0.0000      -0.020293        -0.5522
 104   0.0000       0.008554         0.2328
 105   0.0000       0.015078         0.4103

MULLIKEN ATOMIC CHARGES
-----------------------
   0 C :   -0.281116
   1 C :   -0.006637
   2 O :   -0.386611
   3 P :    0.632715
   4 S :   -0.311425
   5 O :   -0.365417
   6 C :    0.018336
   7 C :   -0.346922
   8 S :   -0.107331
   9 C :   -0.334357
  10 S :   -0.106352
  11 P :    0.625103
  12 S :   -0.323277
  13 O :   -0.375209
  14 C :   -0.005534
  15 C :   -0.326379
  16 O :   -0.373679
  17 C :   -0.005317
  18 C :   -0.285043
  19 H :    0.114988
  20 H :    0.112928
  21 H :    0.120091
  22 H :    0.099276
  23 H :    0.105414
  24 H :    0.106039
  25 H :    0.108886
  26 H :    0.110134
  27 H :    0.155172
  28 H :    0.117678
  29 H :    0.179154
  30 H :    0.203066
  31 H :    0.112045
  32 H :    0.104531
  33 H :    0.116625
  34 H :    0.122519
  35 H :    0.130825
  36 H :    0.093975
  37 H :    0.114087
  38 H :    0.104064
  39 H :    0.119105
  40 H :    0.113851
Sum of atomic charges:    0.0000000

LOEWDIN ATOMIC CHARGES
----------------------
   0 C :   -0.350405
   1 C :   -0.123392
   2 O :   -0.248892
   3 P :    0.583620
   4 S :   -0.295608
   5 O :   -0.229869
   6 C :   -0.105007
   7 C :   -0.377308
   8 S :    0.080592
   9 C :   -0.481524
  10 S :    0.076181
  11 P :    0.569196
  12 S :   -0.316405
  13 O :   -0.241964
  14 C :   -0.123641
  15 C :   -0.370559
  16 O :   -0.242848
  17 C :   -0.119442
  18 C :   -0.358071
  19 H :    0.125680
  20 H :    0.131531
  21 H :    0.128546
  22 H :    0.106493
  23 H :    0.107995
  24 H :    0.112867
  25 H :    0.123299
  26 H :    0.131504
  27 H :    0.125505
  28 H :    0.114500
  29 H :    0.137891
  30 H :    0.124009
  31 H :    0.109187
  32 H :    0.118298
  33 H :    0.133151
  34 H :    0.126301
  35 H :    0.121381
  36 H :    0.105153
  37 H :    0.114341
  38 H :    0.127081
  39 H :    0.128151
  40 H :    0.122482

  Mayer bond orders larger than 0.100000
B(  0-C ,  1-C ) :   1.1603 B(  0-C , 19-H ) :   0.9517 B(  0-C , 20-H ) :   0.9420
B(  0-C , 21-H ) :   0.9508 B(  1-C ,  2-O ) :   0.9021 B(  1-C , 22-H ) :   0.9240
B(  1-C , 23-H ) :   0.9087 B(  2-O ,  3-P ) :   1.0662 B(  3-P ,  4-S ) :   1.6105
B(  3-P ,  5-O ) :   1.1363 B(  3-P ,  8-S ) :   0.9501 B(  4-S ,  8-S ) :   0.1213
B(  4-S , 30-H ) :   0.1207 B(  5-O ,  6-C ) :   0.8879 B(  6-C ,  7-C ) :   1.1721
B(  6-C , 24-H ) :   0.9297 B(  6-C , 25-H ) :   0.9303 B(  7-C , 26-H ) :   0.9344
B(  7-C , 27-H ) :   0.9222 B(  7-C , 28-H ) :   0.9351 B(  8-S ,  9-C ) :   1.0131
B(  9-C , 10-S ) :   0.9920 B(  9-C , 29-H ) :   0.9115 B(  9-C , 30-H ) :   0.8445
B( 10-S , 11-P ) :   0.9625 B( 10-S , 12-S ) :   0.1140 B( 11-P , 12-S ) :   1.6366
B( 11-P , 13-O ) :   1.0714 B( 11-P , 16-O ) :   1.1157 B( 13-O , 14-C ) :   0.9114
B( 14-C , 15-C ) :   1.1638 B( 14-C , 31-H ) :   0.9094 B( 14-C , 32-H ) :   0.9314
B( 15-C , 33-H ) :   0.9384 B( 15-C , 34-H ) :   0.9442 B( 15-C , 35-H ) :   0.9310
B( 16-O , 17-C ) :   0.8776 B( 17-C , 18-C ) :   1.1679 B( 17-C , 36-H ) :   0.9141
B( 17-C , 37-H ) :   0.9148 B( 18-C , 38-H ) :   0.9412 B( 18-C , 39-H ) :   0.9455
B( 18-C , 40-H ) :   0.9433

Dispersion correction           -0.068414941
FINAL SINGLE POINT ENERGY     -2929.514368356664

DIPOLE MOMENT
-------------

Method             : SCF
Type of density    : Electron Density
Multiplicity       :   1
Irrep              :   0
Energy             : -2929.6345506619727530 Eh
Relativity type    :
Basis              : AO
                                X                 Y                 Z
Electronic contribution:     -3.843019514      -5.893573370      -3.203457454
Nuclear contribution   :      4.205922415       5.863571020       3.328105155
                        -----------------------------------------
Total Dipole Moment    :      0.362902901      -0.030002350       0.124647701
                        -----------------------------------------
Magnitude (a.u.)       :      0.384884016
Magnitude (Debye)      :      0.978297422

Rotational constants in cm-1:             0.013495             0.005250             0.005156
Rotational constants in MHz :           404.555988           157.397613           154.577919

                             ****ORCA TERMINATED NORMALLY****
TOTAL RUN TIME: 0 days 0 hours 0 minutes 22 seconds 366 msec
