                         Program Version 6.0.1  -  RELEASE   -
|  1> ! r2scan-3c def2/J RI DEFGRID2 scfconv6 printgap
|  2> %output
|  3>     printlevel normal
|  4> end
|  5> * xyz 0 1
|  6> C 5.4181071956 -1.2333752099 -0.5485066634
|  7> C 4.697349138 -1.93436539 -1.6887211291
|  8> O 3.3552953659 -2.2740395888 -1.290843705
|  9> C 2.374541678 -1.4532328853 -1.6040347313
| 10> O 2.4908908587 -0.4556932191 -2.2826839118
| 11> C 1.0473464765 -1.946884396 -1.0531850882
| 12> C 0.2833256062 -0.7560274994 -0.4927948232
| 13> H 0.1530249316 0.0035221276 -1.2781471157
| 14> C 1.0648326709 -0.0797664549 0.6178810479
| 15> O 2.2722492586 -0.1132358915 0.6827945402
| 16> O 0.2744658927 0.5406788967 1.4669149139
| 17> C 0.8584696504 1.3155939051 2.5349366178
| 18> C 0.8366134392 2.7930379228 2.1854154389
| 19> S -1.3758827425 -1.2382971786 0.0757001296
| 20> P -2.2397856656 0.7081160858 0.1850081434
| 21> S -1.4021923544 2.1028171405 -0.9047804637
| 22> O -3.7652420307 0.4024465612 -0.1991545918
| 23> C -4.13544657 0.0274859449 -1.5297252257
| 24> O -2.4156078549 1.1125597811 1.6999862318
| 25> C -3.0897348089 0.2591299159 2.6462637409
| 26> H 5.4726731855 -1.8868786078 0.3173184035
| 27> H 6.4204843025 -0.9632654593 -0.8633907424
| 28> H 4.8735644922 -0.3337679646 -0.268910245
| 29> H 5.168226604 -2.8866949501 -1.9351610328
| 30> H 4.6460220864 -1.2921116469 -2.5725915453
| 31> H 1.2349395505 -2.6970352142 -0.2862534328
| 32> H 0.4764777066 -2.3949837903 -1.8676783029
| 33> H 0.2366908375 1.1063720762 3.4061521066
| 34> H 1.8796382166 0.9589680035 2.6944007597
| 35> H 1.4513269042 2.9834204264 1.3080786081
| 36> H -0.1811308558 3.108367537 1.9670944984
| 37> H 1.2208622561 3.3667739619 3.0219421856
| 38> H -3.6821240212 0.7077629436 -2.2525804441
| 39> H -5.2190665697 0.1045339035 -1.5657360902
| 40> H -3.8155811318 -0.9952033778 -1.728517648
| 41> H -2.6108397083 -0.7197239659 2.6710510235
| 42> H -4.1371978334 0.1543985431 2.3712034358
| 43> H -2.9912933715 0.763230277 3.6041159124
| 44> *
| 45>
| 46>                          ****END OF INPUT****

CARTESIAN COORDINATES (ANGSTROEM)
---------------------------------
  C      5.418107   -1.233375   -0.548507
  C      4.697349   -1.934365   -1.688721
  O      3.355295   -2.274040   -1.290844
  C      2.374542   -1.453233   -1.604035
  O      2.490891   -0.455693   -2.282684
  C      1.047346   -1.946884   -1.053185
  C      0.283326   -0.756027   -0.492795
  H      0.153025    0.003522   -1.278147
  C      1.064833   -0.079766    0.617881
  O      2.272249   -0.113236    0.682795
  O      0.274466    0.540679    1.466915
  C      0.858470    1.315594    2.534937
  C      0.836613    2.793038    2.185415
  S     -1.375883   -1.238297    0.075700
  P     -2.239786    0.708116    0.185008
  S     -1.402192    2.102817   -0.904780
  O     -3.765242    0.402447   -0.199155
  C     -4.135447    0.027486   -1.529725
  O     -2.415608    1.112560    1.699986
  C     -3.089735    0.259130    2.646264
  H      5.472673   -1.886879    0.317318
  H      6.420484   -0.963265   -0.863391
  H      4.873564   -0.333768   -0.268910
  H      5.168227   -2.886695   -1.935161
  H      4.646022   -1.292112   -2.572592
  H      1.234940   -2.697035   -0.286253
  H      0.476478   -2.394984   -1.867678
  H      0.236691    1.106372    3.406152
  H      1.879638    0.958968    2.694401
  H      1.451327    2.983420    1.308079
  H     -0.181131    3.108368    1.967094
  H      1.220862    3.366774    3.021942
  H     -3.682124    0.707763   -2.252580
  H     -5.219067    0.104534   -1.565736
  H     -3.815581   -0.995203   -1.728518
  H     -2.610840   -0.719724    2.671051
  H     -4.137198    0.154399    2.371203
  H     -2.991293    0.763230    3.604116

 Total Charge           Charge          ....    0
 Multiplicity           Mult            ....    1
 Number of Electrons    NEL             ....  174
 Basis Dimension        Dim             ....  510

ORBITAL ENERGIES
----------------

  NO   OCC          E(Eh)            E(eV)
   0   2.0000     -88.578919     -2410.3549
   1   2.0000     -88.520622     -2408.7686
   2   2.0000     -76.916884     -2093.0148
   3   2.0000     -19.006008      -517.1798
   4   2.0000     -18.998818      -516.9841
   5   2.0000     -18.994229      -516.8593
   6   2.0000     -18.993587      -516.8418
   7   2.0000     -18.942077      -515.4401
   8   2.0000     -18.923315      -514.9296
   9   2.0000     -10.165774      -276.6248
  10   2.0000     -10.154319      -276.3131
  11   2.0000     -10.102931      -274.9147
  12   2.0000     -10.094826      -274.6942
  13   2.0000     -10.093530      -274.6589
  14   2.0000     -10.093438      -274.6564
  15   2.0000     -10.085076      -274.4289
  16   2.0000     -10.059034      -273.7202
  17   2.0000     -10.024135      -272.7706
  18   2.0000     -10.019294      -272.6389
  19   2.0000      -7.873133      -214.2388
  20   2.0000      -7.815219      -212.6629
  21   2.0000      -6.595140      -179.4629
  22   2.0000      -5.819903      -158.3676
  23   2.0000      -5.817068      -158.2905
  24   2.0000      -5.810305      -158.1064
  25   2.0000      -5.763149      -156.8233
  26   2.0000      -5.755440      -156.6135
  27   2.0000      -5.755031      -156.6024
  28   2.0000      -4.740881      -129.0059
  29   2.0000      -4.740177      -128.9868
  30   2.0000      -4.738592      -128.9436
  31   2.0000      -1.085452       -29.5366
  32   2.0000      -1.069688       -29.1077
  33   2.0000      -1.055131       -28.7116
  34   2.0000      -1.012613       -27.5546
  35   2.0000      -0.992162       -26.9981
  36   2.0000      -0.973595       -26.4929
  37   2.0000      -0.811266       -22.0757
  38   2.0000      -0.751648       -20.4534
  39   2.0000      -0.742576       -20.2065
  40   2.0000      -0.731769       -19.9124
  41   2.0000      -0.697901       -18.9909
  42   2.0000      -0.679849       -18.4996
  43   2.0000      -0.660253       -17.9664
  44   2.0000      -0.650419       -17.6988
  45   2.0000      -0.624160       -16.9843
  46   2.0000      -0.592723       -16.1288
  47   2.0000      -0.545085       -14.8325
  48   2.0000      -0.530580       -14.4378
  49   2.0000      -0.521690       -14.1959
  50   2.0000      -0.499433       -13.5902
  51   2.0000      -0.493940       -13.4408
  52   2.0000      -0.488719       -13.2987
  53   2.0000      -0.460621       -12.5341
  54   2.0000      -0.458494       -12.4762
  55   2.0000      -0.453072       -12.3287
  56   2.0000      -0.449105       -12.2208
  57   2.0000      -0.440002       -11.9731
  58   2.0000      -0.438393       -11.9293
  59   2.0000      -0.434318       -11.8184
  60   2.0000      -0.422506       -11.4970
  61   2.0000      -0.417992       -11.3741
  62   2.0000      -0.412011       -11.2114
  63   2.0000      -0.398202       -10.8356
  64   2.0000      -0.386542       -10.5183
  65   2.0000      -0.377504       -10.2724
  66   2.0000      -0.370493       -10.0816
  67   2.0000      -0.366344        -9.9687
  68   2.0000      -0.362023        -9.8511
  69   2.0000      -0.353771        -9.6266
  70   2.0000      -0.343701        -9.3526
  71   2.0000      -0.340800        -9.2736
  72   2.0000      -0.334276        -9.0961
  73   2.0000      -0.330722        -8.9994
  74   2.0000      -0.327167        -8.9027
  75   2.0000      -0.317741        -8.6462
  76   2.0000      -0.308524        -8.3954
  77   2.0000      -0.301002        -8.1907
  78   2.0000      -0.290515        -7.9053
  79   2.0000      -0.283381        -7.7112
  80   2.0000      -0.278907        -7.5895
  81   2.0000      -0.266973        -7.2647
  82   2.0000      -0.263792        -7.1781
  83   2.0000      -0.235936        -6.4202
  84   2.0000      -0.230185        -6.2636
  85   2.0000      -0.219768        -5.9802
  86   2.0000      -0.215413        -5.8617
  87   0.0000      -0.047092        -1.2814
  88   0.0000      -0.028364        -0.7718
  89   0.0000      -0.007481        -0.2036
  90   0.0000       0.004761         0.1295
  91   0.0000       0.016439         0.4473

MULLIKEN ATOMIC CHARGES
-----------------------
   0 C :   -0.458020
   1 C :   -0.152105
   2 O :   -0.150301
   3 C :    0.343097
   4 O :   -0.402952
   5 C :   -0.421071
   6 C :    0.045465
   7 H :    0.263607
   8 C :    0.243605
   9 O :   -0.394820
  10 O :   -0.117242
  11 C :   -0.158588
  12 C :   -0.456897
  13 S :   -0.219588
  14 P :    0.769010
  15 S :   -0.437751
  16 O :   -0.346425
  17 C :   -0.293462
  18 O :   -0.314393
  19 C :   -0.293090
  20 H :    0.147117
  21 H :    0.142982
  22 H :    0.181945
  23 H :    0.144580
  24 H :    0.175511
  25 H :    0.189096
  26 H :    0.185612
  27 H :    0.142637
  28 H :    0.177170
  29 H :    0.162793
  30 H :    0.175636
  31 H :    0.144918
  32 H :    0.175974
  33 H :    0.151923
  34 H :    0.158210
  35 H :    0.168956
  36 H :    0.170568
  37 H :    0.156292
Sum of atomic charges:   -0.0000000

LOEWDIN ATOMIC CHARGES
----------------------
   0 C :   -0.387529
   1 C :    0.030920
   2 O :   -0.579898
   3 C :    0.360230
   4 O :   -0.431097
   5 C :   -0.203845
   6 C :   -0.203855
   7 H :    0.225439
   8 C :    0.368586
   9 O :   -0.415503
  10 O :   -0.620268
  11 C :    0.036130
  12 C :   -0.387628
  13 S :    0.193272
  14 P :    0.398681
  15 S :   -0.082766
  16 O :   -0.686431
  17 C :   -0.059277
  18 O :   -0.650383
  19 C :   -0.051107
  20 H :    0.157044
  21 H :    0.156422
  22 H :    0.172670
  23 H :    0.175954
  24 H :    0.191263
  25 H :    0.190307
  26 H :    0.189030
  27 H :    0.177949
  28 H :    0.194102
  29 H :    0.164962
  30 H :    0.167651
  31 H :    0.157051
  32 H :    0.177465
  33 H :    0.177152
  34 H :    0.168977
  35 H :    0.173276
  36 H :    0.175534
  37 H :    0.179520

  Mayer bond orders larger than 0.100000
B(  0-C ,  1-C ) :   0.9463 B(  0-C , 20-H ) :   0.9708 B(  0-C , 21-H ) :   0.9685
B(  0-C , 22-H ) :   0.9650 B(  1-C ,  2-O ) :   0.7977 B(  1-C , 23-H ) :   0.9618
B(  1-C , 24-H ) :   0.9694 B(  2-O ,  3-C ) :   1.0946 B(  3-C ,  4-O ) :   1.8761
B(  3-C ,  5-C ) :   0.8811 B(  5-C ,  6-C ) :   0.8870 B(  5-C , 25-H ) :   1.0057
B(  5-C , 26-H ) :   0.9422 B(  6-C ,  7-H ) :   0.8735 B(  6-C ,  8-C ) :   0.9595
B(  6-C , 13-S ) :   0.8140 B(  8-C ,  9-O ) :   1.8029 B(  8-C , 10-O ) :   1.1828
B( 10-O , 11-C ) :   0.7545 B( 11-C , 12-C ) :   0.9406 B( 11-C , 27-H ) :   0.9627
B( 11-C , 28-H ) :   0.9605 B( 12-C , 29-H ) :   0.9666 B( 12-C , 30-H ) :   0.9660
B( 12-C , 31-H ) :   0.9677 B( 13-S , 14-P ) :   0.9890 B( 14-P , 15-S ) :   1.8129
B( 14-P , 16-O ) :   1.0342 B( 14-P , 18-O ) :   1.1368 B( 16-O , 17-C ) :   0.8308
B( 17-C , 32-H ) :   0.9590 B( 17-C , 33-H ) :   0.9671 B( 17-C , 34-H ) :   0.9565
B( 18-O , 19-C ) :   0.7943 B( 19-C , 35-H ) :   0.9565 B( 19-C , 36-H ) :   0.9600
B( 19-C , 37-H ) :   0.9659

Dispersion correction           -0.017438518
FINAL SINGLE POINT ENERGY     -1981.454371192409

DIPOLE MOMENT
-------------

Method             : SCF
Type of density    : Electron Density
Multiplicity       :   1
Irrep              :   0
Energy             : -1981.4744448687556542 Eh
Relativity type    :
Basis              : AO
                                X                 Y                 Z
Electronic contribution:    -12.783921776       0.426383554      -4.993302945
Nuclear contribution   :     12.055963036      -1.525300754       6.185352884
                        -----------------------------------------
Total Dipole Moment    :     -0.727958740      -1.098917200       1.192049939
                        -----------------------------------------
Magnitude (a.u.)       :      1.777224239
Magnitude (Debye)      :      4.517345016

Rotational constants in cm-1:             0.016529             0.005943             0.005217
Rotational constants in MHz :           495.526000           178.171633           156.400216

                             ****ORCA TERMINATED NORMALLY****
TOTAL RUN TIME: 0 days 0 hours 1 minutes 31 seconds 737 msec
