                         Program Version 6.0.1  -  RELEASE   -
|  1> ! r2scan-3c def2/J RI DEFGRID2 scfconv6 printgap
|  2> %output
|  3>     printlevel normal
|  4> end
|  5> %cpcm
|  6>     smd true
|  7>     smdsolvent "water"
|  8> end
|  9> * xyz 0 1
| 10> C 5.4181071956 -1.2333752099 -0.5485066634
| 11> C 4.697349138 -1.93436539 -1.6887211291
| 12> O 3.3552953659 -2.2740395888 -1.290843705
| 13> C 2.374541678 -1.4532328853 -1.6040347313
| 14> O 2.4908908587 -0.4556932191 -2.2826839118
| 15> C 1.0473464765 -1.946884396 -1.0531850882
| 16> C 0.2833256062 -0.7560274994 -0.4927948232
| 17> H 0.1530249316 0.0035221276 -1.2781471157
| 18> C 1.0648326709 -0.0797664549 0.6178810479
| 19> O 2.2722492586 -0.1132358915 0.6827945402
| 20> O 0.2744658927 0.5406788967 1.4669149139
| 21> C 0.8584696504 1.3155939051 2.5349366178
| 22> C 0.8366134392 2.7930379228 2.1854154389
| 23> S -1.3758827425 -1.2382971786 0.0757001296
| 24> P -2.2397856656 0.7081160858 0.1850081434
| 25> S -1.4021923544 2.1028171405 -0.9047804637
| 26> O -3.7652420307 0.4024465612 -0.1991545918
| 27> C -4.13544657 0.0274859449 -1.5297252257
| 28> O -2.4156078549 1.1125597811 1.6999862318
| 29> C -3.0897348089 0.2591299159 2.6462637409
| 30> H 5.4726731855 -1.8868786078 0.3173184035
| 31> H 6.4204843025 -0.9632654593 -0.8633907424
| 32> H 4.8735644922 -0.3337679646 -0.268910245
| 33> H 5.168226604 -2.8866949501 -1.9351610328
| 34> H 4.6460220864 -1.2921116469 -2.5725915453
| 35> H 1.2349395505 -2.6970352142 -0.2862534328
| 36> H 0.4764777066 -2.3949837903 -1.8676783029
| 37> H 0.2366908375 1.1063720762 3.4061521066
| 38> H 1.8796382166 0.9589680035 2.6944007597
| 39> H 1.4513269042 2.9834204264 1.3080786081
| 40> H -0.1811308558 3.108367537 1.9670944984
| 41> H 1.2208622561 3.3667739619 3.0219421856
| 42> H -3.6821240212 0.7077629436 -2.2525804441
| 43> H -5.2190665697 0.1045339035 -1.5657360902
| 44> H -3.8155811318 -0.9952033778 -1.728517648
| 45> H -2.6108397083 -0.7197239659 2.6710510235
| 46> H -4.1371978334 0.1543985431 2.3712034358
| 47> H -2.9912933715 0.763230277 3.6041159124
| 48> *
| 49>
| 50>                          ****END OF INPUT****

CARTESIAN COORDINATES (ANGSTROEM)
---------------------------------
  C      5.418107   -1.233375   -0.548507
  C      4.697349   -1.934365   -1.688721
  O      3.355295   -2.274040   -1.290844
  C      2.374542   -1.453233   -1.604035
  O      2.490891   -0.455693   -2.282684
  C      1.047346   -1.946884   -1.053185
  C      0.283326   -0.756027   -0.492795
  H      0.153025    0.003522   -1.278147
  C      1.064833   -0.079766    0.617881
  O      2.272249   -0.113236    0.682795
  O      0.274466    0.540679    1.466915
  C      0.858470    1.315594    2.534937
  C      0.836613    2.793038    2.185415
  S     -1.375883   -1.238297    0.075700
  P     -2.239786    0.708116    0.185008
  S     -1.402192    2.102817   -0.904780
  O     -3.765242    0.402447   -0.199155
  C     -4.135447    0.027486   -1.529725
  O     -2.415608    1.112560    1.699986
  C     -3.089735    0.259130    2.646264
  H      5.472673   -1.886879    0.317318
  H      6.420484   -0.963265   -0.863391
  H      4.873564   -0.333768   -0.268910
  H      5.168227   -2.886695   -1.935161
  H      4.646022   -1.292112   -2.572592
  H      1.234940   -2.697035   -0.286253
  H      0.476478   -2.394984   -1.867678
  H      0.236691    1.106372    3.406152
  H      1.879638    0.958968    2.694401
  H      1.451327    2.983420    1.308079
  H     -0.181131    3.108368    1.967094
  H      1.220862    3.366774    3.021942
  H     -3.682124    0.707763   -2.252580
  H     -5.219067    0.104534   -1.565736
  H     -3.815581   -0.995203   -1.728518
  H     -2.610840   -0.719724    2.671051
  H     -4.137198    0.154399    2.371203
  H     -2.991293    0.763230    3.604116

 Total Charge           Charge          ....    0
 Multiplicity           Mult            ....    1
 Number of Electrons    NEL             ....  174
 Basis Dimension        Dim             ....  510

ORBITAL ENERGIES
----------------

  NO   OCC          E(Eh)            E(eV)
   0   2.0000     -88.581349     -2410.4210
   1   2.0000     -88.529990     -2409.0235
   2   2.0000     -76.921472     -2093.1397
   3   2.0000     -19.010870      -517.3121
   4   2.0000     -19.006600      -517.1959
   5   2.0000     -18.998410      -516.9730
   6   2.0000     -18.994787      -516.8744
   7   2.0000     -18.955107      -515.7947
   8   2.0000     -18.945397      -515.5305
   9   2.0000     -10.175938      -276.9013
  10   2.0000     -10.171469      -276.7797
  11   2.0000     -10.097363      -274.7632
  12   2.0000     -10.087395      -274.4920
  13   2.0000     -10.085453      -274.4391
  14   2.0000     -10.084560      -274.4148
  15   2.0000     -10.081637      -274.3353
  16   2.0000     -10.057445      -273.6770
  17   2.0000     -10.018841      -272.6265
  18   2.0000     -10.018648      -272.6213
  19   2.0000      -7.875474      -214.3025
  20   2.0000      -7.824975      -212.9284
  21   2.0000      -6.599767      -179.5888
  22   2.0000      -5.822313      -158.4332
  23   2.0000      -5.819483      -158.3562
  24   2.0000      -5.812506      -158.1663
  25   2.0000      -5.772762      -157.0848
  26   2.0000      -5.765268      -156.8809
  27   2.0000      -5.764785      -156.8678
  28   2.0000      -4.745441      -129.1300
  29   2.0000      -4.744767      -129.1117
  30   2.0000      -4.743372      -129.0737
  31   2.0000      -1.092122       -29.7182
  32   2.0000      -1.084030       -29.4980
  33   2.0000      -1.054875       -28.7046
  34   2.0000      -1.011786       -27.5321
  35   2.0000      -1.003435       -27.3049
  36   2.0000      -0.993800       -27.0427
  37   2.0000      -0.814206       -22.1557
  38   2.0000      -0.753440       -20.5021
  39   2.0000      -0.740391       -20.1471
  40   2.0000      -0.731337       -19.9007
  41   2.0000      -0.696599       -18.9554
  42   2.0000      -0.671005       -18.2590
  43   2.0000      -0.660651       -17.9772
  44   2.0000      -0.652249       -17.7486
  45   2.0000      -0.626181       -17.0392
  46   2.0000      -0.592650       -16.1268
  47   2.0000      -0.542025       -14.7493
  48   2.0000      -0.530036       -14.4230
  49   2.0000      -0.525604       -14.3024
  50   2.0000      -0.497666       -13.5422
  51   2.0000      -0.496514       -13.5108
  52   2.0000      -0.490096       -13.3362
  53   2.0000      -0.466455       -12.6929
  54   2.0000      -0.462780       -12.5929
  55   2.0000      -0.459542       -12.5048
  56   2.0000      -0.451802       -12.2942
  57   2.0000      -0.447415       -12.1748
  58   2.0000      -0.437409       -11.9025
  59   2.0000      -0.428238       -11.6529
  60   2.0000      -0.423508       -11.5243
  61   2.0000      -0.411989       -11.2108
  62   2.0000      -0.410465       -11.1693
  63   2.0000      -0.402638       -10.9563
  64   2.0000      -0.386600       -10.5199
  65   2.0000      -0.378232       -10.2922
  66   2.0000      -0.371148       -10.0994
  67   2.0000      -0.369433       -10.0528
  68   2.0000      -0.361953        -9.8492
  69   2.0000      -0.354905        -9.6575
  70   2.0000      -0.347291        -9.4503
  71   2.0000      -0.341136        -9.2828
  72   2.0000      -0.337766        -9.1911
  73   2.0000      -0.331820        -9.0293
  74   2.0000      -0.323480        -8.8023
  75   2.0000      -0.316503        -8.6125
  76   2.0000      -0.307199        -8.3593
  77   2.0000      -0.305238        -8.3060
  78   2.0000      -0.288938        -7.8624
  79   2.0000      -0.287471        -7.8225
  80   2.0000      -0.280795        -7.6408
  81   2.0000      -0.278654        -7.5826
  82   2.0000      -0.275060        -7.4848
  83   2.0000      -0.257704        -7.0125
  84   2.0000      -0.237835        -6.4718
  85   2.0000      -0.230437        -6.2705
  86   2.0000      -0.224187        -6.1004
  87   0.0000      -0.052441        -1.4270
  88   0.0000      -0.036349        -0.9891
  89   0.0000      -0.020575        -0.5599
  90   0.0000       0.002877         0.0783
  91   0.0000       0.013097         0.3564

MULLIKEN ATOMIC CHARGES
-----------------------
   0 C :   -0.499457
   1 C :   -0.140334
   2 O :   -0.175532
   3 C :    0.361309
   4 O :   -0.481601
   5 C :   -0.427362
   6 C :    0.040624
   7 H :    0.264127
   8 C :    0.267251
   9 O :   -0.454184
  10 O :   -0.122098
  11 C :   -0.157049
  12 C :   -0.494519
  13 S :   -0.203761
  14 P :    0.796208
  15 S :   -0.501474
  16 O :   -0.371717
  17 C :   -0.306099
  18 O :   -0.350467
  19 C :   -0.297034
  20 H :    0.168376
  21 H :    0.170976
  22 H :    0.169279
  23 H :    0.174548
  24 H :    0.178275
  25 H :    0.215432
  26 H :    0.224377
  27 H :    0.179000
  28 H :    0.182423
  29 H :    0.167408
  30 H :    0.169627
  31 H :    0.172050
  32 H :    0.177111
  33 H :    0.179728
  34 H :    0.175498
  35 H :    0.179825
  36 H :    0.184892
  37 H :    0.184346
Sum of atomic charges:   -0.0000000

LOEWDIN ATOMIC CHARGES
----------------------
   0 C :   -0.391500
   1 C :    0.037046
   2 O :   -0.584061
   3 C :    0.367275
   4 O :   -0.488834
   5 C :   -0.196737
   6 C :   -0.203173
   7 H :    0.223553
   8 C :    0.373762
   9 O :   -0.457709
  10 O :   -0.617688
  11 C :    0.043194
  12 C :   -0.391683
  13 S :    0.212435
  14 P :    0.402272
  15 S :   -0.129865
  16 O :   -0.695114
  17 C :   -0.055044
  18 O :   -0.667508
  19 C :   -0.041524
  20 H :    0.162348
  21 H :    0.167588
  22 H :    0.164886
  23 H :    0.189361
  24 H :    0.192311
  25 H :    0.201428
  26 H :    0.204658
  27 H :    0.191985
  28 H :    0.196734
  29 H :    0.162588
  30 H :    0.163398
  31 H :    0.167476
  32 H :    0.177665
  33 H :    0.188842
  34 H :    0.176213
  35 H :    0.179413
  36 H :    0.182167
  37 H :    0.191843

  Mayer bond orders larger than 0.100000
B(  0-C ,  1-C ) :   0.9292 B(  0-C , 20-H ) :   0.9695 B(  0-C , 21-H ) :   0.9613
B(  0-C , 22-H ) :   0.9677 B(  1-C ,  2-O ) :   0.7835 B(  1-C , 23-H ) :   0.9512
B(  1-C , 24-H ) :   0.9647 B(  2-O ,  3-C ) :   1.1062 B(  3-C ,  4-O ) :   1.8124
B(  3-C ,  5-C ) :   0.8941 B(  5-C ,  6-C ) :   0.8625 B(  5-C , 25-H ) :   0.9949
B(  5-C , 26-H ) :   0.9295 B(  6-C ,  7-H ) :   0.8821 B(  6-C ,  8-C ) :   0.9540
B(  6-C , 13-S ) :   0.8132 B(  8-C ,  9-O ) :   1.7574 B(  8-C , 10-O ) :   1.2048
B( 10-O , 11-C ) :   0.7434 B( 11-C , 12-C ) :   0.9210 B( 11-C , 27-H ) :   0.9535
B( 11-C , 28-H ) :   0.9555 B( 12-C , 29-H ) :   0.9700 B( 12-C , 30-H ) :   0.9685
B( 12-C , 31-H ) :   0.9611 B( 13-S , 14-P ) :   1.0033 B( 14-P , 15-S ) :   1.7737
B( 14-P , 16-O ) :   1.0437 B( 14-P , 18-O ) :   1.1454 B( 16-O , 17-C ) :   0.8225
B( 17-C , 32-H ) :   0.9556 B( 17-C , 33-H ) :   0.9570 B( 17-C , 34-H ) :   0.9502
B( 18-O , 19-C ) :   0.7864 B( 19-C , 35-H ) :   0.9482 B( 19-C , 36-H ) :   0.9518
B( 19-C , 37-H ) :   0.9546

Dispersion correction           -0.017438518
FINAL SINGLE POINT ENERGY     -1981.468166894735

DIPOLE MOMENT
-------------

Method             : SCF
Type of density    : Electron Density
Multiplicity       :   1
Irrep              :   0
Energy             : -1981.4882405710816329 Eh
Relativity type    :
Basis              : AO
                                X                 Y                 Z
Electronic contribution:    -13.117478733      -0.382521001      -4.533548842
Nuclear contribution   :     12.055963036      -1.525300754       6.185352884
                        -----------------------------------------
Total Dipole Moment    :     -1.061515696      -1.907821755       1.651804042
                        -----------------------------------------
Magnitude (a.u.)       :      2.737709995
Magnitude (Debye)      :      6.958705789

Rotational constants in cm-1:             0.016529             0.005943             0.005217
Rotational constants in MHz :           495.526000           178.171633           156.400216

                             ****ORCA TERMINATED NORMALLY****
TOTAL RUN TIME: 0 days 0 hours 2 minutes 0 seconds 370 msec
