                         Program Version 6.0.0  -   RELEASE  -
|  1> ! wb97x-v def2-tzvp def2/J RIJCOSX DEFGRID2 scfconv7 GCP(DFT/TZ) printgap
|  2> %output
|  3>     printlevel normal
|  4> end
|  5> * xyz 0 1
|  6> C 0.0009233863480229166 -2.4710898512214436 0.0006478349702835393
|  7> C 1.2070793205585784 -1.7797763294101245 0.014875239623228311
|  8> C 1.197471608149569 -0.3867220329769414 0.019850024254621606
|  9> C -0.0010459266419260331 0.3195358751385561 0.0026271367401280027
| 10> C -1.1987207583919028 -0.38866066483105866 -0.015615999262274345
| 11> C -1.2064686066366705 -1.781443307982756 -0.012927591100150232
| 12> C -2.481469381035828 0.3879240835602764 -0.0035622975270022685
| 13> F -3.558590026281188 -0.3764504778315696 -0.2839604819436652
| 14> F -2.7118665055568467 0.9623175810172618 1.2094204886320725
| 15> F -2.4681544469741983 1.4025213146164692 -0.905761481060541
| 16> C 2.480827769004118 0.3888402571051813 0.003239816542360984
| 17> F 2.733689140057441 0.9191216619612328 -1.2255150715529874
| 18> F 2.4537080124808472 1.4343872148114623 0.86799679530853
| 19> F 3.552038080581125 -0.36672673091054514 0.3284204986400502
| 20> H 0.0016698038470762619 -3.5552278514585742 9.035864021757717e-05
| 21> H 2.144775312637534 -2.323099553270059 0.02347991331469275
| 22> H -0.002114771430363645 1.4047016450792087 0.0031549769525176896
| 23> H -2.1432503987707423 -2.326228584873264 -0.02250492416034446
| 24> *
| 25>
| 26>                          ****END OF INPUT****

CARTESIAN COORDINATES (ANGSTROEM)
---------------------------------
  C      0.000923   -2.471090    0.000648
  C      1.207079   -1.779776    0.014875
  C      1.197472   -0.386722    0.019850
  C     -0.001046    0.319536    0.002627
  C     -1.198721   -0.388661   -0.015616
  C     -1.206469   -1.781443   -0.012928
  C     -2.481469    0.387924   -0.003562
  F     -3.558590   -0.376450   -0.283960
  F     -2.711867    0.962318    1.209420
  F     -2.468154    1.402521   -0.905761
  C      2.480828    0.388840    0.003240
  F      2.733689    0.919122   -1.225515
  F      2.453708    1.434387    0.867997
  F      3.552038   -0.366727    0.328420
  H      0.001670   -3.555228    0.000090
  H      2.144775   -2.323100    0.023480
  H     -0.002115    1.404702    0.003155
  H     -2.143250   -2.326229   -0.022505

 Total Charge           Charge          ....    0
 Multiplicity           Mult            ....    1
 Number of Electrons    NEL             ....  106
 Basis Dimension        Dim             ....  458

ORBITAL ENERGIES
----------------

  NO   OCC          E(Eh)            E(eV)
   0   2.0000     -27.609650      -751.2968
   1   2.0000     -27.609431      -751.2908
   2   2.0000     -27.604983      -751.1698
   3   2.0000     -27.604599      -751.1593
   4   2.0000     -27.601972      -751.0878
   5   2.0000     -27.601785      -751.0827
   6   2.0000     -12.314171      -335.0856
   7   2.0000     -12.314107      -335.0839
   8   2.0000     -12.106024      -329.4217
   9   2.0000     -12.105970      -329.4202
  10   2.0000     -12.100321      -329.2665
  11   2.0000     -12.096674      -329.1672
  12   2.0000     -12.096634      -329.1661
  13   2.0000     -12.089711      -328.9778
  14   2.0000      -2.066295       -56.2267
  15   2.0000      -2.066270       -56.2261
  16   2.0000      -2.020248       -54.9737
  17   2.0000      -2.020198       -54.9724
  18   2.0000      -2.013900       -54.8010
  19   2.0000      -2.013894       -54.8008
  20   2.0000      -1.447862       -39.3983
  21   2.0000      -1.409306       -38.3492
  22   2.0000      -1.384909       -37.6853
  23   2.0000      -1.323314       -36.0092
  24   2.0000      -1.322317       -35.9821
  25   2.0000      -1.265034       -34.4233
  26   2.0000      -1.263723       -34.3876
  27   2.0000      -1.258306       -34.2403
  28   2.0000      -1.257924       -34.2298
  29   2.0000      -1.217921       -33.1413
  30   2.0000      -1.216758       -33.1097
  31   2.0000      -1.171425       -31.8761
  32   2.0000      -1.170796       -31.8590
  33   2.0000      -1.170628       -31.8544
  34   2.0000      -1.170173       -31.8420
  35   2.0000      -1.158225       -31.5169
  36   2.0000      -1.157455       -31.4960
  37   2.0000      -1.155001       -31.4292
  38   2.0000      -1.154468       -31.4147
  39   2.0000      -1.150976       -31.3197
  40   2.0000      -1.150871       -31.3168
  41   2.0000      -1.146389       -31.1948
  42   2.0000      -1.142154       -31.0796
  43   2.0000      -1.050163       -28.5764
  44   2.0000      -1.001866       -27.2621
  45   2.0000      -0.985198       -26.8086
  46   2.0000      -0.978926       -26.6379
  47   2.0000      -0.924719       -25.1629
  48   2.0000      -0.876443       -23.8492
  49   2.0000      -0.863341       -23.4927
  50   2.0000      -0.823641       -22.4124
  51   2.0000      -0.700965       -19.0742
  52   2.0000      -0.687089       -18.6967
  53   0.0000      -0.331006        -9.0071
  54   0.0000      -0.311962        -8.4889
  55   0.0000      -0.287694        -7.8286
  56   0.0000      -0.283865        -7.7244
  57   0.0000      -0.257940        -7.0189

MULLIKEN ATOMIC CHARGES
-----------------------
   0 C :   -0.067960
   1 C :   -0.196233
   2 C :    0.115627
   3 C :   -0.301757
   4 C :    0.116605
   5 C :   -0.195758
   6 C :    0.440068
   7 F :   -0.160882
   8 F :   -0.159717
   9 F :   -0.161868
  10 C :    0.439868
  11 F :   -0.159631
  12 F :   -0.161741
  13 F :   -0.161037
  14 H :    0.137203
  15 H :    0.157190
  16 H :    0.162576
  17 H :    0.157446
Sum of atomic charges:    0.0000000

LOEWDIN ATOMIC CHARGES
----------------------
   0 C :   -0.115859
   1 C :   -0.074170
   2 C :   -0.122972
   3 C :   -0.035079
   4 C :   -0.123060
   5 C :   -0.074273
   6 C :   -0.595058
   7 F :    0.193889
   8 F :    0.176483
   9 F :    0.183590
  10 C :   -0.595064
  11 F :    0.176004
  12 F :    0.184654
  13 F :    0.193333
  14 H :    0.149542
  15 H :    0.156222
  16 H :    0.165654
  17 H :    0.156165

  Mayer bond orders larger than 0.100000
B(  0-C ,  1-C ) :   1.4195 B(  0-C ,  5-C ) :   1.4173 B(  0-C , 14-H ) :   0.9720
B(  1-C ,  2-C ) :   1.3859 B(  1-C , 15-H ) :   0.9501 B(  2-C ,  3-C ) :   1.4013
B(  2-C , 10-C ) :   1.0003 B(  3-C ,  4-C ) :   1.3989 B(  3-C , 16-H ) :   0.9399
B(  4-C ,  5-C ) :   1.3868 B(  4-C ,  6-C ) :   1.0006 B(  5-C , 17-H ) :   0.9498
B(  6-C ,  7-F ) :   1.1638 B(  6-C ,  8-F ) :   1.1701 B(  6-C ,  9-F ) :   1.1614
B( 10-C , 11-F ) :   1.1703 B( 10-C , 12-F ) :   1.1608 B( 10-C , 13-F ) :   1.1631

FINAL SINGLE POINT ENERGY      -906.429611443503

DIPOLE MOMENT
-------------

Method             : SCF
Type of density    : Electron Density
Multiplicity       :   1
Irrep              :   0
Energy             :  -906.4482973380028170 Eh
Relativity type    :
Basis              : AO
                                X                 Y                 Z
Electronic contribution:     -0.001874943       8.881432337      -0.008165813
Nuclear contribution   :      0.000248648     -10.062031628       0.012123062
                        -----------------------------------------
Total Dipole Moment    :     -0.001626295      -1.180599292       0.003957250
                        -----------------------------------------
Magnitude (a.u.)       :      1.180607044
Magnitude (Debye)      :      3.000864623

Rotational constants in cm-1:             0.043363             0.012883             0.011108
Rotational constants in MHz :          1299.998420           386.224978           333.004818

                             ****ORCA TERMINATED NORMALLY****
TOTAL RUN TIME: 0 days 0 hours 4 minutes 39 seconds 56 msec
