                         Program Version 6.0.0  -   RELEASE  -
|  1> ! wb97x-v def2-tzvp def2/J RIJCOSX DEFGRID2 scfconv7 GCP(DFT/TZ) printgap
|  2> %output
|  3>     printlevel normal
|  4> end
|  5> %cpcm
|  6>     smd true
|  7>     smdsolvent "water"
|  8> end
|  9> * xyz 0 1
| 10> C 0.0009233863480229166 -2.4710898512214436 0.0006478349702835393
| 11> C 1.2070793205585784 -1.7797763294101245 0.014875239623228311
| 12> C 1.197471608149569 -0.3867220329769414 0.019850024254621606
| 13> C -0.0010459266419260331 0.3195358751385561 0.0026271367401280027
| 14> C -1.1987207583919028 -0.38866066483105866 -0.015615999262274345
| 15> C -1.2064686066366705 -1.781443307982756 -0.012927591100150232
| 16> C -2.481469381035828 0.3879240835602764 -0.0035622975270022685
| 17> F -3.558590026281188 -0.3764504778315696 -0.2839604819436652
| 18> F -2.7118665055568467 0.9623175810172618 1.2094204886320725
| 19> F -2.4681544469741983 1.4025213146164692 -0.905761481060541
| 20> C 2.480827769004118 0.3888402571051813 0.003239816542360984
| 21> F 2.733689140057441 0.9191216619612328 -1.2255150715529874
| 22> F 2.4537080124808472 1.4343872148114623 0.86799679530853
| 23> F 3.552038080581125 -0.36672673091054514 0.3284204986400502
| 24> H 0.0016698038470762619 -3.5552278514585742 9.035864021757717e-05
| 25> H 2.144775312637534 -2.323099553270059 0.02347991331469275
| 26> H -0.002114771430363645 1.4047016450792087 0.0031549769525176896
| 27> H -2.1432503987707423 -2.326228584873264 -0.02250492416034446
| 28> *
| 29>
| 30>                          ****END OF INPUT****

CARTESIAN COORDINATES (ANGSTROEM)
---------------------------------
  C      0.000923   -2.471090    0.000648
  C      1.207079   -1.779776    0.014875
  C      1.197472   -0.386722    0.019850
  C     -0.001046    0.319536    0.002627
  C     -1.198721   -0.388661   -0.015616
  C     -1.206469   -1.781443   -0.012928
  C     -2.481469    0.387924   -0.003562
  F     -3.558590   -0.376450   -0.283960
  F     -2.711867    0.962318    1.209420
  F     -2.468154    1.402521   -0.905761
  C      2.480828    0.388840    0.003240
  F      2.733689    0.919122   -1.225515
  F      2.453708    1.434387    0.867997
  F      3.552038   -0.366727    0.328420
  H      0.001670   -3.555228    0.000090
  H      2.144775   -2.323100    0.023480
  H     -0.002115    1.404702    0.003155
  H     -2.143250   -2.326229   -0.022505

 Total Charge           Charge          ....    0
 Multiplicity           Mult            ....    1
 Number of Electrons    NEL             ....  106
 Basis Dimension        Dim             ....  458

ORBITAL ENERGIES
----------------

  NO   OCC          E(Eh)            E(eV)
   0   2.0000     -27.605881      -751.1942
   1   2.0000     -27.605732      -751.1902
   2   2.0000     -27.602778      -751.1098
   3   2.0000     -27.602456      -751.1010
   4   2.0000     -27.600599      -751.0505
   5   2.0000     -27.600472      -751.0470
   6   2.0000     -12.308612      -334.9344
   7   2.0000     -12.308544      -334.9325
   8   2.0000     -12.089300      -328.9666
   9   2.0000     -12.089272      -328.9658
  10   2.0000     -12.082664      -328.7860
  11   2.0000     -12.076666      -328.6228
  12   2.0000     -12.076617      -328.6214
  13   2.0000     -12.067224      -328.3659
  14   2.0000      -2.063808       -56.1591
  15   2.0000      -2.063782       -56.1584
  16   2.0000      -2.017456       -54.8978
  17   2.0000      -2.017398       -54.8962
  18   2.0000      -2.012660       -54.7673
  19   2.0000      -2.012631       -54.7665
  20   2.0000      -1.433372       -39.0040
  21   2.0000      -1.403423       -38.1891
  22   2.0000      -1.377414       -37.4813
  23   2.0000      -1.310381       -35.6573
  24   2.0000      -1.305057       -35.5124
  25   2.0000      -1.262375       -34.3510
  26   2.0000      -1.260960       -34.3125
  27   2.0000      -1.257116       -34.2079
  28   2.0000      -1.256720       -34.1971
  29   2.0000      -1.211808       -32.9750
  30   2.0000      -1.207992       -32.8711
  31   2.0000      -1.169023       -31.8107
  32   2.0000      -1.168644       -31.8004
  33   2.0000      -1.168519       -31.7970
  34   2.0000      -1.168106       -31.7858
  35   2.0000      -1.155448       -31.4413
  36   2.0000      -1.155191       -31.4344
  37   2.0000      -1.153343       -31.3841
  38   2.0000      -1.153093       -31.3772
  39   2.0000      -1.149907       -31.2906
  40   2.0000      -1.149860       -31.2893
  41   2.0000      -1.130647       -30.7665
  42   2.0000      -1.130395       -30.7596
  43   2.0000      -1.037900       -28.2427
  44   2.0000      -0.983340       -26.7580
  45   2.0000      -0.965190       -26.2641
  46   2.0000      -0.964065       -26.2335
  47   2.0000      -0.902224       -24.5508
  48   2.0000      -0.854972       -23.2650
  49   2.0000      -0.841358       -22.8945
  50   2.0000      -0.806276       -21.9399
  51   2.0000      -0.684322       -18.6214
  52   2.0000      -0.668000       -18.1772
  53   0.0000      -0.315631        -8.5888
  54   0.0000      -0.298096        -8.1116
  55   0.0000      -0.283947        -7.7266
  56   0.0000      -0.280523        -7.6334
  57   0.0000      -0.250109        -6.8058

MULLIKEN ATOMIC CHARGES
-----------------------
   0 C :   -0.112527
   1 C :   -0.216307
   2 C :    0.134987
   3 C :   -0.327196
   4 C :    0.136188
   5 C :   -0.215983
   6 C :    0.453461
   7 F :   -0.168881
   8 F :   -0.175354
   9 F :   -0.174889
  10 C :    0.453416
  11 F :   -0.175371
  12 F :   -0.174428
  13 F :   -0.169153
  14 H :    0.175657
  15 H :    0.183514
  16 H :    0.189316
  17 H :    0.183550
Sum of atomic charges:    0.0000000

LOEWDIN ATOMIC CHARGES
----------------------
   0 C :   -0.111911
   1 C :   -0.068813
   2 C :   -0.129630
   3 C :   -0.037115
   4 C :   -0.129652
   5 C :   -0.068761
   6 C :   -0.590444
   7 F :    0.189381
   8 F :    0.166916
   9 F :    0.175643
  10 C :   -0.590496
  11 F :    0.166354
  12 F :    0.176902
  13 F :    0.188725
  14 H :    0.160408
  15 H :    0.164736
  16 H :    0.173109
  17 H :    0.164649

  Mayer bond orders larger than 0.100000
B(  0-C ,  1-C ) :   1.4122 B(  0-C ,  5-C ) :   1.4103 B(  0-C , 14-H ) :   0.9734
B(  1-C ,  2-C ) :   1.3449 B(  1-C , 15-H ) :   0.9596 B(  2-C ,  3-C ) :   1.3783
B(  2-C , 10-C ) :   1.0040 B(  3-C ,  4-C ) :   1.3763 B(  3-C , 16-H ) :   0.9476
B(  4-C ,  5-C ) :   1.3455 B(  4-C ,  6-C ) :   1.0044 B(  5-C , 17-H ) :   0.9594
B(  6-C ,  7-F ) :   1.1634 B(  6-C ,  8-F ) :   1.1598 B(  6-C ,  9-F ) :   1.1546
B( 10-C , 11-F ) :   1.1600 B( 10-C , 12-F ) :   1.1544 B( 10-C , 13-F ) :   1.1625

FINAL SINGLE POINT ENERGY      -906.429043620371

DIPOLE MOMENT
-------------

Method             : SCF
Type of density    : Electron Density
Multiplicity       :   1
Irrep              :   0
Energy             :  -906.4477295148708436 Eh
Relativity type    :
Basis              : AO
                                X                 Y                 Z
Electronic contribution:     -0.002899097       8.540214457      -0.007665116
Nuclear contribution   :      0.000248648     -10.062031628       0.012123062
                        -----------------------------------------
Total Dipole Moment    :     -0.002650449      -1.521817171       0.004457946
                        -----------------------------------------
Magnitude (a.u.)       :      1.521826009
Magnitude (Debye)      :      3.868174305

Rotational constants in cm-1:             0.043363             0.012883             0.011108
Rotational constants in MHz :          1299.998420           386.224978           333.004818

                             ****ORCA TERMINATED NORMALLY****
TOTAL RUN TIME: 0 days 0 hours 5 minutes 6 seconds 31 msec
