                         Program Version 6.0.0  -   RELEASE  -
|  1> ! pbe def2-sv(p) def2/J RI DEFGRID1 loosescf d4 GCP(DFT/SV(P)) printgap
|  2> %output
|  3>     printlevel normal
|  4> end
|  5> * xyz 0 1
|  6> C 3.3819699196 -2.9606999164 -0.0697758837
|  7> C 3.9027352805 -2.0810873966 -1.1847610609
|  8> O 3.9700806388 -0.6814692515 -0.8122598848
|  9> P 2.8042443043 0.1918482487 -0.2264267467
| 10> S 3.1487495646 2.108594783 -0.4344588913
| 11> O 2.7517886157 -0.2954872925 1.2876473767
| 12> C 1.9815369384 0.3611186395 2.3101075632
| 13> C 0.7908436306 -0.4928554811 2.7015227402
| 14> S 1.03724047 -0.5292307244 -1.2032364479
| 15> C 0.2081956823 1.0533645227 -1.4496878653
| 16> S -0.7256778856 1.6057458646 0.0020087701
| 17> P -2.3660315255 0.3023147495 -0.3007126558
| 18> S -3.0398764382 0.1316965395 -2.1261300498
| 19> O -3.4689468297 0.8415585728 0.6970041927
| 20> C -3.2082887438 1.0087676989 2.1153141542
| 21> C -4.5443922582 1.1585895913 2.8122146218
| 22> O -1.767218257 -1.037576841 0.3381669023
| 23> C -2.2138520725 -2.3425882157 -0.0769845774
| 24> C -3.6021563752 -2.638969022 0.4520253725
| 25> H 2.3420897837 -2.7185019966 0.1405114613
| 26> H 3.4474115265 -3.9995204717 -0.3782942224
| 27> H 3.9701762186 -2.8131388739 0.8320067329
| 28> H 3.2727665574 -2.1640127469 -2.0739803881
| 29> H 4.9368461489 -2.3180504368 -1.4391800748
| 30> H 2.6684044998 0.486292303 3.1497135894
| 31> H 1.6687936402 1.3486188333 1.9538819865
| 32> H 0.116721983 -0.6186456485 1.8578439496
| 33> H 1.1288626612 -1.4711669354 3.030886909
| 34> H 0.2578636524 -0.0042259867 3.5108790986
| 35> H -0.4784955075 0.9311573375 -2.2880178403
| 36> H 0.9560867927 1.8221560249 -1.6507475465
| 37> H -2.6608745028 0.1345544888 2.4759042773
| 38> H -2.5877059063 1.8998550103 2.2383118472
| 39> H -4.3769248675 1.3105021037 3.8735739914
| 40> H -5.0806693421 2.011814624 2.4070790261
| 41> H -5.1479148605 0.2671926043 2.6662619459
| 42> H -2.1976147786 -2.3849995458 -1.170155878
| 43> H -1.4654499403 -3.0232614008 0.3302311601
| 44> H -4.3100927714 -1.9175595913 0.0435744741
| 45> H -3.9002890072 -3.6364455568 0.1451619352
| 46> H -3.6180415135 -2.5765016101 1.5370216529
| 47> *
| 48>
| 49>                          ****END OF INPUT****

CARTESIAN COORDINATES (ANGSTROEM)
---------------------------------
  C      3.381970   -2.960700   -0.069776
  C      3.902735   -2.081087   -1.184761
  O      3.970081   -0.681469   -0.812260
  P      2.804244    0.191848   -0.226427
  S      3.148750    2.108595   -0.434459
  O      2.751789   -0.295487    1.287647
  C      1.981537    0.361119    2.310108
  C      0.790844   -0.492855    2.701523
  S      1.037240   -0.529231   -1.203236
  C      0.208196    1.053365   -1.449688
  S     -0.725678    1.605746    0.002009
  P     -2.366032    0.302315   -0.300713
  S     -3.039876    0.131697   -2.126130
  O     -3.468947    0.841559    0.697004
  C     -3.208289    1.008768    2.115314
  C     -4.544392    1.158590    2.812215
  O     -1.767218   -1.037577    0.338167
  C     -2.213852   -2.342588   -0.076985
  C     -3.602156   -2.638969    0.452025
  H      2.342090   -2.718502    0.140511
  H      3.447412   -3.999520   -0.378294
  H      3.970176   -2.813139    0.832007
  H      3.272767   -2.164013   -2.073980
  H      4.936846   -2.318050   -1.439180
  H      2.668404    0.486292    3.149714
  H      1.668794    1.348619    1.953882
  H      0.116722   -0.618646    1.857844
  H      1.128863   -1.471167    3.030887
  H      0.257864   -0.004226    3.510879
  H     -0.478496    0.931157   -2.288018
  H      0.956087    1.822156   -1.650748
  H     -2.660875    0.134554    2.475904
  H     -2.587706    1.899855    2.238312
  H     -4.376925    1.310502    3.873574
  H     -5.080669    2.011815    2.407079
  H     -5.147915    0.267193    2.666262
  H     -2.197615   -2.385000   -1.170156
  H     -1.465450   -3.023261    0.330231
  H     -4.310093   -1.917560    0.043574
  H     -3.900289   -3.636446    0.145162
  H     -3.618042   -2.576502    1.537022

 Total Charge           Charge          ....    0
 Multiplicity           Mult            ....    1
 Number of Electrons    NEL             ....  202
 Basis Dimension        Dim             ....  334

ORBITAL ENERGIES
----------------

  NO   OCC          E(Eh)            E(eV)
   0   2.0000     -88.044861     -2395.8225
   1   2.0000     -88.043850     -2395.7949
   2   2.0000     -87.991812     -2394.3789
   3   2.0000     -87.984877     -2394.1902
   4   2.0000     -76.429989     -2079.7657
   5   2.0000     -76.427337     -2079.6936
   6   2.0000     -18.801724      -511.6209
   7   2.0000     -18.797873      -511.5161
   8   2.0000     -18.794682      -511.4293
   9   2.0000     -18.789009      -511.2749
  10   2.0000      -9.966627      -271.2057
  11   2.0000      -9.962286      -271.0876
  12   2.0000      -9.956341      -270.9258
  13   2.0000      -9.952479      -270.8207
  14   2.0000      -9.950012      -270.7536
  15   2.0000      -9.898081      -269.3405
  16   2.0000      -9.893598      -269.2185
  17   2.0000      -9.891759      -269.1684
  18   2.0000      -9.882019      -268.9034
  19   2.0000      -7.689975      -209.2549
  20   2.0000      -7.688561      -209.2164
  21   2.0000      -7.637005      -207.8135
  22   2.0000      -7.630109      -207.6258
  23   2.0000      -6.428111      -174.9178
  24   2.0000      -6.424760      -174.8266
  25   2.0000      -5.717674      -155.5858
  26   2.0000      -5.716362      -155.5501
  27   2.0000      -5.714695      -155.5048
  28   2.0000      -5.713041      -155.4597
  29   2.0000      -5.706910      -155.2929
  30   2.0000      -5.705716      -155.2604
  31   2.0000      -5.666061      -154.1814
  32   2.0000      -5.659136      -153.9929
  33   2.0000      -5.657702      -153.9539
  34   2.0000      -5.656906      -153.9322
  35   2.0000      -5.650728      -153.7641
  36   2.0000      -5.650111      -153.7473
  37   2.0000      -4.651065      -126.5619
  38   2.0000      -4.649480      -126.5188
  39   2.0000      -4.648541      -126.4932
  40   2.0000      -4.647445      -126.4634
  41   2.0000      -4.646531      -126.4385
  42   2.0000      -4.645117      -126.4001
  43   2.0000      -0.992922       -27.0188
  44   2.0000      -0.987923       -26.8828
  45   2.0000      -0.952322       -25.9140
  46   2.0000      -0.945451       -25.7270
  47   2.0000      -0.765806       -20.8386
  48   2.0000      -0.727494       -19.7961
  49   2.0000      -0.717041       -19.5117
  50   2.0000      -0.698904       -19.0182
  51   2.0000      -0.692218       -18.8362
  52   2.0000      -0.677935       -18.4475
  53   2.0000      -0.652858       -17.7652
  54   2.0000      -0.640014       -17.4157
  55   2.0000      -0.601451       -16.3663
  56   2.0000      -0.595286       -16.1986
  57   2.0000      -0.581220       -15.8158
  58   2.0000      -0.573771       -15.6131
  59   2.0000      -0.563284       -15.3277
  60   2.0000      -0.513380       -13.9698
  61   2.0000      -0.498681       -13.5698
  62   2.0000      -0.487196       -13.2573
  63   2.0000      -0.478786       -13.0284
  64   2.0000      -0.463692       -12.6177
  65   2.0000      -0.451844       -12.2953
  66   2.0000      -0.447946       -12.1892
  67   2.0000      -0.441881       -12.0242
  68   2.0000      -0.432438       -11.7672
  69   2.0000      -0.414396       -11.2763
  70   2.0000      -0.409847       -11.1525
  71   2.0000      -0.404432       -11.0052
  72   2.0000      -0.401602       -10.9282
  73   2.0000      -0.389246       -10.5919
  74   2.0000      -0.385454       -10.4887
  75   2.0000      -0.375377       -10.2145
  76   2.0000      -0.366963        -9.9856
  77   2.0000      -0.364675        -9.9233
  78   2.0000      -0.359033        -9.7698
  79   2.0000      -0.357281        -9.7221
  80   2.0000      -0.355166        -9.6646
  81   2.0000      -0.349136        -9.5005
  82   2.0000      -0.348329        -9.4785
  83   2.0000      -0.346523        -9.4294
  84   2.0000      -0.333744        -9.0816
  85   2.0000      -0.326756        -8.8915
  86   2.0000      -0.319605        -8.6969
  87   2.0000      -0.317449        -8.6382
  88   2.0000      -0.294651        -8.0179
  89   2.0000      -0.291567        -7.9340
  90   2.0000      -0.287184        -7.8147
  91   2.0000      -0.279319        -7.6006
  92   2.0000      -0.276737        -7.5304
  93   2.0000      -0.275316        -7.4917
  94   2.0000      -0.257811        -7.0154
  95   2.0000      -0.234738        -6.3875
  96   2.0000      -0.220197        -5.9919
  97   2.0000      -0.215016        -5.8509
  98   2.0000      -0.205224        -5.5844
  99   2.0000      -0.203953        -5.5499
 100   2.0000      -0.199734        -5.4350
 101   0.0000      -0.046931        -1.2771
 102   0.0000      -0.028797        -0.7836
 103   0.0000      -0.010576        -0.2878
 104   0.0000       0.002335         0.0635
 105   0.0000       0.009893         0.2692

MULLIKEN ATOMIC CHARGES
-----------------------
   0 C :   -0.319148
   1 C :   -0.006978
   2 O :   -0.358493
   3 P :    0.597978
   4 S :   -0.307615
   5 O :   -0.372653
   6 C :   -0.001559
   7 C :   -0.332497
   8 S :   -0.121144
   9 C :   -0.348971
  10 S :   -0.094524
  11 P :    0.615307
  12 S :   -0.303772
  13 O :   -0.369954
  14 C :   -0.045652
  15 C :   -0.275116
  16 O :   -0.378192
  17 C :   -0.002806
  18 C :   -0.318097
  19 H :    0.127668
  20 H :    0.115855
  21 H :    0.127457
  22 H :    0.117513
  23 H :    0.115681
  24 H :    0.104647
  25 H :    0.104453
  26 H :    0.157185
  27 H :    0.106593
  28 H :    0.101375
  29 H :    0.190908
  30 H :    0.199491
  31 H :    0.116833
  32 H :    0.119041
  33 H :    0.113527
  34 H :    0.127125
  35 H :    0.120499
  36 H :    0.113808
  37 H :    0.104392
  38 H :    0.131538
  39 H :    0.116112
  40 H :    0.112184
Sum of atomic charges:    0.0000000

LOEWDIN ATOMIC CHARGES
----------------------
   0 C :   -0.368052
   1 C :   -0.111732
   2 O :   -0.232863
   3 P :    0.570556
   4 S :   -0.303683
   5 O :   -0.245142
   6 C :   -0.117358
   7 C :   -0.371416
   8 S :    0.065461
   9 C :   -0.486814
  10 S :    0.086734
  11 P :    0.570815
  12 S :   -0.301825
  13 O :   -0.243142
  14 C :   -0.119653
  15 C :   -0.348372
  16 O :   -0.247377
  17 C :   -0.121510
  18 C :   -0.365688
  19 H :    0.118229
  20 H :    0.132485
  21 H :    0.131169
  22 H :    0.112245
  23 H :    0.125297
  24 H :    0.117587
  25 H :    0.102185
  26 H :    0.120167
  27 H :    0.121906
  28 H :    0.124606
  29 H :    0.129023
  30 H :    0.129441
  31 H :    0.111307
  32 H :    0.113579
  33 H :    0.131953
  34 H :    0.132854
  35 H :    0.128875
  36 H :    0.110464
  37 H :    0.117185
  38 H :    0.125914
  39 H :    0.132717
  40 H :    0.121876

  Mayer bond orders larger than 0.100000
B(  0-C ,  1-C ) :   1.1686 B(  0-C , 19-H ) :   0.9366 B(  0-C , 20-H ) :   0.9343
B(  0-C , 21-H ) :   0.9419 B(  1-C ,  2-O ) :   0.9003 B(  1-C , 22-H ) :   0.9226
B(  1-C , 23-H ) :   0.9340 B(  2-O ,  3-P ) :   1.1553 B(  3-P ,  4-S ) :   1.6404
B(  3-P ,  5-O ) :   1.0899 B(  3-P ,  8-S ) :   0.9279 B(  4-S ,  8-S ) :   0.1123
B(  4-S , 30-H ) :   0.1023 B(  5-O ,  6-C ) :   0.9059 B(  6-C ,  7-C ) :   1.1628
B(  6-C , 24-H ) :   0.9352 B(  6-C , 25-H ) :   0.9020 B(  7-C , 26-H ) :   0.9174
B(  7-C , 27-H ) :   0.9444 B(  7-C , 28-H ) :   0.9397 B(  8-S ,  9-C ) :   1.0188
B(  9-C , 10-S ) :   1.0062 B(  9-C , 29-H ) :   0.8667 B(  9-C , 30-H ) :   0.8581
B( 10-S , 11-P ) :   0.9657 B( 10-S , 12-S ) :   0.1008 B( 11-P , 12-S ) :   1.6393
B( 11-P , 13-O ) :   1.1243 B( 11-P , 16-O ) :   1.0630 B( 13-O , 14-C ) :   0.8966
B( 14-C , 15-C ) :   1.1665 B( 14-C , 31-H ) :   0.9150 B( 14-C , 32-H ) :   0.9252
B( 15-C , 33-H ) :   0.9399 B( 15-C , 34-H ) :   0.9486 B( 15-C , 35-H ) :   0.9506
B( 16-O , 17-C ) :   0.9018 B( 17-C , 18-C ) :   1.1614 B( 17-C , 36-H ) :   0.9123
B( 17-C , 37-H ) :   0.9328 B( 18-C , 38-H ) :   0.9344 B( 18-C , 39-H ) :   0.9397
B( 18-C , 40-H ) :   0.9465

Dispersion correction           -0.064844381
FINAL SINGLE POINT ENERGY     -2929.518071520729

DIPOLE MOMENT
-------------

Method             : SCF
Type of density    : Electron Density
Multiplicity       :   1
Irrep              :   0
Energy             : -2929.6394247469620495 Eh
Relativity type    :
Basis              : AO
                                X                 Y                 Z
Electronic contribution:     10.278881940      17.049308656     -18.873040687
Nuclear contribution   :    -10.756062516     -18.787246811      20.484443620
                        -----------------------------------------
Total Dipole Moment    :     -0.477180576      -1.737938155       1.611402933
                        -----------------------------------------
Magnitude (a.u.)       :      2.417591724
Magnitude (Debye)      :      6.145029810

Rotational constants in cm-1:             0.012087             0.004750             0.004609
Rotational constants in MHz :           362.356730           142.396842           138.167421

                             ****ORCA TERMINATED NORMALLY****
TOTAL RUN TIME: 0 days 0 hours 0 minutes 21 seconds 421 msec
