                         Program Version 6.0.0  -   RELEASE  -
|  1> ! pbe def2-sv(p) def2/J RI DEFGRID1 loosescf d4 GCP(DFT/SV(P)) printgap
|  2> %output
|  3>     printlevel normal
|  4> end
|  5> * xyz 0 1
|  6> C 5.0980292595 -0.7235931958 -2.6697113434
|  7> C 3.7404636168 -1.0822846112 -2.1007982503
|  8> O 3.4487947003 -0.1594501208 -1.0309873641
|  9> P 1.9615837721 0.0599065634 -0.5126761587
| 10> S 0.6824029893 0.5216485574 -1.9193650552
| 11> O 2.1354656723 1.220832638 0.5307513586
| 12> C 3.1387190026 1.2652731271 1.5798100314
| 13> C 2.5652144864 0.7927408061 2.9010810896
| 14> S 1.6358922573 -1.7658230358 0.5264242262
| 15> C 0.0082978831 -1.4655518992 1.268503372
| 16> S -1.3703231929 -1.4941251509 0.0876749429
| 17> P -2.0806346844 0.509320324 0.2851328982
| 18> S -0.9875798212 1.6629479991 1.4300453125
| 19> O -3.6031947691 0.3044586937 0.7192162853
| 20> C -4.0641384298 -0.5434933989 1.7853864803
| 21> C -3.5937439249 -0.0781710925 3.1483505926
| 22> O -2.2817289163 1.1902686301 -1.1161673663
| 23> C -3.2503151544 0.8160999246 -2.1243841865
| 24> C -3.0008217148 -0.5701164533 -2.6792574501
| 25> H 5.8562456117 -0.7916765696 -1.8951541526
| 26> H 5.3395438497 -1.4128929745 -3.4719600378
| 27> H 5.0825521943 0.2903485929 -3.0599222984
| 28> H 3.7336350518 -2.0934885849 -1.6857404241
| 29> H 2.9524953419 -0.9976266695 -2.8565896467
| 30> H 3.9991488942 0.6687509865 1.2727252338
| 31> H 3.414430031 2.3198600151 1.6258528755
| 32> H 1.6193361215 1.2968387317 3.0896365373
| 33> H 2.4033882689 -0.2822325994 2.8931583489
| 34> H 3.2631024308 1.0380042193 3.6952120722
| 35> H 0.0087584467 -0.4914518453 1.7678859065
| 36> H -0.1384658534 -2.2811006924 1.971751239
| 37> H -5.1511304528 -0.4896187388 1.7013464716
| 38> H -3.7274135746 -1.5648182129 1.5843697687
| 39> H -3.8813659857 0.9571675 3.3137482886
| 40> H -4.0408351691 -0.703196791 3.9144793095
| 41> H -2.5097534333 -0.1451901018 3.2191562857
| 42> H -4.2472433242 0.8976155696 -1.6863428281
| 43> H -3.1122646967 1.5812512655 -2.8899860967
| 44> H -1.9645642607 -0.6579035331 -3.000100174
| 45> H -3.2010837288 -1.3285840112 -1.9238906047
| 46> H -3.6544707533 -0.7360461707 -3.5296964073
| 47> *
| 48>
| 49>                          ****END OF INPUT****

CARTESIAN COORDINATES (ANGSTROEM)
---------------------------------
  C      5.098029   -0.723593   -2.669711
  C      3.740464   -1.082285   -2.100798
  O      3.448795   -0.159450   -1.030987
  P      1.961584    0.059907   -0.512676
  S      0.682403    0.521649   -1.919365
  O      2.135466    1.220833    0.530751
  C      3.138719    1.265273    1.579810
  C      2.565214    0.792741    2.901081
  S      1.635892   -1.765823    0.526424
  C      0.008298   -1.465552    1.268503
  S     -1.370323   -1.494125    0.087675
  P     -2.080635    0.509320    0.285133
  S     -0.987580    1.662948    1.430045
  O     -3.603195    0.304459    0.719216
  C     -4.064138   -0.543493    1.785386
  C     -3.593744   -0.078171    3.148351
  O     -2.281729    1.190269   -1.116167
  C     -3.250315    0.816100   -2.124384
  C     -3.000822   -0.570116   -2.679257
  H      5.856246   -0.791677   -1.895154
  H      5.339544   -1.412893   -3.471960
  H      5.082552    0.290349   -3.059922
  H      3.733635   -2.093489   -1.685740
  H      2.952495   -0.997627   -2.856590
  H      3.999149    0.668751    1.272725
  H      3.414430    2.319860    1.625853
  H      1.619336    1.296839    3.089637
  H      2.403388   -0.282233    2.893158
  H      3.263102    1.038004    3.695212
  H      0.008758   -0.491452    1.767886
  H     -0.138466   -2.281101    1.971751
  H     -5.151130   -0.489619    1.701346
  H     -3.727414   -1.564818    1.584370
  H     -3.881366    0.957167    3.313748
  H     -4.040835   -0.703197    3.914479
  H     -2.509753   -0.145190    3.219156
  H     -4.247243    0.897616   -1.686343
  H     -3.112265    1.581251   -2.889986
  H     -1.964564   -0.657904   -3.000100
  H     -3.201084   -1.328584   -1.923891
  H     -3.654471   -0.736046   -3.529696

 Total Charge           Charge          ....    0
 Multiplicity           Mult            ....    1
 Number of Electrons    NEL             ....  202
 Basis Dimension        Dim             ....  334

ORBITAL ENERGIES
----------------

  NO   OCC          E(Eh)            E(eV)
   0   2.0000     -88.039771     -2395.6840
   1   2.0000     -88.038956     -2395.6618
   2   2.0000     -87.977088     -2393.9783
   3   2.0000     -87.972464     -2393.8524
   4   2.0000     -76.421076     -2079.5232
   5   2.0000     -76.417888     -2079.4364
   6   2.0000     -18.786919      -511.2180
   7   2.0000     -18.786002      -511.1931
   8   2.0000     -18.783450      -511.1236
   9   2.0000     -18.782660      -511.1022
  10   2.0000      -9.953516      -270.8489
  11   2.0000      -9.952435      -270.8195
  12   2.0000      -9.951441      -270.7925
  13   2.0000      -9.950412      -270.7645
  14   2.0000      -9.950277      -270.7608
  15   2.0000      -9.886637      -269.0291
  16   2.0000      -9.882822      -268.9252
  17   2.0000      -9.881341      -268.8850
  18   2.0000      -9.880992      -268.8755
  19   2.0000      -7.684154      -209.0965
  20   2.0000      -7.684089      -209.0947
  21   2.0000      -7.622339      -207.4144
  22   2.0000      -7.617505      -207.2829
  23   2.0000      -6.417927      -174.6407
  24   2.0000      -6.415415      -174.5723
  25   2.0000      -5.711959      -155.4303
  26   2.0000      -5.711741      -155.4244
  27   2.0000      -5.708665      -155.3407
  28   2.0000      -5.708583      -155.3384
  29   2.0000      -5.701377      -155.1424
  30   2.0000      -5.701234      -155.1385
  31   2.0000      -5.651359      -153.7813
  32   2.0000      -5.646516      -153.6495
  33   2.0000      -5.642961      -153.5528
  34   2.0000      -5.642286      -153.5344
  35   2.0000      -5.638166      -153.4223
  36   2.0000      -5.637499      -153.4041
  37   2.0000      -4.640714      -126.2802
  38   2.0000      -4.639764      -126.2544
  39   2.0000      -4.638443      -126.2185
  40   2.0000      -4.638232      -126.2127
  41   2.0000      -4.637290      -126.1871
  42   2.0000      -4.635335      -126.1339
  43   2.0000      -0.982122       -26.7249
  44   2.0000      -0.981488       -26.7076
  45   2.0000      -0.938822       -25.5466
  46   2.0000      -0.936212       -25.4756
  47   2.0000      -0.757639       -20.6164
  48   2.0000      -0.716665       -19.5014
  49   2.0000      -0.709101       -19.2956
  50   2.0000      -0.688000       -18.7214
  51   2.0000      -0.686538       -18.6816
  52   2.0000      -0.674564       -18.3558
  53   2.0000      -0.644953       -17.5501
  54   2.0000      -0.629191       -17.1212
  55   2.0000      -0.587913       -15.9979
  56   2.0000      -0.580309       -15.7910
  57   2.0000      -0.576706       -15.6930
  58   2.0000      -0.569334       -15.4924
  59   2.0000      -0.562343       -15.3021
  60   2.0000      -0.504214       -13.7204
  61   2.0000      -0.493934       -13.4406
  62   2.0000      -0.472880       -12.8677
  63   2.0000      -0.466667       -12.6987
  64   2.0000      -0.449780       -12.2391
  65   2.0000      -0.443874       -12.0784
  66   2.0000      -0.438350       -11.9281
  67   2.0000      -0.432858       -11.7787
  68   2.0000      -0.430206       -11.7065
  69   2.0000      -0.423718       -11.5299
  70   2.0000      -0.404878       -11.0173
  71   2.0000      -0.402595       -10.9552
  72   2.0000      -0.387693       -10.5497
  73   2.0000      -0.382977       -10.4213
  74   2.0000      -0.378107       -10.2888
  75   2.0000      -0.363265        -9.8849
  76   2.0000      -0.354742        -9.6530
  77   2.0000      -0.352168        -9.5830
  78   2.0000      -0.349517        -9.5108
  79   2.0000      -0.348895        -9.4939
  80   2.0000      -0.345030        -9.3887
  81   2.0000      -0.342356        -9.3160
  82   2.0000      -0.338478        -9.2105
  83   2.0000      -0.334644        -9.1061
  84   2.0000      -0.331918        -9.0320
  85   2.0000      -0.314373        -8.5545
  86   2.0000      -0.310944        -8.4612
  87   2.0000      -0.298369        -8.1190
  88   2.0000      -0.292659        -7.9637
  89   2.0000      -0.289842        -7.8870
  90   2.0000      -0.283234        -7.7072
  91   2.0000      -0.271117        -7.3775
  92   2.0000      -0.266481        -7.2513
  93   2.0000      -0.257471        -7.0061
  94   2.0000      -0.252377        -6.8675
  95   2.0000      -0.236645        -6.4394
  96   2.0000      -0.218940        -5.9577
  97   2.0000      -0.197728        -5.3805
  98   2.0000      -0.194660        -5.2970
  99   2.0000      -0.183398        -4.9905
 100   2.0000      -0.181284        -4.9330
 101   0.0000      -0.035622        -0.9693
 102   0.0000      -0.029641        -0.8066
 103   0.0000      -0.008562        -0.2330
 104   0.0000       0.006157         0.1675
 105   0.0000       0.018228         0.4960

MULLIKEN ATOMIC CHARGES
-----------------------
   0 C :   -0.280453
   1 C :   -0.011132
   2 O :   -0.387685
   3 P :    0.604389
   4 S :   -0.300165
   5 O :   -0.343790
   6 C :   -0.007245
   7 C :   -0.310239
   8 S :   -0.125876
   9 C :   -0.353281
  10 S :   -0.109505
  11 P :    0.621330
  12 S :   -0.299870
  13 O :   -0.383692
  14 C :   -0.006016
  15 C :   -0.303214
  16 O :   -0.342937
  17 C :    0.003867
  18 C :   -0.334830
  19 H :    0.113319
  20 H :    0.111395
  21 H :    0.122808
  22 H :    0.103406
  23 H :    0.103832
  24 H :    0.105290
  25 H :    0.111854
  26 H :    0.138930
  27 H :    0.118550
  28 H :    0.108480
  29 H :    0.201785
  30 H :    0.177000
  31 H :    0.103129
  32 H :    0.101931
  33 H :    0.123111
  34 H :    0.106786
  35 H :    0.118723
  36 H :    0.107744
  37 H :    0.111759
  38 H :    0.145483
  39 H :    0.122035
  40 H :    0.112994
Sum of atomic charges:   -0.0000000

LOEWDIN ATOMIC CHARGES
----------------------
   0 C :   -0.350688
   1 C :   -0.120995
   2 O :   -0.253476
   3 P :    0.558686
   4 S :   -0.304185
   5 O :   -0.224837
   6 C :   -0.107855
   7 C :   -0.367688
   8 S :    0.055672
   9 C :   -0.488020
  10 S :    0.081670
  11 P :    0.571729
  12 S :   -0.287772
  13 O :   -0.251185
  14 C :   -0.121016
  15 C :   -0.367247
  16 O :   -0.219907
  17 C :   -0.108450
  18 C :   -0.370958
  19 H :    0.125174
  20 H :    0.130656
  21 H :    0.130226
  22 H :    0.108264
  23 H :    0.108585
  24 H :    0.110128
  25 H :    0.123654
  26 H :    0.130558
  27 H :    0.117206
  28 H :    0.129025
  29 H :    0.119475
  30 H :    0.134966
  31 H :    0.117875
  32 H :    0.100412
  33 H :    0.130169
  34 H :    0.127621
  35 H :    0.117943
  36 H :    0.112440
  37 H :    0.124156
  38 H :    0.132581
  39 H :    0.114132
  40 H :    0.131276

  Mayer bond orders larger than 0.100000
B(  0-C ,  1-C ) :   1.1611 B(  0-C , 19-H ) :   0.9514 B(  0-C , 20-H ) :   0.9418
B(  0-C , 21-H ) :   0.9505 B(  1-C ,  2-O ) :   0.9069 B(  1-C , 22-H ) :   0.9296
B(  1-C , 23-H ) :   0.9055 B(  2-O ,  3-P ) :   1.0718 B(  3-P ,  4-S ) :   1.6753
B(  3-P ,  5-O ) :   1.1496 B(  3-P ,  8-S ) :   0.9448 B(  4-S ,  8-S ) :   0.1142
B(  5-O ,  6-C ) :   0.8952 B(  6-C ,  7-C ) :   1.1707 B(  6-C , 24-H ) :   0.9198
B(  6-C , 25-H ) :   0.9349 B(  7-C , 26-H ) :   0.9344 B(  7-C , 27-H ) :   0.9321
B(  7-C , 28-H ) :   0.9378 B(  8-S ,  9-C ) :   0.9898 B(  9-C , 10-S ) :   1.0083
B(  9-C , 29-H ) :   0.8337 B(  9-C , 30-H ) :   0.9109 B( 10-S , 11-P ) :   0.9301
B( 10-S , 12-S ) :   0.1183 B( 11-P , 12-S ) :   1.6274 B( 11-P , 13-O ) :   1.0603
B( 11-P , 16-O ) :   1.1520 B( 12-S , 29-H ) :   0.1251 B( 13-O , 14-C ) :   0.9242
B( 14-C , 15-C ) :   1.1647 B( 14-C , 31-H ) :   0.9337 B( 14-C , 32-H ) :   0.9145
B( 15-C , 33-H ) :   0.9452 B( 15-C , 34-H ) :   0.9366 B( 15-C , 35-H ) :   0.9348
B( 16-O , 17-C ) :   0.8999 B( 17-C , 18-C ) :   1.1681 B( 17-C , 36-H ) :   0.9271
B( 17-C , 37-H ) :   0.9328 B( 18-C , 38-H ) :   0.9364 B( 18-C , 39-H ) :   0.9346
B( 18-C , 40-H ) :   0.9360

Dispersion correction           -0.067195460
FINAL SINGLE POINT ENERGY     -2929.509384086161

DIPOLE MOMENT
-------------

Method             : SCF
Type of density    : Electron Density
Multiplicity       :   1
Irrep              :   0
Energy             : -2929.6269882677443093 Eh
Relativity type    :
Basis              : AO
                                X                 Y                 Z
Electronic contribution:     -2.020324295       3.868410409      -3.586760402
Nuclear contribution   :      2.020731621      -5.061047849       3.985950673
                        -----------------------------------------
Total Dipole Moment    :      0.000407327      -1.192637440       0.399190271
                        -----------------------------------------
Magnitude (a.u.)       :      1.257671301
Magnitude (Debye)      :      3.196746397

Rotational constants in cm-1:             0.012353             0.005491             0.004716
Rotational constants in MHz :           370.325859           164.613857           141.390445

                             ****ORCA TERMINATED NORMALLY****
TOTAL RUN TIME: 0 days 0 hours 0 minutes 21 seconds 491 msec
