                         Program Version 6.0.0  -   RELEASE  -
|  1> ! pbe def2-sv(p) def2/J RI DEFGRID1 loosescf d4 GCP(DFT/SV(P)) printgap
|  2> %output
|  3>     printlevel normal
|  4> end
|  5> * xyz 0 1
|  6> C -1.8916992642 -1.473e-07 -3.59347e-05
|  7> C -1.2021229301 -1.2015128325 7.985e-06
|  8> C 0.1828773729 -1.2116809479 1.06918e-05
|  9> C 0.8450873327 8.71e-08 -8.6654e-06
| 10> C 0.1828775545 1.2116811757 2.72843e-05
| 11> C -1.2021230383 1.20151305 1.27552e-05
| 12> F 2.2134987618 -1.675e-07 -5.399e-06
| 13> H -2.9701065341 -9.381e-07 7.20723e-05
| 14> H -1.739561963 -2.1363872181 6.77447e-05
| 15> H 0.7450121055 -2.131395923 -6.49571e-05
| 16> H 0.7450126072 2.13139516 -5.9842e-05
| 17> H -1.7395612518 2.1363874874 -8.14641e-05
| 18> *
| 19>
| 20>                          ****END OF INPUT****

CARTESIAN COORDINATES (ANGSTROEM)
---------------------------------
  C     -1.891699   -0.000000   -0.000036
  C     -1.202123   -1.201513    0.000008
  C      0.182877   -1.211681    0.000011
  C      0.845087    0.000000   -0.000009
  C      0.182878    1.211681    0.000027
  C     -1.202123    1.201513    0.000013
  F      2.213499   -0.000000   -0.000005
  H     -2.970107   -0.000001    0.000072
  H     -1.739562   -2.136387    0.000068
  H      0.745012   -2.131396   -0.000065
  H      0.745013    2.131395   -0.000060
  H     -1.739561    2.136387   -0.000081

 Total Charge           Charge          ....    0
 Multiplicity           Mult            ....    1
 Number of Electrons    NEL             ....   50
 Basis Dimension        Dim             ....  108

ORBITAL ENERGIES
----------------

  NO   OCC          E(Eh)            E(eV)
   0   2.0000     -24.260030      -660.1490
   1   2.0000      -9.976135      -271.4644
   2   2.0000      -9.905255      -269.5357
   3   2.0000      -9.905238      -269.5352
   4   2.0000      -9.901884      -269.4440
   5   2.0000      -9.901884      -269.4440
   6   2.0000      -9.899121      -269.3688
   7   2.0000      -1.087392       -29.5894
   8   2.0000      -0.787076       -21.4174
   9   2.0000      -0.685573       -18.6554
  10   2.0000      -0.674141       -18.3443
  11   2.0000      -0.561900       -15.2901
  12   2.0000      -0.547789       -14.9061
  13   2.0000      -0.491863       -13.3843
  14   2.0000      -0.442145       -12.0314
  15   2.0000      -0.433868       -11.8062
  16   2.0000      -0.400593       -10.9007
  17   2.0000      -0.397615       -10.8197
  18   2.0000      -0.390619       -10.6293
  19   2.0000      -0.340272        -9.2593
  20   2.0000      -0.330508        -8.9936
  21   2.0000      -0.325153        -8.8479
  22   2.0000      -0.300611        -8.1800
  23   2.0000      -0.241819        -6.5802
  24   2.0000      -0.223746        -6.0884
  25   0.0000      -0.046117        -1.2549
  26   0.0000      -0.034085        -0.9275
  27   0.0000       0.032639         0.8882
  28   0.0000       0.075214         2.0467
  29   0.0000       0.085179         2.3179

MULLIKEN ATOMIC CHARGES
-----------------------
   0 C :   -0.042229
   1 C :   -0.055157
   2 C :   -0.143735
   3 C :    0.320825
   4 C :   -0.143734
   5 C :   -0.055157
   6 F :   -0.185529
   7 H :    0.056721
   8 H :    0.062827
   9 H :    0.061170
  10 H :    0.061170
  11 H :    0.062827
Sum of atomic charges:   -0.0000000

LOEWDIN ATOMIC CHARGES
----------------------
   0 C :   -0.135168
   1 C :   -0.112035
   2 C :   -0.150299
   3 C :    0.073431
   4 C :   -0.150299
   5 C :   -0.112035
   6 F :   -0.067412
   7 H :    0.125911
   8 H :    0.127732
   9 H :    0.136220
  10 H :    0.136220
  11 H :    0.127732

  Mayer bond orders larger than 0.100000
B(  0-C ,  1-C ) :   1.3849 B(  0-C ,  5-C ) :   1.3849 B(  0-C ,  7-H ) :   0.9666
B(  1-C ,  2-C ) :   1.3511 B(  1-C ,  8-H ) :   0.9633 B(  2-C ,  3-C ) :   1.3652
B(  2-C ,  9-H ) :   0.9651 B(  3-C ,  4-C ) :   1.3652 B(  3-C ,  6-F ) :   1.0782
B(  4-C ,  5-C ) :   1.3511 B(  4-C , 10-H ) :   0.9651 B(  5-C , 11-H ) :   0.9633

Dispersion correction           -0.011134271
FINAL SINGLE POINT ENERGY      -330.800487516643

DIPOLE MOMENT
-------------

Method             : SCF
Type of density    : Electron Density
Multiplicity       :   1
Irrep              :   0
Energy             :  -330.8351969565898116 Eh
Relativity type    :
Basis              : AO
                                X                 Y                 Z
Electronic contribution:      6.174762246       0.000001166       0.000033440
Nuclear contribution   :     -6.703412200      -0.000001188      -0.000057336
                        -----------------------------------------
Total Dipole Moment    :     -0.528649954      -0.000000022      -0.000023896
                        -----------------------------------------
Magnitude (a.u.)       :      0.528649954
Magnitude (Debye)      :      1.343721396

Rotational constants in cm-1:             0.190898             0.085890             0.059237
Rotational constants in MHz :          5722.978578          2574.906759          1775.890559

                             ****ORCA TERMINATED NORMALLY****
TOTAL RUN TIME: 0 days 0 hours 0 minutes 6 seconds 787 msec
