                         Program Version 6.0.0  -   RELEASE  -
|  1> ! pbe def2-sv(p) def2/J RI DEFGRID1 loosescf d4 GCP(DFT/SV(P)) printgap
|  2> %output
|  3>     printlevel normal
|  4> end
|  5> * xyz 0 1
|  6> C 3.436826187 2.3334377739 -1.7154134366
|  7> C 3.9831109689 1.9146269662 -0.3655212461
|  8> O 3.6389499852 0.5551136526 -0.0607797032
|  9> P 2.1774310095 0.121836699 0.40425867
| 10> S 1.3954750179 1.3831219398 1.6913469996
| 11> O 2.441896026 -1.3490333107 0.9152909517
| 12> C 2.610055795 -1.6938795058 2.3095147132
| 13> C 1.8420431073 -2.9696848659 2.5892058963
| 14> S 1.1784162245 -0.3108844637 -1.4168416286
| 15> C 0.1637347257 -1.7211839171 -0.8866013426
| 16> S -0.8580317759 -1.380831758 0.5720339616
| 17> P -2.1811355107 -0.0402832579 -0.3558400921
| 18> S -2.6838774078 -0.401610085 -2.2198275223
| 19> O -1.4119495984 1.3154311866 -0.0921192525
| 20> C -1.8115315003 2.5664102657 -0.6958654705
| 21> C -0.582740572 3.2442472842 -1.2663825196
| 22> O -3.4148657703 0.0888379907 0.6397353196
| 23> C -4.5734818896 -0.7598544047 0.5428967559
| 24> C -4.2559380298 -2.1970389171 0.9013412592
| 25> H 3.7502034915 3.348583854 -1.9361884524
| 26> H 3.7970077995 1.6643260527 -2.4922181066
| 27> H 2.3478898881 2.292407467 -1.7006830604
| 28> H 3.5932121201 2.5579002477 0.4311580936
| 29> H 5.0737330228 1.9258320781 -0.3494437505
| 30> H 3.6810581947 -1.8237124824 2.4775077513
| 31> H 2.2442210185 -0.8647147168 2.9248908656
| 32> H 0.7818839616 -2.8183618587 2.3967343929
| 33> H 2.2062481854 -3.7719707931 1.9541718723
| 34> H 1.981196129 -3.2449020114 3.6294749809
| 35> H 0.8066999895 -2.5598779835 -0.6341667993
| 36> H -0.4818382109 -1.9528306862 -1.734936704
| 37> H -2.5515820411 2.3643233901 -1.4776543427
| 38> H -2.2675333847 3.1633603108 0.0962498214
| 39> H 0.1656706238 3.3556939558 -0.4851456815
| 40> H -0.1686375344 2.6455865349 -2.0751665766
| 41> H -0.8554369035 4.22304544 -1.6467005739
| 42> H -5.2823996507 -0.3144846347 1.2419620432
| 43> H -4.9631708263 -0.6942236529 -0.4780332918
| 44> H -3.7678402797 -2.2450116815 1.8716251692
| 45> H -5.1762367248 -2.7714429073 0.9305571757
| 46> H -3.5930061813 -2.6290912014 0.1526198602
| 47> *
| 48>
| 49>                          ****END OF INPUT****

CARTESIAN COORDINATES (ANGSTROEM)
---------------------------------
  C      3.436826    2.333438   -1.715413
  C      3.983111    1.914627   -0.365521
  O      3.638950    0.555114   -0.060780
  P      2.177431    0.121837    0.404259
  S      1.395475    1.383122    1.691347
  O      2.441896   -1.349033    0.915291
  C      2.610056   -1.693880    2.309515
  C      1.842043   -2.969685    2.589206
  S      1.178416   -0.310884   -1.416842
  C      0.163735   -1.721184   -0.886601
  S     -0.858032   -1.380832    0.572034
  P     -2.181136   -0.040283   -0.355840
  S     -2.683877   -0.401610   -2.219828
  O     -1.411950    1.315431   -0.092119
  C     -1.811532    2.566410   -0.695865
  C     -0.582741    3.244247   -1.266383
  O     -3.414866    0.088838    0.639735
  C     -4.573482   -0.759854    0.542897
  C     -4.255938   -2.197039    0.901341
  H      3.750203    3.348584   -1.936188
  H      3.797008    1.664326   -2.492218
  H      2.347890    2.292407   -1.700683
  H      3.593212    2.557900    0.431158
  H      5.073733    1.925832   -0.349444
  H      3.681058   -1.823712    2.477508
  H      2.244221   -0.864715    2.924891
  H      0.781884   -2.818362    2.396734
  H      2.206248   -3.771971    1.954172
  H      1.981196   -3.244902    3.629475
  H      0.806700   -2.559878   -0.634167
  H     -0.481838   -1.952831   -1.734937
  H     -2.551582    2.364323   -1.477654
  H     -2.267533    3.163360    0.096250
  H      0.165671    3.355694   -0.485146
  H     -0.168638    2.645587   -2.075167
  H     -0.855437    4.223045   -1.646701
  H     -5.282400   -0.314485    1.241962
  H     -4.963171   -0.694224   -0.478033
  H     -3.767840   -2.245012    1.871625
  H     -5.176237   -2.771443    0.930557
  H     -3.593006   -2.629091    0.152620

 Total Charge           Charge          ....    0
 Multiplicity           Mult            ....    1
 Number of Electrons    NEL             ....  202
 Basis Dimension        Dim             ....  334

ORBITAL ENERGIES
----------------

  NO   OCC          E(Eh)            E(eV)
   0   2.0000     -88.045375     -2395.8365
   1   2.0000     -88.038742     -2395.6560
   2   2.0000     -87.986812     -2394.2429
   3   2.0000     -87.981580     -2394.1005
   4   2.0000     -76.424297     -2079.6108
   5   2.0000     -76.424107     -2079.6057
   6   2.0000     -18.794286      -511.4185
   7   2.0000     -18.792018      -511.3568
   8   2.0000     -18.786672      -511.2113
   9   2.0000     -18.781938      -511.0825
  10   2.0000      -9.957028      -270.9445
  11   2.0000      -9.953175      -270.8397
  12   2.0000      -9.951362      -270.7903
  13   2.0000      -9.949117      -270.7292
  14   2.0000      -9.944690      -270.6088
  15   2.0000      -9.888899      -269.0906
  16   2.0000      -9.885458      -268.9970
  17   2.0000      -9.884356      -268.9670
  18   2.0000      -9.875005      -268.7125
  19   2.0000      -7.690299      -209.2637
  20   2.0000      -7.683878      -209.0890
  21   2.0000      -7.631807      -207.6720
  22   2.0000      -7.626584      -207.5299
  23   2.0000      -6.422074      -174.7535
  24   2.0000      -6.421639      -174.7417
  25   2.0000      -5.718148      -155.5987
  26   2.0000      -5.714917      -155.5108
  27   2.0000      -5.712071      -155.4333
  28   2.0000      -5.708375      -155.3328
  29   2.0000      -5.707136      -155.2991
  30   2.0000      -5.700518      -155.1190
  31   2.0000      -5.660521      -154.0306
  32   2.0000      -5.655353      -153.8900
  33   2.0000      -5.652645      -153.8163
  34   2.0000      -5.651970      -153.7979
  35   2.0000      -5.647506      -153.6764
  36   2.0000      -5.646583      -153.6513
  37   2.0000      -4.644550      -126.3846
  38   2.0000      -4.644317      -126.3783
  39   2.0000      -4.643717      -126.3620
  40   2.0000      -4.643426      -126.3540
  41   2.0000      -4.642703      -126.3344
  42   2.0000      -4.641949      -126.3138
  43   2.0000      -0.985723       -26.8229
  44   2.0000      -0.982842       -26.7445
  45   2.0000      -0.944962       -25.7137
  46   2.0000      -0.940499       -25.5923
  47   2.0000      -0.764839       -20.8123
  48   2.0000      -0.721810       -19.6414
  49   2.0000      -0.707741       -19.2586
  50   2.0000      -0.686978       -18.6936
  51   2.0000      -0.683963       -18.6116
  52   2.0000      -0.671416       -18.2702
  53   2.0000      -0.649188       -17.6653
  54   2.0000      -0.637276       -17.3412
  55   2.0000      -0.599845       -16.3226
  56   2.0000      -0.590500       -16.0683
  57   2.0000      -0.572051       -15.5663
  58   2.0000      -0.569359       -15.4931
  59   2.0000      -0.555631       -15.1195
  60   2.0000      -0.502324       -13.6689
  61   2.0000      -0.498675       -13.5696
  62   2.0000      -0.473425       -12.8826
  63   2.0000      -0.469501       -12.7758
  64   2.0000      -0.459669       -12.5082
  65   2.0000      -0.440558       -11.9882
  66   2.0000      -0.437871       -11.9151
  67   2.0000      -0.432690       -11.7741
  68   2.0000      -0.427057       -11.6208
  69   2.0000      -0.416542       -11.3347
  70   2.0000      -0.411105       -11.1867
  71   2.0000      -0.392588       -10.6828
  72   2.0000      -0.390418       -10.6238
  73   2.0000      -0.382747       -10.4151
  74   2.0000      -0.382021       -10.3953
  75   2.0000      -0.378017       -10.2864
  76   2.0000      -0.367857       -10.0099
  77   2.0000      -0.358483        -9.7548
  78   2.0000      -0.354061        -9.6345
  79   2.0000      -0.350540        -9.5387
  80   2.0000      -0.347948        -9.4682
  81   2.0000      -0.343425        -9.3451
  82   2.0000      -0.339312        -9.2331
  83   2.0000      -0.337547        -9.1851
  84   2.0000      -0.330492        -8.9932
  85   2.0000      -0.320008        -8.7079
  86   2.0000      -0.303631        -8.2622
  87   2.0000      -0.296361        -8.0644
  88   2.0000      -0.294202        -8.0056
  89   2.0000      -0.285095        -7.7578
  90   2.0000      -0.284274        -7.7355
  91   2.0000      -0.275535        -7.4977
  92   2.0000      -0.268827        -7.3152
  93   2.0000      -0.261470        -7.1150
  94   2.0000      -0.259294        -7.0557
  95   2.0000      -0.236185        -6.4269
  96   2.0000      -0.218327        -5.9410
  97   2.0000      -0.208807        -5.6819
  98   2.0000      -0.203723        -5.5436
  99   2.0000      -0.197555        -5.3757
 100   2.0000      -0.190426        -5.1818
 101   0.0000      -0.047971        -1.3054
 102   0.0000      -0.024925        -0.6782
 103   0.0000      -0.019427        -0.5286
 104   0.0000       0.002584         0.0703
 105   0.0000       0.018732         0.5097

MULLIKEN ATOMIC CHARGES
-----------------------
   0 C :   -0.337899
   1 C :   -0.004274
   2 O :   -0.367685
   3 P :    0.616435
   4 S :   -0.313034
   5 O :   -0.379329
   6 C :   -0.004834
   7 C :   -0.304303
   8 S :   -0.095449
   9 C :   -0.347061
  10 S :   -0.086884
  11 P :    0.624247
  12 S :   -0.342742
  13 O :   -0.347802
  14 C :    0.001758
  15 C :   -0.310654
  16 O :   -0.373758
  17 C :   -0.002340
  18 C :   -0.316466
  19 H :    0.114249
  20 H :    0.121331
  21 H :    0.143503
  22 H :    0.107203
  23 H :    0.104580
  24 H :    0.106417
  25 H :    0.113007
  26 H :    0.130870
  27 H :    0.115811
  28 H :    0.113798
  29 H :    0.188375
  30 H :    0.191819
  31 H :    0.099634
  32 H :    0.104615
  33 H :    0.129392
  34 H :    0.132811
  35 H :    0.102185
  36 H :    0.105668
  37 H :    0.111521
  38 H :    0.117745
  39 H :    0.113366
  40 H :    0.124174
Sum of atomic charges:   -0.0000000

LOEWDIN ATOMIC CHARGES
----------------------
   0 C :   -0.368218
   1 C :   -0.122438
   2 O :   -0.246717
   3 P :    0.566899
   4 S :   -0.305996
   5 O :   -0.243661
   6 C :   -0.115636
   7 C :   -0.357177
   8 S :    0.084307
   9 C :   -0.476760
  10 S :    0.105444
  11 P :    0.573191
  12 S :   -0.329989
  13 O :   -0.231828
  14 C :   -0.111983
  15 C :   -0.360268
  16 O :   -0.245802
  17 C :   -0.119214
  18 C :   -0.369564
  19 H :    0.131900
  20 H :    0.127446
  21 H :    0.122205
  22 H :    0.106432
  23 H :    0.118436
  24 H :    0.116531
  25 H :    0.109157
  26 H :    0.120491
  27 H :    0.124837
  28 H :    0.132374
  29 H :    0.133694
  30 H :    0.130347
  31 H :    0.105011
  32 H :    0.116235
  33 H :    0.124484
  34 H :    0.124792
  35 H :    0.126070
  36 H :    0.118993
  37 H :    0.110573
  38 H :    0.124282
  39 H :    0.131159
  40 H :    0.119960

  Mayer bond orders larger than 0.100000
B(  0-C ,  1-C ) :   1.1609 B(  0-C , 19-H ) :   0.9392 B(  0-C , 20-H ) :   0.9443
B(  0-C , 21-H ) :   0.9271 B(  1-C ,  2-O ) :   0.9176 B(  1-C , 22-H ) :   0.9085
B(  1-C , 23-H ) :   0.9324 B(  2-O ,  3-P ) :   1.1049 B(  3-P ,  4-S ) :   1.6369
B(  3-P ,  5-O ) :   1.1134 B(  3-P ,  8-S ) :   0.9557 B(  4-S ,  8-S ) :   0.1041
B(  5-O ,  6-C ) :   0.8939 B(  6-C ,  7-C ) :   1.1634 B(  6-C , 24-H ) :   0.9333
B(  6-C , 25-H ) :   0.9015 B(  7-C , 26-H ) :   0.9398 B(  7-C , 27-H ) :   0.9489
B(  7-C , 28-H ) :   0.9401 B(  8-S ,  9-C ) :   1.0034 B(  9-C , 10-S ) :   1.0126
B(  9-C , 29-H ) :   0.9010 B(  9-C , 30-H ) :   0.8777 B( 10-S , 11-P ) :   0.9538
B( 10-S , 12-S ) :   0.1071 B( 11-P , 12-S ) :   1.5892 B( 11-P , 13-O ) :   1.1558
B( 11-P , 16-O ) :   1.1106 B( 13-O , 14-C ) :   0.8941 B( 14-C , 15-C ) :   1.1682
B( 14-C , 31-H ) :   0.9070 B( 14-C , 32-H ) :   0.9328 B( 15-C , 33-H ) :   0.9362
B( 15-C , 34-H ) :   0.9378 B( 15-C , 35-H ) :   0.9366 B( 16-O , 17-C ) :   0.9093
B( 17-C , 18-C ) :   1.1649 B( 17-C , 36-H ) :   0.9336 B( 17-C , 37-H ) :   0.9151
B( 18-C , 38-H ) :   0.9451 B( 18-C , 39-H ) :   0.9380 B( 18-C , 40-H ) :   0.9351

Dispersion correction           -0.066886678
FINAL SINGLE POINT ENERGY     -2929.521715468724

DIPOLE MOMENT
-------------

Method             : SCF
Type of density    : Electron Density
Multiplicity       :   1
Irrep              :   0
Energy             : -2929.6388550640849644 Eh
Relativity type    :
Basis              : AO
                                X                 Y                 Z
Electronic contribution:     -1.053481804      -1.967896771      -2.463772244
Nuclear contribution   :      1.289550243       1.692755183       2.922413041
                        -----------------------------------------
Total Dipole Moment    :      0.236068438      -0.275141588       0.458640797
                        -----------------------------------------
Magnitude (a.u.)       :      0.584621742
Magnitude (Debye)      :      1.485990375

Rotational constants in cm-1:             0.011325             0.005905             0.004813
Rotational constants in MHz :           339.529477           177.017280           144.285206

                             ****ORCA TERMINATED NORMALLY****
TOTAL RUN TIME: 0 days 0 hours 0 minutes 21 seconds 133 msec
