                         Program Version 6.0.1  -  RELEASE   -
|  1> ! pbe def2-sv(p) def2/J RI DEFGRID1 loosescf d4 GCP(DFT/SV(P)) printgap
|  2> %output
|  3>     printlevel normal
|  4> end
|  5> * xyz 0 1
|  6> C 3.9403783217 -2.6271171137 0.7639256159
|  7> C 2.4299829962 -2.63728973 0.5938518468
|  8> O 2.0397378918 -1.9256019915 -0.5954499799
|  9> C 1.9357912697 -0.6162515521 -0.5470484451
| 10> O 2.1105371281 0.0669619001 0.4406358944
| 11> C 1.5773067332 -0.0267803545 -1.8992392092
| 12> C 0.3283146251 0.8529361699 -1.7962332063
| 13> H 0.2578190885 1.4957275134 -2.6766729455
| 14> C 0.3562732218 1.720525438 -0.5520551343
| 15> O -0.4573029854 1.5882807426 0.3479961166
| 16> O 1.2774529906 2.6303624665 -0.6135902767
| 17> C 1.5084399258 3.5039194941 0.5157658474
| 18> C 2.9149293278 3.2739563063 1.038925808
| 19> S -1.2161217616 -0.1224001978 -1.7990278322
| 20> P -1.8287931926 -0.402830319 0.2129295515
| 21> S -0.6792590115 -1.0719613276 1.6643204902
| 22> O -2.9348004707 0.6856048844 0.5627162878
| 23> C -2.8927910104 1.5660225712 1.6859038974
| 24> O -2.9243974748 -1.5285082852 -0.1553239171
| 25> C -2.5489371287 -2.8682089195 -0.4758505027
| 26> H 4.4188089651 -3.0338838843 -0.1227900939
| 27> H 4.2921689439 -1.6110403894 0.9265378297
| 28> H 4.2045455922 -3.2318202334 1.6249494826
| 29> H 1.9302859837 -2.1804502547 1.4537880339
| 30> H 2.0519452009 -3.6476658759 0.4383001053
| 31> H 1.4137979584 -0.8261728998 -2.6197397911
| 32> H 2.4160078131 0.5968770652 -2.2153658089
| 33> H 1.383825267 4.5182716244 0.1316612158
| 34> H 0.7596978775 3.2933762353 1.2828440492
| 35> H 3.0256272134 2.2351143101 1.3409793419
| 36> H 3.6440074036 3.4976424508 0.2662732567
| 37> H 3.0878029886 3.9160320393 1.896007882
| 38> H -2.6701193735 2.5728519449 1.3363443473
| 39> H -2.1286027955 1.2445479345 2.3960853968
| 40> H -3.8776233892 1.5249444345 2.1470667526
| 41> H -3.4657151633 -3.4499710713 -0.4224835583
| 42> H -1.8226221514 -3.2361151179 0.2525959816
| 43> H -2.125312021 -2.9127053881 -1.4796703761
| 44> *
| 45>
| 46>                          ****END OF INPUT****

CARTESIAN COORDINATES (ANGSTROEM)
---------------------------------
  C      3.940378   -2.627117    0.763926
  C      2.429983   -2.637290    0.593852
  O      2.039738   -1.925602   -0.595450
  C      1.935791   -0.616252   -0.547048
  O      2.110537    0.066962    0.440636
  C      1.577307   -0.026780   -1.899239
  C      0.328315    0.852936   -1.796233
  H      0.257819    1.495728   -2.676673
  C      0.356273    1.720525   -0.552055
  O     -0.457303    1.588281    0.347996
  O      1.277453    2.630362   -0.613590
  C      1.508440    3.503919    0.515766
  C      2.914929    3.273956    1.038926
  S     -1.216122   -0.122400   -1.799028
  P     -1.828793   -0.402830    0.212930
  S     -0.679259   -1.071961    1.664320
  O     -2.934800    0.685605    0.562716
  C     -2.892791    1.566023    1.685904
  O     -2.924397   -1.528508   -0.155324
  C     -2.548937   -2.868209   -0.475851
  H      4.418809   -3.033884   -0.122790
  H      4.292169   -1.611040    0.926538
  H      4.204546   -3.231820    1.624949
  H      1.930286   -2.180450    1.453788
  H      2.051945   -3.647666    0.438300
  H      1.413798   -0.826173   -2.619740
  H      2.416008    0.596877   -2.215366
  H      1.383825    4.518272    0.131661
  H      0.759698    3.293376    1.282844
  H      3.025627    2.235114    1.340979
  H      3.644007    3.497642    0.266273
  H      3.087803    3.916032    1.896008
  H     -2.670119    2.572852    1.336344
  H     -2.128603    1.244548    2.396085
  H     -3.877623    1.524944    2.147067
  H     -3.465715   -3.449971   -0.422484
  H     -1.822622   -3.236115    0.252596
  H     -2.125312   -2.912705   -1.479670

 Total Charge           Charge          ....    0
 Multiplicity           Mult            ....    1
 Number of Electrons    NEL             ....  174
 Basis Dimension        Dim             ....  316

ORBITAL ENERGIES
----------------

  NO   OCC          E(Eh)            E(eV)
   0   2.0000     -88.032149     -2395.4766
   1   2.0000     -87.961964     -2393.5667
   2   2.0000     -76.414132     -2079.3342
   3   2.0000     -18.820672      -512.1365
   4   2.0000     -18.806459      -511.7498
   5   2.0000     -18.770086      -510.7600
   6   2.0000     -18.764506      -510.6082
   7   2.0000     -18.761535      -510.5273
   8   2.0000     -18.741878      -509.9924
   9   2.0000     -10.032919      -273.0096
  10   2.0000     -10.015211      -272.5277
  11   2.0000      -9.955853      -270.9125
  12   2.0000      -9.955825      -270.9118
  13   2.0000      -9.942110      -270.5386
  14   2.0000      -9.926675      -270.1186
  15   2.0000      -9.924427      -270.0574
  16   2.0000      -9.918417      -269.8938
  17   2.0000      -9.886753      -269.0322
  18   2.0000      -9.885660      -269.0025
  19   2.0000      -7.677279      -208.9094
  20   2.0000      -7.607037      -206.9980
  21   2.0000      -6.408951      -174.3964
  22   2.0000      -5.705562      -155.2562
  23   2.0000      -5.701401      -155.1430
  24   2.0000      -5.694191      -154.9468
  25   2.0000      -5.636146      -153.3673
  26   2.0000      -5.627949      -153.1443
  27   2.0000      -5.626636      -153.1086
  28   2.0000      -4.631535      -126.0305
  29   2.0000      -4.631132      -126.0195
  30   2.0000      -4.629569      -125.9770
  31   2.0000      -1.032368       -28.0922
  32   2.0000      -1.012696       -27.5569
  33   2.0000      -0.963316       -26.2132
  34   2.0000      -0.938312       -25.5328
  35   2.0000      -0.920480       -25.0475
  36   2.0000      -0.917418       -24.9642
  37   2.0000      -0.768117       -20.9015
  38   2.0000      -0.714925       -19.4541
  39   2.0000      -0.707091       -19.2409
  40   2.0000      -0.683878       -18.6093
  41   2.0000      -0.652750       -17.7622
  42   2.0000      -0.624372       -16.9900
  43   2.0000      -0.612761       -16.6741
  44   2.0000      -0.603836       -16.4312
  45   2.0000      -0.596781       -16.2392
  46   2.0000      -0.565555       -15.3895
  47   2.0000      -0.514852       -14.0098
  48   2.0000      -0.501408       -13.6440
  49   2.0000      -0.499621       -13.5954
  50   2.0000      -0.486614       -13.2414
  51   2.0000      -0.465611       -12.6699
  52   2.0000      -0.457320       -12.4443
  53   2.0000      -0.448161       -12.1951
  54   2.0000      -0.437560       -11.9066
  55   2.0000      -0.432318       -11.7640
  56   2.0000      -0.424654       -11.5554
  57   2.0000      -0.411952       -11.2098
  58   2.0000      -0.407798       -11.0967
  59   2.0000      -0.399569       -10.8728
  60   2.0000      -0.396564       -10.7911
  61   2.0000      -0.391892       -10.6639
  62   2.0000      -0.387291       -10.5387
  63   2.0000      -0.381405       -10.3785
  64   2.0000      -0.377311       -10.2671
  65   2.0000      -0.367825       -10.0090
  66   2.0000      -0.360604        -9.8125
  67   2.0000      -0.357186        -9.7195
  68   2.0000      -0.350694        -9.5429
  69   2.0000      -0.339410        -9.2358
  70   2.0000      -0.334405        -9.0996
  71   2.0000      -0.332781        -9.0554
  72   2.0000      -0.323052        -8.7907
  73   2.0000      -0.308713        -8.4005
  74   2.0000      -0.295989        -8.0543
  75   2.0000      -0.292877        -7.9696
  76   2.0000      -0.285095        -7.7578
  77   2.0000      -0.279864        -7.6155
  78   2.0000      -0.270813        -7.3692
  79   2.0000      -0.259904        -7.0723
  80   2.0000      -0.257327        -7.0022
  81   2.0000      -0.240754        -6.5512
  82   2.0000      -0.237790        -6.4706
  83   2.0000      -0.228878        -6.2281
  84   2.0000      -0.219624        -5.9763
  85   2.0000      -0.183746        -5.0000
  86   2.0000      -0.172547        -4.6952
  87   0.0000      -0.043978        -1.1967
  88   0.0000      -0.032203        -0.8763
  89   0.0000      -0.027931        -0.7600
  90   0.0000       0.004732         0.1288
  91   0.0000       0.035844         0.9754

MULLIKEN ATOMIC CHARGES
-----------------------
   0 C :   -0.306150
   1 C :   -0.022528
   2 O :   -0.216577
   3 C :    0.109257
   4 O :   -0.199824
   5 C :   -0.029080
   6 C :   -0.302279
   7 H :    0.148707
   8 C :    0.232165
   9 O :   -0.203665
  10 O :   -0.218781
  11 C :   -0.024703
  12 C :   -0.302618
  13 S :   -0.105623
  14 P :    0.633974
  15 S :   -0.346647
  16 O :   -0.373464
  17 C :   -0.084909
  18 O :   -0.382565
  19 C :   -0.097048
  20 H :    0.109846
  21 H :    0.123008
  22 H :    0.114988
  23 H :    0.134399
  24 H :    0.102609
  25 H :    0.116104
  26 H :    0.122467
  27 H :    0.108070
  28 H :    0.125503
  29 H :    0.146907
  30 H :    0.108714
  31 H :    0.111414
  32 H :    0.105136
  33 H :    0.119163
  34 H :    0.116275
  35 H :    0.117343
  36 H :    0.105562
  37 H :    0.104849
Sum of atomic charges:   -0.0000000

LOEWDIN ATOMIC CHARGES
----------------------
   0 C :   -0.357282
   1 C :   -0.113153
   2 O :   -0.042010
   3 C :    0.031770
   4 O :   -0.156049
   5 C :   -0.246213
   6 C :   -0.260278
   7 H :    0.148480
   8 C :    0.032071
   9 O :   -0.147726
  10 O :   -0.033163
  11 C :   -0.102744
  12 C :   -0.356080
  13 S :    0.098361
  14 P :    0.580693
  15 S :   -0.331882
  16 O :   -0.244533
  17 C :   -0.209738
  18 O :   -0.265893
  19 C :   -0.222955
  20 H :    0.122530
  21 H :    0.127992
  22 H :    0.131948
  23 H :    0.121508
  24 H :    0.119077
  25 H :    0.136408
  26 H :    0.146934
  27 H :    0.118896
  28 H :    0.125982
  29 H :    0.137714
  30 H :    0.123209
  31 H :    0.130122
  32 H :    0.108427
  33 H :    0.109480
  34 H :    0.115713
  35 H :    0.118334
  36 H :    0.102341
  37 H :    0.101708

  Mayer bond orders larger than 0.100000
B(  0-C ,  1-C ) :   1.1651 B(  0-C , 20-H ) :   0.9476 B(  0-C , 21-H ) :   0.9463
B(  0-C , 22-H ) :   0.9448 B(  1-C ,  2-O ) :   0.9063 B(  1-C , 23-H ) :   0.9064
B(  1-C , 24-H ) :   0.9388 B(  2-O ,  3-C ) :   1.2692 B(  3-C ,  4-O ) :   1.9360
B(  3-C ,  5-C ) :   1.0001 B(  4-O ,  8-C ) :   0.1010 B(  5-C ,  6-C ) :   1.0233
B(  5-C , 25-H ) :   0.9038 B(  5-C , 26-H ) :   0.8768 B(  6-C ,  7-H ) :   0.8777
B(  6-C ,  8-C ) :   0.9054 B(  6-C , 13-S ) :   1.0313 B(  8-C ,  9-O ) :   1.8861
B(  8-C , 10-O ) :   1.2789 B(  9-O , 14-P ) :   0.1560 B( 10-O , 11-C ) :   0.8887
B( 11-C , 12-C ) :   1.1776 B( 11-C , 27-H ) :   0.9366 B( 11-C , 28-H ) :   0.9092
B( 12-C , 29-H ) :   0.9329 B( 12-C , 30-H ) :   0.9499 B( 12-C , 31-H ) :   0.9421
B( 13-S , 14-P ) :   0.9366 B( 13-S , 15-S ) :   0.1150 B( 14-P , 15-S ) :   1.5700
B( 14-P , 16-O ) :   1.1200 B( 14-P , 18-O ) :   1.0513 B( 16-O , 17-C ) :   0.9326
B( 17-C , 32-H ) :   0.9568 B( 17-C , 33-H ) :   0.9311 B( 17-C , 34-H ) :   0.9549
B( 18-O , 19-C ) :   0.9512 B( 19-C , 35-H ) :   0.9598 B( 19-C , 36-H ) :   0.9287
B( 19-C , 37-H ) :   0.9457

Dispersion correction           -0.053972438
FINAL SINGLE POINT ENERGY     -1979.008832441110

DIPOLE MOMENT
-------------

Method             : SCF
Type of density    : Electron Density
Multiplicity       :   1
Irrep              :   0
Energy             : -1979.1388567921371759 Eh
Relativity type    :
Basis              : AO
                                X                 Y                 Z
Electronic contribution:    -16.150606557      -0.474725016      -6.054376549
Nuclear contribution   :     17.433594208       1.135202083       5.401868333
                        -----------------------------------------
Total Dipole Moment    :      1.282987651       0.660477067      -0.652508215
                        -----------------------------------------
Magnitude (a.u.)       :      1.583683756
Magnitude (Debye)      :      4.025404204

Rotational constants in cm-1:             0.011507             0.009166             0.006817
Rotational constants in MHz :           344.973174           274.784728           204.380005

                             ****ORCA TERMINATED NORMALLY****
TOTAL RUN TIME: 0 days 0 hours 0 minutes 34 seconds 4 msec
