                         Program Version 6.0.0  -   RELEASE  -
|  1> ! r2scan-3c def2/J RI DEFGRID2 scfconv6 printgap
|  2> %output
|  3>     printlevel normal
|  4> end
|  5> * xyz 0 1
|  6> C 2.1075504579 -2.1268858557 2.6822112097
|  7> C 1.2121820669 -1.7053278184 1.5338969013
|  8> O 1.4166718899 -0.3115833706 1.2473039913
|  9> P 2.1674581666 0.2583736581 -0.0386508868
| 10> S 3.1554282386 -1.0911877873 -1.0653037363
| 11> O 2.9378634698 1.511360296 0.5484456238
| 12> C 3.8856149084 1.4227921411 1.6353595958
| 13> C 5.2448057778 0.9474699826 1.1611227023
| 14> S 0.7668141424 1.4241255936 -1.1119079259
| 15> C 0.2204335486 0.1229172537 -2.2513486087
| 16> S -0.5189935784 -1.287314326 -1.3829233558
| 17> P -2.1135584784 -0.2303345838 -0.4815893093
| 18> S -2.9065926363 1.224765752 -1.5326627828
| 19> O -1.6269720754 0.1986134396 0.9750808686
| 20> C -1.5095606709 1.5541752216 1.4391682458
| 21> C -2.6358376866 1.8639367572 2.4053598074
| 22> O -2.9638963488 -1.5330834339 -0.1843604213
| 23> C -4.1039134398 -1.5518366857 0.702977164
| 24> C -5.3541283419 -1.0261673647 0.0255806898
| 25> H 1.9260930157 -1.502193607 3.5526011311
| 26> H 1.8977563852 -3.1614537407 2.933361419
| 27> H 3.1519434708 -2.039788822 2.3892205614
| 28> H 0.1540428293 -1.8041325914 1.7853283274
| 29> H 1.4281542822 -2.2934492739 0.6361049178
| 30> H 3.9348268715 2.4435561717 2.0188266297
| 31> H 3.4813961903 0.7593270477 2.4043998852
| 32> H 5.6158284532 1.5998949326 0.3752438026
| 33> H 5.9397862764 0.9583115034 1.9949068619
| 34> H 5.1788225903 -0.0640093785 0.7649697183
| 35> H 1.072817191 -0.2657392763 -2.807620717
| 36> H -0.5146550728 0.5778165236 -2.9145108984
| 37> H -0.5312242153 1.6170901748 1.9201480908
| 38> H -1.5364231628 2.233042911 0.5808006546
| 39> H -2.4989558759 2.8655217705 2.7997296535
| 40> H -3.5916876335 1.8165247898 1.8872486469
| 41> H -2.637122762 1.1519542544 3.2262583048
| 42> H -4.2094168415 -2.6060624814 0.9655886731
| 43> H -3.8657140386 -0.9711982552 1.5980392471
| 44> H -5.2311462114 0.0209681314 -0.2441852759
| 45> H -5.5545234047 -1.5922115153 -0.8801599497
| 46> H -6.1967512509 -1.1224193811 0.7030675734
| 47> *
| 48>
| 49>                          ****END OF INPUT****

CARTESIAN COORDINATES (ANGSTROEM)
---------------------------------
  C      2.107550   -2.126886    2.682211
  C      1.212182   -1.705328    1.533897
  O      1.416672   -0.311583    1.247304
  P      2.167458    0.258374   -0.038651
  S      3.155428   -1.091188   -1.065304
  O      2.937863    1.511360    0.548446
  C      3.885615    1.422792    1.635360
  C      5.244806    0.947470    1.161123
  S      0.766814    1.424126   -1.111908
  C      0.220434    0.122917   -2.251349
  S     -0.518994   -1.287314   -1.382923
  P     -2.113558   -0.230335   -0.481589
  S     -2.906593    1.224766   -1.532663
  O     -1.626972    0.198613    0.975081
  C     -1.509561    1.554175    1.439168
  C     -2.635838    1.863937    2.405360
  O     -2.963896   -1.533083   -0.184360
  C     -4.103913   -1.551837    0.702977
  C     -5.354128   -1.026167    0.025581
  H      1.926093   -1.502194    3.552601
  H      1.897756   -3.161454    2.933361
  H      3.151943   -2.039789    2.389221
  H      0.154043   -1.804133    1.785328
  H      1.428154   -2.293449    0.636105
  H      3.934827    2.443556    2.018827
  H      3.481396    0.759327    2.404400
  H      5.615828    1.599895    0.375244
  H      5.939786    0.958312    1.994907
  H      5.178823   -0.064009    0.764970
  H      1.072817   -0.265739   -2.807621
  H     -0.514655    0.577817   -2.914511
  H     -0.531224    1.617090    1.920148
  H     -1.536423    2.233043    0.580801
  H     -2.498956    2.865522    2.799730
  H     -3.591688    1.816525    1.887249
  H     -2.637123    1.151954    3.226258
  H     -4.209417   -2.606062    0.965589
  H     -3.865714   -0.971198    1.598039
  H     -5.231146    0.020968   -0.244185
  H     -5.554523   -1.592212   -0.880160
  H     -6.196751   -1.122419    0.703068

 Total Charge           Charge          ....    0
 Multiplicity           Mult            ....    1
 Number of Electrons    NEL             ....  202
 Basis Dimension        Dim             ....  539

ORBITAL ENERGIES
----------------

  NO   OCC          E(Eh)            E(eV)
   0   2.0000     -88.573281     -2410.2015
   1   2.0000     -88.573263     -2410.2010
   2   2.0000     -88.521611     -2408.7955
   3   2.0000     -88.521532     -2408.7933
   4   2.0000     -76.915340     -2092.9728
   5   2.0000     -76.915324     -2092.9724
   6   2.0000     -18.993740      -516.8459
   7   2.0000     -18.993678      -516.8442
   8   2.0000     -18.991736      -516.7914
   9   2.0000     -18.991701      -516.7905
  10   2.0000     -10.105206      -274.9766
  11   2.0000     -10.105098      -274.9737
  12   2.0000     -10.102859      -274.9128
  13   2.0000     -10.093906      -274.6691
  14   2.0000     -10.093757      -274.6651
  15   2.0000     -10.032405      -272.9956
  16   2.0000     -10.032356      -272.9943
  17   2.0000     -10.029298      -272.9111
  18   2.0000     -10.029207      -272.9086
  19   2.0000      -7.867537      -214.0866
  20   2.0000      -7.867519      -214.0861
  21   2.0000      -7.816419      -212.6956
  22   2.0000      -7.816341      -212.6934
  23   2.0000      -6.593483      -179.4178
  24   2.0000      -6.593461      -179.4172
  25   2.0000      -5.814494      -158.2204
  26   2.0000      -5.814479      -158.2200
  27   2.0000      -5.811416      -158.1367
  28   2.0000      -5.811393      -158.1360
  29   2.0000      -5.804561      -157.9501
  30   2.0000      -5.804548      -157.9498
  31   2.0000      -5.764069      -156.8483
  32   2.0000      -5.763997      -156.8463
  33   2.0000      -5.756885      -156.6528
  34   2.0000      -5.756792      -156.6503
  35   2.0000      -5.756233      -156.6351
  36   2.0000      -5.756163      -156.6331
  37   2.0000      -4.739207      -128.9604
  38   2.0000      -4.739193      -128.9600
  39   2.0000      -4.738185      -128.9326
  40   2.0000      -4.738164      -128.9320
  41   2.0000      -4.737268      -128.9076
  42   2.0000      -4.737240      -128.9068
  43   2.0000      -1.051304       -28.6074
  44   2.0000      -1.050234       -28.5783
  45   2.0000      -1.010833       -27.5062
  46   2.0000      -1.009490       -27.4696
  47   2.0000      -0.802018       -21.8240
  48   2.0000      -0.762750       -20.7555
  49   2.0000      -0.750239       -20.4151
  50   2.0000      -0.733743       -19.9662
  51   2.0000      -0.733500       -19.9596
  52   2.0000      -0.707720       -19.2580
  53   2.0000      -0.687469       -18.7070
  54   2.0000      -0.669620       -18.2213
  55   2.0000      -0.630541       -17.1579
  56   2.0000      -0.621790       -16.9198
  57   2.0000      -0.610794       -16.6205
  58   2.0000      -0.610620       -16.6158
  59   2.0000      -0.590297       -16.0628
  60   2.0000      -0.530878       -14.4459
  61   2.0000      -0.521312       -14.1856
  62   2.0000      -0.498384       -13.5617
  63   2.0000      -0.496159       -13.5012
  64   2.0000      -0.478264       -13.0142
  65   2.0000      -0.466795       -12.7021
  66   2.0000      -0.457139       -12.4394
  67   2.0000      -0.448915       -12.2156
  68   2.0000      -0.447698       -12.1825
  69   2.0000      -0.431819       -11.7504
  70   2.0000      -0.427446       -11.6314
  71   2.0000      -0.410620       -11.1735
  72   2.0000      -0.406815       -11.0700
  73   2.0000      -0.399164       -10.8618
  74   2.0000      -0.394660       -10.7393
  75   2.0000      -0.390015       -10.6128
  76   2.0000      -0.389300       -10.5934
  77   2.0000      -0.372763       -10.1434
  78   2.0000      -0.369779       -10.0622
  79   2.0000      -0.368130       -10.0173
  80   2.0000      -0.367379        -9.9969
  81   2.0000      -0.365495        -9.9456
  82   2.0000      -0.356557        -9.7024
  83   2.0000      -0.354682        -9.6514
  84   2.0000      -0.349574        -9.5124
  85   2.0000      -0.339012        -9.2250
  86   2.0000      -0.323115        -8.7924
  87   2.0000      -0.311038        -8.4638
  88   2.0000      -0.309783        -8.4296
  89   2.0000      -0.307158        -8.3582
  90   2.0000      -0.304311        -8.2807
  91   2.0000      -0.295922        -8.0524
  92   2.0000      -0.293827        -7.9955
  93   2.0000      -0.283481        -7.7139
  94   2.0000      -0.273960        -7.4548
  95   2.0000      -0.245817        -6.6890
  96   2.0000      -0.229006        -6.2316
  97   2.0000      -0.227776        -6.1981
  98   2.0000      -0.219887        -5.9834
  99   2.0000      -0.212557        -5.7840
 100   2.0000      -0.209378        -5.6975
 101   0.0000      -0.047976        -1.3055
 102   0.0000      -0.028491        -0.7753
 103   0.0000       0.003132         0.0852
 104   0.0000       0.004043         0.1100
 105   0.0000       0.011070         0.3012

MULLIKEN ATOMIC CHARGES
-----------------------
   0 C :   -0.505624
   1 C :   -0.107973
   2 O :   -0.273660
   3 P :    0.705020
   4 S :   -0.472262
   5 O :   -0.308402
   6 C :   -0.170190
   7 C :   -0.425522
   8 S :   -0.131003
   9 C :   -0.229768
  10 S :   -0.129866
  11 P :    0.703735
  12 S :   -0.472250
  13 O :   -0.273478
  14 C :   -0.108191
  15 C :   -0.505542
  16 O :   -0.308061
  17 C :   -0.169627
  18 C :   -0.425701
  19 H :    0.154356
  20 H :    0.149227
  21 H :    0.163670
  22 H :    0.164347
  23 H :    0.181634
  24 H :    0.150385
  25 H :    0.158539
  26 H :    0.157347
  27 H :    0.145004
  28 H :    0.171077
  29 H :    0.208342
  30 H :    0.208323
  31 H :    0.164151
  32 H :    0.181545
  33 H :    0.149236
  34 H :    0.164689
  35 H :    0.154222
  36 H :    0.150394
  37 H :    0.158404
  38 H :    0.171007
  39 H :    0.157423
  40 H :    0.145045
Sum of atomic charges:   -0.0000000

LOEWDIN ATOMIC CHARGES
----------------------
   0 C :   -0.397525
   1 C :    0.002370
   2 O :   -0.676293
   3 P :    0.387003
   4 S :   -0.125346
   5 O :   -0.669061
   6 C :    0.029995
   7 C :   -0.401496
   8 S :    0.183218
   9 C :   -0.417551
  10 S :    0.183625
  11 P :    0.386950
  12 S :   -0.125143
  13 O :   -0.676836
  14 C :    0.002373
  15 C :   -0.398065
  16 O :   -0.669277
  17 C :    0.029976
  18 C :   -0.401459
  19 H :    0.156502
  20 H :    0.161032
  21 H :    0.160050
  22 H :    0.180480
  23 H :    0.185481
  24 H :    0.180820
  25 H :    0.174655
  26 H :    0.162813
  27 H :    0.157541
  28 H :    0.167158
  29 H :    0.189659
  30 H :    0.189674
  31 H :    0.180502
  32 H :    0.185459
  33 H :    0.161064
  34 H :    0.160321
  35 H :    0.156358
  36 H :    0.180832
  37 H :    0.174622
  38 H :    0.167076
  39 H :    0.162884
  40 H :    0.157558

  Mayer bond orders larger than 0.100000
B(  0-C ,  1-C ) :   0.9243 B(  0-C , 19-H ) :   0.9803 B(  0-C , 20-H ) :   0.9634
B(  0-C , 21-H ) :   0.9740 B(  1-C ,  2-O ) :   0.7325 B(  1-C , 22-H ) :   0.9579
B(  1-C , 23-H ) :   0.9477 B(  2-O ,  3-P ) :   1.0447 B(  3-P ,  4-S ) :   1.7646
B(  3-P ,  5-O ) :   1.1564 B(  3-P ,  8-S ) :   1.0697 B(  5-O ,  6-C ) :   0.7924
B(  6-C ,  7-C ) :   0.9486 B(  6-C , 24-H ) :   0.9606 B(  6-C , 25-H ) :   0.9677
B(  7-C , 26-H ) :   0.9696 B(  7-C , 27-H ) :   0.9659 B(  7-C , 28-H ) :   0.9532
B(  8-S ,  9-C ) :   0.8885 B(  9-C , 10-S ) :   0.8884 B(  9-C , 29-H ) :   0.9098
B(  9-C , 30-H ) :   0.9097 B( 10-S , 11-P ) :   1.0702 B( 11-P , 12-S ) :   1.7650
B( 11-P , 13-O ) :   1.0441 B( 11-P , 16-O ) :   1.1556 B( 13-O , 14-C ) :   0.7339
B( 14-C , 15-C ) :   0.9231 B( 14-C , 31-H ) :   0.9585 B( 14-C , 32-H ) :   0.9482
B( 15-C , 33-H ) :   0.9632 B( 15-C , 34-H ) :   0.9736 B( 15-C , 35-H ) :   0.9803
B( 16-O , 17-C ) :   0.7926 B( 17-C , 18-C ) :   0.9485 B( 17-C , 36-H ) :   0.9606
B( 17-C , 37-H ) :   0.9676 B( 18-C , 38-H ) :   0.9534 B( 18-C , 39-H ) :   0.9696
B( 18-C , 40-H ) :   0.9659

Dispersion correction           -0.022123384
FINAL SINGLE POINT ENERGY     -2932.463958528943

DIPOLE MOMENT
-------------

Method             : SCF
Type of density    : Electron Density
Multiplicity       :   1
Irrep              :   0
Energy             : -2932.4884393563265803 Eh
Relativity type    :
Basis              : AO
                                X                 Y                 Z
Electronic contribution:      2.281269025       1.217160638     -22.625464063
Nuclear contribution   :     -2.492292354      -1.328285570      24.751605844
                        -----------------------------------------
Total Dipole Moment    :     -0.211023329      -0.111124932       2.126141782
                        -----------------------------------------
Magnitude (a.u.)       :      2.139476214
Magnitude (Debye)      :      5.438116362

Rotational constants in cm-1:             0.013549             0.004947             0.004835
Rotational constants in MHz :           406.187758           148.296531           144.961073

                             ****ORCA TERMINATED NORMALLY****
TOTAL RUN TIME: 0 days 0 hours 1 minutes 21 seconds 962 msec
