                         Program Version 6.0.0  -   RELEASE  -
|  1> ! r2scan-3c def2/J RI DEFGRID2 scfconv6 printgap
|  2> %output
|  3>     printlevel normal
|  4> end
|  5> %cpcm
|  6>     smd true
|  7>     smdsolvent "water"
|  8> end
|  9> * xyz 0 1
| 10> C 2.1075504579 -2.1268858557 2.6822112097
| 11> C 1.2121820669 -1.7053278184 1.5338969013
| 12> O 1.4166718899 -0.3115833706 1.2473039913
| 13> P 2.1674581666 0.2583736581 -0.0386508868
| 14> S 3.1554282386 -1.0911877873 -1.0653037363
| 15> O 2.9378634698 1.511360296 0.5484456238
| 16> C 3.8856149084 1.4227921411 1.6353595958
| 17> C 5.2448057778 0.9474699826 1.1611227023
| 18> S 0.7668141424 1.4241255936 -1.1119079259
| 19> C 0.2204335486 0.1229172537 -2.2513486087
| 20> S -0.5189935784 -1.287314326 -1.3829233558
| 21> P -2.1135584784 -0.2303345838 -0.4815893093
| 22> S -2.9065926363 1.224765752 -1.5326627828
| 23> O -1.6269720754 0.1986134396 0.9750808686
| 24> C -1.5095606709 1.5541752216 1.4391682458
| 25> C -2.6358376866 1.8639367572 2.4053598074
| 26> O -2.9638963488 -1.5330834339 -0.1843604213
| 27> C -4.1039134398 -1.5518366857 0.702977164
| 28> C -5.3541283419 -1.0261673647 0.0255806898
| 29> H 1.9260930157 -1.502193607 3.5526011311
| 30> H 1.8977563852 -3.1614537407 2.933361419
| 31> H 3.1519434708 -2.039788822 2.3892205614
| 32> H 0.1540428293 -1.8041325914 1.7853283274
| 33> H 1.4281542822 -2.2934492739 0.6361049178
| 34> H 3.9348268715 2.4435561717 2.0188266297
| 35> H 3.4813961903 0.7593270477 2.4043998852
| 36> H 5.6158284532 1.5998949326 0.3752438026
| 37> H 5.9397862764 0.9583115034 1.9949068619
| 38> H 5.1788225903 -0.0640093785 0.7649697183
| 39> H 1.072817191 -0.2657392763 -2.807620717
| 40> H -0.5146550728 0.5778165236 -2.9145108984
| 41> H -0.5312242153 1.6170901748 1.9201480908
| 42> H -1.5364231628 2.233042911 0.5808006546
| 43> H -2.4989558759 2.8655217705 2.7997296535
| 44> H -3.5916876335 1.8165247898 1.8872486469
| 45> H -2.637122762 1.1519542544 3.2262583048
| 46> H -4.2094168415 -2.6060624814 0.9655886731
| 47> H -3.8657140386 -0.9711982552 1.5980392471
| 48> H -5.2311462114 0.0209681314 -0.2441852759
| 49> H -5.5545234047 -1.5922115153 -0.8801599497
| 50> H -6.1967512509 -1.1224193811 0.7030675734
| 51> *
| 52>
| 53>                          ****END OF INPUT****

CARTESIAN COORDINATES (ANGSTROEM)
---------------------------------
  C      2.107550   -2.126886    2.682211
  C      1.212182   -1.705328    1.533897
  O      1.416672   -0.311583    1.247304
  P      2.167458    0.258374   -0.038651
  S      3.155428   -1.091188   -1.065304
  O      2.937863    1.511360    0.548446
  C      3.885615    1.422792    1.635360
  C      5.244806    0.947470    1.161123
  S      0.766814    1.424126   -1.111908
  C      0.220434    0.122917   -2.251349
  S     -0.518994   -1.287314   -1.382923
  P     -2.113558   -0.230335   -0.481589
  S     -2.906593    1.224766   -1.532663
  O     -1.626972    0.198613    0.975081
  C     -1.509561    1.554175    1.439168
  C     -2.635838    1.863937    2.405360
  O     -2.963896   -1.533083   -0.184360
  C     -4.103913   -1.551837    0.702977
  C     -5.354128   -1.026167    0.025581
  H      1.926093   -1.502194    3.552601
  H      1.897756   -3.161454    2.933361
  H      3.151943   -2.039789    2.389221
  H      0.154043   -1.804133    1.785328
  H      1.428154   -2.293449    0.636105
  H      3.934827    2.443556    2.018827
  H      3.481396    0.759327    2.404400
  H      5.615828    1.599895    0.375244
  H      5.939786    0.958312    1.994907
  H      5.178823   -0.064009    0.764970
  H      1.072817   -0.265739   -2.807621
  H     -0.514655    0.577817   -2.914511
  H     -0.531224    1.617090    1.920148
  H     -1.536423    2.233043    0.580801
  H     -2.498956    2.865522    2.799730
  H     -3.591688    1.816525    1.887249
  H     -2.637123    1.151954    3.226258
  H     -4.209417   -2.606062    0.965589
  H     -3.865714   -0.971198    1.598039
  H     -5.231146    0.020968   -0.244185
  H     -5.554523   -1.592212   -0.880160
  H     -6.196751   -1.122419    0.703068

 Total Charge           Charge          ....    0
 Multiplicity           Mult            ....    1
 Number of Electrons    NEL             ....  202
 Basis Dimension        Dim             ....  539

ORBITAL ENERGIES
----------------

  NO   OCC          E(Eh)            E(eV)
   0   2.0000     -88.578962     -2410.3561
   1   2.0000     -88.578951     -2410.3558
   2   2.0000     -88.528792     -2408.9909
   3   2.0000     -88.528773     -2408.9904
   4   2.0000     -76.920124     -2093.1030
   5   2.0000     -76.920101     -2093.1024
   6   2.0000     -18.994917      -516.8780
   7   2.0000     -18.994888      -516.8772
   8   2.0000     -18.992981      -516.8253
   9   2.0000     -18.992953      -516.8245
  10   2.0000     -10.104152      -274.9480
  11   2.0000     -10.091376      -274.6003
  12   2.0000     -10.091292      -274.5980
  13   2.0000     -10.086217      -274.4599
  14   2.0000     -10.086209      -274.4597
  15   2.0000     -10.017411      -272.5876
  16   2.0000     -10.017347      -272.5859
  17   2.0000     -10.017285      -272.5842
  18   2.0000     -10.017267      -272.5837
  19   2.0000      -7.873291      -214.2431
  20   2.0000      -7.873280      -214.2428
  21   2.0000      -7.823894      -212.8990
  22   2.0000      -7.823876      -212.8985
  23   2.0000      -6.598267      -179.5480
  24   2.0000      -6.598249      -179.5475
  25   2.0000      -5.820182      -158.3752
  26   2.0000      -5.820174      -158.3750
  27   2.0000      -5.817135      -158.2923
  28   2.0000      -5.817119      -158.2918
  29   2.0000      -5.810419      -158.1095
  30   2.0000      -5.810411      -158.1093
  31   2.0000      -5.771479      -157.0499
  32   2.0000      -5.771467      -157.0496
  33   2.0000      -5.764268      -156.8537
  34   2.0000      -5.764236      -156.8528
  35   2.0000      -5.763810      -156.8412
  36   2.0000      -5.763800      -156.8410
  37   2.0000      -4.743936      -129.0891
  38   2.0000      -4.743911      -129.0884
  39   2.0000      -4.742971      -129.0628
  40   2.0000      -4.742954      -129.0623
  41   2.0000      -4.742146      -129.0403
  42   2.0000      -4.742134      -129.0400
  43   2.0000      -1.052020       -28.6269
  44   2.0000      -1.050910       -28.5967
  45   2.0000      -1.011072       -27.5127
  46   2.0000      -1.009701       -27.4754
  47   2.0000      -0.805591       -21.9212
  48   2.0000      -0.758854       -20.6495
  49   2.0000      -0.742959       -20.2169
  50   2.0000      -0.723146       -19.6778
  51   2.0000      -0.722840       -19.6695
  52   2.0000      -0.706112       -19.2143
  53   2.0000      -0.690084       -18.7781
  54   2.0000      -0.676208       -18.4006
  55   2.0000      -0.628862       -17.1122
  56   2.0000      -0.616530       -16.7766
  57   2.0000      -0.602678       -16.3997
  58   2.0000      -0.602078       -16.3834
  59   2.0000      -0.588107       -16.0032
  60   2.0000      -0.525997       -14.3131
  61   2.0000      -0.516387       -14.0516
  62   2.0000      -0.492777       -13.4091
  63   2.0000      -0.490345       -13.3430
  64   2.0000      -0.476521       -12.9668
  65   2.0000      -0.461170       -12.5491
  66   2.0000      -0.450775       -12.2662
  67   2.0000      -0.446244       -12.1429
  68   2.0000      -0.440952       -11.9989
  69   2.0000      -0.430752       -11.7213
  70   2.0000      -0.423535       -11.5250
  71   2.0000      -0.403263       -10.9733
  72   2.0000      -0.399213       -10.8631
  73   2.0000      -0.396337       -10.7849
  74   2.0000      -0.390424       -10.6240
  75   2.0000      -0.388758       -10.5786
  76   2.0000      -0.387839       -10.5536
  77   2.0000      -0.368483       -10.0269
  78   2.0000      -0.360398        -9.8069
  79   2.0000      -0.359073        -9.7709
  80   2.0000      -0.357002        -9.7145
  81   2.0000      -0.355529        -9.6744
  82   2.0000      -0.347302        -9.4506
  83   2.0000      -0.345833        -9.4106
  84   2.0000      -0.344443        -9.3728
  85   2.0000      -0.334665        -9.1067
  86   2.0000      -0.320097        -8.7103
  87   2.0000      -0.305285        -8.3072
  88   2.0000      -0.304736        -8.2923
  89   2.0000      -0.302677        -8.2362
  90   2.0000      -0.298849        -8.1321
  91   2.0000      -0.292842        -7.9686
  92   2.0000      -0.291364        -7.9284
  93   2.0000      -0.284368        -7.7380
  94   2.0000      -0.275270        -7.4905
  95   2.0000      -0.250239        -6.8094
  96   2.0000      -0.235508        -6.4085
  97   2.0000      -0.235105        -6.3975
  98   2.0000      -0.227763        -6.1977
  99   2.0000      -0.221169        -6.0183
 100   2.0000      -0.216173        -5.8824
 101   0.0000      -0.054263        -1.4766
 102   0.0000      -0.035363        -0.9623
 103   0.0000      -0.002044        -0.0556
 104   0.0000       0.000209         0.0057
 105   0.0000       0.010245         0.2788

MULLIKEN ATOMIC CHARGES
-----------------------
   0 C :   -0.530615
   1 C :   -0.095583
   2 O :   -0.294337
   3 P :    0.731101
   4 S :   -0.515953
   5 O :   -0.341976
   6 C :   -0.150238
   7 C :   -0.477370
   8 S :   -0.152383
   9 C :   -0.242672
  10 S :   -0.151437
  11 P :    0.729891
  12 S :   -0.515744
  13 O :   -0.294184
  14 C :   -0.096295
  15 C :   -0.529896
  16 O :   -0.341698
  17 C :   -0.150139
  18 C :   -0.477245
  19 H :    0.169082
  20 H :    0.169368
  21 H :    0.168461
  22 H :    0.178187
  23 H :    0.175705
  24 H :    0.174922
  25 H :    0.177301
  26 H :    0.167846
  27 H :    0.170592
  28 H :    0.166397
  29 H :    0.230118
  30 H :    0.230304
  31 H :    0.178585
  32 H :    0.175540
  33 H :    0.169515
  34 H :    0.168613
  35 H :    0.169031
  36 H :    0.175003
  37 H :    0.177188
  38 H :    0.166644
  39 H :    0.167755
  40 H :    0.170616
Sum of atomic charges:    0.0000000

LOEWDIN ATOMIC CHARGES
----------------------
   0 C :   -0.398196
   1 C :    0.007247
   2 O :   -0.681654
   3 P :    0.389502
   4 S :   -0.154948
   5 O :   -0.684227
   6 C :    0.037823
   7 C :   -0.406071
   8 S :    0.170610
   9 C :   -0.412640
  10 S :    0.170938
  11 P :    0.389384
  12 S :   -0.154594
  13 O :   -0.682172
  14 C :    0.007256
  15 C :   -0.398670
  16 O :   -0.684483
  17 C :    0.037742
  18 C :   -0.406047
  19 H :    0.162927
  20 H :    0.167916
  21 H :    0.161781
  22 H :    0.185702
  23 H :    0.183604
  24 H :    0.191274
  25 H :    0.183788
  26 H :    0.162937
  27 H :    0.167862
  28 H :    0.162503
  29 H :    0.196127
  30 H :    0.196219
  31 H :    0.185965
  32 H :    0.183554
  33 H :    0.167961
  34 H :    0.161753
  35 H :    0.162880
  36 H :    0.191303
  37 H :    0.183757
  38 H :    0.162538
  39 H :    0.162966
  40 H :    0.167885

  Mayer bond orders larger than 0.100000
B(  0-C ,  1-C ) :   0.9334 B(  0-C , 19-H ) :   0.9741 B(  0-C , 20-H ) :   0.9592
B(  0-C , 21-H ) :   0.9702 B(  1-C ,  2-O ) :   0.7216 B(  1-C , 22-H ) :   0.9488
B(  1-C , 23-H ) :   0.9460 B(  2-O ,  3-P ) :   1.0526 B(  3-P ,  4-S ) :   1.7354
B(  3-P ,  5-O ) :   1.1653 B(  3-P ,  8-S ) :   1.0770 B(  5-O ,  6-C ) :   0.7852
B(  6-C ,  7-C ) :   0.9299 B(  6-C , 24-H ) :   0.9525 B(  6-C , 25-H ) :   0.9582
B(  7-C , 26-H ) :   0.9712 B(  7-C , 27-H ) :   0.9593 B(  7-C , 28-H ) :   0.9585
B(  8-S ,  9-C ) :   0.8809 B(  9-C , 10-S ) :   0.8807 B(  9-C , 29-H ) :   0.9039
B(  9-C , 30-H ) :   0.9037 B( 10-S , 11-P ) :   1.0774 B( 11-P , 12-S ) :   1.7360
B( 11-P , 13-O ) :   1.0522 B( 11-P , 16-O ) :   1.1646 B( 13-O , 14-C ) :   0.7227
B( 14-C , 15-C ) :   0.9325 B( 14-C , 31-H ) :   0.9493 B( 14-C , 32-H ) :   0.9465
B( 15-C , 33-H ) :   0.9591 B( 15-C , 34-H ) :   0.9701 B( 15-C , 35-H ) :   0.9739
B( 16-O , 17-C ) :   0.7855 B( 17-C , 18-C ) :   0.9298 B( 17-C , 36-H ) :   0.9525
B( 17-C , 37-H ) :   0.9581 B( 18-C , 38-H ) :   0.9585 B( 18-C , 39-H ) :   0.9712
B( 18-C , 40-H ) :   0.9592

Dispersion correction           -0.022123384
FINAL SINGLE POINT ENERGY     -2932.472714055049

DIPOLE MOMENT
-------------

Method             : SCF
Type of density    : Electron Density
Multiplicity       :   1
Irrep              :   0
Energy             : -2932.4971948824331776 Eh
Relativity type    :
Basis              : AO
                                X                 Y                 Z
Electronic contribution:      2.194761591       1.171550028     -21.736466905
Nuclear contribution   :     -2.492292354      -1.328285570      24.751605844
                        -----------------------------------------
Total Dipole Moment    :     -0.297530763      -0.156735542       3.015138939
                        -----------------------------------------
Magnitude (a.u.)       :      3.033834770
Magnitude (Debye)      :      7.711395150

Rotational constants in cm-1:             0.013549             0.004947             0.004835
Rotational constants in MHz :           406.187758           148.296531           144.961073

                             ****ORCA TERMINATED NORMALLY****
TOTAL RUN TIME: 0 days 0 hours 1 minutes 51 seconds 892 msec
