                         Program Version 6.0.0  -   RELEASE  -
|  1> ! pbe def2-sv(p) def2/J RI DEFGRID1 loosescf d4 GCP(DFT/SV(P)) printgap
|  2> %output
|  3>     printlevel normal
|  4> end
|  5> * xyz 0 1
|  6> C 2.401076014 -2.8366692209 1.7344316097
|  7> C 1.5489767173 -1.975162841 0.8232986842
|  8> O 2.0010797363 -0.614901066 0.9214942938
|  9> P 2.3752750096 0.3163114317 -0.3161847114
| 10> S 2.9814892732 -0.6285212147 -1.9142761591
| 11> O 3.4824567159 1.2711124535 0.261983788
| 12> C 3.2948679901 2.2702217203 1.294086219
| 13> C 3.3847347393 1.6662794719 2.679629505
| 14> S 0.7015324439 1.6336378002 -0.5721371732
| 15> C -0.0434443065 0.7878233721 -1.9793246866
| 16> S -0.6987421918 -0.8518748549 -1.5560538891
| 17> P -2.1682012848 -0.1825148128 -0.1973672677
| 18> S -3.0842239791 1.4994032807 -0.6294224393
| 19> O -1.3786578877 -0.2364189633 1.1699912214
| 20> C -1.797140586 0.4923384728 2.349915044
| 21> C -0.5668469534 1.0617440414 3.0253287595
| 22> O -3.1306113429 -1.4374011183 -0.0427924193
| 23> C -4.1865708617 -1.7228307004 -0.9823239714
| 24> C -5.260052068 -2.5087564861 -0.2564262352
| 25> H 2.3454474211 -2.4737957747 2.7566908067
| 26> H 2.0400324578 -3.8592167974 1.6952254277
| 27> H 3.4370899647 -2.8109090115 1.4060473901
| 28> H 0.4980229103 -1.9872918449 1.1239153143
| 29> H 1.6297746444 -2.3072636745 -0.2173591196
| 30> H 4.1024070904 2.9819719794 1.1140427179
| 31> H 2.330979801 2.7610997612 1.132964244
| 32> H 2.5813581916 0.9516114455 2.8323395344
| 33> H 4.3368110199 1.1573985357 2.8024560486
| 34> H 3.3034663868 2.4588838788 3.416789961
| 35> H 0.7054849705 0.6271707443 -2.7543360014
| 36> H -0.85523594 1.4251022185 -2.3285796108
| 37> H -2.487854855 1.2861770483 2.0467607214
| 38> H -2.3192749343 -0.2177314086 2.9944345871
| 39> H -0.8633710798 1.5665761672 3.9388558983
| 40> H 0.1278652577 0.2613914374 3.2647217652
| 41> H -0.0754468632 1.7730162806 2.3658941963
| 42> H -4.5771739819 -0.7751777219 -1.3684363647
| 43> H -3.7572767284 -2.2979448151 -1.806506624
| 44> H -4.8368606738 -3.4202771642 0.1554071154
| 45> H -5.6756518727 -1.9150413653 0.5529454951
| 46> H -6.0495905822 -2.7621897562 -0.9561808045
| 47> *
| 48>
| 49>                          ****END OF INPUT****

CARTESIAN COORDINATES (ANGSTROEM)
---------------------------------
  C      2.401076   -2.836669    1.734432
  C      1.548977   -1.975163    0.823299
  O      2.001080   -0.614901    0.921494
  P      2.375275    0.316311   -0.316185
  S      2.981489   -0.628521   -1.914276
  O      3.482457    1.271112    0.261984
  C      3.294868    2.270222    1.294086
  C      3.384735    1.666279    2.679630
  S      0.701532    1.633638   -0.572137
  C     -0.043444    0.787823   -1.979325
  S     -0.698742   -0.851875   -1.556054
  P     -2.168201   -0.182515   -0.197367
  S     -3.084224    1.499403   -0.629422
  O     -1.378658   -0.236419    1.169991
  C     -1.797141    0.492338    2.349915
  C     -0.566847    1.061744    3.025329
  O     -3.130611   -1.437401   -0.042792
  C     -4.186571   -1.722831   -0.982324
  C     -5.260052   -2.508756   -0.256426
  H      2.345447   -2.473796    2.756691
  H      2.040032   -3.859217    1.695225
  H      3.437090   -2.810909    1.406047
  H      0.498023   -1.987292    1.123915
  H      1.629775   -2.307264   -0.217359
  H      4.102407    2.981972    1.114043
  H      2.330980    2.761100    1.132964
  H      2.581358    0.951611    2.832340
  H      4.336811    1.157399    2.802456
  H      3.303466    2.458884    3.416790
  H      0.705485    0.627171   -2.754336
  H     -0.855236    1.425102   -2.328580
  H     -2.487855    1.286177    2.046761
  H     -2.319275   -0.217731    2.994435
  H     -0.863371    1.566576    3.938856
  H      0.127865    0.261391    3.264722
  H     -0.075447    1.773016    2.365894
  H     -4.577174   -0.775178   -1.368436
  H     -3.757277   -2.297945   -1.806507
  H     -4.836861   -3.420277    0.155407
  H     -5.675652   -1.915041    0.552945
  H     -6.049591   -2.762190   -0.956181

 Total Charge           Charge          ....    0
 Multiplicity           Mult            ....    1
 Number of Electrons    NEL             ....  202
 Basis Dimension        Dim             ....  334

ORBITAL ENERGIES
----------------

  NO   OCC          E(Eh)            E(eV)
   0   2.0000     -88.044748     -2395.8194
   1   2.0000     -88.039835     -2395.6857
   2   2.0000     -87.990653     -2394.3474
   3   2.0000     -87.985132     -2394.1972
   4   2.0000     -76.428818     -2079.7339
   5   2.0000     -76.426226     -2079.6633
   6   2.0000     -18.795293      -511.4459
   7   2.0000     -18.795267      -511.4452
   8   2.0000     -18.794849      -511.4338
   9   2.0000     -18.788688      -511.2662
  10   2.0000      -9.962931      -271.1051
  11   2.0000      -9.955645      -270.9069
  12   2.0000      -9.954680      -270.8806
  13   2.0000      -9.954020      -270.8626
  14   2.0000      -9.942768      -270.5565
  15   2.0000      -9.890519      -269.1347
  16   2.0000      -9.890389      -269.1312
  17   2.0000      -9.889236      -269.0998
  18   2.0000      -9.882204      -268.9084
  19   2.0000      -7.689732      -209.2482
  20   2.0000      -7.684605      -209.1087
  21   2.0000      -7.635651      -207.7766
  22   2.0000      -7.630417      -207.6342
  23   2.0000      -6.426558      -174.8755
  24   2.0000      -6.423710      -174.7980
  25   2.0000      -5.717580      -155.5833
  26   2.0000      -5.714277      -155.4934
  27   2.0000      -5.712428      -155.4431
  28   2.0000      -5.709220      -155.3558
  29   2.0000      -5.706696      -155.2871
  30   2.0000      -5.701561      -155.1474
  31   2.0000      -5.664383      -154.1357
  32   2.0000      -5.659424      -154.0008
  33   2.0000      -5.656292      -153.9155
  34   2.0000      -5.655980      -153.9071
  35   2.0000      -5.651009      -153.7718
  36   2.0000      -5.650452      -153.7566
  37   2.0000      -4.648990      -126.5054
  38   2.0000      -4.648339      -126.4877
  39   2.0000      -4.647050      -126.4527
  40   2.0000      -4.646486      -126.4373
  41   2.0000      -4.645359      -126.4067
  42   2.0000      -4.644107      -126.3726
  43   2.0000      -0.989844       -26.9350
  44   2.0000      -0.986581       -26.8462
  45   2.0000      -0.948182       -25.8014
  46   2.0000      -0.944204       -25.6931
  47   2.0000      -0.765632       -20.8339
  48   2.0000      -0.725462       -19.7408
  49   2.0000      -0.714797       -19.4506
  50   2.0000      -0.692173       -18.8350
  51   2.0000      -0.690392       -18.7865
  52   2.0000      -0.673016       -18.3137
  53   2.0000      -0.649487       -17.6734
  54   2.0000      -0.640232       -17.4216
  55   2.0000      -0.599085       -16.3019
  56   2.0000      -0.592543       -16.1239
  57   2.0000      -0.573657       -15.6100
  58   2.0000      -0.570673       -15.5288
  59   2.0000      -0.560585       -15.2543
  60   2.0000      -0.512912       -13.9570
  61   2.0000      -0.500078       -13.6078
  62   2.0000      -0.484645       -13.1878
  63   2.0000      -0.482434       -13.1277
  64   2.0000      -0.457288       -12.4434
  65   2.0000      -0.447283       -12.1712
  66   2.0000      -0.443775       -12.0757
  67   2.0000      -0.437520       -11.9055
  68   2.0000      -0.429821       -11.6960
  69   2.0000      -0.414852       -11.2887
  70   2.0000      -0.405474       -11.0335
  71   2.0000      -0.395865       -10.7720
  72   2.0000      -0.390597       -10.6287
  73   2.0000      -0.386795       -10.5252
  74   2.0000      -0.381562       -10.3828
  75   2.0000      -0.377127       -10.2621
  76   2.0000      -0.368348       -10.0233
  77   2.0000      -0.360470        -9.8089
  78   2.0000      -0.356815        -9.7094
  79   2.0000      -0.355467        -9.6727
  80   2.0000      -0.352483        -9.5915
  81   2.0000      -0.348708        -9.4888
  82   2.0000      -0.345938        -9.4135
  83   2.0000      -0.342384        -9.3167
  84   2.0000      -0.337470        -9.1830
  85   2.0000      -0.318004        -8.6533
  86   2.0000      -0.313459        -8.5296
  87   2.0000      -0.302878        -8.2417
  88   2.0000      -0.297498        -8.0953
  89   2.0000      -0.290595        -7.9075
  90   2.0000      -0.287924        -7.8348
  91   2.0000      -0.281378        -7.6567
  92   2.0000      -0.276491        -7.5237
  93   2.0000      -0.265763        -7.2318
  94   2.0000      -0.255228        -6.9451
  95   2.0000      -0.236191        -6.4271
  96   2.0000      -0.215168        -5.8550
  97   2.0000      -0.213988        -5.8229
  98   2.0000      -0.208741        -5.6801
  99   2.0000      -0.200285        -5.4500
 100   2.0000      -0.199637        -5.4324
 101   0.0000      -0.047232        -1.2852
 102   0.0000      -0.026424        -0.7190
 103   0.0000      -0.006114        -0.1664
 104   0.0000       0.003386         0.0921
 105   0.0000       0.007338         0.1997

MULLIKEN ATOMIC CHARGES
-----------------------
   0 C :   -0.276239
   1 C :   -0.025596
   2 O :   -0.384600
   3 P :    0.627875
   4 S :   -0.316470
   5 O :   -0.358434
   6 C :   -0.026843
   7 C :   -0.311470
   8 S :   -0.124287
   9 C :   -0.350453
  10 S :   -0.084118
  11 P :    0.619284
  12 S :   -0.336065
  13 O :   -0.362360
  14 C :   -0.003874
  15 C :   -0.308698
  16 O :   -0.379748
  17 C :   -0.010163
  18 C :   -0.281870
  19 H :    0.107841
  20 H :    0.108446
  21 H :    0.115588
  22 H :    0.110232
  23 H :    0.113829
  24 H :    0.116280
  25 H :    0.121671
  26 H :    0.141604
  27 H :    0.120845
  28 H :    0.110977
  29 H :    0.195022
  30 H :    0.193397
  31 H :    0.109692
  32 H :    0.103758
  33 H :    0.108480
  34 H :    0.130603
  35 H :    0.127786
  36 H :    0.107120
  37 H :    0.103633
  38 H :    0.116589
  39 H :    0.117398
  40 H :    0.113337
Sum of atomic charges:   -0.0000000

LOEWDIN ATOMIC CHARGES
----------------------
   0 C :   -0.353155
   1 C :   -0.129002
   2 O :   -0.245636
   3 P :    0.572892
   4 S :   -0.306325
   5 O :   -0.235355
   6 C :   -0.110384
   7 C :   -0.363382
   8 S :    0.067587
   9 C :   -0.480489
  10 S :    0.093424
  11 P :    0.566078
  12 S :   -0.322817
  13 O :   -0.236265
  14 C :   -0.113459
  15 C :   -0.356050
  16 O :   -0.251644
  17 C :   -0.119962
  18 C :   -0.350710
  19 H :    0.121258
  20 H :    0.129166
  21 H :    0.126647
  22 H :    0.107290
  23 H :    0.103758
  24 H :    0.124908
  25 H :    0.105275
  26 H :    0.127071
  27 H :    0.130155
  28 H :    0.130340
  29 H :    0.131189
  30 H :    0.131499
  31 H :    0.108775
  32 H :    0.114492
  33 H :    0.129223
  34 H :    0.125822
  35 H :    0.122119
  36 H :    0.107782
  37 H :    0.112062
  38 H :    0.126712
  39 H :    0.127665
  40 H :    0.131446

  Mayer bond orders larger than 0.100000
B(  0-C ,  1-C ) :   1.1569 B(  0-C , 19-H ) :   0.9517 B(  0-C , 20-H ) :   0.9422
B(  0-C , 21-H ) :   0.9483 B(  1-C ,  2-O ) :   0.8963 B(  1-C , 22-H ) :   0.9194
B(  1-C , 23-H ) :   0.9019 B(  2-O ,  3-P ) :   1.0878 B(  3-P ,  4-S ) :   1.6377
B(  3-P ,  5-O ) :   1.1508 B(  3-P ,  8-S ) :   0.9220 B(  4-S ,  8-S ) :   0.1046
B(  5-O ,  6-C ) :   0.9013 B(  6-C ,  7-C ) :   1.1627 B(  6-C , 24-H ) :   0.9346
B(  6-C , 25-H ) :   0.9121 B(  7-C , 26-H ) :   0.9314 B(  7-C , 27-H ) :   0.9445
B(  7-C , 28-H ) :   0.9378 B(  8-S ,  9-C ) :   1.0226 B(  9-C , 10-S ) :   0.9939
B(  9-C , 29-H ) :   0.8784 B(  9-C , 30-H ) :   0.8822 B( 10-S , 11-P ) :   0.9677
B( 10-S , 12-S ) :   0.1076 B( 11-P , 12-S ) :   1.6074 B( 11-P , 13-O ) :   1.1220
B( 11-P , 16-O ) :   1.1139 B( 13-O , 14-C ) :   0.8922 B( 14-C , 15-C ) :   1.1659
B( 14-C , 31-H ) :   0.9028 B( 14-C , 32-H ) :   0.9339 B( 15-C , 33-H ) :   0.9376
B( 15-C , 34-H ) :   0.9410 B( 15-C , 35-H ) :   0.9418 B( 16-O , 17-C ) :   0.9038
B( 17-C , 18-C ) :   1.1621 B( 17-C , 36-H ) :   0.9067 B( 17-C , 37-H ) :   0.9308
B( 18-C , 38-H ) :   0.9509 B( 18-C , 39-H ) :   0.9510 B( 18-C , 40-H ) :   0.9418

Dispersion correction           -0.065321147
FINAL SINGLE POINT ENERGY     -2929.523519815746

DIPOLE MOMENT
-------------

Method             : SCF
Type of density    : Electron Density
Multiplicity       :   1
Irrep              :   0
Energy             : -2929.6432635307642158 Eh
Relativity type    :
Basis              : AO
                                X                 Y                 Z
Electronic contribution:      3.337698569       6.997758421     -21.778886965
Nuclear contribution   :     -3.975736217      -7.290460636      23.302144247
                        -----------------------------------------
Total Dipole Moment    :     -0.638037648      -0.292702215       1.523257281
                        -----------------------------------------
Magnitude (a.u.)       :      1.677223710
Magnitude (Debye)      :      4.263163871

Rotational constants in cm-1:             0.011925             0.005138             0.004925
Rotational constants in MHz :           357.513587           154.022872           147.651021

                             ****ORCA TERMINATED NORMALLY****
TOTAL RUN TIME: 0 days 0 hours 0 minutes 21 seconds 795 msec
