                         Program Version 6.0.0  -   RELEASE  -
|  1> ! pbe def2-sv(p) def2/J RI DEFGRID1 loosescf d4 GCP(DFT/SV(P)) printgap
|  2> %output
|  3>     printlevel normal
|  4> end
|  5> * xyz 0 1
|  6> C 4.4058859178 0.5693640682 -2.0302896628
|  7> C 4.5974587663 0.2382615508 -0.5637030278
|  8> O 3.4437001973 -0.4032660686 -1.15885e-05
|  9> P 2.0679010972 0.372769684 0.2337901858
| 10> S 2.2595178219 2.2264964488 0.8314745908
| 11> O 1.3310634217 -0.630781949 1.2066679424
| 12> C 1.3441388728 -0.4622382791 2.6375971316
| 13> C 2.708222741 -0.7634758377 3.22047038
| 14> S 0.9532305382 0.0836549656 -1.5490098665
| 15> C 0.5104597187 -1.66681869 -1.4182594329
| 16> S -0.7810358631 -2.0439749984 -0.182349569
| 17> P -1.9792354795 -0.3247515764 -0.3504797847
| 18> S -2.5016163914 0.2710505896 -2.1481747345
| 19> O -1.2020363202 0.7213557597 0.5592205671
| 20> C -1.4272050117 2.1389050229 0.4144265725
| 21> C -2.8004238435 2.5383911077 0.9071845455
| 22> O -3.1991496882 -0.7034083598 0.5934254533
| 23> C -4.277455944 -1.5474859364 0.1400133931
| 24> C -5.4737143106 -1.3020799486 1.0373125622
| 25> H 3.6097289184 1.3053441193 -2.1442974892
| 26> H 5.3267034002 0.9831514753 -2.4285893876
| 27> H 4.1390767257 -0.3221973093 -2.5917518124
| 28> H 4.8013098814 1.1484471712 0.0095913834
| 29> H 5.4016620035 -0.4834227071 -0.4141025458
| 30> H 1.0383407799 0.5627044321 2.8700930264
| 31> H 0.5844244241 -1.1631924529 2.9871480377
| 32> H 2.6537010506 -0.7201805235 4.303676003
| 33> H 3.0379903235 -1.7520734802 2.9124989236
| 34> H 3.429223736 -0.0249343768 2.8720938489
| 35> H 1.382096536 -2.2536583818 -1.1384062616
| 36> H 0.1444594917 -1.9409650502 -2.4059640286
| 37> H -0.6297298354 2.5994573714 1.0013774327
| 38> H -1.2968601086 2.4039875428 -0.640832628
| 39> H -2.8927319807 3.6192931162 0.8710715056
| 40> H -3.5625131524 2.09423787 0.267802065
| 41> H -2.9477664447 2.192957189 1.9269799583
| 42> H -4.4987722786 -1.2988225615 -0.9035556485
| 43> H -3.941678607 -2.5862234482 0.1970404773
| 44> H -6.2846605799 -1.956041674 0.7341543194
| 45> H -5.2097724476 -1.5092404493 2.070240836
| 46> H -5.798340624 -0.2684529174 0.9572169699
| 47> *
| 48>
| 49>                          ****END OF INPUT****

CARTESIAN COORDINATES (ANGSTROEM)
---------------------------------
  C      4.405886    0.569364   -2.030290
  C      4.597459    0.238262   -0.563703
  O      3.443700   -0.403266   -0.000012
  P      2.067901    0.372770    0.233790
  S      2.259518    2.226496    0.831475
  O      1.331063   -0.630782    1.206668
  C      1.344139   -0.462238    2.637597
  C      2.708223   -0.763476    3.220470
  S      0.953231    0.083655   -1.549010
  C      0.510460   -1.666819   -1.418259
  S     -0.781036   -2.043975   -0.182350
  P     -1.979235   -0.324752   -0.350480
  S     -2.501616    0.271051   -2.148175
  O     -1.202036    0.721356    0.559221
  C     -1.427205    2.138905    0.414427
  C     -2.800424    2.538391    0.907185
  O     -3.199150   -0.703408    0.593425
  C     -4.277456   -1.547486    0.140013
  C     -5.473714   -1.302080    1.037313
  H      3.609729    1.305344   -2.144297
  H      5.326703    0.983151   -2.428589
  H      4.139077   -0.322197   -2.591752
  H      4.801310    1.148447    0.009591
  H      5.401662   -0.483423   -0.414103
  H      1.038341    0.562704    2.870093
  H      0.584424   -1.163192    2.987148
  H      2.653701   -0.720181    4.303676
  H      3.037990   -1.752073    2.912499
  H      3.429224   -0.024934    2.872094
  H      1.382097   -2.253658   -1.138406
  H      0.144459   -1.940965   -2.405964
  H     -0.629730    2.599457    1.001377
  H     -1.296860    2.403988   -0.640833
  H     -2.892732    3.619293    0.871072
  H     -3.562513    2.094238    0.267802
  H     -2.947766    2.192957    1.926980
  H     -4.498772   -1.298823   -0.903556
  H     -3.941679   -2.586223    0.197040
  H     -6.284661   -1.956042    0.734154
  H     -5.209772   -1.509240    2.070241
  H     -5.798341   -0.268453    0.957217

 Total Charge           Charge          ....    0
 Multiplicity           Mult            ....    1
 Number of Electrons    NEL             ....  202
 Basis Dimension        Dim             ....  334

ORBITAL ENERGIES
----------------

  NO   OCC          E(Eh)            E(eV)
   0   2.0000     -88.044548     -2395.8139
   1   2.0000     -88.037867     -2395.6322
   2   2.0000     -87.993189     -2394.4164
   3   2.0000     -87.981027     -2394.0855
   4   2.0000     -76.427927     -2079.7096
   5   2.0000     -76.422756     -2079.5689
   6   2.0000     -18.793021      -511.3841
   7   2.0000     -18.790692      -511.3207
   8   2.0000     -18.789985      -511.3015
   9   2.0000     -18.783718      -511.1310
  10   2.0000      -9.961719      -271.0722
  11   2.0000      -9.953278      -270.8425
  12   2.0000      -9.951252      -270.7873
  13   2.0000      -9.950496      -270.7668
  14   2.0000      -9.936875      -270.3961
  15   2.0000      -9.887153      -269.0431
  16   2.0000      -9.885303      -268.9928
  17   2.0000      -9.884242      -268.9639
  18   2.0000      -9.874933      -268.7106
  19   2.0000      -7.689083      -209.2306
  20   2.0000      -7.683296      -209.0731
  21   2.0000      -7.638156      -207.8448
  22   2.0000      -7.626055      -207.5155
  23   2.0000      -6.425551      -174.8481
  24   2.0000      -6.419935      -174.6953
  25   2.0000      -5.717447      -155.5796
  26   2.0000      -5.713417      -155.4700
  27   2.0000      -5.711422      -155.4157
  28   2.0000      -5.707842      -155.3183
  29   2.0000      -5.705731      -155.2608
  30   2.0000      -5.699892      -155.1019
  31   2.0000      -5.666966      -154.2060
  32   2.0000      -5.658929      -153.9873
  33   2.0000      -5.658273      -153.9694
  34   2.0000      -5.654946      -153.8789
  35   2.0000      -5.646677      -153.6539
  36   2.0000      -5.646292      -153.6434
  37   2.0000      -4.647886      -126.4754
  38   2.0000      -4.647485      -126.4645
  39   2.0000      -4.646101      -126.4268
  40   2.0000      -4.642326      -126.3241
  41   2.0000      -4.641806      -126.3100
  42   2.0000      -4.640522      -126.2750
  43   2.0000      -0.988091       -26.8873
  44   2.0000      -0.981931       -26.7197
  45   2.0000      -0.946458       -25.7544
  46   2.0000      -0.940144       -25.5826
  47   2.0000      -0.763596       -20.7785
  48   2.0000      -0.720179       -19.5971
  49   2.0000      -0.706666       -19.2294
  50   2.0000      -0.687105       -18.6971
  51   2.0000      -0.682179       -18.5630
  52   2.0000      -0.672686       -18.3047
  53   2.0000      -0.653329       -17.7780
  54   2.0000      -0.637408       -17.3447
  55   2.0000      -0.601151       -16.3581
  56   2.0000      -0.590891       -16.0790
  57   2.0000      -0.572236       -15.5713
  58   2.0000      -0.568979       -15.4827
  59   2.0000      -0.557972       -15.1832
  60   2.0000      -0.500905       -13.6303
  61   2.0000      -0.494376       -13.4526
  62   2.0000      -0.473921       -12.8960
  63   2.0000      -0.469306       -12.7705
  64   2.0000      -0.458820       -12.4851
  65   2.0000      -0.442028       -12.0282
  66   2.0000      -0.440408       -11.9841
  67   2.0000      -0.431021       -11.7287
  68   2.0000      -0.424311       -11.5461
  69   2.0000      -0.415755       -11.3133
  70   2.0000      -0.408045       -11.1035
  71   2.0000      -0.397000       -10.8029
  72   2.0000      -0.393326       -10.7029
  73   2.0000      -0.387015       -10.5312
  74   2.0000      -0.379377       -10.3234
  75   2.0000      -0.372834       -10.1453
  76   2.0000      -0.369909       -10.0657
  77   2.0000      -0.357194        -9.7197
  78   2.0000      -0.355226        -9.6662
  79   2.0000      -0.349675        -9.5151
  80   2.0000      -0.349090        -9.4992
  81   2.0000      -0.342828        -9.3288
  82   2.0000      -0.340043        -9.2530
  83   2.0000      -0.337078        -9.1724
  84   2.0000      -0.328730        -8.9452
  85   2.0000      -0.319410        -8.6916
  86   2.0000      -0.309400        -8.4192
  87   2.0000      -0.298039        -8.1101
  88   2.0000      -0.296429        -8.0662
  89   2.0000      -0.290830        -7.9139
  90   2.0000      -0.280188        -7.6243
  91   2.0000      -0.273682        -7.4473
  92   2.0000      -0.265103        -7.2138
  93   2.0000      -0.260984        -7.1017
  94   2.0000      -0.259114        -7.0509
  95   2.0000      -0.227318        -6.1856
  96   2.0000      -0.220879        -6.0104
  97   2.0000      -0.215123        -5.8538
  98   2.0000      -0.207719        -5.6523
  99   2.0000      -0.194258        -5.2860
 100   2.0000      -0.193423        -5.2633
 101   0.0000      -0.046659        -1.2697
 102   0.0000      -0.027375        -0.7449
 103   0.0000      -0.009538        -0.2595
 104   0.0000       0.002463         0.0670
 105   0.0000       0.018994         0.5169

MULLIKEN ATOMIC CHARGES
-----------------------
   0 C :   -0.307840
   1 C :   -0.008440
   2 O :   -0.375872
   3 P :    0.627455
   4 S :   -0.323760
   5 O :   -0.366133
   6 C :    0.002965
   7 C :   -0.304852
   8 S :   -0.075065
   9 C :   -0.319503
  10 S :   -0.096734
  11 P :    0.610691
  12 S :   -0.334696
  13 O :   -0.364847
  14 C :   -0.019202
  15 C :   -0.300539
  16 O :   -0.375651
  17 C :   -0.011367
  18 C :   -0.282118
  19 H :    0.125765
  20 H :    0.113168
  21 H :    0.113836
  22 H :    0.110469
  23 H :    0.104491
  24 H :    0.111789
  25 H :    0.104327
  26 H :    0.111903
  27 H :    0.114999
  28 H :    0.120711
  29 H :    0.180535
  30 H :    0.191830
  31 H :    0.115569
  32 H :    0.111889
  33 H :    0.110053
  34 H :    0.118316
  35 H :    0.110919
  36 H :    0.105885
  37 H :    0.100851
  38 H :    0.111494
  39 H :    0.115836
  40 H :    0.120872
Sum of atomic charges:    0.0000000

LOEWDIN ATOMIC CHARGES
----------------------
   0 C :   -0.366712
   1 C :   -0.121801
   2 O :   -0.251308
   3 P :    0.574996
   4 S :   -0.308939
   5 O :   -0.234627
   6 C :   -0.113117
   7 C :   -0.364150
   8 S :    0.114256
   9 C :   -0.465906
  10 S :    0.078794
  11 P :    0.565131
  12 S :   -0.333711
  13 O :   -0.239382
  14 C :   -0.127570
  15 C :   -0.365096
  16 O :   -0.248184
  17 C :   -0.121769
  18 C :   -0.350470
  19 H :    0.120351
  20 H :    0.130825
  21 H :    0.123463
  22 H :    0.109160
  23 H :    0.118065
  24 H :    0.111285
  25 H :    0.118307
  26 H :    0.130238
  27 H :    0.125815
  28 H :    0.121897
  29 H :    0.134418
  30 H :    0.139670
  31 H :    0.111548
  32 H :    0.109782
  33 H :    0.129722
  34 H :    0.118873
  35 H :    0.123548
  36 H :    0.107688
  37 H :    0.109405
  38 H :    0.130616
  39 H :    0.126539
  40 H :    0.128350

  Mayer bond orders larger than 0.100000
B(  0-C ,  1-C ) :   1.1641 B(  0-C , 19-H ) :   0.9369 B(  0-C , 20-H ) :   0.9385
B(  0-C , 21-H ) :   0.9453 B(  1-C ,  2-O ) :   0.9169 B(  1-C , 22-H ) :   0.9154
B(  1-C , 23-H ) :   0.9339 B(  2-O ,  3-P ) :   1.0762 B(  3-P ,  4-S ) :   1.6159
B(  3-P ,  5-O ) :   1.1271 B(  3-P ,  8-S ) :   0.9517 B(  5-O ,  6-C ) :   0.8993
B(  6-C ,  7-C ) :   1.1621 B(  6-C , 24-H ) :   0.9191 B(  6-C , 25-H ) :   0.9320
B(  7-C , 26-H ) :   0.9396 B(  7-C , 27-H ) :   0.9462 B(  7-C , 28-H ) :   0.9375
B(  8-S ,  9-C ) :   1.0081 B(  9-C , 10-S ) :   0.9740 B(  9-C , 29-H ) :   0.9067
B(  9-C , 30-H ) :   0.9041 B( 10-S , 11-P ) :   0.9843 B( 10-S , 12-S ) :   0.1124
B( 11-P , 12-S ) :   1.6019 B( 11-P , 13-O ) :   1.1189 B( 11-P , 16-O ) :   1.1043
B( 13-O , 14-C ) :   0.8936 B( 14-C , 15-C ) :   1.1622 B( 14-C , 31-H ) :   0.9176
B( 14-C , 32-H ) :   0.9162 B( 15-C , 33-H ) :   0.9398 B( 15-C , 34-H ) :   0.9344
B( 15-C , 35-H ) :   0.9463 B( 16-O , 17-C ) :   0.9049 B( 17-C , 18-C ) :   1.1606
B( 17-C , 36-H ) :   0.9066 B( 17-C , 37-H ) :   0.9300 B( 18-C , 38-H ) :   0.9420
B( 18-C , 39-H ) :   0.9504 B( 18-C , 40-H ) :   0.9513

Dispersion correction           -0.067382592
FINAL SINGLE POINT ENERGY     -2929.519771875194

DIPOLE MOMENT
-------------

Method             : SCF
Type of density    : Electron Density
Multiplicity       :   1
Irrep              :   0
Energy             : -2929.6378700982672854 Eh
Relativity type    :
Basis              : AO
                                X                 Y                 Z
Electronic contribution:      1.906935443      -1.469808219     -10.151939981
Nuclear contribution   :     -1.492161057       0.517708140      10.841429943
                        -----------------------------------------
Total Dipole Moment    :      0.414774387      -0.952100078       0.689489961
                        -----------------------------------------
Magnitude (a.u.)       :      1.246566789
Magnitude (Debye)      :      3.168520970

Rotational constants in cm-1:             0.013224             0.005097             0.004942
Rotational constants in MHz :           396.458259           152.814167           148.162046

                             ****ORCA TERMINATED NORMALLY****
TOTAL RUN TIME: 0 days 0 hours 0 minutes 21 seconds 788 msec
