                         Program Version 6.0.0  -   RELEASE  -
|  1> ! pbe def2-sv(p) def2/J RI DEFGRID1 loosescf d4 GCP(DFT/SV(P)) printgap
|  2> %output
|  3>     printlevel normal
|  4> end
|  5> * xyz 0 1
|  6> C 1.2606512837 -2.9288844868 0.7768231187
|  7> C 2.7419084826 -2.6309473565 0.6592909835
|  8> O 3.0439986543 -1.2762953927 1.0398966846
|  9> P 2.7811083938 -0.0478720714 0.0842144796
| 10> S 3.0794670582 -0.355442455 -1.8351259722
| 11> O 3.7992412857 0.9306487287 0.7972353161
| 12> C 3.9740314695 2.2802961436 0.3219684619
| 13> C 5.1939370417 2.8568832149 1.0112952651
| 14> S 0.8815189276 0.7825764856 0.5940158557
| 15> C 0.0317485891 0.665190085 -1.0070515359
| 16> S -1.1495542321 -0.6969050371 -1.0995926108
| 17> P -2.8684634278 0.2814836788 -0.2820880009
| 18> S -2.7631991784 2.2384592045 -0.2819428301
| 19> O -3.146977532 -0.4602284169 1.1008959189
| 20> C -2.1948303297 -0.6018870816 2.1671537421
| 21> C -1.9689294467 0.6956992172 2.9160485954
| 22> O -4.1121616433 -0.176362995 -1.1296043116
| 23> C -4.7384955986 -1.4825166687 -1.0891681443
| 24> C -3.8141987243 -2.5847934455 -1.560523616
| 25> H 1.0929574964 -3.9873548567 0.6061266593
| 26> H 0.9056173835 -2.6634379211 1.7694432178
| 27> H 0.7028508555 -2.3631204568 0.0310650853
| 28> H 3.0930328027 -2.7974815481 -0.3645506637
| 29> H 3.3290154308 -3.2347377443 1.3529086725
| 30> H 4.1033121031 2.2567531041 -0.7658589723
| 31> H 3.0732054793 2.8537205175 0.5620814574
| 32> H 5.3392409461 3.8808577739 0.6831799914
| 33> H 5.0519432478 2.8384597871 2.0877455086
| 34> H 6.0736380325 2.2702397636 0.7627769616
| 35> H 0.7771653704 0.4981323191 -1.7876588458
| 36> H -0.5082081888 1.6016663807 -1.1561614698
| 37> H -2.6405066909 -1.3605945288 2.8131783041
| 38> H -1.2540284176 -0.9763615472 1.7522530889
| 39> H -1.4973123018 1.4314022178 2.2669052866
| 40> H -2.915473035 1.0983193796 3.2669733853
| 41> H -1.317877639 0.5111502056 3.764302894
| 42> H -5.0814711862 -1.6648827531 -0.0693164716
| 43> H -5.5952605012 -1.3651046108 -1.7544659957
| 44> H -2.9786690282 -2.7023094701 -0.8728426941
| 45> H -4.3685687727 -3.517142787 -1.6043831793
| 46> H -3.4218109851 -2.3553589696 -2.547974266
| 47> *
| 48>
| 49>                          ****END OF INPUT****

CARTESIAN COORDINATES (ANGSTROEM)
---------------------------------
  C      1.260651   -2.928884    0.776823
  C      2.741908   -2.630947    0.659291
  O      3.043999   -1.276295    1.039897
  P      2.781108   -0.047872    0.084214
  S      3.079467   -0.355442   -1.835126
  O      3.799241    0.930649    0.797235
  C      3.974031    2.280296    0.321968
  C      5.193937    2.856883    1.011295
  S      0.881519    0.782576    0.594016
  C      0.031749    0.665190   -1.007052
  S     -1.149554   -0.696905   -1.099593
  P     -2.868463    0.281484   -0.282088
  S     -2.763199    2.238459   -0.281943
  O     -3.146978   -0.460228    1.100896
  C     -2.194830   -0.601887    2.167154
  C     -1.968929    0.695699    2.916049
  O     -4.112162   -0.176363   -1.129604
  C     -4.738496   -1.482517   -1.089168
  C     -3.814199   -2.584793   -1.560524
  H      1.092957   -3.987355    0.606127
  H      0.905617   -2.663438    1.769443
  H      0.702851   -2.363120    0.031065
  H      3.093033   -2.797482   -0.364551
  H      3.329015   -3.234738    1.352909
  H      4.103312    2.256753   -0.765859
  H      3.073205    2.853721    0.562081
  H      5.339241    3.880858    0.683180
  H      5.051943    2.838460    2.087746
  H      6.073638    2.270240    0.762777
  H      0.777165    0.498132   -1.787659
  H     -0.508208    1.601666   -1.156161
  H     -2.640507   -1.360595    2.813178
  H     -1.254028   -0.976362    1.752253
  H     -1.497312    1.431402    2.266905
  H     -2.915473    1.098319    3.266973
  H     -1.317878    0.511150    3.764303
  H     -5.081471   -1.664883   -0.069316
  H     -5.595261   -1.365105   -1.754466
  H     -2.978669   -2.702309   -0.872843
  H     -4.368569   -3.517143   -1.604383
  H     -3.421811   -2.355359   -2.547974

 Total Charge           Charge          ....    0
 Multiplicity           Mult            ....    1
 Number of Electrons    NEL             ....  202
 Basis Dimension        Dim             ....  334

ORBITAL ENERGIES
----------------

  NO   OCC          E(Eh)            E(eV)
   0   2.0000     -88.047033     -2395.8816
   1   2.0000     -88.046929     -2395.8788
   2   2.0000     -87.995692     -2394.4845
   3   2.0000     -87.986533     -2394.2353
   4   2.0000     -76.430481     -2079.7791
   5   2.0000     -76.429329     -2079.7478
   6   2.0000     -18.796634      -511.4824
   7   2.0000     -18.794909      -511.4355
   8   2.0000     -18.794762      -511.4315
   9   2.0000     -18.793462      -511.3961
  10   2.0000      -9.960916      -271.0503
  11   2.0000      -9.956262      -270.9237
  12   2.0000      -9.956070      -270.9184
  13   2.0000      -9.953968      -270.8612
  14   2.0000      -9.949310      -270.7345
  15   2.0000      -9.895173      -269.2613
  16   2.0000      -9.888305      -269.0745
  17   2.0000      -9.887529      -269.0533
  18   2.0000      -9.880649      -268.8661
  19   2.0000      -7.691404      -209.2938
  20   2.0000      -7.691027      -209.2835
  21   2.0000      -7.640488      -207.9082
  22   2.0000      -7.631696      -207.6690
  23   2.0000      -6.428154      -174.9190
  24   2.0000      -6.426631      -174.8775
  25   2.0000      -5.719123      -155.6252
  26   2.0000      -5.718866      -155.6183
  27   2.0000      -5.715827      -155.5356
  28   2.0000      -5.715448      -155.5252
  29   2.0000      -5.708734      -155.3425
  30   2.0000      -5.708328      -155.3315
  31   2.0000      -5.669242      -154.2679
  32   2.0000      -5.661024      -154.0443
  33   2.0000      -5.660939      -154.0420
  34   2.0000      -5.660770      -154.0374
  35   2.0000      -5.652099      -153.8014
  36   2.0000      -5.651875      -153.7953
  37   2.0000      -4.650300      -126.5411
  38   2.0000      -4.650103      -126.5357
  39   2.0000      -4.649509      -126.5196
  40   2.0000      -4.648723      -126.4982
  41   2.0000      -4.648422      -126.4900
  42   2.0000      -4.646818      -126.4463
  43   2.0000      -0.993616       -27.0377
  44   2.0000      -0.991688       -26.9852
  45   2.0000      -0.949298       -25.8317
  46   2.0000      -0.947089       -25.7716
  47   2.0000      -0.762599       -20.7514
  48   2.0000      -0.725812       -19.7503
  49   2.0000      -0.716662       -19.5014
  50   2.0000      -0.693743       -18.8777
  51   2.0000      -0.687944       -18.7199
  52   2.0000      -0.680898       -18.5282
  53   2.0000      -0.653306       -17.7774
  54   2.0000      -0.640516       -17.4293
  55   2.0000      -0.604200       -16.4411
  56   2.0000      -0.594589       -16.1796
  57   2.0000      -0.582924       -15.8622
  58   2.0000      -0.566148       -15.4057
  59   2.0000      -0.561497       -15.2791
  60   2.0000      -0.509314       -13.8591
  61   2.0000      -0.500108       -13.6086
  62   2.0000      -0.477285       -12.9876
  63   2.0000      -0.475677       -12.9438
  64   2.0000      -0.459699       -12.5090
  65   2.0000      -0.450283       -12.2528
  66   2.0000      -0.443795       -12.0763
  67   2.0000      -0.439440       -11.9578
  68   2.0000      -0.430895       -11.7253
  69   2.0000      -0.429655       -11.6915
  70   2.0000      -0.412519       -11.2252
  71   2.0000      -0.404690       -11.0122
  72   2.0000      -0.399383       -10.8678
  73   2.0000      -0.389900       -10.6097
  74   2.0000      -0.384010       -10.4494
  75   2.0000      -0.375372       -10.2144
  76   2.0000      -0.365871        -9.9559
  77   2.0000      -0.358167        -9.7462
  78   2.0000      -0.357488        -9.7278
  79   2.0000      -0.355189        -9.6652
  80   2.0000      -0.352594        -9.5946
  81   2.0000      -0.346670        -9.4334
  82   2.0000      -0.343124        -9.3369
  83   2.0000      -0.341025        -9.2798
  84   2.0000      -0.336614        -9.1597
  85   2.0000      -0.321818        -8.7571
  86   2.0000      -0.312411        -8.5011
  87   2.0000      -0.306579        -8.3424
  88   2.0000      -0.301065        -8.1924
  89   2.0000      -0.295566        -8.0428
  90   2.0000      -0.294216        -8.0060
  91   2.0000      -0.279873        -7.6157
  92   2.0000      -0.272133        -7.4051
  93   2.0000      -0.265122        -7.2143
  94   2.0000      -0.262190        -7.1346
  95   2.0000      -0.236321        -6.4306
  96   2.0000      -0.225278        -6.1301
  97   2.0000      -0.215724        -5.8701
  98   2.0000      -0.210966        -5.7407
  99   2.0000      -0.203692        -5.5427
 100   2.0000      -0.200423        -5.4538
 101   0.0000      -0.047125        -1.2823
 102   0.0000      -0.036854        -1.0028
 103   0.0000      -0.012725        -0.3463
 104   0.0000       0.000179         0.0049
 105   0.0000       0.008404         0.2287

MULLIKEN ATOMIC CHARGES
-----------------------
   0 C :   -0.333785
   1 C :   -0.002202
   2 O :   -0.353179
   3 P :    0.597188
   4 S :   -0.326364
   5 O :   -0.358770
   6 C :   -0.013295
   7 C :   -0.277702
   8 S :   -0.108479
   9 C :   -0.344301
  10 S :   -0.125726
  11 P :    0.614976
  12 S :   -0.303328
  13 O :   -0.380819
  14 C :   -0.034918
  15 C :   -0.302053
  16 O :   -0.358610
  17 C :    0.004118
  18 C :   -0.332938
  19 H :    0.111127
  20 H :    0.122870
  21 H :    0.138343
  22 H :    0.114209
  23 H :    0.108004
  24 H :    0.104732
  25 H :    0.104897
  26 H :    0.113000
  27 H :    0.118240
  28 H :    0.120952
  29 H :    0.193615
  30 H :    0.196677
  31 H :    0.102886
  32 H :    0.125461
  33 H :    0.133493
  34 H :    0.117605
  35 H :    0.107868
  36 H :    0.112639
  37 H :    0.113714
  38 H :    0.128484
  39 H :    0.119204
  40 H :    0.132167
Sum of atomic charges:    0.0000000

LOEWDIN ATOMIC CHARGES
----------------------
   0 C :   -0.370585
   1 C :   -0.116818
   2 O :   -0.231901
   3 P :    0.567457
   4 S :   -0.307795
   5 O :   -0.237218
   6 C :   -0.122008
   7 C :   -0.349325
   8 S :    0.080371
   9 C :   -0.494057
  10 S :    0.086900
  11 P :    0.567576
  12 S :   -0.294167
  13 O :   -0.246135
  14 C :   -0.122597
  15 C :   -0.366732
  16 O :   -0.234194
  17 C :   -0.108681
  18 C :   -0.371042
  19 H :    0.130933
  20 H :    0.124397
  21 H :    0.111630
  22 H :    0.110770
  23 H :    0.120035
  24 H :    0.109220
  25 H :    0.107630
  26 H :    0.131347
  27 H :    0.128028
  28 H :    0.129197
  29 H :    0.124745
  30 H :    0.126710
  31 H :    0.117651
  32 H :    0.102500
  33 H :    0.116712
  34 H :    0.127821
  35 H :    0.129534
  36 H :    0.115702
  37 H :    0.124378
  38 H :    0.116729
  39 H :    0.134486
  40 H :    0.130797

  Mayer bond orders larger than 0.100000
B(  0-C ,  1-C ) :   1.1604 B(  0-C , 19-H ) :   0.9368 B(  0-C , 20-H ) :   0.9399
B(  0-C , 21-H ) :   0.9274 B(  1-C ,  2-O ) :   0.9122 B(  1-C , 22-H ) :   0.9134
B(  1-C , 23-H ) :   0.9335 B(  2-O ,  3-P ) :   1.1363 B(  3-P ,  4-S ) :   1.6024
B(  3-P ,  5-O ) :   1.1317 B(  3-P ,  8-S ) :   0.9471 B(  4-S ,  8-S ) :   0.1236
B(  4-S , 29-H ) :   0.1154 B(  5-O ,  6-C ) :   0.9073 B(  6-C ,  7-C ) :   1.1622
B(  6-C , 24-H ) :   0.9142 B(  6-C , 25-H ) :   0.9221 B(  7-C , 26-H ) :   0.9419
B(  7-C , 27-H ) :   0.9507 B(  7-C , 28-H ) :   0.9512 B(  8-S ,  9-C ) :   1.0074
B(  9-C , 10-S ) :   1.0127 B(  9-C , 29-H ) :   0.8486 B(  9-C , 30-H ) :   0.8545
B( 10-S , 11-P ) :   0.9330 B( 10-S , 12-S ) :   0.1146 B( 11-P , 12-S ) :   1.6538
B( 11-P , 13-O ) :   1.0702 B( 11-P , 16-O ) :   1.1473 B( 12-S , 30-H ) :   0.1074
B( 13-O , 14-C ) :   0.9131 B( 14-C , 15-C ) :   1.1666 B( 14-C , 31-H ) :   0.9344
B( 14-C , 32-H ) :   0.9034 B( 15-C , 33-H ) :   0.9275 B( 15-C , 34-H ) :   0.9450
B( 15-C , 35-H ) :   0.9375 B( 16-O , 17-C ) :   0.8988 B( 17-C , 18-C ) :   1.1695
B( 17-C , 36-H ) :   0.9269 B( 17-C , 37-H ) :   0.9335 B( 18-C , 38-H ) :   0.9326
B( 18-C , 39-H ) :   0.9354 B( 18-C , 40-H ) :   0.9426

Dispersion correction           -0.063002485
FINAL SINGLE POINT ENERGY     -2929.521235975138

DIPOLE MOMENT
-------------

Method             : SCF
Type of density    : Electron Density
Multiplicity       :   1
Irrep              :   0
Energy             : -2929.6427293396186542 Eh
Relativity type    :
Basis              : AO
                                X                 Y                 Z
Electronic contribution:     -1.999528011       8.135709095      -9.551699159
Nuclear contribution   :      1.911932868      -9.424803309      10.407750020
                        -----------------------------------------
Total Dipole Moment    :     -0.087595143      -1.289094213       0.856050862
                        -----------------------------------------
Magnitude (a.u.)       :      1.549922539
Magnitude (Debye)      :      3.939590010

Rotational constants in cm-1:             0.012543             0.004325             0.003983
Rotational constants in MHz :           376.025510           129.671890           119.419669

                             ****ORCA TERMINATED NORMALLY****
TOTAL RUN TIME: 0 days 0 hours 0 minutes 20 seconds 868 msec
