                         Program Version 6.0.0  -   RELEASE  -
|  1> ! pbe def2-sv(p) def2/J RI DEFGRID1 loosescf d4 GCP(DFT/SV(P)) printgap
|  2> %output
|  3>     printlevel normal
|  4> end
|  5> * xyz 0 1
|  6> C 2.3229905178 1.3123184214 -2.1987143503
|  7> C 1.4939694999 0.0524182203 -2.3452696406
|  8> O 0.9746365474 -0.4095889057 -1.081496117
|  9> P 1.9843051206 -1.0129297125 0.001349581
| 10> S 3.5660800573 -1.9176682505 -0.7099871206
| 11> O 0.944707513 -1.9583455816 0.7481614241
| 12> C 1.4051767297 -3.0686822266 1.5437512953
| 13> C 2.0196444609 -2.6201258063 2.8549906786
| 14> S 2.3408056357 0.5777064247 1.358535555
| 15> C 0.6251281917 1.0316049394 1.7512067833
| 16> S -0.1577794711 2.0644592909 0.4663249312
| 17> P -1.703384912 0.8350019877 -0.3080294492
| 18> S -1.9482321828 0.839535617 -2.254815877
| 19> O -2.992766649 1.3702590842 0.4734375595
| 20> C -3.555189487 2.6525470688 0.1504015943
| 21> C -4.7659602603 2.867671822 1.0355178923
| 22> O -1.5041280694 -0.5571012014 0.4152281493
| 23> C -2.0372649083 -1.7609514518 -0.1711052304
| 24> C -3.5474026798 -1.7997724227 -0.0843366063
| 25> H 1.7399464981 2.1035719735 -1.7325548875
| 26> H 3.2033929791 1.110528136 -1.5879411523
| 27> H 2.6438179503 1.6397546928 -3.1823926082
| 28> H 2.0911787057 -0.7522587124 -2.7848384146
| 29> H 0.6038376067 0.2263838426 -2.9529564257
| 30> H 0.509453525 -3.6704809722 1.7053919225
| 31> H 2.1306942003 -3.6387708518 0.9548552718
| 32> H 2.9298154779 -2.0522777067 2.6667225872
| 33> H 1.3237110525 -1.99834241 3.4123172534
| 34> H 2.2685904759 -3.4954543085 3.4465864172
| 35> H 0.6860746759 1.6385146704 2.6502935794
| 36> H 0.0278470274 0.1373943402 1.90065568
| 37> H -2.7924366008 3.4202078618 0.3206251953
| 38> H -3.8233331174 2.6554783571 -0.9113616682
| 39> H -5.2024490534 3.835538311 0.8124509873
| 40> H -5.5030086199 2.0908766615 0.8541193936
| 41> H -4.4712132106 2.8371005233 2.080325964
| 42> H -1.7015881182 -1.8194235211 -1.21139018
| 43> H -1.5735482151 -2.5613094849 0.4059047872
| 44> H -3.90333745 -2.7588099354 -0.4475402312
| 45> H -3.8685882381 -1.6567283722 0.9439390706
| 46> H -3.9718882153 -1.0081289153 -0.7002790809
| 47> *
| 48>
| 49>                          ****END OF INPUT****

CARTESIAN COORDINATES (ANGSTROEM)
---------------------------------
  C      2.322991    1.312318   -2.198714
  C      1.493969    0.052418   -2.345270
  O      0.974637   -0.409589   -1.081496
  P      1.984305   -1.012930    0.001350
  S      3.566080   -1.917668   -0.709987
  O      0.944708   -1.958346    0.748161
  C      1.405177   -3.068682    1.543751
  C      2.019644   -2.620126    2.854991
  S      2.340806    0.577706    1.358536
  C      0.625128    1.031605    1.751207
  S     -0.157779    2.064459    0.466325
  P     -1.703385    0.835002   -0.308029
  S     -1.948232    0.839536   -2.254816
  O     -2.992767    1.370259    0.473438
  C     -3.555189    2.652547    0.150402
  C     -4.765960    2.867672    1.035518
  O     -1.504128   -0.557101    0.415228
  C     -2.037265   -1.760951   -0.171105
  C     -3.547403   -1.799772   -0.084337
  H      1.739946    2.103572   -1.732555
  H      3.203393    1.110528   -1.587941
  H      2.643818    1.639755   -3.182393
  H      2.091179   -0.752259   -2.784838
  H      0.603838    0.226384   -2.952956
  H      0.509454   -3.670481    1.705392
  H      2.130694   -3.638771    0.954855
  H      2.929815   -2.052278    2.666723
  H      1.323711   -1.998342    3.412317
  H      2.268590   -3.495454    3.446586
  H      0.686075    1.638515    2.650294
  H      0.027847    0.137394    1.900656
  H     -2.792437    3.420208    0.320625
  H     -3.823333    2.655478   -0.911362
  H     -5.202449    3.835538    0.812451
  H     -5.503009    2.090877    0.854119
  H     -4.471213    2.837101    2.080326
  H     -1.701588   -1.819424   -1.211390
  H     -1.573548   -2.561309    0.405905
  H     -3.903337   -2.758810   -0.447540
  H     -3.868588   -1.656728    0.943939
  H     -3.971888   -1.008129   -0.700279

 Total Charge           Charge          ....    0
 Multiplicity           Mult            ....    1
 Number of Electrons    NEL             ....  202
 Basis Dimension        Dim             ....  334

ORBITAL ENERGIES
----------------

  NO   OCC          E(Eh)            E(eV)
   0   2.0000     -88.047887     -2395.9048
   1   2.0000     -88.044622     -2395.8160
   2   2.0000     -87.991783     -2394.3781
   3   2.0000     -87.989987     -2394.3293
   4   2.0000     -76.429270     -2079.7462
   5   2.0000     -76.428847     -2079.7347
   6   2.0000     -18.797434      -511.5042
   7   2.0000     -18.795288      -511.4458
   8   2.0000     -18.789507      -511.2885
   9   2.0000     -18.788776      -511.2686
  10   2.0000      -9.964538      -271.1489
  11   2.0000      -9.957009      -270.9440
  12   2.0000      -9.952479      -270.8207
  13   2.0000      -9.951341      -270.7898
  14   2.0000      -9.936000      -270.3723
  15   2.0000      -9.889084      -269.0957
  16   2.0000      -9.889051      -269.0948
  17   2.0000      -9.884069      -268.9592
  18   2.0000      -9.869219      -268.5551
  19   2.0000      -7.692948      -209.3358
  20   2.0000      -7.689795      -209.2500
  21   2.0000      -7.636924      -207.8113
  22   2.0000      -7.634921      -207.7568
  23   2.0000      -6.426842      -174.8833
  24   2.0000      -6.426421      -174.8718
  25   2.0000      -5.721028      -155.6771
  26   2.0000      -5.718202      -155.6002
  27   2.0000      -5.717260      -155.5746
  28   2.0000      -5.714067      -155.4877
  29   2.0000      -5.709933      -155.3752
  30   2.0000      -5.706385      -155.2786
  31   2.0000      -5.665917      -154.1775
  32   2.0000      -5.663816      -154.1203
  33   2.0000      -5.657347      -153.9442
  34   2.0000      -5.657207      -153.9404
  35   2.0000      -5.655828      -153.9029
  36   2.0000      -5.654814      -153.8753
  37   2.0000      -4.649395      -126.5165
  38   2.0000      -4.648767      -126.4994
  39   2.0000      -4.648687      -126.4972
  40   2.0000      -4.648527      -126.4928
  41   2.0000      -4.647236      -126.4577
  42   2.0000      -4.646755      -126.4446
  43   2.0000      -0.991252       -26.9733
  44   2.0000      -0.986452       -26.8427
  45   2.0000      -0.947000       -25.7692
  46   2.0000      -0.944584       -25.7034
  47   2.0000      -0.764448       -20.8017
  48   2.0000      -0.722246       -19.6533
  49   2.0000      -0.708853       -19.2889
  50   2.0000      -0.689342       -18.7579
  51   2.0000      -0.682639       -18.5756
  52   2.0000      -0.673153       -18.3174
  53   2.0000      -0.658162       -17.9095
  54   2.0000      -0.641685       -17.4611
  55   2.0000      -0.600519       -16.3409
  56   2.0000      -0.595662       -16.2088
  57   2.0000      -0.572474       -15.5778
  58   2.0000      -0.564064       -15.3490
  59   2.0000      -0.561388       -15.2761
  60   2.0000      -0.504935       -13.7400
  61   2.0000      -0.493720       -13.4348
  62   2.0000      -0.480592       -13.0776
  63   2.0000      -0.468225       -12.7410
  64   2.0000      -0.461581       -12.5603
  65   2.0000      -0.452021       -12.3001
  66   2.0000      -0.441586       -12.0162
  67   2.0000      -0.432575       -11.7710
  68   2.0000      -0.427070       -11.6212
  69   2.0000      -0.419053       -11.4030
  70   2.0000      -0.411856       -11.2072
  71   2.0000      -0.400196       -10.8899
  72   2.0000      -0.396446       -10.7879
  73   2.0000      -0.391195       -10.6450
  74   2.0000      -0.380610       -10.3569
  75   2.0000      -0.375063       -10.2060
  76   2.0000      -0.373093       -10.1524
  77   2.0000      -0.357850        -9.7376
  78   2.0000      -0.353486        -9.6188
  79   2.0000      -0.349117        -9.4999
  80   2.0000      -0.348950        -9.4954
  81   2.0000      -0.344050        -9.3621
  82   2.0000      -0.336667        -9.1612
  83   2.0000      -0.333708        -9.0807
  84   2.0000      -0.330519        -8.9939
  85   2.0000      -0.322989        -8.7890
  86   2.0000      -0.314298        -8.5525
  87   2.0000      -0.301937        -8.2161
  88   2.0000      -0.301497        -8.2041
  89   2.0000      -0.295226        -8.0335
  90   2.0000      -0.285365        -7.7652
  91   2.0000      -0.272517        -7.4156
  92   2.0000      -0.270411        -7.3583
  93   2.0000      -0.262844        -7.1523
  94   2.0000      -0.256508        -6.9799
  95   2.0000      -0.232482        -6.3262
  96   2.0000      -0.220389        -5.9971
  97   2.0000      -0.214099        -5.8259
  98   2.0000      -0.211299        -5.7497
  99   2.0000      -0.209279        -5.6948
 100   2.0000      -0.197634        -5.3779
 101   0.0000      -0.046068        -1.2536
 102   0.0000      -0.034034        -0.9261
 103   0.0000      -0.027248        -0.7415
 104   0.0000      -0.008502        -0.2313
 105   0.0000       0.009532         0.2594

MULLIKEN ATOMIC CHARGES
-----------------------
   0 C :   -0.318446
   1 C :   -0.014893
   2 O :   -0.374071
   3 P :    0.598008
   4 S :   -0.308774
   5 O :   -0.368008
   6 C :   -0.012398
   7 C :   -0.313052
   8 S :   -0.072826
   9 C :   -0.364492
  10 S :   -0.089736
  11 P :    0.636006
  12 S :   -0.326360
  13 O :   -0.374633
  14 C :   -0.017497
  15 C :   -0.276676
  16 O :   -0.375422
  17 C :   -0.011166
  18 C :   -0.297432
  19 H :    0.127939
  20 H :    0.116076
  21 H :    0.107916
  22 H :    0.108761
  23 H :    0.121277
  24 H :    0.106538
  25 H :    0.116895
  26 H :    0.129955
  27 H :    0.113382
  28 H :    0.114436
  29 H :    0.186711
  30 H :    0.213338
  31 H :    0.096494
  32 H :    0.105452
  33 H :    0.111786
  34 H :    0.117960
  35 H :    0.114441
  36 H :    0.116630
  37 H :    0.107295
  38 H :    0.111790
  39 H :    0.112998
  40 H :    0.123794
Sum of atomic charges:    0.0000000

LOEWDIN ATOMIC CHARGES
----------------------
   0 C :   -0.372273
   1 C :   -0.131354
   2 O :   -0.241733
   3 P :    0.577813
   4 S :   -0.305206
   5 O :   -0.236776
   6 C :   -0.120965
   7 C :   -0.367587
   8 S :    0.088495
   9 C :   -0.475802
  10 S :    0.085664
  11 P :    0.583595
  12 S :   -0.302748
  13 O :   -0.255327
  14 C :   -0.127085
  15 C :   -0.349900
  16 O :   -0.230268
  17 C :   -0.117461
  18 C :   -0.365258
  19 H :    0.119024
  20 H :    0.115420
  21 H :    0.129526
  22 H :    0.106568
  23 H :    0.110997
  24 H :    0.114808
  25 H :    0.111296
  26 H :    0.122565
  27 H :    0.122466
  28 H :    0.131906
  29 H :    0.140518
  30 H :    0.135336
  31 H :    0.102897
  32 H :    0.108168
  33 H :    0.130685
  34 H :    0.127564
  35 H :    0.126146
  36 H :    0.113656
  37 H :    0.116162
  38 H :    0.130747
  39 H :    0.125095
  40 H :    0.122626

  Mayer bond orders larger than 0.100000
B(  0-C ,  1-C ) :   1.1673 B(  0-C , 19-H ) :   0.9348 B(  0-C , 20-H ) :   0.9354
B(  0-C , 21-H ) :   0.9385 B(  1-C ,  2-O ) :   0.8907 B(  1-C , 22-H ) :   0.9166
B(  1-C , 23-H ) :   0.9059 B(  2-O ,  3-P ) :   1.0956 B(  3-P ,  4-S ) :   1.6414
B(  3-P ,  5-O ) :   1.0801 B(  3-P ,  8-S ) :   0.9708 B(  5-O ,  6-C ) :   0.9121
B(  6-C ,  7-C ) :   1.1632 B(  6-C , 24-H ) :   0.9285 B(  6-C , 25-H ) :   0.9114
B(  7-C , 26-H ) :   0.9357 B(  7-C , 27-H ) :   0.9464 B(  7-C , 28-H ) :   0.9380
B(  8-S ,  9-C ) :   0.9864 B(  9-C , 10-S ) :   0.9887 B(  9-C , 29-H ) :   0.9098
B(  9-C , 30-H ) :   0.8723 B( 10-S , 11-P ) :   0.9588 B( 11-P , 12-S ) :   1.6249
B( 11-P , 13-O ) :   1.0763 B( 11-P , 16-O ) :   1.1220 B( 13-O , 14-C ) :   0.9166
B( 14-C , 15-C ) :   1.1601 B( 14-C , 31-H ) :   0.9183 B( 14-C , 32-H ) :   0.9159
B( 15-C , 33-H ) :   0.9424 B( 15-C , 34-H ) :   0.9522 B( 15-C , 35-H ) :   0.9507
B( 16-O , 17-C ) :   0.8857 B( 17-C , 18-C ) :   1.1626 B( 17-C , 36-H ) :   0.9164
B( 17-C , 37-H ) :   0.9274 B( 18-C , 38-H ) :   0.9392 B( 18-C , 39-H ) :   0.9451
B( 18-C , 40-H ) :   0.9328

Dispersion correction           -0.068339376
FINAL SINGLE POINT ENERGY     -2929.516872811062

DIPOLE MOMENT
-------------

Method             : SCF
Type of density    : Electron Density
Multiplicity       :   1
Irrep              :   0
Energy             : -2929.6386054727222472 Eh
Relativity type    :
Basis              : AO
                                X                 Y                 Z
Electronic contribution:     14.871683246       3.265715738      -5.245923831
Nuclear contribution   :    -16.022606066      -3.396164554       6.547455520
                        -----------------------------------------
Total Dipole Moment    :     -1.150922820      -0.130448816       1.301531689
                        -----------------------------------------
Magnitude (a.u.)       :      1.742304499
Magnitude (Debye)      :      4.428586092

Rotational constants in cm-1:             0.012374             0.005461             0.005196
Rotational constants in MHz :           370.972882           163.724033           155.786635

                             ****ORCA TERMINATED NORMALLY****
TOTAL RUN TIME: 0 days 0 hours 0 minutes 22 seconds 503 msec
