                         Program Version 6.0.0  -   RELEASE  -
|  1> ! pbe def2-sv(p) def2/J RI DEFGRID1 loosescf d4 GCP(DFT/SV(P)) printgap
|  2> %output
|  3>     printlevel normal
|  4> end
|  5> * xyz 0 1
|  6> C 2.8880273438 0.5687905092 3.1809903749
|  7> C 2.2181682916 1.4956417181 2.1892314789
|  8> O 1.5223982076 0.7758031254 1.1426967485
|  9> P 2.2127493874 -0.2679299047 0.1741911348
| 10> S 2.5065008532 -2.0935119094 0.8392533225
| 11> O 3.505579859 0.5308918831 -0.2880293735
| 12> C 4.5381862594 -0.0797979926 -1.0899871967
| 13> C 5.6801685205 -0.5568233571 -0.2137946893
| 14> S 0.9271451965 -0.1698767518 -1.5116427976
| 15> C -0.1798786876 -1.5127479572 -1.0074641716
| 16> S -1.2008693864 -1.0766391179 0.4173312351
| 17> P -2.4217367448 0.3473047477 -0.6100551415
| 18> S -2.8237857945 -0.0546958617 -2.4782991146
| 19> O -1.6732755028 1.7272649548 -0.4565173962
| 20> C -1.3230719423 2.3245717034 0.8143711247
| 21> C -2.3809339497 3.3136286507 1.2584514627
| 22> O -3.6776527827 0.5213993238 0.3493729185
| 23> C -4.8488143879 -0.310069602 0.2467265873
| 24> C -4.56782686 -1.754027048 0.6075145071
| 25> H 2.1649872718 -0.1316139869 3.5928031046
| 26> H 3.6762593833 -0.0003380177 2.6901436112
| 27> H 3.3215340706 1.1542189674 3.9857817281
| 28> H 2.9465278769 2.1590255021 1.718369781
| 29> H 1.4283434688 2.082141326 2.6617014754
| 30> H 4.1113658874 -0.9086366195 -1.6607808225
| 31> H 4.8598537859 0.7065786388 -1.7750322834
| 32> H 6.4735920285 -0.9462366744 -0.8433641556
| 33> H 6.0655229327 0.2660776068 0.381674078
| 34> H 5.3370743831 -1.3470306641 0.4506554524
| 35> H 0.410888595 -2.3822057053 -0.7175576545
| 36> H -0.819888449 -1.7265524165 -1.8636127678
| 37> H -1.1838593696 1.5289760867 1.5523430967
| 38> H -0.3683580352 2.8190494239 0.6232556092
| 39> H -3.3194375522 2.8012424442 1.4508880325
| 40> H -2.0479792612 3.8062962147 2.166683104
| 41> H -2.5397383042 4.0582229086 0.4832237887
| 42> H -5.5535737854 0.1480762966 0.9420917334
| 43> H -5.2320840035 -0.2369937847 -0.775481696
| 44> H -4.0747485693 -1.8156240418 1.5744963554
| 45> H -5.5040910817 -2.3016289319 0.6440049157
| 46> H -3.9240660557 -2.2081840871 -0.1441319915
| 47> *
| 48>
| 49>                          ****END OF INPUT****

CARTESIAN COORDINATES (ANGSTROEM)
---------------------------------
  C      2.888027    0.568791    3.180990
  C      2.218168    1.495642    2.189231
  O      1.522398    0.775803    1.142697
  P      2.212749   -0.267930    0.174191
  S      2.506501   -2.093512    0.839253
  O      3.505580    0.530892   -0.288029
  C      4.538186   -0.079798   -1.089987
  C      5.680169   -0.556823   -0.213795
  S      0.927145   -0.169877   -1.511643
  C     -0.179879   -1.512748   -1.007464
  S     -1.200869   -1.076639    0.417331
  P     -2.421737    0.347305   -0.610055
  S     -2.823786   -0.054696   -2.478299
  O     -1.673276    1.727265   -0.456517
  C     -1.323072    2.324572    0.814371
  C     -2.380934    3.313629    1.258451
  O     -3.677653    0.521399    0.349373
  C     -4.848814   -0.310070    0.246727
  C     -4.567827   -1.754027    0.607515
  H      2.164987   -0.131614    3.592803
  H      3.676259   -0.000338    2.690144
  H      3.321534    1.154219    3.985782
  H      2.946528    2.159026    1.718370
  H      1.428343    2.082141    2.661701
  H      4.111366   -0.908637   -1.660781
  H      4.859854    0.706579   -1.775032
  H      6.473592   -0.946237   -0.843364
  H      6.065523    0.266078    0.381674
  H      5.337074   -1.347031    0.450655
  H      0.410889   -2.382206   -0.717558
  H     -0.819888   -1.726552   -1.863613
  H     -1.183859    1.528976    1.552343
  H     -0.368358    2.819049    0.623256
  H     -3.319438    2.801242    1.450888
  H     -2.047979    3.806296    2.166683
  H     -2.539738    4.058223    0.483224
  H     -5.553574    0.148076    0.942092
  H     -5.232084   -0.236994   -0.775482
  H     -4.074749   -1.815624    1.574496
  H     -5.504091   -2.301629    0.644005
  H     -3.924066   -2.208184   -0.144132

 Total Charge           Charge          ....    0
 Multiplicity           Mult            ....    1
 Number of Electrons    NEL             ....  202
 Basis Dimension        Dim             ....  334

ORBITAL ENERGIES
----------------

  NO   OCC          E(Eh)            E(eV)
   0   2.0000     -88.037900     -2395.6331
   1   2.0000     -88.037334     -2395.6177
   2   2.0000     -87.988793     -2394.2968
   3   2.0000     -87.983511     -2394.1530
   4   2.0000     -76.429543     -2079.7536
   5   2.0000     -76.423601     -2079.5919
   6   2.0000     -18.799977      -511.5734
   7   2.0000     -18.794718      -511.4303
   8   2.0000     -18.793806      -511.4055
   9   2.0000     -18.786841      -511.2159
  10   2.0000      -9.961357      -271.0623
  11   2.0000      -9.959248      -271.0049
  12   2.0000      -9.953325      -270.8437
  13   2.0000      -9.951011      -270.7808
  14   2.0000      -9.947289      -270.6795
  15   2.0000      -9.888249      -269.0729
  16   2.0000      -9.886636      -269.0290
  17   2.0000      -9.883913      -268.9549
  18   2.0000      -9.883049      -268.9314
  19   2.0000      -7.683139      -209.0688
  20   2.0000      -7.682119      -209.0411
  21   2.0000      -7.633854      -207.7277
  22   2.0000      -7.628860      -207.5918
  23   2.0000      -6.426954      -174.8863
  24   2.0000      -6.421099      -174.7270
  25   2.0000      -5.710990      -155.4039
  26   2.0000      -5.709855      -155.3731
  27   2.0000      -5.707777      -155.3165
  28   2.0000      -5.706774      -155.2892
  29   2.0000      -5.700008      -155.1051
  30   2.0000      -5.699129      -155.0812
  31   2.0000      -5.662619      -154.0877
  32   2.0000      -5.657806      -153.9567
  33   2.0000      -5.654487      -153.8664
  34   2.0000      -5.654157      -153.8574
  35   2.0000      -5.649329      -153.7261
  36   2.0000      -5.649087      -153.7195
  37   2.0000      -4.650008      -126.5331
  38   2.0000      -4.648480      -126.4916
  39   2.0000      -4.647225      -126.4574
  40   2.0000      -4.644037      -126.3707
  41   2.0000      -4.642730      -126.3351
  42   2.0000      -4.641365      -126.2980
  43   2.0000      -0.992750       -27.0141
  44   2.0000      -0.986271       -26.8378
  45   2.0000      -0.948935       -25.8218
  46   2.0000      -0.943230       -25.6666
  47   2.0000      -0.761510       -20.7217
  48   2.0000      -0.721675       -19.6378
  49   2.0000      -0.709200       -19.2983
  50   2.0000      -0.693354       -18.8671
  51   2.0000      -0.689075       -18.7507
  52   2.0000      -0.674175       -18.3452
  53   2.0000      -0.651372       -17.7247
  54   2.0000      -0.636688       -17.3252
  55   2.0000      -0.597722       -16.2648
  56   2.0000      -0.591792       -16.1035
  57   2.0000      -0.580521       -15.7968
  58   2.0000      -0.573102       -15.5949
  59   2.0000      -0.558711       -15.2033
  60   2.0000      -0.507408       -13.8073
  61   2.0000      -0.495533       -13.4841
  62   2.0000      -0.478185       -13.0121
  63   2.0000      -0.472910       -12.8685
  64   2.0000      -0.459256       -12.4970
  65   2.0000      -0.447583       -12.1794
  66   2.0000      -0.441703       -12.0193
  67   2.0000      -0.434979       -11.8364
  68   2.0000      -0.426615       -11.6088
  69   2.0000      -0.417847       -11.3702
  70   2.0000      -0.415230       -11.2990
  71   2.0000      -0.399344       -10.8667
  72   2.0000      -0.390794       -10.6340
  73   2.0000      -0.389892       -10.6095
  74   2.0000      -0.376053       -10.2329
  75   2.0000      -0.371439       -10.1074
  76   2.0000      -0.365467        -9.9449
  77   2.0000      -0.359331        -9.7779
  78   2.0000      -0.353899        -9.6301
  79   2.0000      -0.351802        -9.5730
  80   2.0000      -0.350734        -9.5439
  81   2.0000      -0.345450        -9.4002
  82   2.0000      -0.343174        -9.3383
  83   2.0000      -0.340547        -9.2668
  84   2.0000      -0.338144        -9.2014
  85   2.0000      -0.323776        -8.8104
  86   2.0000      -0.311542        -8.4775
  87   2.0000      -0.303026        -8.2458
  88   2.0000      -0.295057        -8.0289
  89   2.0000      -0.294572        -8.0157
  90   2.0000      -0.290265        -7.8985
  91   2.0000      -0.281056        -7.6479
  92   2.0000      -0.267872        -7.2892
  93   2.0000      -0.262862        -7.1529
  94   2.0000      -0.257886        -7.0174
  95   2.0000      -0.233813        -6.3624
  96   2.0000      -0.215152        -5.8546
  97   2.0000      -0.211752        -5.7621
  98   2.0000      -0.202066        -5.4985
  99   2.0000      -0.198533        -5.4024
 100   2.0000      -0.197874        -5.3844
 101   0.0000      -0.043043        -1.1713
 102   0.0000      -0.021963        -0.5976
 103   0.0000      -0.003185        -0.0867
 104   0.0000       0.002056         0.0559
 105   0.0000       0.014477         0.3939

MULLIKEN ATOMIC CHARGES
-----------------------
   0 C :   -0.316232
   1 C :   -0.005104
   2 O :   -0.365699
   3 P :    0.621604
   4 S :   -0.334329
   5 O :   -0.385738
   6 C :   -0.007218
   7 C :   -0.296389
   8 S :   -0.064172
   9 C :   -0.379240
  10 S :   -0.085070
  11 P :    0.604415
  12 S :   -0.317683
  13 O :   -0.348700
  14 C :   -0.021490
  15 C :   -0.285267
  16 O :   -0.384023
  17 C :   -0.000428
  18 C :   -0.315702
  19 H :    0.128088
  20 H :    0.131959
  21 H :    0.110738
  22 H :    0.111479
  23 H :    0.103550
  24 H :    0.106854
  25 H :    0.109931
  26 H :    0.111565
  27 H :    0.111139
  28 H :    0.131587
  29 H :    0.195553
  30 H :    0.193007
  31 H :    0.109058
  32 H :    0.112005
  33 H :    0.120569
  34 H :    0.104027
  35 H :    0.118384
  36 H :    0.103754
  37 H :    0.113679
  38 H :    0.117636
  39 H :    0.113238
  40 H :    0.128666
Sum of atomic charges:   -0.0000000

LOEWDIN ATOMIC CHARGES
----------------------
   0 C :   -0.367418
   1 C :   -0.109001
   2 O :   -0.241159
   3 P :    0.571823
   4 S :   -0.316321
   5 O :   -0.249174
   6 C :   -0.114231
   7 C :   -0.362831
   8 S :    0.088370
   9 C :   -0.490373
  10 S :    0.079705
  11 P :    0.573125
  12 S :   -0.311105
  13 O :   -0.231316
  14 C :   -0.115609
  15 C :   -0.360418
  16 O :   -0.248799
  17 C :   -0.116276
  18 C :   -0.370663
  19 H :    0.131543
  20 H :    0.122771
  21 H :    0.129745
  22 H :    0.113851
  23 H :    0.116182
  24 H :    0.111414
  25 H :    0.119985
  26 H :    0.130835
  27 H :    0.123712
  28 H :    0.125280
  29 H :    0.127218
  30 H :    0.128043
  31 H :    0.104227
  32 H :    0.118763
  33 H :    0.125371
  34 H :    0.126651
  35 H :    0.128303
  36 H :    0.117764
  37 H :    0.113373
  38 H :    0.123544
  39 H :    0.131186
  40 H :    0.121909

  Mayer bond orders larger than 0.100000
B(  0-C ,  1-C ) :   1.1691 B(  0-C , 19-H ) :   0.9436 B(  0-C , 20-H ) :   0.9344
B(  0-C , 21-H ) :   0.9346 B(  1-C ,  2-O ) :   0.9055 B(  1-C , 22-H ) :   0.9301
B(  1-C , 23-H ) :   0.9307 B(  2-O ,  3-P ) :   1.1181 B(  3-P ,  4-S ) :   1.6068
B(  3-P ,  5-O ) :   1.0887 B(  3-P ,  8-S ) :   0.9659 B(  4-S ,  8-S ) :   0.1203
B(  5-O ,  6-C ) :   0.8979 B(  6-C ,  7-C ) :   1.1687 B(  6-C , 24-H ) :   0.9140
B(  6-C , 25-H ) :   0.9351 B(  7-C , 26-H ) :   0.9396 B(  7-C , 27-H ) :   0.9468
B(  7-C , 28-H ) :   0.9322 B(  8-S ,  9-C ) :   1.0056 B(  9-C , 10-S ) :   1.0072
B(  9-C , 29-H ) :   0.8712 B(  9-C , 30-H ) :   0.8731 B( 10-S , 11-P ) :   0.9480
B( 10-S , 12-S ) :   0.1093 B( 11-P , 12-S ) :   1.6315 B( 11-P , 13-O ) :   1.1432
B( 11-P , 16-O ) :   1.0805 B( 13-O , 14-C ) :   0.8959 B( 14-C , 15-C ) :   1.1557
B( 14-C , 31-H ) :   0.9120 B( 14-C , 32-H ) :   0.9326 B( 15-C , 33-H ) :   0.9411
B( 15-C , 34-H ) :   0.9407 B( 15-C , 35-H ) :   0.9461 B( 16-O , 17-C ) :   0.9055
B( 17-C , 18-C ) :   1.1665 B( 17-C , 36-H ) :   0.9341 B( 17-C , 37-H ) :   0.9185
B( 18-C , 38-H ) :   0.9436 B( 18-C , 39-H ) :   0.9368 B( 18-C , 40-H ) :   0.9347

Dispersion correction           -0.065199437
FINAL SINGLE POINT ENERGY     -2929.520483780301

DIPOLE MOMENT
-------------

Method             : SCF
Type of density    : Electron Density
Multiplicity       :   1
Irrep              :   0
Energy             : -2929.6406131500002630 Eh
Relativity type    :
Basis              : AO
                                X                 Y                 Z
Electronic contribution:     -5.481490531      -6.281100461     -15.304171485
Nuclear contribution   :      6.042107876       7.139613536      16.558174145
                        -----------------------------------------
Total Dipole Moment    :      0.560617345       0.858513075       1.254002660
                        -----------------------------------------
Magnitude (a.u.)       :      1.619833071
Magnitude (Debye)      :      4.117288460

Rotational constants in cm-1:             0.013651             0.004627             0.004313
Rotational constants in MHz :           409.239224           138.716700           129.309653

                             ****ORCA TERMINATED NORMALLY****
TOTAL RUN TIME: 0 days 0 hours 0 minutes 20 seconds 975 msec
