                         Program Version 6.0.1  -  RELEASE   -
|  1> ! pbe def2-sv(p) def2/J RI DEFGRID1 loosescf d4 GCP(DFT/SV(P)) printgap
|  2> %output
|  3>     printlevel normal
|  4> end
|  5> * xyz 0 1
|  6> C 4.8621076748 0.3204401088 -1.8111278639
|  7> C 4.5876131092 -0.8160754051 -0.8419966488
|  8> O 3.1964727506 -1.180561837 -0.9396940518
|  9> C 2.4759018322 -1.2833343826 0.156718704
| 10> O 2.9034375696 -1.1684139864 1.2829539198
| 11> C 1.0210696989 -1.5734034738 -0.1736131818
| 12> C 0.4409399214 -0.4404479931 -1.0253522081
| 13> H 1.0031560034 -0.3550383404 -1.958717108
| 14> C 0.4855953118 0.8750618012 -0.2772352222
| 15> O -0.5212228339 1.4688257304 0.0599171566
| 16> O 1.7014096562 1.2704951568 -0.0335166874
| 17> C 1.8918838198 2.4374641101 0.8015944244
| 18> C 3.2720716919 2.3516689051 1.4222741383
| 19> S -1.2800504438 -0.7552352108 -1.5111506512
| 20> P -2.3648500065 -0.2439389531 0.2625423202
| 21> S -1.6064034673 -0.3769037765 2.0672769687
| 22> O -3.2804828778 1.0226218177 -0.077561731
| 23> C -3.0889546237 2.3779331913 0.3228440313
| 24> O -3.486273348 -1.3763557741 0.1819604293
| 25> C -4.3442858401 -1.570598649 -0.9542917766
| 26> H 4.2286442642 1.1713602145 -1.5757307421
| 27> H 5.9032859477 0.6151476601 -1.7327060404
| 28> H 4.6561031637 0.0013867026 -2.8283420972
| 29> H 4.7997366714 -0.5308964872 0.191913572
| 30> H 5.1671604866 -1.705388252 -1.1007886226
| 31> H 0.4671768194 -1.6796809321 0.7619574741
| 32> H 0.96127441 -2.502489152 -0.7414147609
| 33> H 1.7829103069 3.3214667367 0.1674346765
| 34> H 1.1054155726 2.4426043911 1.5619012024
| 35> H 3.3745900809 1.4126084609 1.9611374401
| 36> H 4.0388805581 2.4044775842 0.6555082234
| 37> H 3.4020624623 3.1756933408 2.1155868488
| 38> H -2.5899067458 2.4202165402 1.2908821532
| 39> H -4.0872173369 2.8056906606 0.3889336299
| 40> H -2.4901298386 2.900026997 -0.4208929707
| 41> H -3.7463523972 -1.7657589279 -1.8448919474
| 42> H -4.9661818941 -0.6903342249 -1.1059437908
| 43> H -4.9533531107 -2.4356733646 -0.7045526145
| 44> *
| 45>
| 46>                          ****END OF INPUT****

CARTESIAN COORDINATES (ANGSTROEM)
---------------------------------
  C      4.862108    0.320440   -1.811128
  C      4.587613   -0.816075   -0.841997
  O      3.196473   -1.180562   -0.939694
  C      2.475902   -1.283334    0.156719
  O      2.903438   -1.168414    1.282954
  C      1.021070   -1.573403   -0.173613
  C      0.440940   -0.440448   -1.025352
  H      1.003156   -0.355038   -1.958717
  C      0.485595    0.875062   -0.277235
  O     -0.521223    1.468826    0.059917
  O      1.701410    1.270495   -0.033517
  C      1.891884    2.437464    0.801594
  C      3.272072    2.351669    1.422274
  S     -1.280050   -0.755235   -1.511151
  P     -2.364850   -0.243939    0.262542
  S     -1.606403   -0.376904    2.067277
  O     -3.280483    1.022622   -0.077562
  C     -3.088955    2.377933    0.322844
  O     -3.486273   -1.376356    0.181960
  C     -4.344286   -1.570599   -0.954292
  H      4.228644    1.171360   -1.575731
  H      5.903286    0.615148   -1.732706
  H      4.656103    0.001387   -2.828342
  H      4.799737   -0.530896    0.191914
  H      5.167160   -1.705388   -1.100789
  H      0.467177   -1.679681    0.761957
  H      0.961274   -2.502489   -0.741415
  H      1.782910    3.321467    0.167435
  H      1.105416    2.442604    1.561901
  H      3.374590    1.412608    1.961137
  H      4.038881    2.404478    0.655508
  H      3.402062    3.175693    2.115587
  H     -2.589907    2.420217    1.290882
  H     -4.087217    2.805691    0.388934
  H     -2.490130    2.900027   -0.420893
  H     -3.746352   -1.765759   -1.844892
  H     -4.966182   -0.690334   -1.105944
  H     -4.953353   -2.435673   -0.704553

 Total Charge           Charge          ....    0
 Multiplicity           Mult            ....    1
 Number of Electrons    NEL             ....  174
 Basis Dimension        Dim             ....  316

ORBITAL ENERGIES
----------------

  NO   OCC          E(Eh)            E(eV)
   0   2.0000     -88.033450     -2395.5119
   1   2.0000     -87.967346     -2393.7132
   2   2.0000     -76.418091     -2079.4420
   3   2.0000     -18.829752      -512.3836
   4   2.0000     -18.806133      -511.7409
   5   2.0000     -18.780547      -511.0447
   6   2.0000     -18.771369      -510.7949
   7   2.0000     -18.763107      -510.5701
   8   2.0000     -18.738789      -509.9084
   9   2.0000     -10.032995      -273.0117
  10   2.0000     -10.011794      -272.4348
  11   2.0000      -9.961448      -271.0648
  12   2.0000      -9.955576      -270.9050
  13   2.0000      -9.952328      -270.8166
  14   2.0000      -9.937532      -270.4140
  15   2.0000      -9.933838      -270.3135
  16   2.0000      -9.906702      -269.5751
  17   2.0000      -9.895611      -269.2733
  18   2.0000      -9.894094      -269.2320
  19   2.0000      -7.678604      -208.9454
  20   2.0000      -7.612647      -207.1507
  21   2.0000      -6.413571      -174.5221
  22   2.0000      -5.706666      -155.2863
  23   2.0000      -5.703219      -155.1925
  24   2.0000      -5.695218      -154.9747
  25   2.0000      -5.642135      -153.5303
  26   2.0000      -5.633496      -153.2952
  27   2.0000      -5.631960      -153.2534
  28   2.0000      -4.636488      -126.1652
  29   2.0000      -4.635470      -126.1375
  30   2.0000      -4.634087      -126.0999
  31   2.0000      -1.039115       -28.2758
  32   2.0000      -1.013217       -27.5710
  33   2.0000      -0.970183       -26.4000
  34   2.0000      -0.942618       -25.6499
  35   2.0000      -0.924654       -25.1611
  36   2.0000      -0.916704       -24.9448
  37   2.0000      -0.770111       -20.9558
  38   2.0000      -0.719706       -19.5842
  39   2.0000      -0.715658       -19.4740
  40   2.0000      -0.688450       -18.7337
  41   2.0000      -0.657035       -17.8788
  42   2.0000      -0.628134       -17.0924
  43   2.0000      -0.624127       -16.9834
  44   2.0000      -0.605234       -16.4693
  45   2.0000      -0.593708       -16.1556
  46   2.0000      -0.566666       -15.4198
  47   2.0000      -0.525088       -14.2884
  48   2.0000      -0.512093       -13.9348
  49   2.0000      -0.504885       -13.7386
  50   2.0000      -0.486999       -13.2519
  51   2.0000      -0.469268       -12.7694
  52   2.0000      -0.468038       -12.7359
  53   2.0000      -0.454634       -12.3712
  54   2.0000      -0.452004       -12.2996
  55   2.0000      -0.436530       -11.8786
  56   2.0000      -0.420793       -11.4504
  57   2.0000      -0.415184       -11.2977
  58   2.0000      -0.414416       -11.2768
  59   2.0000      -0.405583       -11.0365
  60   2.0000      -0.402793       -10.9606
  61   2.0000      -0.392016       -10.6673
  62   2.0000      -0.387961       -10.5569
  63   2.0000      -0.382880       -10.4187
  64   2.0000      -0.379099       -10.3158
  65   2.0000      -0.370678       -10.0866
  66   2.0000      -0.366230        -9.9656
  67   2.0000      -0.361418        -9.8347
  68   2.0000      -0.350041        -9.5251
  69   2.0000      -0.342551        -9.3213
  70   2.0000      -0.338803        -9.2193
  71   2.0000      -0.331817        -9.0292
  72   2.0000      -0.329751        -8.9730
  73   2.0000      -0.312550        -8.5049
  74   2.0000      -0.310027        -8.4363
  75   2.0000      -0.299265        -8.1434
  76   2.0000      -0.291255        -7.9255
  77   2.0000      -0.286812        -7.8045
  78   2.0000      -0.284367        -7.7380
  79   2.0000      -0.261886        -7.1263
  80   2.0000      -0.260422        -7.0865
  81   2.0000      -0.250786        -6.8242
  82   2.0000      -0.246690        -6.7128
  83   2.0000      -0.227021        -6.1776
  84   2.0000      -0.208726        -5.6797
  85   2.0000      -0.188470        -5.1285
  86   2.0000      -0.179010        -4.8711
  87   0.0000      -0.048554        -1.3212
  88   0.0000      -0.040270        -1.0958
  89   0.0000      -0.022958        -0.6247
  90   0.0000       0.003614         0.0983
  91   0.0000       0.022811         0.6207

MULLIKEN ATOMIC CHARGES
-----------------------
   0 C :   -0.298706
   1 C :   -0.026924
   2 O :   -0.243721
   3 C :    0.100847
   4 O :   -0.189181
   5 C :   -0.040241
   6 C :   -0.317759
   7 H :    0.154984
   8 C :    0.223388
   9 O :   -0.193032
  10 O :   -0.221084
  11 C :   -0.029182
  12 C :   -0.307670
  13 S :   -0.111983
  14 P :    0.636459
  15 S :   -0.323224
  16 O :   -0.399983
  17 C :   -0.077659
  18 O :   -0.371508
  19 C :   -0.112557
  20 H :    0.118639
  21 H :    0.113434
  22 H :    0.114374
  23 H :    0.119483
  24 H :    0.108257
  25 H :    0.125902
  26 H :    0.120879
  27 H :    0.107795
  28 H :    0.129696
  29 H :    0.152232
  30 H :    0.116280
  31 H :    0.115666
  32 H :    0.115757
  33 H :    0.115257
  34 H :    0.110053
  35 H :    0.119477
  36 H :    0.117759
  37 H :    0.127796
Sum of atomic charges:    0.0000000

LOEWDIN ATOMIC CHARGES
----------------------
   0 C :   -0.354036
   1 C :   -0.110049
   2 O :   -0.063953
   3 C :    0.022121
   4 O :   -0.159021
   5 C :   -0.247964
   6 C :   -0.265709
   7 H :    0.148730
   8 C :    0.029473
   9 O :   -0.148041
  10 O :   -0.030399
  11 C :   -0.101366
  12 C :   -0.355650
  13 S :    0.088536
  14 P :    0.585902
  15 S :   -0.324063
  16 O :   -0.255539
  17 C :   -0.206619
  18 O :   -0.256193
  19 C :   -0.214853
  20 H :    0.122508
  21 H :    0.130662
  22 H :    0.125693
  23 H :    0.121099
  24 H :    0.119079
  25 H :    0.136524
  26 H :    0.143590
  27 H :    0.118154
  28 H :    0.127913
  29 H :    0.139560
  30 H :    0.123040
  31 H :    0.133608
  32 H :    0.111528
  33 H :    0.115412
  34 H :    0.110410
  35 H :    0.103527
  36 H :    0.112299
  37 H :    0.124090

  Mayer bond orders larger than 0.100000
B(  0-C ,  1-C ) :   1.1672 B(  0-C , 20-H ) :   0.9409 B(  0-C , 21-H ) :   0.9448
B(  0-C , 22-H ) :   0.9474 B(  1-C ,  2-O ) :   0.9089 B(  1-C , 23-H ) :   0.9071
B(  1-C , 24-H ) :   0.9357 B(  2-O ,  3-C ) :   1.1927 B(  3-C ,  4-O ) :   2.0641
B(  3-C ,  5-C ) :   1.0103 B(  5-C ,  6-C ) :   1.0250 B(  5-C , 25-H ) :   0.8742
B(  5-C , 26-H ) :   0.8877 B(  6-C ,  7-H ) :   0.8688 B(  6-C ,  8-C ) :   0.9078
B(  6-C , 13-S ) :   1.0494 B(  8-C ,  9-O ) :   1.9342 B(  8-C , 10-O ) :   1.2654
B(  9-O , 14-P ) :   0.1167 B( 10-O , 11-C ) :   0.8770 B( 11-C , 12-C ) :   1.1619
B( 11-C , 27-H ) :   0.9360 B( 11-C , 28-H ) :   0.9201 B( 12-C , 29-H ) :   0.9351
B( 12-C , 30-H ) :   0.9452 B( 12-C , 31-H ) :   0.9396 B( 13-S , 14-P ) :   0.9130
B( 13-S , 15-S ) :   0.1106 B( 14-P , 15-S ) :   1.5850 B( 14-P , 16-O ) :   1.0830
B( 14-P , 18-O ) :   1.0977 B( 16-O , 17-C ) :   0.9306 B( 17-C , 32-H ) :   0.9414
B( 17-C , 33-H ) :   0.9539 B( 17-C , 34-H ) :   0.9532 B( 18-O , 19-C ) :   0.9358
B( 19-C , 35-H ) :   0.9367 B( 19-C , 36-H ) :   0.9456 B( 19-C , 37-H ) :   0.9607

Dispersion correction           -0.052648075
FINAL SINGLE POINT ENERGY     -1979.006087614852

DIPOLE MOMENT
-------------

Method             : SCF
Type of density    : Electron Density
Multiplicity       :   1
Irrep              :   0
Energy             : -1979.1384611079547540 Eh
Relativity type    :
Basis              : AO
                                X                 Y                 Z
Electronic contribution:    -18.101348170      -9.426894706       3.221123592
Nuclear contribution   :     19.144969770      10.576246375      -4.858268878
                        -----------------------------------------
Total Dipole Moment    :      1.043621600       1.149351669      -1.637145286
                        -----------------------------------------
Magnitude (a.u.)       :      2.256191479
Magnitude (Debye)      :      5.734782989

Rotational constants in cm-1:             0.017707             0.006094             0.005501
Rotational constants in MHz :           530.854392           182.695637           164.925050

                             ****ORCA TERMINATED NORMALLY****
TOTAL RUN TIME: 0 days 0 hours 0 minutes 32 seconds 297 msec
