                         Program Version 6.0.0  -   RELEASE  -
|  1> ! pbe def2-sv(p) def2/J RI DEFGRID1 loosescf d4 GCP(DFT/SV(P)) printgap
|  2> %output
|  3>     printlevel normal
|  4> end
|  5> * xyz 0 1
|  6> C -0.7506072655 -1.1716546001 0.3240408029
|  7> C 0.7466878245 -1.2785788418 0.0140780607
|  8> C 1.4093605425 0.0786338091 -0.3082375901
|  9> C 0.6434847935 1.2536640007 0.2149541492
| 10> C -0.6782129368 1.2654537261 0.1464757748
| 11> C -1.3816611635 0.0453776397 -0.3596693815
| 12> H -0.8947810406 -1.0609899352 1.4009728208
| 13> H -1.2589429364 -2.0851422768 0.0127113085
| 14> H 1.2496407806 -1.7292391641 0.8707575053
| 15> H 0.8969735995 -1.9455198175 -0.8362298954
| 16> H 2.4312848806 0.0912728302 0.0717014184
| 17> H 1.468747618 0.1863729505 -1.3960553718
| 18> H 1.2048122477 2.0924574999 0.5990349095
| 19> H -1.2647311972 2.1045532925 0.4883987549
| 20> H -2.449745893 0.0892510394 -0.1460294579
| 21> H -1.2527980066 -0.0415837836 -1.4423094488
| 22> *
| 23>
| 24>                          ****END OF INPUT****

CARTESIAN COORDINATES (ANGSTROEM)
---------------------------------
  C     -0.750607   -1.171655    0.324041
  C      0.746688   -1.278579    0.014078
  C      1.409361    0.078634   -0.308238
  C      0.643485    1.253664    0.214954
  C     -0.678213    1.265454    0.146476
  C     -1.381661    0.045378   -0.359669
  H     -0.894781   -1.060990    1.400973
  H     -1.258943   -2.085142    0.012711
  H      1.249641   -1.729239    0.870758
  H      0.896974   -1.945520   -0.836230
  H      2.431285    0.091273    0.071701
  H      1.468748    0.186373   -1.396055
  H      1.204812    2.092457    0.599035
  H     -1.264731    2.104553    0.488399
  H     -2.449746    0.089251   -0.146029
  H     -1.252798   -0.041584   -1.442309

 Total Charge           Charge          ....    0
 Multiplicity           Mult            ....    1
 Number of Electrons    NEL             ....   46
 Basis Dimension        Dim             ....  104

ORBITAL ENERGIES
----------------

  NO   OCC          E(Eh)            E(eV)
   0   2.0000      -9.883632      -268.9473
   1   2.0000      -9.882518      -268.9170
   2   2.0000      -9.881511      -268.8896
   3   2.0000      -9.880422      -268.8600
   4   2.0000      -9.877187      -268.7719
   5   2.0000      -9.876031      -268.7405
   6   2.0000      -0.751999       -20.4629
   7   2.0000      -0.660620       -17.9764
   8   2.0000      -0.659517       -17.9464
   9   2.0000      -0.550499       -14.9798
  10   2.0000      -0.525592       -14.3021
  11   2.0000      -0.446093       -12.1388
  12   2.0000      -0.442805       -12.0493
  13   2.0000      -0.419721       -11.4212
  14   2.0000      -0.362084        -9.8528
  15   2.0000      -0.354417        -9.6442
  16   2.0000      -0.351825        -9.5737
  17   2.0000      -0.331207        -9.0126
  18   2.0000      -0.330333        -8.9888
  19   2.0000      -0.283709        -7.7201
  20   2.0000      -0.273142        -7.4326
  21   2.0000      -0.260279        -7.0826
  22   2.0000      -0.209129        -5.6907
  23   0.0000      -0.008356        -0.2274
  24   0.0000       0.033623         0.9149
  25   0.0000       0.059379         1.6158
  26   0.0000       0.077418         2.1067
  27   0.0000       0.082032         2.2322

MULLIKEN ATOMIC CHARGES
-----------------------
   0 C :   -0.165633
   1 C :   -0.154715
   2 C :   -0.101114
   3 C :   -0.141715
   4 C :   -0.149401
   5 C :   -0.093165
   6 H :    0.084190
   7 H :    0.082154
   8 H :    0.086593
   9 H :    0.076943
  10 H :    0.085356
  11 H :    0.096155
  12 H :    0.060053
  13 H :    0.059260
  14 H :    0.083154
  15 H :    0.091886
Sum of atomic charges:   -0.0000000

LOEWDIN ATOMIC CHARGES
----------------------
   0 C :   -0.222236
   1 C :   -0.226255
   2 C :   -0.227333
   3 C :   -0.149009
   4 C :   -0.149412
   5 C :   -0.224929
   6 H :    0.117502
   7 H :    0.115552
   8 H :    0.119583
   9 H :    0.115999
  10 H :    0.121875
  11 H :    0.130232
  12 H :    0.116890
  13 H :    0.117494
  14 H :    0.119661
  15 H :    0.124386

  Mayer bond orders larger than 0.100000
B(  0-C ,  1-C ) :   1.1538 B(  0-C ,  5-C ) :   1.1463 B(  0-C ,  6-H ) :   0.9171
B(  0-C ,  7-H ) :   0.9208 B(  1-C ,  2-C ) :   1.1222 B(  1-C ,  8-H ) :   0.9279
B(  1-C ,  9-H ) :   0.9198 B(  2-C ,  3-C ) :   1.1080 B(  2-C , 10-H ) :   0.9213
B(  2-C , 11-H ) :   0.8940 B(  3-C ,  4-C ) :   1.9243 B(  3-C , 12-H ) :   0.9512
B(  4-C ,  5-C ) :   1.0798 B(  4-C , 13-H ) :   0.9523 B(  5-C , 14-H ) :   0.9186
B(  5-C , 15-H ) :   0.8935

Dispersion correction           -0.013430588
FINAL SINGLE POINT ENERGY      -234.062703607391

DIPOLE MOMENT
-------------

Method             : SCF
Type of density    : Electron Density
Multiplicity       :   1
Irrep              :   0
Energy             :  -234.1139145630190797 Eh
Relativity type    :
Basis              : AO
                                X                 Y                 Z
Electronic contribution:     -0.104405224       2.045823808       0.307939209
Nuclear contribution   :      0.122393992      -2.156451957      -0.353735434
                        -----------------------------------------
Total Dipole Moment    :      0.017988768      -0.110628149      -0.045796225
                        -----------------------------------------
Magnitude (a.u.)       :      0.121076329
Magnitude (Debye)      :      0.307751571

Rotational constants in cm-1:             0.158122             0.154470             0.088699
Rotational constants in MHz :          4740.378207          4630.880316          2659.140110

                             ****ORCA TERMINATED NORMALLY****
TOTAL RUN TIME: 0 days 0 hours 0 minutes 21 seconds 798 msec
