                         Program Version 6.0.0  -   RELEASE  -
|  1> ! pbe def2-sv(p) def2/J RI DEFGRID1 loosescf d4 GCP(DFT/SV(P)) printgap
|  2> %output
|  3>     printlevel normal
|  4> end
|  5> * xyz 0 1
|  6> C -0.6947295756 -0.5496727929 -0.3283686952
|  7> C 0.6889253463 -0.5799759904 0.3232707876
|  8> O 1.4550445263 0.5034758206 -0.1598735835
|  9> O -1.4957983819 0.5310716698 0.0838304136
| 10> H -1.2009158278 -1.5027568941 -0.1230954385
| 11> H -0.5766606421 -0.4304714696 -1.4070391429
| 12> H 1.1670979835 -1.5340574954 0.0663058866
| 13> H 0.5820203594 -0.5174378948 1.414725934
| 14> H 2.32160777 0.5034240498 0.2686540591
| 15> H -1.5770852271 0.5205790337 1.0482564466
| 16> *
| 17>
| 18>                          ****END OF INPUT****

CARTESIAN COORDINATES (ANGSTROEM)
---------------------------------
  C     -0.694730   -0.549673   -0.328369
  C      0.688925   -0.579976    0.323271
  O      1.455045    0.503476   -0.159874
  O     -1.495798    0.531072    0.083830
  H     -1.200916   -1.502757   -0.123095
  H     -0.576661   -0.430471   -1.407039
  H      1.167098   -1.534057    0.066306
  H      0.582020   -0.517438    1.414726
  H      2.321608    0.503424    0.268654
  H     -1.577085    0.520579    1.048256

 Total Charge           Charge          ....    0
 Multiplicity           Mult            ....    1
 Number of Electrons    NEL             ....   34
 Basis Dimension        Dim             ....   68

ORBITAL ENERGIES
----------------

  NO   OCC          E(Eh)            E(eV)
   0   2.0000     -18.743042      -510.0241
   1   2.0000     -18.737097      -509.8623
   2   2.0000      -9.933933      -270.3161
   3   2.0000      -9.927872      -270.1511
   4   2.0000      -0.925238       -25.1770
   5   2.0000      -0.907672       -24.6990
   6   2.0000      -0.659476       -17.9452
   7   2.0000      -0.554410       -15.0863
   8   2.0000      -0.476137       -12.9563
   9   2.0000      -0.437675       -11.9097
  10   2.0000      -0.413143       -11.2422
  11   2.0000      -0.372358       -10.1324
  12   2.0000      -0.349494        -9.5102
  13   2.0000      -0.298175        -8.1138
  14   2.0000      -0.263946        -7.1823
  15   2.0000      -0.215886        -5.8746
  16   2.0000      -0.209096        -5.6898
  17   0.0000       0.019943         0.5427
  18   0.0000       0.045431         1.2362
  19   0.0000       0.074957         2.0397
  20   0.0000       0.089255         2.4287
  21   0.0000       0.114231         3.1084

MULLIKEN ATOMIC CHARGES
-----------------------
   0 C :    0.016700
   1 C :   -0.031811
   2 O :   -0.432122
   3 O :   -0.434476
   4 H :    0.069621
   5 H :    0.097406
   6 H :    0.068616
   7 H :    0.058077
   8 H :    0.298213
   9 H :    0.289776
Sum of atomic charges:   -0.0000000

LOEWDIN ATOMIC CHARGES
----------------------
   0 C :   -0.134990
   1 C :   -0.146467
   2 O :   -0.347051
   3 O :   -0.337653
   4 H :    0.095134
   5 H :    0.121186
   6 H :    0.097069
   7 H :    0.089287
   8 H :    0.284731
   9 H :    0.278754

  Mayer bond orders larger than 0.100000
B(  0-C ,  1-C ) :   1.0954 B(  0-C ,  3-O ) :   1.0728 B(  0-C ,  4-H ) :   0.9206
B(  0-C ,  5-H ) :   0.9203 B(  1-C ,  2-O ) :   1.0886 B(  1-C ,  6-H ) :   0.9127
B(  1-C ,  7-H ) :   0.9143 B(  2-O ,  8-H ) :   0.8537 B(  3-O ,  9-H ) :   0.8555

Dispersion correction           -0.004801373
FINAL SINGLE POINT ENERGY      -229.721290424348

DIPOLE MOMENT
-------------

Method             : SCF
Type of density    : Electron Density
Multiplicity       :   1
Irrep              :   0
Energy             :  -229.7715590991466286 Eh
Relativity type    :
Basis              : AO
                                X                 Y                 Z
Electronic contribution:     -0.143086440       2.077465510      -0.352003772
Nuclear contribution   :      0.671186794      -2.762296694       1.188293169
                        -----------------------------------------
Total Dipole Moment    :      0.528100353      -0.684831183       0.836289397
                        -----------------------------------------
Magnitude (a.u.)       :      1.203022730
Magnitude (Debye)      :      3.057840769

Rotational constants in cm-1:             0.559289             0.167063             0.147249
Rotational constants in MHz :         16767.062075          5008.422205          4414.409186

                             ****ORCA TERMINATED NORMALLY****
TOTAL RUN TIME: 0 days 0 hours 0 minutes 4 seconds 257 msec
