                         Program Version 6.0.0  -   RELEASE  -
|  1> ! r2scan-3c def2/J RI DEFGRID2 scfconv6 printgap
|  2> %output
|  3>     printlevel normal
|  4> end
|  5> * xyz 0 1
|  6> C 4.8672790692 -1.5492138461 0.664227141
|  7> C 4.4974945232 -1.5181990602 -0.8046878462
|  8> O 3.0714578909 -1.4334105314 -1.0045593121
|  9> P 2.2262227578 -0.17995072 -0.5294984566
| 10> S 3.0876573324 1.5780782663 -0.6505338559
| 11> O 1.7392270243 -0.5918773339 0.9302798626
| 12> C 1.6877598103 0.2922107519 2.0716253044
| 13> C 0.5821339066 -0.1818304506 2.9917286622
| 14> S 0.5825656809 -0.5553321305 -1.8061185753
| 15> C -0.0973146259 1.1287329509 -1.7599386037
| 16> S -0.7192151509 1.5845237407 -0.1302692275
| 17> P -2.4478361577 0.315613764 -0.1065812726
| 18> S -3.192950738 -0.087325768 -1.8680697324
| 19> O -3.4739814552 1.0612560727 0.8206508761
| 20> C -3.3739275261 1.2209699879 2.260410536
| 21> C -2.5060412343 2.4044244567 2.6342286786
| 22> O -2.043665411 -0.9457497453 0.7815809621
| 23> C -1.5903279107 -2.2082208343 0.2643638913
| 24> C -2.3551847572 -3.3156232095 0.9616877407
| 25> H 4.6296737688 -0.5900537076 1.1239568736
| 26> H 4.3168758824 -2.3358093463 1.17403043
| 27> H 5.9330057633 -1.7306722136 0.7634479034
| 28> H 4.7760452582 -2.4421429971 -1.3132176913
| 29> H 4.9665745212 -0.6636962351 -1.3022605049
| 30> H 2.6599269265 0.244325681 2.5685057217
| 31> H 1.5166012023 1.3156976062 1.7256361465
| 32> H -0.3745754709 -0.1470099082 2.478387892
| 33> H 0.7741917455 -1.2027365393 3.308875204
| 34> H 0.5444759295 0.4653484975 3.8617069659
| 35> H -0.9131520109 1.1540703124 -2.4822798557
| 36> H 0.6829565274 1.8467096583 -2.010780133
| 37> H -4.4093447644 1.3763775661 2.5675413991
| 38> H -2.9951335785 0.2930413771 2.6910192498
| 39> H -2.5347971226 2.5361506904 3.711306384
| 40> H -1.4763058554 2.2433177718 2.3222158383
| 41> H -2.8745182692 3.3061920708 2.1530537224
| 42> H -1.7570772799 -2.2339223995 -0.8175189348
| 43> H -0.5170795297 -2.2752735614 0.462917791
| 44> H -3.4165136921 -3.229011915 0.7429394472
| 45> H -1.9949066249 -4.2740935162 0.6026572435
| 46> H -2.2084480327 -3.2550415175 2.0361665481
| 47> *
| 48>
| 49>                          ****END OF INPUT****

CARTESIAN COORDINATES (ANGSTROEM)
---------------------------------
  C      4.867279   -1.549214    0.664227
  C      4.497495   -1.518199   -0.804688
  O      3.071458   -1.433411   -1.004559
  P      2.226223   -0.179951   -0.529498
  S      3.087657    1.578078   -0.650534
  O      1.739227   -0.591877    0.930280
  C      1.687760    0.292211    2.071625
  C      0.582134   -0.181830    2.991729
  S      0.582566   -0.555332   -1.806119
  C     -0.097315    1.128733   -1.759939
  S     -0.719215    1.584524   -0.130269
  P     -2.447836    0.315614   -0.106581
  S     -3.192951   -0.087326   -1.868070
  O     -3.473981    1.061256    0.820651
  C     -3.373928    1.220970    2.260411
  C     -2.506041    2.404424    2.634229
  O     -2.043665   -0.945750    0.781581
  C     -1.590328   -2.208221    0.264364
  C     -2.355185   -3.315623    0.961688
  H      4.629674   -0.590054    1.123957
  H      4.316876   -2.335809    1.174030
  H      5.933006   -1.730672    0.763448
  H      4.776045   -2.442143   -1.313218
  H      4.966575   -0.663696   -1.302261
  H      2.659927    0.244326    2.568506
  H      1.516601    1.315698    1.725636
  H     -0.374575   -0.147010    2.478388
  H      0.774192   -1.202737    3.308875
  H      0.544476    0.465348    3.861707
  H     -0.913152    1.154070   -2.482280
  H      0.682957    1.846710   -2.010780
  H     -4.409345    1.376378    2.567541
  H     -2.995134    0.293041    2.691019
  H     -2.534797    2.536151    3.711306
  H     -1.476306    2.243318    2.322216
  H     -2.874518    3.306192    2.153054
  H     -1.757077   -2.233922   -0.817519
  H     -0.517080   -2.275274    0.462918
  H     -3.416514   -3.229012    0.742939
  H     -1.994907   -4.274094    0.602657
  H     -2.208448   -3.255042    2.036167

 Total Charge           Charge          ....    0
 Multiplicity           Mult            ....    1
 Number of Electrons    NEL             ....  202
 Basis Dimension        Dim             ....  539

ORBITAL ENERGIES
----------------

  NO   OCC          E(Eh)            E(eV)
   0   2.0000     -88.574398     -2410.2319
   1   2.0000     -88.573466     -2410.2065
   2   2.0000     -88.525374     -2408.8979
   3   2.0000     -88.521529     -2408.7933
   4   2.0000     -76.917586     -2093.0339
   5   2.0000     -76.916429     -2093.0024
   6   2.0000     -18.996767      -516.9283
   7   2.0000     -18.993147      -516.8298
   8   2.0000     -18.992819      -516.8209
   9   2.0000     -18.992529      -516.8130
  10   2.0000     -10.110419      -275.1185
  11   2.0000     -10.103361      -274.9264
  12   2.0000     -10.102574      -274.9050
  13   2.0000     -10.100804      -274.8568
  14   2.0000     -10.094406      -274.6827
  15   2.0000     -10.040450      -273.2145
  16   2.0000     -10.035542      -273.0810
  17   2.0000     -10.034534      -273.0535
  18   2.0000     -10.030469      -272.9429
  19   2.0000      -7.868798      -214.1209
  20   2.0000      -7.867738      -214.0920
  21   2.0000      -7.820098      -212.7957
  22   2.0000      -7.816315      -212.6927
  23   2.0000      -6.595627      -179.4761
  24   2.0000      -6.594858      -179.4552
  25   2.0000      -5.815697      -158.2532
  26   2.0000      -5.814634      -158.2242
  27   2.0000      -5.812579      -158.1683
  28   2.0000      -5.811744      -158.1456
  29   2.0000      -5.805965      -157.9883
  30   2.0000      -5.804697      -157.9538
  31   2.0000      -5.767735      -156.9481
  32   2.0000      -5.764065      -156.8482
  33   2.0000      -5.760626      -156.7546
  34   2.0000      -5.759875      -156.7342
  35   2.0000      -5.756463      -156.6413
  36   2.0000      -5.756337      -156.6379
  37   2.0000      -4.741571      -129.0247
  38   2.0000      -4.740308      -128.9903
  39   2.0000      -4.740154      -128.9862
  40   2.0000      -4.739624      -128.9717
  41   2.0000      -4.739237      -128.9612
  42   2.0000      -4.738930      -128.9528
  43   2.0000      -1.053672       -28.6719
  44   2.0000      -1.049968       -28.5711
  45   2.0000      -1.012086       -27.5403
  46   2.0000      -1.011684       -27.5293
  47   2.0000      -0.801668       -21.8145
  48   2.0000      -0.764740       -20.8096
  49   2.0000      -0.756291       -20.5797
  50   2.0000      -0.738108       -20.0849
  51   2.0000      -0.737441       -20.0668
  52   2.0000      -0.710132       -19.3237
  53   2.0000      -0.687688       -18.7129
  54   2.0000      -0.670327       -18.2405
  55   2.0000      -0.635960       -17.3053
  56   2.0000      -0.625086       -17.0095
  57   2.0000      -0.611693       -16.6450
  58   2.0000      -0.606866       -16.5137
  59   2.0000      -0.591587       -16.0979
  60   2.0000      -0.534106       -14.5338
  61   2.0000      -0.524872       -14.2825
  62   2.0000      -0.502096       -13.6627
  63   2.0000      -0.499291       -13.5864
  64   2.0000      -0.478333       -13.0161
  65   2.0000      -0.470371       -12.7994
  66   2.0000      -0.460802       -12.5391
  67   2.0000      -0.457029       -12.4364
  68   2.0000      -0.449406       -12.2289
  69   2.0000      -0.435100       -11.8397
  70   2.0000      -0.421716       -11.4755
  71   2.0000      -0.418344       -11.3837
  72   2.0000      -0.409179       -11.1343
  73   2.0000      -0.405100       -11.0233
  74   2.0000      -0.397060       -10.8045
  75   2.0000      -0.392601       -10.6832
  76   2.0000      -0.385093       -10.4789
  77   2.0000      -0.380310       -10.3487
  78   2.0000      -0.377073       -10.2607
  79   2.0000      -0.372308       -10.1310
  80   2.0000      -0.369613       -10.0577
  81   2.0000      -0.368016       -10.0142
  82   2.0000      -0.359516        -9.7829
  83   2.0000      -0.355165        -9.6645
  84   2.0000      -0.354004        -9.6329
  85   2.0000      -0.336960        -9.1692
  86   2.0000      -0.324238        -8.8230
  87   2.0000      -0.319077        -8.6825
  88   2.0000      -0.314696        -8.5633
  89   2.0000      -0.309865        -8.4318
  90   2.0000      -0.302129        -8.2213
  91   2.0000      -0.294623        -8.0171
  92   2.0000      -0.290712        -7.9107
  93   2.0000      -0.282626        -7.6906
  94   2.0000      -0.274401        -7.4668
  95   2.0000      -0.246447        -6.7062
  96   2.0000      -0.232169        -6.3176
  97   2.0000      -0.227422        -6.1885
  98   2.0000      -0.220501        -6.0001
  99   2.0000      -0.216699        -5.8967
 100   2.0000      -0.212644        -5.7863
 101   0.0000      -0.050520        -1.3747
 102   0.0000      -0.028576        -0.7776
 103   0.0000      -0.004438        -0.1208
 104   0.0000       0.001898         0.0516
 105   0.0000       0.005787         0.1575

MULLIKEN ATOMIC CHARGES
-----------------------
   0 C :   -0.446190
   1 C :   -0.151249
   2 O :   -0.308489
   3 P :    0.655986
   4 S :   -0.470386
   5 O :   -0.266807
   6 C :   -0.078137
   7 C :   -0.505227
   8 S :   -0.132569
   9 C :   -0.229825
  10 S :   -0.171771
  11 P :    0.667468
  12 S :   -0.445514
  13 O :   -0.278321
  14 C :   -0.174555
  15 C :   -0.410980
  16 O :   -0.279582
  17 C :   -0.101869
  18 C :   -0.489955
  19 H :    0.165914
  20 H :    0.159190
  21 H :    0.150709
  22 H :    0.151244
  23 H :    0.173307
  24 H :    0.145328
  25 H :    0.173785
  26 H :    0.176971
  27 H :    0.152106
  28 H :    0.148590
  29 H :    0.215398
  30 H :    0.217911
  31 H :    0.155118
  32 H :    0.166280
  33 H :    0.151032
  34 H :    0.145219
  35 H :    0.166621
  36 H :    0.174302
  37 H :    0.168016
  38 H :    0.162029
  39 H :    0.148680
  40 H :    0.150223
Sum of atomic charges:    0.0000000

LOEWDIN ATOMIC CHARGES
----------------------
   0 C :   -0.400771
   1 C :    0.025818
   2 O :   -0.672077
   3 P :    0.382635
   4 S :   -0.123306
   5 O :   -0.674278
   6 C :    0.009194
   7 C :   -0.396631
   8 S :    0.174642
   9 C :   -0.424859
  10 S :    0.127053
  11 P :    0.391145
  12 S :   -0.097126
  13 O :   -0.643880
  14 C :    0.030965
  15 C :   -0.399521
  16 O :   -0.691624
  17 C :    0.006962
  18 C :   -0.389423
  19 H :    0.162983
  20 H :    0.161463
  21 H :    0.160699
  22 H :    0.181404
  23 H :    0.179859
  24 H :    0.169821
  25 H :    0.181587
  26 H :    0.170375
  27 H :    0.159746
  28 H :    0.159376
  29 H :    0.193723
  30 H :    0.190955
  31 H :    0.183740
  32 H :    0.178672
  33 H :    0.161120
  34 H :    0.161154
  35 H :    0.165677
  36 H :    0.184010
  37 H :    0.179511
  38 H :    0.162148
  39 H :    0.160393
  40 H :    0.156666

  Mayer bond orders larger than 0.100000
B(  0-C ,  1-C ) :   0.9136 B(  0-C , 19-H ) :   0.9633 B(  0-C , 20-H ) :   0.9694
B(  0-C , 21-H ) :   0.9591 B(  1-C ,  2-O ) :   0.8112 B(  1-C , 22-H ) :   0.9597
B(  1-C , 23-H ) :   0.9692 B(  2-O ,  3-P ) :   1.1705 B(  3-P ,  4-S ) :   1.7622
B(  3-P ,  5-O ) :   1.0677 B(  3-P ,  8-S ) :   1.0832 B(  5-O ,  6-C ) :   0.7438
B(  6-C ,  7-C ) :   0.9022 B(  6-C , 24-H ) :   0.9457 B(  6-C , 25-H ) :   0.9593
B(  7-C , 26-H ) :   0.9723 B(  7-C , 27-H ) :   0.9669 B(  7-C , 28-H ) :   0.9656
B(  8-S ,  9-C ) :   0.8908 B(  9-C , 10-S ) :   0.8943 B(  9-C , 29-H ) :   0.9059
B(  9-C , 30-H ) :   0.9117 B( 10-S , 11-P ) :   0.9890 B( 11-P , 12-S ) :   1.8453
B( 11-P , 13-O ) :   1.1740 B( 11-P , 16-O ) :   1.0344 B( 13-O , 14-C ) :   0.7749
B( 14-C , 15-C ) :   0.9496 B( 14-C , 31-H ) :   0.9599 B( 14-C , 32-H ) :   0.9700
B( 15-C , 33-H ) :   0.9658 B( 15-C , 34-H ) :   0.9457 B( 15-C , 35-H ) :   0.9688
B( 16-O , 17-C ) :   0.7221 B( 17-C , 18-C ) :   0.9346 B( 17-C , 36-H ) :   0.9409
B( 17-C , 37-H ) :   0.9476 B( 18-C , 38-H ) :   0.9734 B( 18-C , 39-H ) :   0.9675
B( 18-C , 40-H ) :   0.9810

Dispersion correction           -0.022262885
FINAL SINGLE POINT ENERGY     -2932.461817759782

DIPOLE MOMENT
-------------

Method             : SCF
Type of density    : Electron Density
Multiplicity       :   1
Irrep              :   0
Energy             : -2932.4861852798967448 Eh
Relativity type    :
Basis              : AO
                                X                 Y                 Z
Electronic contribution:     -4.540131718       8.455873784     -23.426582235
Nuclear contribution   :      5.193571388      -9.227236453      25.457932191
                        -----------------------------------------
Total Dipole Moment    :      0.653439671      -0.771362668       2.031349957
                        -----------------------------------------
Magnitude (a.u.)       :      2.269001193
Magnitude (Debye)      :      5.767342695

Rotational constants in cm-1:             0.012000             0.005211             0.005040
Rotational constants in MHz :           359.749828           156.235934           151.094955

                             ****ORCA TERMINATED NORMALLY****
TOTAL RUN TIME: 0 days 0 hours 1 minutes 24 seconds 342 msec
