                         Program Version 6.0.0  -   RELEASE  -
|  1> ! r2scan-3c def2/J RI DEFGRID2 scfconv6 printgap
|  2> %output
|  3>     printlevel normal
|  4> end
|  5> %cpcm
|  6>     smd true
|  7>     smdsolvent "water"
|  8> end
|  9> * xyz 0 1
| 10> C 4.8672790692 -1.5492138461 0.664227141
| 11> C 4.4974945232 -1.5181990602 -0.8046878462
| 12> O 3.0714578909 -1.4334105314 -1.0045593121
| 13> P 2.2262227578 -0.17995072 -0.5294984566
| 14> S 3.0876573324 1.5780782663 -0.6505338559
| 15> O 1.7392270243 -0.5918773339 0.9302798626
| 16> C 1.6877598103 0.2922107519 2.0716253044
| 17> C 0.5821339066 -0.1818304506 2.9917286622
| 18> S 0.5825656809 -0.5553321305 -1.8061185753
| 19> C -0.0973146259 1.1287329509 -1.7599386037
| 20> S -0.7192151509 1.5845237407 -0.1302692275
| 21> P -2.4478361577 0.315613764 -0.1065812726
| 22> S -3.192950738 -0.087325768 -1.8680697324
| 23> O -3.4739814552 1.0612560727 0.8206508761
| 24> C -3.3739275261 1.2209699879 2.260410536
| 25> C -2.5060412343 2.4044244567 2.6342286786
| 26> O -2.043665411 -0.9457497453 0.7815809621
| 27> C -1.5903279107 -2.2082208343 0.2643638913
| 28> C -2.3551847572 -3.3156232095 0.9616877407
| 29> H 4.6296737688 -0.5900537076 1.1239568736
| 30> H 4.3168758824 -2.3358093463 1.17403043
| 31> H 5.9330057633 -1.7306722136 0.7634479034
| 32> H 4.7760452582 -2.4421429971 -1.3132176913
| 33> H 4.9665745212 -0.6636962351 -1.3022605049
| 34> H 2.6599269265 0.244325681 2.5685057217
| 35> H 1.5166012023 1.3156976062 1.7256361465
| 36> H -0.3745754709 -0.1470099082 2.478387892
| 37> H 0.7741917455 -1.2027365393 3.308875204
| 38> H 0.5444759295 0.4653484975 3.8617069659
| 39> H -0.9131520109 1.1540703124 -2.4822798557
| 40> H 0.6829565274 1.8467096583 -2.010780133
| 41> H -4.4093447644 1.3763775661 2.5675413991
| 42> H -2.9951335785 0.2930413771 2.6910192498
| 43> H -2.5347971226 2.5361506904 3.711306384
| 44> H -1.4763058554 2.2433177718 2.3222158383
| 45> H -2.8745182692 3.3061920708 2.1530537224
| 46> H -1.7570772799 -2.2339223995 -0.8175189348
| 47> H -0.5170795297 -2.2752735614 0.462917791
| 48> H -3.4165136921 -3.229011915 0.7429394472
| 49> H -1.9949066249 -4.2740935162 0.6026572435
| 50> H -2.2084480327 -3.2550415175 2.0361665481
| 51> *
| 52>
| 53>                          ****END OF INPUT****

CARTESIAN COORDINATES (ANGSTROEM)
---------------------------------
  C      4.867279   -1.549214    0.664227
  C      4.497495   -1.518199   -0.804688
  O      3.071458   -1.433411   -1.004559
  P      2.226223   -0.179951   -0.529498
  S      3.087657    1.578078   -0.650534
  O      1.739227   -0.591877    0.930280
  C      1.687760    0.292211    2.071625
  C      0.582134   -0.181830    2.991729
  S      0.582566   -0.555332   -1.806119
  C     -0.097315    1.128733   -1.759939
  S     -0.719215    1.584524   -0.130269
  P     -2.447836    0.315614   -0.106581
  S     -3.192951   -0.087326   -1.868070
  O     -3.473981    1.061256    0.820651
  C     -3.373928    1.220970    2.260411
  C     -2.506041    2.404424    2.634229
  O     -2.043665   -0.945750    0.781581
  C     -1.590328   -2.208221    0.264364
  C     -2.355185   -3.315623    0.961688
  H      4.629674   -0.590054    1.123957
  H      4.316876   -2.335809    1.174030
  H      5.933006   -1.730672    0.763448
  H      4.776045   -2.442143   -1.313218
  H      4.966575   -0.663696   -1.302261
  H      2.659927    0.244326    2.568506
  H      1.516601    1.315698    1.725636
  H     -0.374575   -0.147010    2.478388
  H      0.774192   -1.202737    3.308875
  H      0.544476    0.465348    3.861707
  H     -0.913152    1.154070   -2.482280
  H      0.682957    1.846710   -2.010780
  H     -4.409345    1.376378    2.567541
  H     -2.995134    0.293041    2.691019
  H     -2.534797    2.536151    3.711306
  H     -1.476306    2.243318    2.322216
  H     -2.874518    3.306192    2.153054
  H     -1.757077   -2.233922   -0.817519
  H     -0.517080   -2.275274    0.462918
  H     -3.416514   -3.229012    0.742939
  H     -1.994907   -4.274094    0.602657
  H     -2.208448   -3.255042    2.036167

 Total Charge           Charge          ....    0
 Multiplicity           Mult            ....    1
 Number of Electrons    NEL             ....  202
 Basis Dimension        Dim             ....  539

ORBITAL ENERGIES
----------------

  NO   OCC          E(Eh)            E(eV)
   0   2.0000     -88.578066     -2410.3317
   1   2.0000     -88.577908     -2410.3274
   2   2.0000     -88.531757     -2409.0716
   3   2.0000     -88.530909     -2409.0485
   4   2.0000     -76.922971     -2093.1805
   5   2.0000     -76.919977     -2093.0990
   6   2.0000     -18.997886      -516.9588
   7   2.0000     -18.994131      -516.8566
   8   2.0000     -18.993235      -516.8322
   9   2.0000     -18.992192      -516.8038
  10   2.0000     -10.103256      -274.9236
  11   2.0000     -10.094379      -274.6820
  12   2.0000     -10.091121      -274.5933
  13   2.0000     -10.088576      -274.5241
  14   2.0000     -10.087988      -274.5081
  15   2.0000     -10.022045      -272.7137
  16   2.0000     -10.019534      -272.6454
  17   2.0000     -10.017934      -272.6018
  18   2.0000     -10.017260      -272.5835
  19   2.0000      -7.872446      -214.2201
  20   2.0000      -7.872265      -214.2152
  21   2.0000      -7.826920      -212.9813
  22   2.0000      -7.825910      -212.9538
  23   2.0000      -6.601046      -179.6236
  24   2.0000      -6.598421      -179.5522
  25   2.0000      -5.819272      -158.3504
  26   2.0000      -5.819162      -158.3474
  27   2.0000      -5.816409      -158.2725
  28   2.0000      -5.816039      -158.2625
  29   2.0000      -5.809511      -158.0848
  30   2.0000      -5.809447      -158.0831
  31   2.0000      -5.774538      -157.1332
  32   2.0000      -5.773492      -157.1047
  33   2.0000      -5.767103      -156.9308
  34   2.0000      -5.766965      -156.9271
  35   2.0000      -5.766369      -156.9109
  36   2.0000      -5.765760      -156.8943
  37   2.0000      -4.746931      -129.1706
  38   2.0000      -4.745696      -129.1370
  39   2.0000      -4.744794      -129.1124
  40   2.0000      -4.743669      -129.0818
  41   2.0000      -4.743172      -129.0683
  42   2.0000      -4.742589      -129.0524
  43   2.0000      -1.054148       -28.6848
  44   2.0000      -1.049999       -28.5719
  45   2.0000      -1.011700       -27.5298
  46   2.0000      -1.011000       -27.5107
  47   2.0000      -0.804220       -21.8839
  48   2.0000      -0.759253       -20.6603
  49   2.0000      -0.747135       -20.3306
  50   2.0000      -0.727478       -19.7957
  51   2.0000      -0.724576       -19.7167
  52   2.0000      -0.707775       -19.2595
  53   2.0000      -0.689686       -18.7673
  54   2.0000      -0.676034       -18.3958
  55   2.0000      -0.631903       -17.1950
  56   2.0000      -0.618561       -16.8319
  57   2.0000      -0.602765       -16.4021
  58   2.0000      -0.595494       -16.2042
  59   2.0000      -0.589483       -16.0406
  60   2.0000      -0.529174       -14.3996
  61   2.0000      -0.519173       -14.1274
  62   2.0000      -0.495359       -13.4794
  63   2.0000      -0.493050       -13.4166
  64   2.0000      -0.477422       -12.9913
  65   2.0000      -0.462169       -12.5763
  66   2.0000      -0.455096       -12.3838
  67   2.0000      -0.448005       -12.1908
  68   2.0000      -0.442193       -12.0327
  69   2.0000      -0.432553       -11.7704
  70   2.0000      -0.415469       -11.3055
  71   2.0000      -0.412484       -11.2243
  72   2.0000      -0.403227       -10.9724
  73   2.0000      -0.400264       -10.8917
  74   2.0000      -0.392334       -10.6760
  75   2.0000      -0.389689       -10.6040
  76   2.0000      -0.381308       -10.3759
  77   2.0000      -0.370857       -10.0915
  78   2.0000      -0.364356        -9.9146
  79   2.0000      -0.362632        -9.8677
  80   2.0000      -0.357532        -9.7289
  81   2.0000      -0.355320        -9.6687
  82   2.0000      -0.349929        -9.5221
  83   2.0000      -0.346971        -9.4416
  84   2.0000      -0.344571        -9.3763
  85   2.0000      -0.330619        -8.9966
  86   2.0000      -0.320179        -8.7125
  87   2.0000      -0.311254        -8.4697
  88   2.0000      -0.306154        -8.3309
  89   2.0000      -0.304231        -8.2785
  90   2.0000      -0.300813        -8.1855
  91   2.0000      -0.290909        -7.9160
  92   2.0000      -0.287337        -7.8188
  93   2.0000      -0.280632        -7.6364
  94   2.0000      -0.274592        -7.4720
  95   2.0000      -0.249697        -6.7946
  96   2.0000      -0.239609        -6.5201
  97   2.0000      -0.235789        -6.4161
  98   2.0000      -0.229544        -6.2462
  99   2.0000      -0.225374        -6.1327
 100   2.0000      -0.218576        -5.9477
 101   0.0000      -0.055616        -1.5134
 102   0.0000      -0.034377        -0.9354
 103   0.0000      -0.008677        -0.2361
 104   0.0000       0.000749         0.0204
 105   0.0000       0.006258         0.1703

MULLIKEN ATOMIC CHARGES
-----------------------
   0 C :   -0.478604
   1 C :   -0.151238
   2 O :   -0.339174
   3 P :    0.683620
   4 S :   -0.511793
   5 O :   -0.288230
   6 C :   -0.077837
   7 C :   -0.530329
   8 S :   -0.155906
   9 C :   -0.240751
  10 S :   -0.174427
  11 P :    0.680032
  12 S :   -0.502913
  13 O :   -0.315629
  14 C :   -0.152089
  15 C :   -0.458131
  16 O :   -0.290031
  17 C :   -0.082401
  18 C :   -0.527895
  19 H :    0.170860
  20 H :    0.170639
  21 H :    0.174247
  22 H :    0.176164
  23 H :    0.178439
  24 H :    0.172556
  25 H :    0.170171
  26 H :    0.177013
  27 H :    0.167728
  28 H :    0.171867
  29 H :    0.230971
  30 H :    0.238647
  31 H :    0.177394
  32 H :    0.180705
  33 H :    0.177146
  34 H :    0.151145
  35 H :    0.175585
  36 H :    0.171475
  37 H :    0.176154
  38 H :    0.166560
  39 H :    0.169786
  40 H :    0.168474
Sum of atomic charges:    0.0000000

LOEWDIN ATOMIC CHARGES
----------------------
   0 C :   -0.402455
   1 C :    0.029874
   2 O :   -0.687440
   3 P :    0.385233
   4 S :   -0.149984
   5 O :   -0.681802
   6 C :    0.013944
   7 C :   -0.396540
   8 S :    0.159939
   9 C :   -0.421889
  10 S :    0.130304
  11 P :    0.391849
  12 S :   -0.141981
  13 O :   -0.664527
  14 C :    0.039988
  15 C :   -0.400628
  16 O :   -0.690696
  17 C :    0.011500
  18 C :   -0.392515
  19 H :    0.163233
  20 H :    0.165008
  21 H :    0.169508
  22 H :    0.191708
  23 H :    0.181519
  24 H :    0.180110
  25 H :    0.180756
  26 H :    0.169949
  27 H :    0.163870
  28 H :    0.169051
  29 H :    0.197740
  30 H :    0.196736
  31 H :    0.193252
  32 H :    0.186867
  33 H :    0.172113
  34 H :    0.161465
  35 H :    0.165757
  36 H :    0.182430
  37 H :    0.182937
  38 H :    0.162615
  39 H :    0.168242
  40 H :    0.162959

  Mayer bond orders larger than 0.100000
B(  0-C ,  1-C ) :   0.9050 B(  0-C , 19-H ) :   0.9605 B(  0-C , 20-H ) :   0.9672
B(  0-C , 21-H ) :   0.9535 B(  1-C ,  2-O ) :   0.7988 B(  1-C , 22-H ) :   0.9499
B(  1-C , 23-H ) :   0.9650 B(  2-O ,  3-P ) :   1.1746 B(  3-P ,  4-S ) :   1.7379
B(  3-P ,  5-O ) :   1.0763 B(  3-P ,  8-S ) :   1.0899 B(  5-O ,  6-C ) :   0.7321
B(  6-C ,  7-C ) :   0.9035 B(  6-C , 24-H ) :   0.9370 B(  6-C , 25-H ) :   0.9558
B(  7-C , 26-H ) :   0.9677 B(  7-C , 27-H ) :   0.9654 B(  7-C , 28-H ) :   0.9595
B(  8-S ,  9-C ) :   0.8817 B(  9-C , 10-S ) :   0.8833 B(  9-C , 29-H ) :   0.9019
B(  9-C , 30-H ) :   0.9063 B( 10-S , 11-P ) :   1.0019 B( 11-P , 12-S ) :   1.8200
B( 11-P , 13-O ) :   1.1832 B( 11-P , 16-O ) :   1.0449 B( 13-O , 14-C ) :   0.7661
B( 14-C , 15-C ) :   0.9376 B( 14-C , 31-H ) :   0.9514 B( 14-C , 32-H ) :   0.9579
B( 15-C , 33-H ) :   0.9577 B( 15-C , 34-H ) :   0.9450 B( 15-C , 35-H ) :   0.9708
B( 16-O , 17-C ) :   0.7133 B( 17-C , 18-C ) :   0.9344 B( 17-C , 36-H ) :   0.9410
B( 17-C , 37-H ) :   0.9405 B( 18-C , 38-H ) :   0.9717 B( 18-C , 39-H ) :   0.9617
B( 18-C , 40-H ) :   0.9754

Dispersion correction           -0.022262885
FINAL SINGLE POINT ENERGY     -2932.471761537798

DIPOLE MOMENT
-------------

Method             : SCF
Type of density    : Electron Density
Multiplicity       :   1
Irrep              :   0
Energy             : -2932.4961290579130946 Eh
Relativity type    :
Basis              : AO
                                X                 Y                 Z
Electronic contribution:     -4.181257836       8.253510800     -22.570594289
Nuclear contribution   :      5.193571388      -9.227236453      25.457932191
                        -----------------------------------------
Total Dipole Moment    :      1.012313553      -0.973725653       2.887337902
                        -----------------------------------------
Magnitude (a.u.)       :      3.210862896
Magnitude (Debye)      :      8.161364888

Rotational constants in cm-1:             0.012000             0.005211             0.005040
Rotational constants in MHz :           359.749828           156.235934           151.094955

                             ****ORCA TERMINATED NORMALLY****
TOTAL RUN TIME: 0 days 0 hours 2 minutes 0 seconds 524 msec
