                         Program Version 6.0.0  -   RELEASE  -
|  1> ! pbe def2-sv(p) def2/J RI DEFGRID1 loosescf d4 GCP(DFT/SV(P)) printgap
|  2> %output
|  3>     printlevel normal
|  4> end
|  5> * xyz 0 1
|  6> C 3.4913034047 1.5114750001 -2.3658512264
|  7> C 4.2041761819 1.3913894234 -1.0337695239
|  8> O 3.7907096724 0.2219863358 -0.3119953318
|  9> P 2.3263967976 0.0736801606 0.3006546987
| 10> S 1.6803976415 1.7368905964 1.1153038017
| 11> O 2.5190509947 -1.1588782007 1.2681405085
| 12> C 2.5813551869 -1.0558161357 2.7104888239
| 13> C 1.5449749475 -1.9759029036 3.3234934443
| 14> S 1.2405580954 -0.8388829604 -1.273436325
| 15> C 0.0743566648 -1.8448682208 -0.3056650307
| 16> S -0.986245474 -0.8869169824 0.7995914147
| 17> P -2.1602916856 0.1062222349 -0.6831091942
| 18> S -2.1245960483 -0.7200335316 -2.4587081476
| 19> O -1.6505036781 1.6002551965 -0.7035215893
| 20> C -2.1028704341 2.6609837303 0.174457558
| 21> C -1.9146358125 2.3404427186 1.641623978
| 22> O -3.608406908 0.2460031956 -0.0413010095
| 23> C -4.6163575616 -0.7687576733 -0.1982804782
| 24> C -4.2605104342 -2.0509590389 0.525733949
| 25> H 3.8818608192 2.3638069271 -2.9124901665
| 26> H 3.6314340364 0.6077765972 -2.95390802
| 27> H 2.4220931836 1.6557354565 -2.2033608329
| 28> H 4.0079658276 2.2711518626 -0.411201287
| 29> H 5.2792507122 1.259085934 -1.1614376814
| 30> H 3.5947521013 -1.3468178045 2.9924411797
| 31> H 2.405679428 -0.0142168897 2.9994661422
| 32> H 1.7186678009 -3.0006020896 3.0075216513
| 33> H 1.6188522358 -1.9183061167 4.4044551456
| 34> H 0.5451331766 -1.6735179029 3.01754663
| 35> H 0.6243046095 -2.5494464661 0.3122470698
| 36> H -0.5373119842 -2.35460702 -1.0505175497
| 37> H -1.488942238 3.5109014074 -0.127589492
| 38> H -3.1531120504 2.8558457095 -0.0523823714
| 39> H -2.2517208517 3.1870962118 2.2312297485
| 40> H -2.4938911725 1.4612575767 1.9161442319
| 41> H -0.8650759366 2.1568078813 1.8582251741
| 42> H -5.5136475828 -0.3071422836 0.2162050488
| 43> H -4.7524545109 -0.9563538312 -1.2678234499
| 44> H -4.009117609 -1.8454146636 1.5630700213
| 45> H -5.1070845909 -2.7288460811 0.4870538245
| 46> H -3.4078763165 -2.5260432318 0.0431891
| 47> *
| 48>
| 49>                          ****END OF INPUT****

CARTESIAN COORDINATES (ANGSTROEM)
---------------------------------
  C      3.491303    1.511475   -2.365851
  C      4.204176    1.391389   -1.033770
  O      3.790710    0.221986   -0.311995
  P      2.326397    0.073680    0.300655
  S      1.680398    1.736891    1.115304
  O      2.519051   -1.158878    1.268141
  C      2.581355   -1.055816    2.710489
  C      1.544975   -1.975903    3.323493
  S      1.240558   -0.838883   -1.273436
  C      0.074357   -1.844868   -0.305665
  S     -0.986245   -0.886917    0.799591
  P     -2.160292    0.106222   -0.683109
  S     -2.124596   -0.720034   -2.458708
  O     -1.650504    1.600255   -0.703522
  C     -2.102870    2.660984    0.174458
  C     -1.914636    2.340443    1.641624
  O     -3.608407    0.246003   -0.041301
  C     -4.616358   -0.768758   -0.198280
  C     -4.260510   -2.050959    0.525734
  H      3.881861    2.363807   -2.912490
  H      3.631434    0.607777   -2.953908
  H      2.422093    1.655735   -2.203361
  H      4.007966    2.271152   -0.411201
  H      5.279251    1.259086   -1.161438
  H      3.594752   -1.346818    2.992441
  H      2.405679   -0.014217    2.999466
  H      1.718668   -3.000602    3.007522
  H      1.618852   -1.918306    4.404455
  H      0.545133   -1.673518    3.017547
  H      0.624305   -2.549446    0.312247
  H     -0.537312   -2.354607   -1.050518
  H     -1.488942    3.510901   -0.127589
  H     -3.153112    2.855846   -0.052382
  H     -2.251721    3.187096    2.231230
  H     -2.493891    1.461258    1.916144
  H     -0.865076    2.156808    1.858225
  H     -5.513648   -0.307142    0.216205
  H     -4.752455   -0.956354   -1.267823
  H     -4.009118   -1.845415    1.563070
  H     -5.107085   -2.728846    0.487054
  H     -3.407876   -2.526043    0.043189

 Total Charge           Charge          ....    0
 Multiplicity           Mult            ....    1
 Number of Electrons    NEL             ....  202
 Basis Dimension        Dim             ....  334

ORBITAL ENERGIES
----------------

  NO   OCC          E(Eh)            E(eV)
   0   2.0000     -88.041777     -2395.7385
   1   2.0000     -88.036429     -2395.5930
   2   2.0000     -87.985124     -2394.1969
   3   2.0000     -87.984347     -2394.1758
   4   2.0000     -76.426257     -2079.6642
   5   2.0000     -76.424070     -2079.6047
   6   2.0000     -18.796386      -511.4757
   7   2.0000     -18.793917      -511.4085
   8   2.0000     -18.785710      -511.1851
   9   2.0000     -18.784294      -511.1466
  10   2.0000      -9.955161      -270.8937
  11   2.0000      -9.954361      -270.8719
  12   2.0000      -9.953688      -270.8536
  13   2.0000      -9.949423      -270.7376
  14   2.0000      -9.947785      -270.6930
  15   2.0000      -9.889395      -269.1041
  16   2.0000      -9.886291      -269.0197
  17   2.0000      -9.881318      -268.8843
  18   2.0000      -9.876450      -268.7519
  19   2.0000      -7.686062      -209.1484
  20   2.0000      -7.681483      -209.0238
  21   2.0000      -7.630294      -207.6309
  22   2.0000      -7.629224      -207.6017
  23   2.0000      -6.423528      -174.7931
  24   2.0000      -6.421722      -174.7440
  25   2.0000      -5.713915      -155.4835
  26   2.0000      -5.710694      -155.3959
  27   2.0000      -5.709685      -155.3684
  28   2.0000      -5.705971      -155.2674
  29   2.0000      -5.703042      -155.1877
  30   2.0000      -5.698167      -155.0550
  31   2.0000      -5.659323      -153.9980
  32   2.0000      -5.657833      -153.9575
  33   2.0000      -5.650675      -153.7627
  34   2.0000      -5.650556      -153.7594
  35   2.0000      -5.650068      -153.7462
  36   2.0000      -5.649444      -153.7292
  37   2.0000      -4.646607      -126.4406
  38   2.0000      -4.644962      -126.3958
  39   2.0000      -4.644452      -126.3820
  40   2.0000      -4.643891      -126.3667
  41   2.0000      -4.643531      -126.3569
  42   2.0000      -4.641960      -126.3142
  43   2.0000      -0.987006       -26.8578
  44   2.0000      -0.984972       -26.8024
  45   2.0000      -0.944523       -25.7018
  46   2.0000      -0.941204       -25.6115
  47   2.0000      -0.760889       -20.7048
  48   2.0000      -0.720040       -19.5933
  49   2.0000      -0.707908       -19.2632
  50   2.0000      -0.689372       -18.7588
  51   2.0000      -0.684939       -18.6381
  52   2.0000      -0.672261       -18.2932
  53   2.0000      -0.650890       -17.7116
  54   2.0000      -0.636140       -17.3103
  55   2.0000      -0.600196       -16.3322
  56   2.0000      -0.592205       -16.1147
  57   2.0000      -0.575727       -15.6663
  58   2.0000      -0.571641       -15.5551
  59   2.0000      -0.557609       -15.1733
  60   2.0000      -0.500868       -13.6293
  61   2.0000      -0.493516       -13.4292
  62   2.0000      -0.470493       -12.8028
  63   2.0000      -0.466735       -12.7005
  64   2.0000      -0.461016       -12.5449
  65   2.0000      -0.447856       -12.1868
  66   2.0000      -0.440421       -11.9845
  67   2.0000      -0.431040       -11.7292
  68   2.0000      -0.423759       -11.5311
  69   2.0000      -0.419857       -11.4249
  70   2.0000      -0.410857       -11.1800
  71   2.0000      -0.397091       -10.8054
  72   2.0000      -0.390902       -10.6370
  73   2.0000      -0.389498       -10.5988
  74   2.0000      -0.376387       -10.2420
  75   2.0000      -0.373235       -10.1562
  76   2.0000      -0.369592       -10.0571
  77   2.0000      -0.360085        -9.7984
  78   2.0000      -0.354981        -9.6595
  79   2.0000      -0.351111        -9.5542
  80   2.0000      -0.345483        -9.4011
  81   2.0000      -0.342529        -9.3207
  82   2.0000      -0.342206        -9.3119
  83   2.0000      -0.336295        -9.1511
  84   2.0000      -0.331310        -9.0154
  85   2.0000      -0.323279        -8.7969
  86   2.0000      -0.304222        -8.2783
  87   2.0000      -0.296581        -8.0704
  88   2.0000      -0.294751        -8.0206
  89   2.0000      -0.290026        -7.8920
  90   2.0000      -0.284012        -7.7283
  91   2.0000      -0.273249        -7.4355
  92   2.0000      -0.273024        -7.4294
  93   2.0000      -0.258518        -7.0346
  94   2.0000      -0.256860        -6.9895
  95   2.0000      -0.236927        -6.4471
  96   2.0000      -0.215608        -5.8670
  97   2.0000      -0.205763        -5.5991
  98   2.0000      -0.203680        -5.5424
  99   2.0000      -0.196953        -5.3594
 100   2.0000      -0.192239        -5.2311
 101   0.0000      -0.047573        -1.2945
 102   0.0000      -0.025288        -0.6881
 103   0.0000      -0.015897        -0.4326
 104   0.0000      -0.002665        -0.0725
 105   0.0000       0.015625         0.4252

MULLIKEN ATOMIC CHARGES
-----------------------
   0 C :   -0.330374
   1 C :   -0.002475
   2 O :   -0.366932
   3 P :    0.613872
   4 S :   -0.330732
   5 O :   -0.375125
   6 C :   -0.005237
   7 C :   -0.310805
   8 S :   -0.072252
   9 C :   -0.348707
  10 S :   -0.115666
  11 P :    0.632834
  12 S :   -0.316170
  13 O :   -0.359651
  14 C :    0.022324
  15 C :   -0.351962
  16 O :   -0.384937
  17 C :   -0.000765
  18 C :   -0.312280
  19 H :    0.114894
  20 H :    0.123305
  21 H :    0.136732
  22 H :    0.109430
  23 H :    0.104495
  24 H :    0.107439
  25 H :    0.111881
  26 H :    0.117614
  27 H :    0.113845
  28 H :    0.132290
  29 H :    0.188424
  30 H :    0.190728
  31 H :    0.110547
  32 H :    0.102809
  33 H :    0.108067
  34 H :    0.116216
  35 H :    0.153728
  36 H :    0.104753
  37 H :    0.114533
  38 H :    0.117000
  39 H :    0.113354
  40 H :    0.122957
Sum of atomic charges:   -0.0000000

LOEWDIN ATOMIC CHARGES
----------------------
   0 C :   -0.370974
   1 C :   -0.122090
   2 O :   -0.246064
   3 P :    0.568559
   4 S :   -0.310839
   5 O :   -0.242613
   6 C :   -0.115578
   7 C :   -0.359724
   8 S :    0.093599
   9 C :   -0.480734
  10 S :    0.080633
  11 P :    0.581447
  12 S :   -0.306982
  13 O :   -0.234976
  14 C :   -0.103557
  15 C :   -0.379664
  16 O :   -0.245058
  17 C :   -0.117571
  18 C :   -0.369267
  19 H :    0.132175
  20 H :    0.126405
  21 H :    0.123866
  22 H :    0.108155
  23 H :    0.118514
  24 H :    0.117757
  25 H :    0.107927
  26 H :    0.124753
  27 H :    0.132498
  28 H :    0.119559
  29 H :    0.132852
  30 H :    0.128448
  31 H :    0.124403
  32 H :    0.111825
  33 H :    0.130313
  34 H :    0.114305
  35 H :    0.121818
  36 H :    0.118541
  37 H :    0.112595
  38 H :    0.123676
  39 H :    0.131187
  40 H :    0.119884

  Mayer bond orders larger than 0.100000
B(  0-C ,  1-C ) :   1.1605 B(  0-C , 19-H ) :   0.9386 B(  0-C , 20-H ) :   0.9440
B(  0-C , 21-H ) :   0.9321 B(  1-C ,  2-O ) :   0.9154 B(  1-C , 22-H ) :   0.9136
B(  1-C , 23-H ) :   0.9326 B(  2-O ,  3-P ) :   1.1094 B(  3-P ,  4-S ) :   1.6072
B(  3-P ,  5-O ) :   1.1189 B(  3-P ,  8-S ) :   0.9694 B(  4-S ,  8-S ) :   0.1026
B(  5-O ,  6-C ) :   0.8960 B(  6-C ,  7-C ) :   1.1660 B(  6-C , 24-H ) :   0.9330
B(  6-C , 25-H ) :   0.8998 B(  7-C , 26-H ) :   0.9470 B(  7-C , 27-H ) :   0.9391
B(  7-C , 28-H ) :   0.9357 B(  8-S ,  9-C ) :   1.0024 B(  9-C , 10-S ) :   1.0162
B(  9-C , 29-H ) :   0.8954 B(  9-C , 30-H ) :   0.8790 B( 10-S , 11-P ) :   0.9266
B( 10-S , 12-S ) :   0.1110 B( 11-P , 12-S ) :   1.6261 B( 11-P , 13-O ) :   1.1527
B( 11-P , 16-O ) :   1.0715 B( 13-O , 14-C ) :   0.8928 B( 14-C , 15-C ) :   1.1699
B( 14-C , 31-H ) :   0.9316 B( 14-C , 32-H ) :   0.9320 B( 15-C , 33-H ) :   0.9351
B( 15-C , 34-H ) :   0.9359 B( 15-C , 35-H ) :   0.9201 B( 16-O , 17-C ) :   0.9052
B( 17-C , 18-C ) :   1.1660 B( 17-C , 36-H ) :   0.9340 B( 17-C , 37-H ) :   0.9156
B( 18-C , 38-H ) :   0.9447 B( 18-C , 39-H ) :   0.9369 B( 18-C , 40-H ) :   0.9354

Dispersion correction           -0.066721738
FINAL SINGLE POINT ENERGY     -2929.517233579139

DIPOLE MOMENT
-------------

Method             : SCF
Type of density    : Electron Density
Multiplicity       :   1
Irrep              :   0
Energy             : -2929.6357317464544394 Eh
Relativity type    :
Basis              : AO
                                X                 Y                 Z
Electronic contribution:      3.530063406      -0.224392386     -11.358751412
Nuclear contribution   :     -3.739543304      -0.025289385      12.507459694
                        -----------------------------------------
Total Dipole Moment    :     -0.209479898      -0.249681771       1.148708282
                        -----------------------------------------
Magnitude (a.u.)       :      1.194049216
Magnitude (Debye)      :      3.035031910

Rotational constants in cm-1:             0.011639             0.005362             0.005041
Rotational constants in MHz :           348.935464           160.738817           151.128128

                             ****ORCA TERMINATED NORMALLY****
TOTAL RUN TIME: 0 days 0 hours 0 minutes 21 seconds 140 msec
