                         Program Version 6.0.0  -   RELEASE  -
|  1> ! r2scan-3c def2/J RI DEFGRID2 scfconv6 printgap
|  2> %output
|  3>     printlevel normal
|  4> end
|  5> * xyz 0 1
|  6> C 2.9925272662 0.2138885219 3.319807724
|  7> C 1.657244183 -0.2453085389 2.773797071
|  8> O 1.4004203088 0.2969528375 1.4613127683
|  9> P 2.2437451112 -0.1395650377 0.1938525639
| 10> S 2.9010869603 -1.9904366995 0.1932650897
| 11> O 3.3635701067 0.9859272999 0.1459964868
| 12> C 4.558126365 0.8535279453 -0.6430460117
| 13> C 4.2684973892 0.9030509268 -2.1293763213
| 14> S 0.8947898658 0.3934354255 -1.3457845286
| 15> C -0.0585005722 -1.1475156792 -1.2977524352
| 16> S -1.1249879495 -1.2768034233 0.156891486
| 17> P -2.4998154985 0.241963313 -0.4494897841
| 18> S -2.909290804 0.3047120537 -2.3582759754
| 19> O -1.8917864624 1.6003433907 0.0703288943
| 20> C -1.6406228904 1.8688526686 1.4728015581
| 21> C -0.6221296213 2.986417625 1.5541131887
| 22> O -3.7352428831 0.0432983127 0.5325656685
| 23> C -4.8344671972 -0.8379231911 0.2336499712
| 24> C -4.4138626595 -2.2923177214 0.1894403652
| 25> H 3.1011615003 -0.1317527543 4.3430229927
| 26> H 3.80040783 -0.2021471161 2.7189662759
| 27> H 3.0575624259 1.298358107 3.2934549527
| 28> H 0.8259994237 0.1207510214 3.3777437162
| 29> H 1.617217211 -1.3373692554 2.7104066957
| 30> H 5.1773314974 1.6932633371 -0.3248313438
| 31> H 5.0444781282 -0.0910709243 -0.3787980932
| 32> H 3.6983801946 0.024099639 -2.4282187395
| 33> H 3.6909670707 1.7914123333 -2.3732309857
| 34> H 5.204306341 0.9186205553 -2.6788400906
| 35> H 0.624377182 -1.9969409571 -1.2672364723
| 36> H -0.6748234755 -1.1616981914 -2.1969468865
| 37> H -2.590592361 2.1516184669 1.9302959724
| 38> H -1.2718355694 0.9517972066 1.9420147705
| 39> H -0.9822359909 3.8547564558 1.0098959049
| 40> H -0.464639668 3.251233051 2.5947249682
| 41> H 0.3209293617 2.666906208 1.1172663232
| 42> H -5.5434687518 -0.6472567862 1.0405540956
| 43> H -5.2673786014 -0.5336832333 -0.7239915872
| 44> H -5.2961946429 -2.9164412853 0.0908465982
| 45> H -3.7628953465 -2.4663723277 -0.6660007602
| 46> H -3.8798331232 -2.5615710747 1.0973388219
| 47> *
| 48>
| 49>                          ****END OF INPUT****

CARTESIAN COORDINATES (ANGSTROEM)
---------------------------------
  C      2.992527    0.213889    3.319808
  C      1.657244   -0.245309    2.773797
  O      1.400420    0.296953    1.461313
  P      2.243745   -0.139565    0.193853
  S      2.901087   -1.990437    0.193265
  O      3.363570    0.985927    0.145996
  C      4.558126    0.853528   -0.643046
  C      4.268497    0.903051   -2.129376
  S      0.894790    0.393435   -1.345785
  C     -0.058501   -1.147516   -1.297752
  S     -1.124988   -1.276803    0.156891
  P     -2.499815    0.241963   -0.449490
  S     -2.909291    0.304712   -2.358276
  O     -1.891786    1.600343    0.070329
  C     -1.640623    1.868853    1.472802
  C     -0.622130    2.986418    1.554113
  O     -3.735243    0.043298    0.532566
  C     -4.834467   -0.837923    0.233650
  C     -4.413863   -2.292318    0.189440
  H      3.101162   -0.131753    4.343023
  H      3.800408   -0.202147    2.718966
  H      3.057562    1.298358    3.293455
  H      0.825999    0.120751    3.377744
  H      1.617217   -1.337369    2.710407
  H      5.177331    1.693263   -0.324831
  H      5.044478   -0.091071   -0.378798
  H      3.698380    0.024100   -2.428219
  H      3.690967    1.791412   -2.373231
  H      5.204306    0.918621   -2.678840
  H      0.624377   -1.996941   -1.267236
  H     -0.674823   -1.161698   -2.196947
  H     -2.590592    2.151618    1.930296
  H     -1.271836    0.951797    1.942015
  H     -0.982236    3.854756    1.009896
  H     -0.464640    3.251233    2.594725
  H      0.320929    2.666906    1.117266
  H     -5.543469   -0.647257    1.040554
  H     -5.267379   -0.533683   -0.723992
  H     -5.296195   -2.916441    0.090847
  H     -3.762895   -2.466372   -0.666001
  H     -3.879833   -2.561571    1.097339

 Total Charge           Charge          ....    0
 Multiplicity           Mult            ....    1
 Number of Electrons    NEL             ....  202
 Basis Dimension        Dim             ....  539

ORBITAL ENERGIES
----------------

  NO   OCC          E(Eh)            E(eV)
   0   2.0000     -88.574345     -2410.2305
   1   2.0000     -88.571998     -2410.1666
   2   2.0000     -88.524778     -2408.8817
   3   2.0000     -88.519630     -2408.7416
   4   2.0000     -76.916475     -2093.0037
   5   2.0000     -76.912339     -2092.8911
   6   2.0000     -18.997238      -516.9411
   7   2.0000     -18.994209      -516.8587
   8   2.0000     -18.993499      -516.8394
   9   2.0000     -18.987086      -516.6649
  10   2.0000     -10.102026      -274.8901
  11   2.0000     -10.101867      -274.8858
  12   2.0000     -10.101704      -274.8813
  13   2.0000     -10.100437      -274.8469
  14   2.0000     -10.098254      -274.7875
  15   2.0000     -10.032967      -273.0109
  16   2.0000     -10.030208      -272.9358
  17   2.0000     -10.029000      -272.9030
  18   2.0000     -10.027390      -272.8592
  19   2.0000      -7.868565      -214.1146
  20   2.0000      -7.866357      -214.0544
  21   2.0000      -7.819529      -212.7802
  22   2.0000      -7.814427      -212.6414
  23   2.0000      -6.595157      -179.4633
  24   2.0000      -6.590853      -179.3462
  25   2.0000      -5.815450      -158.2464
  26   2.0000      -5.813157      -158.1840
  27   2.0000      -5.812521      -158.1667
  28   2.0000      -5.810240      -158.1047
  29   2.0000      -5.805590      -157.9781
  30   2.0000      -5.803520      -157.9218
  31   2.0000      -5.767076      -156.9301
  32   2.0000      -5.762102      -156.7948
  33   2.0000      -5.759827      -156.7328
  34   2.0000      -5.759617      -156.7271
  35   2.0000      -5.754664      -156.5924
  36   2.0000      -5.754436      -156.5862
  37   2.0000      -4.740593      -128.9981
  38   2.0000      -4.740013      -128.9823
  39   2.0000      -4.738979      -128.9542
  40   2.0000      -4.736744      -128.8934
  41   2.0000      -4.735679      -128.8644
  42   2.0000      -4.734345      -128.8281
  43   2.0000      -1.054333       -28.6899
  44   2.0000      -1.050211       -28.5777
  45   2.0000      -1.015784       -27.6409
  46   2.0000      -1.008417       -27.4404
  47   2.0000      -0.800999       -21.7963
  48   2.0000      -0.759452       -20.6657
  49   2.0000      -0.750448       -20.4207
  50   2.0000      -0.734825       -19.9956
  51   2.0000      -0.732944       -19.9444
  52   2.0000      -0.712765       -19.3953
  53   2.0000      -0.686537       -18.6816
  54   2.0000      -0.668876       -18.2010
  55   2.0000      -0.636264       -17.3136
  56   2.0000      -0.623281       -16.9603
  57   2.0000      -0.609365       -16.5817
  58   2.0000      -0.602524       -16.3955
  59   2.0000      -0.589569       -16.0430
  60   2.0000      -0.529855       -14.4181
  61   2.0000      -0.520643       -14.1674
  62   2.0000      -0.496845       -13.5198
  63   2.0000      -0.493562       -13.4305
  64   2.0000      -0.478342       -13.0163
  65   2.0000      -0.465903       -12.6779
  66   2.0000      -0.460927       -12.5425
  67   2.0000      -0.455833       -12.4038
  68   2.0000      -0.446172       -12.1410
  69   2.0000      -0.438397       -11.9294
  70   2.0000      -0.426977       -11.6186
  71   2.0000      -0.415855       -11.3160
  72   2.0000      -0.407915       -11.0999
  73   2.0000      -0.405920       -11.0456
  74   2.0000      -0.393813       -10.7162
  75   2.0000      -0.389037       -10.5862
  76   2.0000      -0.380344       -10.3497
  77   2.0000      -0.377489       -10.2720
  78   2.0000      -0.373147       -10.1539
  79   2.0000      -0.367471        -9.9994
  80   2.0000      -0.365283        -9.9399
  81   2.0000      -0.361617        -9.8401
  82   2.0000      -0.355739        -9.6801
  83   2.0000      -0.353012        -9.6059
  84   2.0000      -0.350946        -9.5497
  85   2.0000      -0.333908        -9.0861
  86   2.0000      -0.323251        -8.7961
  87   2.0000      -0.316692        -8.6176
  88   2.0000      -0.312840        -8.5128
  89   2.0000      -0.309945        -8.4340
  90   2.0000      -0.303390        -8.2556
  91   2.0000      -0.292702        -7.9648
  92   2.0000      -0.283543        -7.7156
  93   2.0000      -0.280315        -7.6278
  94   2.0000      -0.272625        -7.4185
  95   2.0000      -0.245956        -6.6928
  96   2.0000      -0.231536        -6.3004
  97   2.0000      -0.228212        -6.2100
  98   2.0000      -0.219167        -5.9638
  99   2.0000      -0.216785        -5.8990
 100   2.0000      -0.212886        -5.7929
 101   0.0000      -0.045581        -1.2403
 102   0.0000      -0.024592        -0.6692
 103   0.0000      -0.002337        -0.0636
 104   0.0000      -0.000685        -0.0187
 105   0.0000       0.015837         0.4310

MULLIKEN ATOMIC CHARGES
-----------------------
   0 C :   -0.448596
   1 C :   -0.144251
   2 O :   -0.261578
   3 P :    0.664558
   4 S :   -0.486488
   5 O :   -0.308917
   6 C :   -0.148384
   7 C :   -0.455206
   8 S :   -0.096832
   9 C :   -0.246664
  10 S :   -0.161190
  11 P :    0.650287
  12 S :   -0.445402
  13 O :   -0.258574
  14 C :   -0.101724
  15 C :   -0.468791
  16 O :   -0.292475
  17 C :   -0.164300
  18 C :   -0.446421
  19 H :    0.148616
  20 H :    0.169068
  21 H :    0.156913
  22 H :    0.147800
  23 H :    0.175207
  24 H :    0.148930
  25 H :    0.170439
  26 H :    0.178867
  27 H :    0.157993
  28 H :    0.148634
  29 H :    0.213091
  30 H :    0.219433
  31 H :    0.154242
  32 H :    0.154408
  33 H :    0.154703
  34 H :    0.141364
  35 H :    0.177519
  36 H :    0.147691
  37 H :    0.173955
  38 H :    0.147892
  39 H :    0.180606
  40 H :    0.153583
Sum of atomic charges:    0.0000000

LOEWDIN ATOMIC CHARGES
----------------------
   0 C :   -0.398683
   1 C :    0.016880
   2 O :   -0.686851
   3 P :    0.376332
   4 S :   -0.134992
   5 O :   -0.660924
   6 C :    0.020506
   7 C :   -0.405940
   8 S :    0.185255
   9 C :   -0.424761
  10 S :    0.144152
  11 P :    0.379057
  12 S :   -0.103416
  13 O :   -0.653486
  14 C :    0.023733
  15 C :   -0.389551
  16 O :   -0.666474
  17 C :    0.022791
  18 C :   -0.408824
  19 H :    0.159842
  20 H :    0.165549
  21 H :    0.160835
  22 H :    0.177947
  23 H :    0.182085
  24 H :    0.179848
  25 H :    0.179427
  26 H :    0.166489
  27 H :    0.161175
  28 H :    0.159934
  29 H :    0.191955
  30 H :    0.193211
  31 H :    0.173061
  32 H :    0.176782
  33 H :    0.161861
  34 H :    0.158519
  35 H :    0.170751
  36 H :    0.179376
  37 H :    0.180287
  38 H :    0.159485
  39 H :    0.166919
  40 H :    0.159857

  Mayer bond orders larger than 0.100000
B(  0-C ,  1-C ) :   0.9154 B(  0-C , 19-H ) :   0.9628 B(  0-C , 20-H ) :   0.9595
B(  0-C , 21-H ) :   0.9747 B(  1-C ,  2-O ) :   0.7733 B(  1-C , 22-H ) :   0.9635
B(  1-C , 23-H ) :   0.9585 B(  2-O ,  3-P ) :   1.1174 B(  3-P ,  4-S ) :   1.7553
B(  3-P ,  5-O ) :   1.0675 B(  3-P ,  8-S ) :   1.1067 B(  5-O ,  6-C ) :   0.8110
B(  6-C ,  7-C ) :   0.9243 B(  6-C , 24-H ) :   0.9579 B(  6-C , 25-H ) :   0.9654
B(  7-C , 26-H ) :   0.9612 B(  7-C , 27-H ) :   0.9686 B(  7-C , 28-H ) :   0.9582
B(  8-S ,  9-C ) :   0.9117 B(  9-C , 10-S ) :   0.9088 B(  9-C , 29-H ) :   0.9049
B(  9-C , 30-H ) :   0.9042 B( 10-S , 11-P ) :   1.0021 B( 11-P , 12-S ) :   1.8360
B( 11-P , 13-O ) :   1.1653 B( 11-P , 16-O ) :   1.0352 B( 13-O , 14-C ) :   0.7346
B( 14-C , 15-C ) :   0.9373 B( 14-C , 31-H ) :   0.9445 B( 14-C , 32-H ) :   0.9542
B( 15-C , 33-H ) :   0.9694 B( 15-C , 34-H ) :   0.9682 B( 15-C , 35-H ) :   0.9662
B( 16-O , 17-C ) :   0.8192 B( 17-C , 18-C ) :   0.9181 B( 17-C , 36-H ) :   0.9615
B( 17-C , 37-H ) :   0.9691 B( 18-C , 38-H ) :   0.9563 B( 18-C , 39-H ) :   0.9629
B( 18-C , 40-H ) :   0.9677

Dispersion correction           -0.021802585
FINAL SINGLE POINT ENERGY     -2932.465433457814

DIPOLE MOMENT
-------------

Method             : SCF
Type of density    : Electron Density
Multiplicity       :   1
Irrep              :   0
Energy             : -2932.4901052722771055 Eh
Relativity type    :
Basis              : AO
                                X                 Y                 Z
Electronic contribution:     -5.964836269      -4.085969639     -12.190581151
Nuclear contribution   :      6.254633009       4.413589196      13.706951513
                        -----------------------------------------
Total Dipole Moment    :      0.289796740       0.327619557       1.516370362
                        -----------------------------------------
Magnitude (a.u.)       :      1.578193841
Magnitude (Debye)      :      4.011449949

Rotational constants in cm-1:             0.012925             0.004848             0.004634
Rotational constants in MHz :           387.483845           145.324989           138.936333

                             ****ORCA TERMINATED NORMALLY****
TOTAL RUN TIME: 0 days 0 hours 1 minutes 24 seconds 759 msec
