                         Program Version 6.0.0  -   RELEASE  -
|  1> ! r2scan-3c def2/J RI DEFGRID2 scfconv6 printgap
|  2> %output
|  3>     printlevel normal
|  4> end
|  5> %cpcm
|  6>     smd true
|  7>     smdsolvent "water"
|  8> end
|  9> * xyz 0 1
| 10> C 2.9925272662 0.2138885219 3.319807724
| 11> C 1.657244183 -0.2453085389 2.773797071
| 12> O 1.4004203088 0.2969528375 1.4613127683
| 13> P 2.2437451112 -0.1395650377 0.1938525639
| 14> S 2.9010869603 -1.9904366995 0.1932650897
| 15> O 3.3635701067 0.9859272999 0.1459964868
| 16> C 4.558126365 0.8535279453 -0.6430460117
| 17> C 4.2684973892 0.9030509268 -2.1293763213
| 18> S 0.8947898658 0.3934354255 -1.3457845286
| 19> C -0.0585005722 -1.1475156792 -1.2977524352
| 20> S -1.1249879495 -1.2768034233 0.156891486
| 21> P -2.4998154985 0.241963313 -0.4494897841
| 22> S -2.909290804 0.3047120537 -2.3582759754
| 23> O -1.8917864624 1.6003433907 0.0703288943
| 24> C -1.6406228904 1.8688526686 1.4728015581
| 25> C -0.6221296213 2.986417625 1.5541131887
| 26> O -3.7352428831 0.0432983127 0.5325656685
| 27> C -4.8344671972 -0.8379231911 0.2336499712
| 28> C -4.4138626595 -2.2923177214 0.1894403652
| 29> H 3.1011615003 -0.1317527543 4.3430229927
| 30> H 3.80040783 -0.2021471161 2.7189662759
| 31> H 3.0575624259 1.298358107 3.2934549527
| 32> H 0.8259994237 0.1207510214 3.3777437162
| 33> H 1.617217211 -1.3373692554 2.7104066957
| 34> H 5.1773314974 1.6932633371 -0.3248313438
| 35> H 5.0444781282 -0.0910709243 -0.3787980932
| 36> H 3.6983801946 0.024099639 -2.4282187395
| 37> H 3.6909670707 1.7914123333 -2.3732309857
| 38> H 5.204306341 0.9186205553 -2.6788400906
| 39> H 0.624377182 -1.9969409571 -1.2672364723
| 40> H -0.6748234755 -1.1616981914 -2.1969468865
| 41> H -2.590592361 2.1516184669 1.9302959724
| 42> H -1.2718355694 0.9517972066 1.9420147705
| 43> H -0.9822359909 3.8547564558 1.0098959049
| 44> H -0.464639668 3.251233051 2.5947249682
| 45> H 0.3209293617 2.666906208 1.1172663232
| 46> H -5.5434687518 -0.6472567862 1.0405540956
| 47> H -5.2673786014 -0.5336832333 -0.7239915872
| 48> H -5.2961946429 -2.9164412853 0.0908465982
| 49> H -3.7628953465 -2.4663723277 -0.6660007602
| 50> H -3.8798331232 -2.5615710747 1.0973388219
| 51> *
| 52>
| 53>                          ****END OF INPUT****

CARTESIAN COORDINATES (ANGSTROEM)
---------------------------------
  C      2.992527    0.213889    3.319808
  C      1.657244   -0.245309    2.773797
  O      1.400420    0.296953    1.461313
  P      2.243745   -0.139565    0.193853
  S      2.901087   -1.990437    0.193265
  O      3.363570    0.985927    0.145996
  C      4.558126    0.853528   -0.643046
  C      4.268497    0.903051   -2.129376
  S      0.894790    0.393435   -1.345785
  C     -0.058501   -1.147516   -1.297752
  S     -1.124988   -1.276803    0.156891
  P     -2.499815    0.241963   -0.449490
  S     -2.909291    0.304712   -2.358276
  O     -1.891786    1.600343    0.070329
  C     -1.640623    1.868853    1.472802
  C     -0.622130    2.986418    1.554113
  O     -3.735243    0.043298    0.532566
  C     -4.834467   -0.837923    0.233650
  C     -4.413863   -2.292318    0.189440
  H      3.101162   -0.131753    4.343023
  H      3.800408   -0.202147    2.718966
  H      3.057562    1.298358    3.293455
  H      0.825999    0.120751    3.377744
  H      1.617217   -1.337369    2.710407
  H      5.177331    1.693263   -0.324831
  H      5.044478   -0.091071   -0.378798
  H      3.698380    0.024100   -2.428219
  H      3.690967    1.791412   -2.373231
  H      5.204306    0.918621   -2.678840
  H      0.624377   -1.996941   -1.267236
  H     -0.674823   -1.161698   -2.196947
  H     -2.590592    2.151618    1.930296
  H     -1.271836    0.951797    1.942015
  H     -0.982236    3.854756    1.009896
  H     -0.464640    3.251233    2.594725
  H      0.320929    2.666906    1.117266
  H     -5.543469   -0.647257    1.040554
  H     -5.267379   -0.533683   -0.723992
  H     -5.296195   -2.916441    0.090847
  H     -3.762895   -2.466372   -0.666001
  H     -3.879833   -2.561571    1.097339

 Total Charge           Charge          ....    0
 Multiplicity           Mult            ....    1
 Number of Electrons    NEL             ....  202
 Basis Dimension        Dim             ....  539

ORBITAL ENERGIES
----------------

  NO   OCC          E(Eh)            E(eV)
   0   2.0000     -88.578301     -2410.3381
   1   2.0000     -88.576076     -2410.2776
   2   2.0000     -88.531136     -2409.0547
   3   2.0000     -88.529375     -2409.0068
   4   2.0000     -76.919916     -2093.0973
   5   2.0000     -76.919100     -2093.0751
   6   2.0000     -18.996949      -516.9333
   7   2.0000     -18.996686      -516.9261
   8   2.0000     -18.993265      -516.8330
   9   2.0000     -18.992020      -516.7991
  10   2.0000     -10.102819      -274.9117
  11   2.0000     -10.091118      -274.5933
  12   2.0000     -10.091018      -274.5906
  13   2.0000     -10.090307      -274.5712
  14   2.0000     -10.089088      -274.5380
  15   2.0000     -10.018938      -272.6292
  16   2.0000     -10.018779      -272.6248
  17   2.0000     -10.018730      -272.6235
  18   2.0000     -10.018702      -272.6227
  19   2.0000      -7.872636      -214.2253
  20   2.0000      -7.870403      -214.1646
  21   2.0000      -7.826287      -212.9641
  22   2.0000      -7.824410      -212.9130
  23   2.0000      -6.598472      -179.5535
  24   2.0000      -6.597791      -179.5350
  25   2.0000      -5.819477      -158.3560
  26   2.0000      -5.817230      -158.2949
  27   2.0000      -5.816579      -158.2772
  28   2.0000      -5.814308      -158.2154
  29   2.0000      -5.809713      -158.0903
  30   2.0000      -5.807525      -158.0308
  31   2.0000      -5.773849      -157.1144
  32   2.0000      -5.771909      -157.0616
  33   2.0000      -5.766492      -156.9142
  34   2.0000      -5.766374      -156.9110
  35   2.0000      -5.764701      -156.8655
  36   2.0000      -5.764500      -156.8600
  37   2.0000      -4.744309      -129.0992
  38   2.0000      -4.743260      -129.0707
  39   2.0000      -4.743149      -129.0677
  40   2.0000      -4.742647      -129.0540
  41   2.0000      -4.742088      -129.0388
  42   2.0000      -4.741724      -129.0289
  43   2.0000      -1.054163       -28.6852
  44   2.0000      -1.053067       -28.6554
  45   2.0000      -1.013720       -27.5847
  46   2.0000      -1.011957       -27.5368
  47   2.0000      -0.803742       -21.8709
  48   2.0000      -0.756397       -20.5826
  49   2.0000      -0.744502       -20.2589
  50   2.0000      -0.725494       -19.7417
  51   2.0000      -0.723805       -19.6957
  52   2.0000      -0.711533       -19.3618
  53   2.0000      -0.690082       -18.7781
  54   2.0000      -0.674959       -18.3666
  55   2.0000      -0.632874       -17.2214
  56   2.0000      -0.619635       -16.8611
  57   2.0000      -0.599798       -16.3213
  58   2.0000      -0.598858       -16.2957
  59   2.0000      -0.588626       -16.0173
  60   2.0000      -0.527263       -14.3476
  61   2.0000      -0.514746       -14.0069
  62   2.0000      -0.491524       -13.3750
  63   2.0000      -0.490710       -13.3529
  64   2.0000      -0.477731       -12.9997
  65   2.0000      -0.460703       -12.5364
  66   2.0000      -0.454943       -12.3796
  67   2.0000      -0.451126       -12.2758
  68   2.0000      -0.441732       -12.0201
  69   2.0000      -0.434797       -11.8314
  70   2.0000      -0.422553       -11.4983
  71   2.0000      -0.407670       -11.0933
  72   2.0000      -0.407146       -11.0790
  73   2.0000      -0.403157       -10.9705
  74   2.0000      -0.391880       -10.6636
  75   2.0000      -0.388203       -10.5635
  76   2.0000      -0.379834       -10.3358
  77   2.0000      -0.373847       -10.1729
  78   2.0000      -0.365218        -9.9381
  79   2.0000      -0.358385        -9.7521
  80   2.0000      -0.355804        -9.6819
  81   2.0000      -0.352214        -9.5842
  82   2.0000      -0.350634        -9.5412
  83   2.0000      -0.347718        -9.4619
  84   2.0000      -0.346171        -9.4198
  85   2.0000      -0.329185        -8.9576
  86   2.0000      -0.320448        -8.7198
  87   2.0000      -0.316158        -8.6031
  88   2.0000      -0.306637        -8.3440
  89   2.0000      -0.305113        -8.3025
  90   2.0000      -0.299339        -8.1454
  91   2.0000      -0.288268        -7.8442
  92   2.0000      -0.281648        -7.6640
  93   2.0000      -0.279705        -7.6111
  94   2.0000      -0.275371        -7.4932
  95   2.0000      -0.250178        -6.8077
  96   2.0000      -0.239014        -6.5039
  97   2.0000      -0.235961        -6.4208
  98   2.0000      -0.228202        -6.2097
  99   2.0000      -0.224824        -6.1178
 100   2.0000      -0.219893        -5.9836
 101   0.0000      -0.051239        -1.3943
 102   0.0000      -0.031145        -0.8475
 103   0.0000      -0.006021        -0.1638
 104   0.0000      -0.005403        -0.1470
 105   0.0000       0.015564         0.4235

MULLIKEN ATOMIC CHARGES
-----------------------
   0 C :   -0.490772
   1 C :   -0.142262
   2 O :   -0.282777
   3 P :    0.707856
   4 S :   -0.530886
   5 O :   -0.332922
   6 C :   -0.149029
   7 C :   -0.491212
   8 S :   -0.123672
   9 C :   -0.255136
  10 S :   -0.158524
  11 P :    0.663172
  12 S :   -0.499534
  13 O :   -0.288917
  14 C :   -0.103639
  15 C :   -0.507916
  16 O :   -0.311951
  17 C :   -0.157821
  18 C :   -0.482999
  19 H :    0.172958
  20 H :    0.168503
  21 H :    0.171015
  22 H :    0.181178
  23 H :    0.176824
  24 H :    0.176096
  25 H :    0.177755
  26 H :    0.172991
  27 H :    0.170346
  28 H :    0.173370
  29 H :    0.232304
  30 H :    0.234342
  31 H :    0.175646
  32 H :    0.174354
  33 H :    0.166153
  34 H :    0.172634
  35 H :    0.171397
  36 H :    0.175940
  37 H :    0.179291
  38 H :    0.172856
  39 H :    0.174233
  40 H :    0.168755
Sum of atomic charges:    0.0000000

LOEWDIN ATOMIC CHARGES
----------------------
   0 C :   -0.402286
   1 C :    0.022386
   2 O :   -0.693366
   3 P :    0.382770
   4 S :   -0.161662
   5 O :   -0.670521
   6 C :    0.026168
   7 C :   -0.409651
   8 S :    0.169156
   9 C :   -0.420628
  10 S :    0.149396
  11 P :    0.381232
  12 S :   -0.144352
  13 O :   -0.676818
  14 C :    0.029495
  15 C :   -0.393355
  16 O :   -0.672309
  17 C :    0.028681
  18 C :   -0.411301
  19 H :    0.168857
  20 H :    0.162736
  21 H :    0.164240
  22 H :    0.191055
  23 H :    0.182340
  24 H :    0.191348
  25 H :    0.181779
  26 H :    0.161693
  27 H :    0.163749
  28 H :    0.168832
  29 H :    0.197436
  30 H :    0.197305
  31 H :    0.182817
  32 H :    0.183971
  33 H :    0.164068
  34 H :    0.170856
  35 H :    0.166313
  36 H :    0.191572
  37 H :    0.181667
  38 H :    0.168651
  39 H :    0.161939
  40 H :    0.163745

  Mayer bond orders larger than 0.100000
B(  0-C ,  1-C ) :   0.9017 B(  0-C , 19-H ) :   0.9568 B(  0-C , 20-H ) :   0.9593
B(  0-C , 21-H ) :   0.9737 B(  1-C ,  2-O ) :   0.7603 B(  1-C , 22-H ) :   0.9532
B(  1-C , 23-H ) :   0.9559 B(  2-O ,  3-P ) :   1.1315 B(  3-P ,  4-S ) :   1.7169
B(  3-P ,  5-O ) :   1.0766 B(  3-P ,  8-S ) :   1.1067 B(  5-O ,  6-C ) :   0.7994
B(  6-C ,  7-C ) :   0.9098 B(  6-C , 24-H ) :   0.9483 B(  6-C , 25-H ) :   0.9645
B(  7-C , 26-H ) :   0.9631 B(  7-C , 27-H ) :   0.9660 B(  7-C , 28-H ) :   0.9530
B(  8-S ,  9-C ) :   0.8991 B(  9-C , 10-S ) :   0.8988 B(  9-C , 29-H ) :   0.9018
B(  9-C , 30-H ) :   0.9007 B( 10-S , 11-P ) :   1.0150 B( 11-P , 12-S ) :   1.8132
B( 11-P , 13-O ) :   1.1708 B( 11-P , 16-O ) :   1.0476 B( 13-O , 14-C ) :   0.7230
B( 14-C , 15-C ) :   0.9269 B( 14-C , 31-H ) :   0.9347 B( 14-C , 32-H ) :   0.9457
B( 15-C , 33-H ) :   0.9683 B( 15-C , 34-H ) :   0.9609 B( 15-C , 35-H ) :   0.9674
B( 16-O , 17-C ) :   0.8066 B( 17-C , 18-C ) :   0.9062 B( 17-C , 36-H ) :   0.9504
B( 17-C , 37-H ) :   0.9676 B( 18-C , 38-H ) :   0.9510 B( 18-C , 39-H ) :   0.9647
B( 18-C , 40-H ) :   0.9647

Dispersion correction           -0.021802585
FINAL SINGLE POINT ENERGY     -2932.474211030215

DIPOLE MOMENT
-------------

Method             : SCF
Type of density    : Electron Density
Multiplicity       :   1
Irrep              :   0
Energy             : -2932.4988828446776097 Eh
Relativity type    :
Basis              : AO
                                X                 Y                 Z
Electronic contribution:     -5.932718368      -4.141284000     -11.488709718
Nuclear contribution   :      6.254633009       4.413589196      13.706951513
                        -----------------------------------------
Total Dipole Moment    :      0.321914641       0.272305196       2.218241795
                        -----------------------------------------
Magnitude (a.u.)       :      2.257958329
Magnitude (Debye)      :      5.739273966

Rotational constants in cm-1:             0.012925             0.004848             0.004634
Rotational constants in MHz :           387.483845           145.324989           138.936333

                             ****ORCA TERMINATED NORMALLY****
TOTAL RUN TIME: 0 days 0 hours 1 minutes 57 seconds 178 msec
