                         Program Version 6.0.0  -   RELEASE  -
|  1> ! pbe def2-sv(p) def2/J RI DEFGRID1 loosescf d4 GCP(DFT/SV(P)) printgap
|  2> %output
|  3>     printlevel normal
|  4> end
|  5> * xyz 0 1
|  6> C 3.1348600669 1.5279567059 -2.0923697359
|  7> C 3.9367855814 0.4507279098 -1.393177281
|  8> O 3.5241186877 0.2310641789 -0.0313148693
|  9> P 2.026008808 0.0332731992 0.4597517149
| 10> S 1.0090209062 1.6910855093 0.6929771247
| 11> O 2.1986725872 -0.6506470375 1.8666346181
| 12> C 3.0201458428 -1.8201103635 2.1128401688
| 13> C 4.3664681465 -1.4116816391 2.675040561
| 14> S 1.4075791691 -1.5199221919 -0.8777960076
| 15> C -0.0923364108 -2.17833911 -0.0629549445
| 16> S -0.9734376089 -1.0132629547 0.9998933823
| 17> P -1.9809849962 0.0530455029 -0.5620982972
| 18> S -0.9911212476 0.6031258712 -2.1501395675
| 19> O -2.7498462652 1.186403651 0.2345595096
| 20> C -2.2651681134 2.5252827679 0.4446494803
| 21> C -3.4589784018 3.4579163265 0.4566952406
| 22> O -3.126928395 -0.9512579743 -0.9718794669
| 23> C -4.1294414292 -1.4701435303 -0.0627687192
| 24> C -5.3884371447 -0.6288531584 -0.1082814761
| 25> H 2.0909627785 1.2260146228 -2.1886991093
| 26> H 3.170817547 2.4570854822 -1.5278383221
| 27> H 3.5407340744 1.6931929161 -3.085171352
| 28> H 4.9865772887 0.7352212761 -1.3009092192
| 29> H 3.853200856 -0.4989523929 -1.9290991384
| 30> H 2.4495001474 -2.4071415271 2.8348621855
| 31> H 3.1359109689 -2.3795052112 1.1802796028
| 32> H 4.2294125151 -0.828832311 3.5816104032
| 33> H 4.9419516847 -2.3032749235 2.9036030763
| 34> H 4.908397829 -0.8080984493 1.9517283934
| 35> H 0.1974909624 -3.0137782692 0.5699658245
| 36> H -0.7472024959 -2.5061692881 -0.8701345162
| 37> H -1.7251201281 2.5444519931 1.3945020636
| 38> H -1.5621689205 2.7792844665 -0.3551571992
| 39> H -3.1110811689 4.4701438561 0.6336386051
| 40> H -3.974233184 3.4177283935 -0.499328468
| 41> H -4.1479422622 3.1715732716 1.2462444312
| 42> H -4.3176180824 -2.4839470764 -0.4208620877
| 43> H -3.7100952048 -1.503191043 0.9465920867
| 44> H -5.7519350232 -0.5589243765 -1.1298753434
| 45> H -6.1478654647 -1.0944729659 0.5121410317
| 46> H -5.1874573696 0.3727079405 0.2618591914
| 47> *
| 48>
| 49>                          ****END OF INPUT****

CARTESIAN COORDINATES (ANGSTROEM)
---------------------------------
  C      3.134860    1.527957   -2.092370
  C      3.936786    0.450728   -1.393177
  O      3.524119    0.231064   -0.031315
  P      2.026009    0.033273    0.459752
  S      1.009021    1.691086    0.692977
  O      2.198673   -0.650647    1.866635
  C      3.020146   -1.820110    2.112840
  C      4.366468   -1.411682    2.675041
  S      1.407579   -1.519922   -0.877796
  C     -0.092336   -2.178339   -0.062955
  S     -0.973438   -1.013263    0.999893
  P     -1.980985    0.053046   -0.562098
  S     -0.991121    0.603126   -2.150140
  O     -2.749846    1.186404    0.234560
  C     -2.265168    2.525283    0.444649
  C     -3.458978    3.457916    0.456695
  O     -3.126928   -0.951258   -0.971879
  C     -4.129441   -1.470144   -0.062769
  C     -5.388437   -0.628853   -0.108281
  H      2.090963    1.226015   -2.188699
  H      3.170818    2.457085   -1.527838
  H      3.540734    1.693193   -3.085171
  H      4.986577    0.735221   -1.300909
  H      3.853201   -0.498952   -1.929099
  H      2.449500   -2.407142    2.834862
  H      3.135911   -2.379505    1.180280
  H      4.229413   -0.828832    3.581610
  H      4.941952   -2.303275    2.903603
  H      4.908398   -0.808098    1.951728
  H      0.197491   -3.013778    0.569966
  H     -0.747202   -2.506169   -0.870135
  H     -1.725120    2.544452    1.394502
  H     -1.562169    2.779284   -0.355157
  H     -3.111081    4.470144    0.633639
  H     -3.974233    3.417728   -0.499328
  H     -4.147942    3.171573    1.246244
  H     -4.317618   -2.483947   -0.420862
  H     -3.710095   -1.503191    0.946592
  H     -5.751935   -0.558924   -1.129875
  H     -6.147865   -1.094473    0.512141
  H     -5.187457    0.372708    0.261859

 Total Charge           Charge          ....    0
 Multiplicity           Mult            ....    1
 Number of Electrons    NEL             ....  202
 Basis Dimension        Dim             ....  334

ORBITAL ENERGIES
----------------

  NO   OCC          E(Eh)            E(eV)
   0   2.0000     -88.040181     -2395.6951
   1   2.0000     -88.036476     -2395.5943
   2   2.0000     -87.976087     -2393.9510
   3   2.0000     -87.969378     -2393.7685
   4   2.0000     -76.421168     -2079.5257
   5   2.0000     -76.420644     -2079.5114
   6   2.0000     -18.790300      -511.3100
   7   2.0000     -18.786748      -511.2134
   8   2.0000     -18.786434      -511.2049
   9   2.0000     -18.785694      -511.1847
  10   2.0000      -9.961054      -271.0541
  11   2.0000      -9.953631      -270.8521
  12   2.0000      -9.953495      -270.8484
  13   2.0000      -9.953437      -270.8468
  14   2.0000      -9.944064      -270.5918
  15   2.0000      -9.884830      -268.9799
  16   2.0000      -9.884794      -268.9789
  17   2.0000      -9.882600      -268.9192
  18   2.0000      -9.874255      -268.6921
  19   2.0000      -7.684671      -209.1105
  20   2.0000      -7.680989      -209.0103
  21   2.0000      -7.621216      -207.3838
  22   2.0000      -7.614642      -207.2049
  23   2.0000      -6.418385      -174.6531
  24   2.0000      -6.417327      -174.6243
  25   2.0000      -5.712567      -155.4469
  26   2.0000      -5.709248      -155.3565
  27   2.0000      -5.708978      -155.3492
  28   2.0000      -5.705472      -155.2538
  29   2.0000      -5.701560      -155.1473
  30   2.0000      -5.697982      -155.0500
  31   2.0000      -5.650305      -153.7526
  32   2.0000      -5.643966      -153.5801
  33   2.0000      -5.641918      -153.5244
  34   2.0000      -5.641083      -153.5017
  35   2.0000      -5.634872      -153.3327
  36   2.0000      -5.634716      -153.3284
  37   2.0000      -4.641395      -126.2988
  38   2.0000      -4.640475      -126.2737
  39   2.0000      -4.640157      -126.2651
  40   2.0000      -4.639487      -126.2468
  41   2.0000      -4.638476      -126.2193
  42   2.0000      -4.637035      -126.1801
  43   2.0000      -0.983839       -26.7716
  44   2.0000      -0.982724       -26.7413
  45   2.0000      -0.941422       -25.6174
  46   2.0000      -0.940473       -25.5916
  47   2.0000      -0.759734       -20.6734
  48   2.0000      -0.716425       -19.4949
  49   2.0000      -0.709217       -19.2988
  50   2.0000      -0.688724       -18.7411
  51   2.0000      -0.686160       -18.6714
  52   2.0000      -0.666755       -18.1433
  53   2.0000      -0.646102       -17.5813
  54   2.0000      -0.633922       -17.2499
  55   2.0000      -0.586321       -15.9546
  56   2.0000      -0.578753       -15.7487
  57   2.0000      -0.574238       -15.6258
  58   2.0000      -0.571453       -15.5500
  59   2.0000      -0.562625       -15.3098
  60   2.0000      -0.506875       -13.7928
  61   2.0000      -0.496174       -13.5016
  62   2.0000      -0.479230       -13.0405
  63   2.0000      -0.469008       -12.7624
  64   2.0000      -0.453316       -12.3354
  65   2.0000      -0.441331       -12.0092
  66   2.0000      -0.440231       -11.9793
  67   2.0000      -0.433682       -11.8011
  68   2.0000      -0.427377       -11.6295
  69   2.0000      -0.410334       -11.1658
  70   2.0000      -0.404281       -11.0010
  71   2.0000      -0.397434       -10.8147
  72   2.0000      -0.388574       -10.5736
  73   2.0000      -0.383453       -10.4343
  74   2.0000      -0.381140       -10.3713
  75   2.0000      -0.369089       -10.0434
  76   2.0000      -0.357864        -9.7380
  77   2.0000      -0.353853        -9.6288
  78   2.0000      -0.351857        -9.5745
  79   2.0000      -0.348355        -9.4792
  80   2.0000      -0.348272        -9.4770
  81   2.0000      -0.341923        -9.3042
  82   2.0000      -0.338391        -9.2081
  83   2.0000      -0.333224        -9.0675
  84   2.0000      -0.330525        -8.9941
  85   2.0000      -0.316912        -8.6236
  86   2.0000      -0.312458        -8.5024
  87   2.0000      -0.294482        -8.0133
  88   2.0000      -0.290798        -7.9130
  89   2.0000      -0.287642        -7.8271
  90   2.0000      -0.287100        -7.8124
  91   2.0000      -0.274171        -7.4606
  92   2.0000      -0.266405        -7.2493
  93   2.0000      -0.256815        -6.9883
  94   2.0000      -0.251010        -6.8303
  95   2.0000      -0.242547        -6.6000
  96   2.0000      -0.220219        -5.9925
  97   2.0000      -0.204455        -5.5635
  98   2.0000      -0.185315        -5.0427
  99   2.0000      -0.177177        -4.8212
 100   2.0000      -0.174118        -4.7380
 101   0.0000      -0.049691        -1.3522
 102   0.0000      -0.026984        -0.7343
 103   0.0000      -0.015343        -0.4175
 104   0.0000       0.009311         0.2534
 105   0.0000       0.017688         0.4813

MULLIKEN ATOMIC CHARGES
-----------------------
   0 C :   -0.327435
   1 C :   -0.010814
   2 O :   -0.381670
   3 P :    0.606881
   4 S :   -0.313763
   5 O :   -0.353883
   6 C :   -0.016823
   7 C :   -0.285484
   8 S :   -0.127822
   9 C :   -0.309721
  10 S :   -0.100336
  11 P :    0.609691
  12 S :   -0.290697
  13 O :   -0.386591
  14 C :   -0.027388
  15 C :   -0.279139
  16 O :   -0.361650
  17 C :   -0.009975
  18 C :   -0.295213
  19 H :    0.152649
  20 H :    0.126125
  21 H :    0.108353
  22 H :    0.106707
  23 H :    0.112695
  24 H :    0.103451
  25 H :    0.096477
  26 H :    0.120129
  27 H :    0.106671
  28 H :    0.122791
  29 H :    0.179252
  30 H :    0.184871
  31 H :    0.115885
  32 H :    0.123548
  33 H :    0.113723
  34 H :    0.117240
  35 H :    0.113538
  36 H :    0.103831
  37 H :    0.100395
  38 H :    0.119233
  39 H :    0.107729
  40 H :    0.126536
Sum of atomic charges:   -0.0000000

LOEWDIN ATOMIC CHARGES
----------------------
   0 C :   -0.374042
   1 C :   -0.115634
   2 O :   -0.248447
   3 P :    0.564354
   4 S :   -0.304961
   5 O :   -0.235191
   6 C :   -0.119772
   7 C :   -0.357515
   8 S :    0.055333
   9 C :   -0.470291
  10 S :    0.083334
  11 P :    0.567398
  12 S :   -0.296019
  13 O :   -0.244357
  14 C :   -0.120064
  15 C :   -0.352679
  16 O :   -0.242207
  17 C :   -0.117899
  18 C :   -0.360385
  19 H :    0.126245
  20 H :    0.129185
  21 H :    0.129099
  22 H :    0.119795
  23 H :    0.107517
  24 H :    0.116815
  25 H :    0.101457
  26 H :    0.128861
  27 H :    0.127918
  28 H :    0.127558
  29 H :    0.131183
  30 H :    0.133736
  31 H :    0.112393
  32 H :    0.111424
  33 H :    0.131868
  34 H :    0.127050
  35 H :    0.123299
  36 H :    0.118156
  37 H :    0.102033
  38 H :    0.128501
  39 H :    0.128617
  40 H :    0.126335

  Mayer bond orders larger than 0.100000
B(  0-C ,  1-C ) :   1.1692 B(  0-C , 19-H ) :   0.9256 B(  0-C , 20-H ) :   0.9401
B(  0-C , 21-H ) :   0.9330 B(  1-C ,  2-O ) :   0.9130 B(  1-C , 22-H ) :   0.9328
B(  1-C , 23-H ) :   0.9252 B(  2-O ,  3-P ) :   1.0763 B(  3-P ,  4-S ) :   1.6395
B(  3-P ,  5-O ) :   1.1222 B(  3-P ,  8-S ) :   0.9567 B(  4-S ,  8-S ) :   0.1195
B(  5-O ,  6-C ) :   0.9010 B(  6-C ,  7-C ) :   1.1669 B(  6-C , 24-H ) :   0.9346
B(  6-C , 25-H ) :   0.9054 B(  7-C , 26-H ) :   0.9476 B(  7-C , 27-H ) :   0.9401
B(  7-C , 28-H ) :   0.9428 B(  8-S ,  9-C ) :   0.9739 B(  9-C , 10-S ) :   1.0269
B(  9-C , 29-H ) :   0.9105 B(  9-C , 30-H ) :   0.9006 B( 10-S , 11-P ) :   0.9196
B( 10-S , 12-S ) :   0.1133 B( 11-P , 12-S ) :   1.6838 B( 11-P , 13-O ) :   1.0992
B( 11-P , 16-O ) :   1.1151 B( 13-O , 14-C ) :   0.8959 B( 14-C , 15-C ) :   1.1514
B( 14-C , 31-H ) :   0.9287 B( 14-C , 32-H ) :   0.9096 B( 15-C , 33-H ) :   0.9422
B( 15-C , 34-H ) :   0.9492 B( 15-C , 35-H ) :   0.9490 B( 16-O , 17-C ) :   0.8983
B( 17-C , 18-C ) :   1.1645 B( 17-C , 36-H ) :   0.9368 B( 17-C , 37-H ) :   0.9095
B( 18-C , 38-H ) :   0.9470 B( 18-C , 39-H ) :   0.9396 B( 18-C , 40-H ) :   0.9413

Dispersion correction           -0.067156244
FINAL SINGLE POINT ENERGY     -2929.502643161699

DIPOLE MOMENT
-------------

Method             : SCF
Type of density    : Electron Density
Multiplicity       :   1
Irrep              :   0
Energy             : -2929.6194597133467141 Eh
Relativity type    :
Basis              : AO
                                X                 Y                 Z
Electronic contribution:      2.730819392      -3.399472109      -3.917926962
Nuclear contribution   :     -2.755430588       2.254773316       4.565099506
                        -----------------------------------------
Total Dipole Moment    :     -0.024611196      -1.144698793       0.647172544
                        -----------------------------------------
Magnitude (a.u.)       :      1.315208477
Magnitude (Debye)      :      3.342994277

Rotational constants in cm-1:             0.012882             0.005154             0.004774
Rotational constants in MHz :           386.195941           154.502131           143.133622

                             ****ORCA TERMINATED NORMALLY****
TOTAL RUN TIME: 0 days 0 hours 0 minutes 20 seconds 629 msec
