                         Program Version 6.0.0  -   RELEASE  -
|  1> ! pbe def2-sv(p) def2/J RI DEFGRID1 loosescf d4 GCP(DFT/SV(P)) printgap
|  2> %output
|  3>     printlevel normal
|  4> end
|  5> * xyz 0 1
|  6> C 4.3204593579 0.0231650242 -2.1785973963
|  7> C 4.5062827114 -0.3561118407 -0.7229815557
|  8> O 3.257664067 -0.6656184898 -0.0829304032
|  9> P 2.1809016846 0.4638270241 0.2539740383
| 10> S 2.9178023929 2.1896148646 0.8087155164
| 11> O 1.2589645803 -0.2740775939 1.3075993553
| 12> C 1.5099463656 -0.2141120184 2.725341307
| 13> C 2.7339844905 -1.0161120721 3.1132752899
| 14> S 0.8676374723 0.4974058798 -1.4030122639
| 15> C 0.4527698875 -1.2653735261 -1.524541871
| 16> S -0.6885406557 -1.8693141494 -0.2403294291
| 17> P -2.0860024421 -0.299372847 -0.3178593361
| 18> S -2.5900642433 0.3643333824 -2.09691016
| 19> O -1.4632944622 0.7489899393 0.69584056
| 20> C -1.7279415868 2.1602028828 0.5891187239
| 21> C -3.1415391316 2.4885480816 1.0188075372
| 22> O -3.2911819516 -0.870715665 0.5438214619
| 23> C -4.2269119693 -1.821302506 -0.006462964
| 24> C -5.46302413 -1.8206362588 0.8699102538
| 25> H 3.7377997306 0.9413557635 -2.2515721871
| 26> H 5.2922831029 0.1877321774 -2.6328164864
| 27> H 3.8016708585 -0.7648244273 -2.7184188298
| 28> H 4.9824649119 0.4624965807 -0.1739353356
| 29> H 5.0933760085 -1.2690724545 -0.6143205141
| 30> H 1.626339668 0.8362444237 3.0120300452
| 31> H 0.5984426421 -0.6208118233 3.1663286781
| 32> H 2.8202684012 -1.0376130483 4.1951482739
| 33> H 2.6511717513 -2.0317968704 2.7354590955
| 34> H 3.6273002185 -0.5536926176 2.6960009096
| 35> H 1.3542796154 -1.8673963481 -1.4401927075
| 36> H -0.0159595635 -1.3794121982 -2.5005872548
| 37> H -0.9821427874 2.6230157838 1.2385711936
| 38> H -1.5511444966 2.4716432306 -0.4465633763
| 39> H -3.2841867722 3.5643387559 0.9989935819
| 40> H -3.847871686 2.0228138757 0.3323751239
| 41> H -3.3248467799 2.1138080307 2.0222269754
| 42> H -4.4611028388 -1.52327808 -1.034051269
| 43> H -3.746691061 -2.8033949192 -0.0193550233
| 44> H -6.1669980196 -2.5544813246 0.4916346372
| 45> H -5.1923214297 -2.0728906602 1.8909971383
| 46> H -5.9290974932 -0.8394638178 0.8614047953
| 47> *
| 48>
| 49>                          ****END OF INPUT****

CARTESIAN COORDINATES (ANGSTROEM)
---------------------------------
  C      4.320459    0.023165   -2.178597
  C      4.506283   -0.356112   -0.722982
  O      3.257664   -0.665618   -0.082930
  P      2.180902    0.463827    0.253974
  S      2.917802    2.189615    0.808716
  O      1.258965   -0.274078    1.307599
  C      1.509946   -0.214112    2.725341
  C      2.733984   -1.016112    3.113275
  S      0.867637    0.497406   -1.403012
  C      0.452770   -1.265374   -1.524542
  S     -0.688541   -1.869314   -0.240329
  P     -2.086002   -0.299373   -0.317859
  S     -2.590064    0.364333   -2.096910
  O     -1.463294    0.748990    0.695841
  C     -1.727942    2.160203    0.589119
  C     -3.141539    2.488548    1.018808
  O     -3.291182   -0.870716    0.543821
  C     -4.226912   -1.821303   -0.006463
  C     -5.463024   -1.820636    0.869910
  H      3.737800    0.941356   -2.251572
  H      5.292283    0.187732   -2.632816
  H      3.801671   -0.764824   -2.718419
  H      4.982465    0.462497   -0.173935
  H      5.093376   -1.269072   -0.614321
  H      1.626340    0.836244    3.012030
  H      0.598443   -0.620812    3.166329
  H      2.820268   -1.037613    4.195148
  H      2.651172   -2.031797    2.735459
  H      3.627300   -0.553693    2.696001
  H      1.354280   -1.867396   -1.440193
  H     -0.015960   -1.379412   -2.500587
  H     -0.982143    2.623016    1.238571
  H     -1.551144    2.471643   -0.446563
  H     -3.284187    3.564339    0.998994
  H     -3.847872    2.022814    0.332375
  H     -3.324847    2.113808    2.022227
  H     -4.461103   -1.523278   -1.034051
  H     -3.746691   -2.803395   -0.019355
  H     -6.166998   -2.554481    0.491635
  H     -5.192321   -2.072891    1.890997
  H     -5.929097   -0.839464    0.861405

 Total Charge           Charge          ....    0
 Multiplicity           Mult            ....    1
 Number of Electrons    NEL             ....  202
 Basis Dimension        Dim             ....  334

ORBITAL ENERGIES
----------------

  NO   OCC          E(Eh)            E(eV)
   0   2.0000     -88.043913     -2395.7967
   1   2.0000     -88.038487     -2395.6490
   2   2.0000     -87.989824     -2394.3248
   3   2.0000     -87.985053     -2394.1950
   4   2.0000     -76.425652     -2079.6477
   5   2.0000     -76.424464     -2079.6154
   6   2.0000     -18.795760      -511.4586
   7   2.0000     -18.792887      -511.3805
   8   2.0000     -18.786662      -511.2111
   9   2.0000     -18.784887      -511.1628
  10   2.0000      -9.959993      -271.0252
  11   2.0000      -9.954516      -270.8761
  12   2.0000      -9.952321      -270.8164
  13   2.0000      -9.949734      -270.7460
  14   2.0000      -9.943324      -270.5716
  15   2.0000      -9.888509      -269.0800
  16   2.0000      -9.886511      -269.0256
  17   2.0000      -9.883837      -268.9529
  18   2.0000      -9.878365      -268.8040
  19   2.0000      -7.688459      -209.2136
  20   2.0000      -7.684059      -209.0939
  21   2.0000      -7.634975      -207.7582
  22   2.0000      -7.630024      -207.6235
  23   2.0000      -6.423546      -174.7936
  24   2.0000      -6.421787      -174.7457
  25   2.0000      -5.716770      -155.5612
  26   2.0000      -5.712769      -155.4523
  27   2.0000      -5.712027      -155.4321
  28   2.0000      -5.708684      -155.3412
  29   2.0000      -5.705219      -155.2469
  30   2.0000      -5.700702      -155.1240
  31   2.0000      -5.663820      -154.1204
  32   2.0000      -5.658853      -153.9852
  33   2.0000      -5.655621      -153.8973
  34   2.0000      -5.655200      -153.8858
  35   2.0000      -5.650668      -153.7625
  36   2.0000      -5.650302      -153.7525
  37   2.0000      -4.645860      -126.4203
  38   2.0000      -4.645528      -126.4112
  39   2.0000      -4.644122      -126.3730
  40   2.0000      -4.644016      -126.3701
  41   2.0000      -4.643640      -126.3599
  42   2.0000      -4.642418      -126.3266
  43   2.0000      -0.987124       -26.8610
  44   2.0000      -0.984153       -26.7802
  45   2.0000      -0.946092       -25.7445
  46   2.0000      -0.942585       -25.6490
  47   2.0000      -0.764099       -20.7922
  48   2.0000      -0.721095       -19.6220
  49   2.0000      -0.707776       -19.2596
  50   2.0000      -0.688016       -18.7219
  51   2.0000      -0.684613       -18.6293
  52   2.0000      -0.673100       -18.3160
  53   2.0000      -0.653093       -17.7716
  54   2.0000      -0.638052       -17.3623
  55   2.0000      -0.600542       -16.3416
  56   2.0000      -0.593196       -16.1417
  57   2.0000      -0.573598       -15.6084
  58   2.0000      -0.567341       -15.4381
  59   2.0000      -0.560429       -15.2501
  60   2.0000      -0.502459       -13.6726
  61   2.0000      -0.494413       -13.4537
  62   2.0000      -0.475082       -12.9277
  63   2.0000      -0.472109       -12.8467
  64   2.0000      -0.457851       -12.4588
  65   2.0000      -0.442457       -12.0399
  66   2.0000      -0.442271       -12.0348
  67   2.0000      -0.433394       -11.7933
  68   2.0000      -0.426234       -11.5984
  69   2.0000      -0.415149       -11.2968
  70   2.0000      -0.407971       -11.1015
  71   2.0000      -0.397533       -10.8174
  72   2.0000      -0.392368       -10.6769
  73   2.0000      -0.388863       -10.5815
  74   2.0000      -0.380767       -10.3612
  75   2.0000      -0.372004       -10.1227
  76   2.0000      -0.369889       -10.0652
  77   2.0000      -0.357674        -9.7328
  78   2.0000      -0.355926        -9.6853
  79   2.0000      -0.351482        -9.5643
  80   2.0000      -0.349122        -9.5001
  81   2.0000      -0.345032        -9.3888
  82   2.0000      -0.340780        -9.2731
  83   2.0000      -0.339245        -9.2313
  84   2.0000      -0.328777        -8.9465
  85   2.0000      -0.321180        -8.7398
  86   2.0000      -0.312574        -8.5056
  87   2.0000      -0.300548        -8.1783
  88   2.0000      -0.295573        -8.0430
  89   2.0000      -0.289700        -7.8831
  90   2.0000      -0.280432        -7.6309
  91   2.0000      -0.273940        -7.4543
  92   2.0000      -0.266166        -7.2427
  93   2.0000      -0.263195        -7.1619
  94   2.0000      -0.260032        -7.0758
  95   2.0000      -0.228911        -6.2290
  96   2.0000      -0.218807        -5.9540
  97   2.0000      -0.211836        -5.7644
  98   2.0000      -0.207967        -5.6591
  99   2.0000      -0.199167        -5.4196
 100   2.0000      -0.197584        -5.3765
 101   0.0000      -0.042955        -1.1689
 102   0.0000      -0.023054        -0.6273
 103   0.0000      -0.006459        -0.1758
 104   0.0000       0.003923         0.1068
 105   0.0000       0.011426         0.3109

MULLIKEN ATOMIC CHARGES
-----------------------
   0 C :   -0.311458
   1 C :   -0.008456
   2 O :   -0.382272
   3 P :    0.615743
   4 S :   -0.327743
   5 O :   -0.358857
   6 C :   -0.000986
   7 C :   -0.306215
   8 S :   -0.063374
   9 C :   -0.345014
  10 S :   -0.084659
  11 P :    0.608616
  12 S :   -0.337871
  13 O :   -0.355414
  14 C :   -0.009222
  15 C :   -0.301345
  16 O :   -0.373770
  17 C :   -0.012285
  18 C :   -0.280815
  19 H :    0.130174
  20 H :    0.113983
  21 H :    0.113069
  22 H :    0.112250
  23 H :    0.104800
  24 H :    0.109912
  25 H :    0.106445
  26 H :    0.111211
  27 H :    0.116392
  28 H :    0.119937
  29 H :    0.180941
  30 H :    0.193290
  31 H :    0.107355
  32 H :    0.115580
  33 H :    0.111266
  34 H :    0.119667
  35 H :    0.112729
  36 H :    0.106087
  37 H :    0.101517
  38 H :    0.111979
  39 H :    0.116690
  40 H :    0.120122
Sum of atomic charges:   -0.0000000

LOEWDIN ATOMIC CHARGES
----------------------
   0 C :   -0.366840
   1 C :   -0.121963
   2 O :   -0.249852
   3 P :    0.566074
   4 S :   -0.323175
   5 O :   -0.235324
   6 C :   -0.115025
   7 C :   -0.363856
   8 S :    0.113697
   9 C :   -0.472793
  10 S :    0.082473
  11 P :    0.567854
  12 S :   -0.331970
  13 O :   -0.233894
  14 C :   -0.120495
  15 C :   -0.364039
  16 O :   -0.248036
  17 C :   -0.121289
  18 C :   -0.350274
  19 H :    0.122920
  20 H :    0.131577
  21 H :    0.122664
  22 H :    0.110217
  23 H :    0.117907
  24 H :    0.109773
  25 H :    0.119520
  26 H :    0.129839
  27 H :    0.126313
  28 H :    0.122013
  29 H :    0.131508
  30 H :    0.137245
  31 H :    0.118268
  32 H :    0.110097
  33 H :    0.130029
  34 H :    0.120718
  35 H :    0.124423
  36 H :    0.108221
  37 H :    0.109267
  38 H :    0.130884
  39 H :    0.126978
  40 H :    0.128346

  Mayer bond orders larger than 0.100000
B(  0-C ,  1-C ) :   1.1641 B(  0-C , 19-H ) :   0.9351 B(  0-C , 20-H ) :   0.9384
B(  0-C , 21-H ) :   0.9468 B(  1-C ,  2-O ) :   0.9101 B(  1-C , 22-H ) :   0.9138
B(  1-C , 23-H ) :   0.9341 B(  2-O ,  3-P ) :   1.0629 B(  3-P ,  4-S ) :   1.6307
B(  3-P ,  5-O ) :   1.1303 B(  3-P ,  8-S ) :   0.9600 B(  5-O ,  6-C ) :   0.9066
B(  6-C ,  7-C ) :   1.1621 B(  6-C , 24-H ) :   0.9178 B(  6-C , 25-H ) :   0.9329
B(  7-C , 26-H ) :   0.9391 B(  7-C , 27-H ) :   0.9467 B(  7-C , 28-H ) :   0.9393
B(  8-S ,  9-C ) :   0.9969 B(  9-C , 10-S ) :   0.9902 B(  9-C , 29-H ) :   0.8980
B(  9-C , 30-H ) :   0.8983 B( 10-S , 11-P ) :   0.9799 B( 10-S , 12-S ) :   0.1108
B( 11-P , 12-S ) :   1.5919 B( 11-P , 13-O ) :   1.1311 B( 11-P , 16-O ) :   1.1113
B( 13-O , 14-C ) :   0.9004 B( 14-C , 15-C ) :   1.1633 B( 14-C , 31-H ) :   0.9308
B( 14-C , 32-H ) :   0.9142 B( 15-C , 33-H ) :   0.9401 B( 15-C , 34-H ) :   0.9360
B( 15-C , 35-H ) :   0.9467 B( 16-O , 17-C ) :   0.9045 B( 17-C , 18-C ) :   1.1603
B( 17-C , 36-H ) :   0.9089 B( 17-C , 37-H ) :   0.9291 B( 18-C , 38-H ) :   0.9419
B( 18-C , 39-H ) :   0.9505 B( 18-C , 40-H ) :   0.9514

Dispersion correction           -0.065932462
FINAL SINGLE POINT ENERGY     -2929.522472770279

DIPOLE MOMENT
-------------

Method             : SCF
Type of density    : Electron Density
Multiplicity       :   1
Irrep              :   0
Energy             : -2929.6412848454660889 Eh
Relativity type    :
Basis              : AO
                                X                 Y                 Z
Electronic contribution:      2.970248575       2.890548704      -8.806056240
Nuclear contribution   :     -2.839602221      -4.038390513       9.381301481
                        -----------------------------------------
Total Dipole Moment    :      0.130646354      -1.147841809       0.575245241
                        -----------------------------------------
Magnitude (a.u.)       :      1.290548866
Magnitude (Debye)      :      3.280314527

Rotational constants in cm-1:             0.013160             0.004853             0.004717
Rotational constants in MHz :           394.527782           145.497324           141.426019

                             ****ORCA TERMINATED NORMALLY****
TOTAL RUN TIME: 0 days 0 hours 0 minutes 21 seconds 363 msec
