                         Program Version 6.0.1  -  RELEASE   -
|  1> ! r2scan-3c def2/J RI DEFGRID2 scfconv6 printgap
|  2> %output
|  3>     printlevel normal
|  4> end
|  5> * xyz 0 1
|  6> C 5.1254159913 -2.9838355881 -0.9102060116
|  7> C 4.5260866209 -1.8871710343 -0.0437368459
|  8> O 3.086963853 -1.9141326271 -0.0923555139
|  9> C 2.484083422 -1.2847100876 -1.0778506932
| 10> O 3.0485010811 -0.6941560469 -1.9743151729
| 11> C 0.9739038819 -1.4144647084 -0.980109574
| 12> C 0.3577205163 -0.0595833986 -1.3032861713
| 13> H 0.7144360089 0.2599107226 -2.291126578
| 14> C 0.8354244143 1.0011561135 -0.3287636136
| 15> O 1.9105173767 0.9301298352 0.2204864307
| 16> O 0.008493617 2.0254359279 -0.248792654
| 17> C 0.4371127109 3.1883222655 0.493294749
| 18> C 0.2185652136 3.0364579547 1.9881950742
| 19> S -1.4488777326 -0.1061333791 -1.4678302159
| 20> P -2.0523745623 0.1055823415 0.5610633475
| 21> S -0.7848443105 -0.4479088263 1.9483220059
| 22> O -2.5902528099 1.5751187664 0.7702789586
| 23> C -3.5796087567 2.1591219337 -0.1012469386
| 24> O -3.4321733248 -0.7044905227 0.5647827419
| 25> C -3.4577824988 -2.1319889708 0.4534693298
| 26> H 4.7351039006 -3.9520601473 -0.6093066448
| 27> H 4.8798322982 -2.8091260268 -1.9550860218
| 28> H 6.2042646578 -2.9799604433 -0.7957533145
| 29> H 4.862620615 -0.899844765 -0.3729800365
| 30> H 4.7626189248 -2.0348152161 1.0100629795
| 31> H 0.7141504657 -1.746078199 0.0258226731
| 32> H 0.6389521132 -2.1514476702 -1.7115275961
| 33> H 1.4969693842 3.3498048062 0.2764956501
| 34> H -0.1676271746 3.9964816171 0.0817214109
| 35> H 0.8233858 2.2193711472 2.3766118698
| 36> H 0.5075703917 3.9570552076 2.4840952026
| 37> H -0.826402348 2.8236542062 2.2000810746
| 38> H -4.5173578737 1.6145459261 -0.0132731736
| 39> H -3.2263796828 2.1341911945 -1.1319871547
| 40> H -3.6931976346 3.1835648634 0.2432327692
| 41> H -3.2136458677 -2.4276468289 -0.5664580384
| 42> H -4.4731487944 -2.4268286725 0.7057070447
| 43> H -2.7480703341 -2.5760497111 1.153083639
| 44> *
| 45>
| 46>                          ****END OF INPUT****

CARTESIAN COORDINATES (ANGSTROEM)
---------------------------------
  C      5.125416   -2.983836   -0.910206
  C      4.526087   -1.887171   -0.043737
  O      3.086964   -1.914133   -0.092356
  C      2.484083   -1.284710   -1.077851
  O      3.048501   -0.694156   -1.974315
  C      0.973904   -1.414465   -0.980110
  C      0.357721   -0.059583   -1.303286
  H      0.714436    0.259911   -2.291127
  C      0.835424    1.001156   -0.328764
  O      1.910517    0.930130    0.220486
  O      0.008494    2.025436   -0.248793
  C      0.437113    3.188322    0.493295
  C      0.218565    3.036458    1.988195
  S     -1.448878   -0.106133   -1.467830
  P     -2.052375    0.105582    0.561063
  S     -0.784844   -0.447909    1.948322
  O     -2.590253    1.575119    0.770279
  C     -3.579609    2.159122   -0.101247
  O     -3.432173   -0.704491    0.564783
  C     -3.457782   -2.131989    0.453469
  H      4.735104   -3.952060   -0.609307
  H      4.879832   -2.809126   -1.955086
  H      6.204265   -2.979960   -0.795753
  H      4.862621   -0.899845   -0.372980
  H      4.762619   -2.034815    1.010063
  H      0.714150   -1.746078    0.025823
  H      0.638952   -2.151448   -1.711528
  H      1.496969    3.349805    0.276496
  H     -0.167627    3.996482    0.081721
  H      0.823386    2.219371    2.376612
  H      0.507570    3.957055    2.484095
  H     -0.826402    2.823654    2.200081
  H     -4.517358    1.614546   -0.013273
  H     -3.226380    2.134191   -1.131987
  H     -3.693198    3.183565    0.243233
  H     -3.213646   -2.427647   -0.566458
  H     -4.473149   -2.426829    0.705707
  H     -2.748070   -2.576050    1.153084

 Total Charge           Charge          ....    0
 Multiplicity           Mult            ....    1
 Number of Electrons    NEL             ....  174
 Basis Dimension        Dim             ....  510

ORBITAL ENERGIES
----------------

  NO   OCC          E(Eh)            E(eV)
   0   2.0000     -88.579541     -2410.3719
   1   2.0000     -88.523165     -2408.8378
   2   2.0000     -76.918870     -2093.0689
   3   2.0000     -19.002260      -517.0778
   4   2.0000     -18.999338      -516.9983
   5   2.0000     -18.996859      -516.9308
   6   2.0000     -18.989420      -516.7284
   7   2.0000     -18.936120      -515.2780
   8   2.0000     -18.919693      -514.8310
   9   2.0000     -10.164055      -276.5780
  10   2.0000     -10.148719      -276.1607
  11   2.0000     -10.102005      -274.8895
  12   2.0000     -10.097519      -274.7675
  13   2.0000     -10.096345      -274.7355
  14   2.0000     -10.092092      -274.6198
  15   2.0000     -10.083369      -274.3824
  16   2.0000     -10.047166      -273.3973
  17   2.0000     -10.022393      -272.7232
  18   2.0000     -10.017212      -272.5822
  19   2.0000      -7.873858      -214.2586
  20   2.0000      -7.817879      -212.7353
  21   2.0000      -6.597084      -179.5158
  22   2.0000      -5.820814      -158.3924
  23   2.0000      -5.817579      -158.3044
  24   2.0000      -5.811020      -158.1259
  25   2.0000      -5.765775      -156.8947
  26   2.0000      -5.757972      -156.6824
  27   2.0000      -5.757836      -156.6787
  28   2.0000      -4.742836      -129.0591
  29   2.0000      -4.742126      -129.0398
  30   2.0000      -4.740546      -128.9968
  31   2.0000      -1.080594       -29.4044
  32   2.0000      -1.065991       -29.0071
  33   2.0000      -1.056425       -28.7468
  34   2.0000      -1.014404       -27.6033
  35   2.0000      -0.986582       -26.8463
  36   2.0000      -0.969826       -26.3903
  37   2.0000      -0.809508       -22.0278
  38   2.0000      -0.747586       -20.3428
  39   2.0000      -0.740005       -20.1366
  40   2.0000      -0.730803       -19.8862
  41   2.0000      -0.696104       -18.9420
  42   2.0000      -0.681623       -18.5479
  43   2.0000      -0.663185       -18.0462
  44   2.0000      -0.648840       -17.6558
  45   2.0000      -0.624596       -16.9961
  46   2.0000      -0.593474       -16.1493
  47   2.0000      -0.547260       -14.8917
  48   2.0000      -0.522771       -14.2253
  49   2.0000      -0.516794       -14.0627
  50   2.0000      -0.501055       -13.6344
  51   2.0000      -0.498873       -13.5750
  52   2.0000      -0.477693       -12.9987
  53   2.0000      -0.458891       -12.4871
  54   2.0000      -0.457806       -12.4575
  55   2.0000      -0.452334       -12.3086
  56   2.0000      -0.443766       -12.0755
  57   2.0000      -0.438469       -11.9313
  58   2.0000      -0.433765       -11.8033
  59   2.0000      -0.431712       -11.7475
  60   2.0000      -0.424022       -11.5382
  61   2.0000      -0.414231       -11.2718
  62   2.0000      -0.408901       -11.1268
  63   2.0000      -0.402843       -10.9619
  64   2.0000      -0.384549       -10.4641
  65   2.0000      -0.378890       -10.3101
  66   2.0000      -0.369678       -10.0595
  67   2.0000      -0.364384        -9.9154
  68   2.0000      -0.355200        -9.6655
  69   2.0000      -0.352416        -9.5897
  70   2.0000      -0.341950        -9.3049
  71   2.0000      -0.336276        -9.1505
  72   2.0000      -0.332992        -9.0612
  73   2.0000      -0.330073        -8.9817
  74   2.0000      -0.325097        -8.8463
  75   2.0000      -0.319906        -8.7051
  76   2.0000      -0.310015        -8.4359
  77   2.0000      -0.299980        -8.1629
  78   2.0000      -0.291521        -7.9327
  79   2.0000      -0.283955        -7.7268
  80   2.0000      -0.276350        -7.5199
  81   2.0000      -0.262427        -7.1410
  82   2.0000      -0.256604        -6.9825
  83   2.0000      -0.237154        -6.4533
  84   2.0000      -0.227464        -6.1896
  85   2.0000      -0.220776        -6.0076
  86   2.0000      -0.217647        -5.9225
  87   0.0000      -0.043900        -1.1946
  88   0.0000      -0.030878        -0.8402
  89   0.0000      -0.002215        -0.0603
  90   0.0000       0.005700         0.1551
  91   0.0000       0.007605         0.2070

MULLIKEN ATOMIC CHARGES
-----------------------
   0 C :   -0.474714
   1 C :   -0.138764
   2 O :   -0.153015
   3 C :    0.367552
   4 O :   -0.416502
   5 C :   -0.451409
   6 C :    0.060780
   7 H :    0.218798
   8 C :    0.212374
   9 O :   -0.368111
  10 O :   -0.139232
  11 C :   -0.111421
  12 C :   -0.500129
  13 S :   -0.186545
  14 P :    0.739144
  15 S :   -0.408740
  16 O :   -0.301553
  17 C :   -0.295248
  18 O :   -0.344745
  19 C :   -0.297554
  20 H :    0.150595
  21 H :    0.174463
  22 H :    0.146030
  23 H :    0.171991
  24 H :    0.150314
  25 H :    0.216243
  26 H :    0.183709
  27 H :    0.161675
  28 H :    0.145161
  29 H :    0.189563
  30 H :    0.143431
  31 H :    0.171015
  32 H :    0.169141
  33 H :    0.171887
  34 H :    0.156580
  35 H :    0.159132
  36 H :    0.153152
  37 H :    0.174950
Sum of atomic charges:    0.0000000

LOEWDIN ATOMIC CHARGES
----------------------
   0 C :   -0.391859
   1 C :    0.031339
   2 O :   -0.573465
   3 C :    0.356989
   4 O :   -0.441657
   5 C :   -0.213390
   6 C :   -0.198260
   7 H :    0.218290
   8 C :    0.346057
   9 O :   -0.404300
  10 O :   -0.611838
  11 C :    0.035783
  12 C :   -0.397506
  13 S :    0.196314
  14 P :    0.396127
  15 S :   -0.050579
  16 O :   -0.658077
  17 C :   -0.050923
  18 O :   -0.683389
  19 C :   -0.058827
  20 H :    0.156504
  21 H :    0.165439
  22 H :    0.158432
  23 H :    0.190045
  24 H :    0.179335
  25 H :    0.200909
  26 H :    0.184553
  27 H :    0.188460
  28 H :    0.178706
  29 H :    0.172675
  30 H :    0.155864
  31 H :    0.168409
  32 H :    0.174821
  33 H :    0.175053
  34 H :    0.179772
  35 H :    0.169370
  36 H :    0.177910
  37 H :    0.176915

  Mayer bond orders larger than 0.100000
B(  0-C ,  1-C ) :   0.9288 B(  0-C , 20-H ) :   0.9730 B(  0-C , 21-H ) :   0.9728
B(  0-C , 22-H ) :   0.9657 B(  1-C ,  2-O ) :   0.8137 B(  1-C , 23-H ) :   0.9750
B(  1-C , 24-H ) :   0.9615 B(  2-O ,  3-C ) :   1.0999 B(  3-C ,  4-O ) :   1.8630
B(  3-C ,  5-C ) :   0.8374 B(  5-C ,  6-C ) :   0.8776 B(  5-C , 25-H ) :   0.9887
B(  5-C , 26-H ) :   0.9529 B(  6-C ,  7-H ) :   0.8826 B(  6-C ,  8-C ) :   0.9614
B(  6-C , 13-S ) :   0.8311 B(  8-C ,  9-O ) :   1.8166 B(  8-C , 10-O ) :   1.1035
B( 10-O , 11-C ) :   0.7877 B( 11-C , 12-C ) :   0.9210 B( 11-C , 27-H ) :   0.9669
B( 11-C , 28-H ) :   0.9634 B( 12-C , 29-H ) :   0.9675 B( 12-C , 30-H ) :   0.9644
B( 12-C , 31-H ) :   0.9616 B( 13-S , 14-P ) :   1.0193 B( 14-P , 15-S ) :   1.7969
B( 14-P , 16-O ) :   1.1300 B( 14-P , 18-O ) :   1.0295 B( 16-O , 17-C ) :   0.7970
B( 17-C , 32-H ) :   0.9600 B( 17-C , 33-H ) :   0.9552 B( 17-C , 34-H ) :   0.9655
B( 18-O , 19-C ) :   0.8324 B( 19-C , 35-H ) :   0.9566 B( 19-C , 36-H ) :   0.9667
B( 19-C , 37-H ) :   0.9592

Dispersion correction           -0.017934556
FINAL SINGLE POINT ENERGY     -1981.455180268580

DIPOLE MOMENT
-------------

Method             : SCF
Type of density    : Electron Density
Multiplicity       :   1
Irrep              :   0
Energy             : -1981.4745376267396750 Eh
Relativity type    :
Basis              : AO
                                X                 Y                 Z
Electronic contribution:    -10.142296233       0.633264701      -0.894779666
Nuclear contribution   :      8.940530671      -0.496772829       0.514344328
                        -----------------------------------------
Total Dipole Moment    :     -1.201765561       0.136491873      -0.380435338
                        -----------------------------------------
Magnitude (a.u.)       :      1.267912277
Magnitude (Debye)      :      3.222776890

Rotational constants in cm-1:             0.015809             0.006380             0.005590
Rotational constants in MHz :           473.955243           191.255678           167.580500

                             ****ORCA TERMINATED NORMALLY****
TOTAL RUN TIME: 0 days 0 hours 1 minutes 38 seconds 397 msec
