                         Program Version 6.0.1  -  RELEASE   -
|  1> ! r2scan-3c def2/J RI DEFGRID2 scfconv6 printgap
|  2> %output
|  3>     printlevel normal
|  4> end
|  5> %cpcm
|  6>     smd true
|  7>     smdsolvent "water"
|  8> end
|  9> * xyz 0 1
| 10> C 5.1254159913 -2.9838355881 -0.9102060116
| 11> C 4.5260866209 -1.8871710343 -0.0437368459
| 12> O 3.086963853 -1.9141326271 -0.0923555139
| 13> C 2.484083422 -1.2847100876 -1.0778506932
| 14> O 3.0485010811 -0.6941560469 -1.9743151729
| 15> C 0.9739038819 -1.4144647084 -0.980109574
| 16> C 0.3577205163 -0.0595833986 -1.3032861713
| 17> H 0.7144360089 0.2599107226 -2.291126578
| 18> C 0.8354244143 1.0011561135 -0.3287636136
| 19> O 1.9105173767 0.9301298352 0.2204864307
| 20> O 0.008493617 2.0254359279 -0.248792654
| 21> C 0.4371127109 3.1883222655 0.493294749
| 22> C 0.2185652136 3.0364579547 1.9881950742
| 23> S -1.4488777326 -0.1061333791 -1.4678302159
| 24> P -2.0523745623 0.1055823415 0.5610633475
| 25> S -0.7848443105 -0.4479088263 1.9483220059
| 26> O -2.5902528099 1.5751187664 0.7702789586
| 27> C -3.5796087567 2.1591219337 -0.1012469386
| 28> O -3.4321733248 -0.7044905227 0.5647827419
| 29> C -3.4577824988 -2.1319889708 0.4534693298
| 30> H 4.7351039006 -3.9520601473 -0.6093066448
| 31> H 4.8798322982 -2.8091260268 -1.9550860218
| 32> H 6.2042646578 -2.9799604433 -0.7957533145
| 33> H 4.862620615 -0.899844765 -0.3729800365
| 34> H 4.7626189248 -2.0348152161 1.0100629795
| 35> H 0.7141504657 -1.746078199 0.0258226731
| 36> H 0.6389521132 -2.1514476702 -1.7115275961
| 37> H 1.4969693842 3.3498048062 0.2764956501
| 38> H -0.1676271746 3.9964816171 0.0817214109
| 39> H 0.8233858 2.2193711472 2.3766118698
| 40> H 0.5075703917 3.9570552076 2.4840952026
| 41> H -0.826402348 2.8236542062 2.2000810746
| 42> H -4.5173578737 1.6145459261 -0.0132731736
| 43> H -3.2263796828 2.1341911945 -1.1319871547
| 44> H -3.6931976346 3.1835648634 0.2432327692
| 45> H -3.2136458677 -2.4276468289 -0.5664580384
| 46> H -4.4731487944 -2.4268286725 0.7057070447
| 47> H -2.7480703341 -2.5760497111 1.153083639
| 48> *
| 49>
| 50>                          ****END OF INPUT****

CARTESIAN COORDINATES (ANGSTROEM)
---------------------------------
  C      5.125416   -2.983836   -0.910206
  C      4.526087   -1.887171   -0.043737
  O      3.086964   -1.914133   -0.092356
  C      2.484083   -1.284710   -1.077851
  O      3.048501   -0.694156   -1.974315
  C      0.973904   -1.414465   -0.980110
  C      0.357721   -0.059583   -1.303286
  H      0.714436    0.259911   -2.291127
  C      0.835424    1.001156   -0.328764
  O      1.910517    0.930130    0.220486
  O      0.008494    2.025436   -0.248793
  C      0.437113    3.188322    0.493295
  C      0.218565    3.036458    1.988195
  S     -1.448878   -0.106133   -1.467830
  P     -2.052375    0.105582    0.561063
  S     -0.784844   -0.447909    1.948322
  O     -2.590253    1.575119    0.770279
  C     -3.579609    2.159122   -0.101247
  O     -3.432173   -0.704491    0.564783
  C     -3.457782   -2.131989    0.453469
  H      4.735104   -3.952060   -0.609307
  H      4.879832   -2.809126   -1.955086
  H      6.204265   -2.979960   -0.795753
  H      4.862621   -0.899845   -0.372980
  H      4.762619   -2.034815    1.010063
  H      0.714150   -1.746078    0.025823
  H      0.638952   -2.151448   -1.711528
  H      1.496969    3.349805    0.276496
  H     -0.167627    3.996482    0.081721
  H      0.823386    2.219371    2.376612
  H      0.507570    3.957055    2.484095
  H     -0.826402    2.823654    2.200081
  H     -4.517358    1.614546   -0.013273
  H     -3.226380    2.134191   -1.131987
  H     -3.693198    3.183565    0.243233
  H     -3.213646   -2.427647   -0.566458
  H     -4.473149   -2.426829    0.705707
  H     -2.748070   -2.576050    1.153084

 Total Charge           Charge          ....    0
 Multiplicity           Mult            ....    1
 Number of Electrons    NEL             ....  174
 Basis Dimension        Dim             ....  510

ORBITAL ENERGIES
----------------

  NO   OCC          E(Eh)            E(eV)
   0   2.0000     -88.582094     -2410.4413
   1   2.0000     -88.531586     -2409.0669
   2   2.0000     -76.922735     -2093.1740
   3   2.0000     -19.010388      -517.2990
   4   2.0000     -19.005650      -517.1700
   5   2.0000     -18.998582      -516.9777
   6   2.0000     -18.996315      -516.9160
   7   2.0000     -18.953927      -515.7626
   8   2.0000     -18.943511      -515.4791
   9   2.0000     -10.178290      -276.9653
  10   2.0000     -10.168269      -276.6927
  11   2.0000     -10.100513      -274.8489
  12   2.0000     -10.087449      -274.4934
  13   2.0000     -10.085198      -274.4322
  14   2.0000     -10.084939      -274.4251
  15   2.0000     -10.082549      -274.3601
  16   2.0000     -10.051113      -273.5047
  17   2.0000     -10.018693      -272.6225
  18   2.0000     -10.016214      -272.5550
  19   2.0000      -7.876323      -214.3256
  20   2.0000      -7.826661      -212.9743
  21   2.0000      -6.601005      -179.6225
  22   2.0000      -5.823353      -158.4615
  23   2.0000      -5.820103      -158.3730
  24   2.0000      -5.813357      -158.1895
  25   2.0000      -5.774432      -157.1303
  26   2.0000      -5.766867      -156.9244
  27   2.0000      -5.766561      -156.9161
  28   2.0000      -4.746679      -129.1637
  29   2.0000      -4.746019      -129.1457
  30   2.0000      -4.744614      -129.1075
  31   2.0000      -1.091034       -29.6886
  32   2.0000      -1.083244       -29.4766
  33   2.0000      -1.055558       -28.7232
  34   2.0000      -1.012747       -27.5582
  35   2.0000      -1.002405       -27.2768
  36   2.0000      -0.992050       -26.9951
  37   2.0000      -0.813831       -22.1455
  38   2.0000      -0.751416       -20.4471
  39   2.0000      -0.739527       -20.1235
  40   2.0000      -0.730506       -19.8781
  41   2.0000      -0.696807       -18.9611
  42   2.0000      -0.672084       -18.2883
  43   2.0000      -0.662360       -18.0237
  44   2.0000      -0.652237       -17.7483
  45   2.0000      -0.627876       -17.0854
  46   2.0000      -0.595645       -16.2083
  47   2.0000      -0.544506       -14.8168
  48   2.0000      -0.525607       -14.3025
  49   2.0000      -0.521424       -14.1887
  50   2.0000      -0.504754       -13.7351
  51   2.0000      -0.493158       -13.4195
  52   2.0000      -0.486892       -13.2490
  53   2.0000      -0.467157       -12.7120
  54   2.0000      -0.460747       -12.5376
  55   2.0000      -0.452159       -12.3039
  56   2.0000      -0.451586       -12.2883
  57   2.0000      -0.450161       -12.2495
  58   2.0000      -0.437511       -11.9053
  59   2.0000      -0.428713       -11.6659
  60   2.0000      -0.419657       -11.4194
  61   2.0000      -0.414100       -11.2682
  62   2.0000      -0.410962       -11.1829
  63   2.0000      -0.403596       -10.9824
  64   2.0000      -0.386876       -10.5274
  65   2.0000      -0.382448       -10.4069
  66   2.0000      -0.373488       -10.1631
  67   2.0000      -0.366257        -9.9664
  68   2.0000      -0.357399        -9.7253
  69   2.0000      -0.353062        -9.6073
  70   2.0000      -0.345690        -9.4067
  71   2.0000      -0.342254        -9.3132
  72   2.0000      -0.335309        -9.1242
  73   2.0000      -0.332281        -9.0418
  74   2.0000      -0.325780        -8.8649
  75   2.0000      -0.317983        -8.6528
  76   2.0000      -0.309299        -8.4165
  77   2.0000      -0.306369        -8.3367
  78   2.0000      -0.291518        -7.9326
  79   2.0000      -0.285856        -7.7785
  80   2.0000      -0.282526        -7.6879
  81   2.0000      -0.278411        -7.5759
  82   2.0000      -0.267922        -7.2905
  83   2.0000      -0.256502        -6.9798
  84   2.0000      -0.240371        -6.5408
  85   2.0000      -0.230729        -6.2784
  86   2.0000      -0.225811        -6.1446
  87   0.0000      -0.049472        -1.3462
  88   0.0000      -0.040946        -1.1142
  89   0.0000      -0.018587        -0.5058
  90   0.0000       0.003881         0.1056
  91   0.0000       0.004724         0.1286

MULLIKEN ATOMIC CHARGES
-----------------------
   0 C :   -0.496878
   1 C :   -0.138298
   2 O :   -0.181409
   3 C :    0.386162
   4 O :   -0.488576
   5 C :   -0.463492
   6 C :    0.060725
   7 H :    0.253372
   8 C :    0.230397
   9 O :   -0.438448
  10 O :   -0.146407
  11 C :   -0.119392
  12 C :   -0.522184
  13 S :   -0.178461
  14 P :    0.764631
  15 S :   -0.466080
  16 O :   -0.335300
  17 C :   -0.300570
  18 O :   -0.370322
  19 C :   -0.307943
  20 H :    0.166537
  21 H :    0.170638
  22 H :    0.171370
  23 H :    0.173062
  24 H :    0.176102
  25 H :    0.218576
  26 H :    0.223715
  27 H :    0.174288
  28 H :    0.179556
  29 H :    0.177452
  30 H :    0.171151
  31 H :    0.171099
  32 H :    0.185397
  33 H :    0.180504
  34 H :    0.184575
  35 H :    0.176418
  36 H :    0.180543
  37 H :    0.177489
Sum of atomic charges:    0.0000000

LOEWDIN ATOMIC CHARGES
----------------------
   0 C :   -0.392184
   1 C :    0.034833
   2 O :   -0.584456
   3 C :    0.362724
   4 O :   -0.491520
   5 C :   -0.208426
   6 C :   -0.196998
   7 H :    0.230129
   8 C :    0.351351
   9 O :   -0.455981
  10 O :   -0.609322
  11 C :    0.041960
  12 C :   -0.400303
  13 S :    0.214150
  14 P :    0.399344
  15 S :   -0.092411
  16 O :   -0.673857
  17 C :   -0.042424
  18 O :   -0.691660
  19 C :   -0.053604
  20 H :    0.162586
  21 H :    0.163134
  22 H :    0.168201
  23 H :    0.190363
  24 H :    0.190459
  25 H :    0.200314
  26 H :    0.201829
  27 H :    0.192634
  28 H :    0.192958
  29 H :    0.164963
  30 H :    0.166271
  31 H :    0.166777
  32 H :    0.182230
  33 H :    0.179967
  34 H :    0.191692
  35 H :    0.176749
  36 H :    0.189483
  37 H :    0.178048

  Mayer bond orders larger than 0.100000
B(  0-C ,  1-C ) :   0.9345 B(  0-C , 20-H ) :   0.9692 B(  0-C , 21-H ) :   0.9688
B(  0-C , 22-H ) :   0.9599 B(  1-C ,  2-O ) :   0.7944 B(  1-C , 23-H ) :   0.9642
B(  1-C , 24-H ) :   0.9511 B(  2-O ,  3-C ) :   1.1057 B(  3-C ,  4-O ) :   1.8034
B(  3-C ,  5-C ) :   0.8567 B(  5-C ,  6-C ) :   0.8387 B(  5-C , 25-H ) :   0.9923
B(  5-C , 26-H ) :   0.9302 B(  6-C ,  7-H ) :   0.8834 B(  6-C ,  8-C ) :   0.9547
B(  6-C , 13-S ) :   0.8215 B(  8-C ,  9-O ) :   1.7673 B(  8-C , 10-O ) :   1.1234
B( 10-O , 11-C ) :   0.7729 B( 11-C , 12-C ) :   0.9094 B( 11-C , 27-H ) :   0.9640
B( 11-C , 28-H ) :   0.9526 B( 12-C , 29-H ) :   0.9707 B( 12-C , 30-H ) :   0.9587
B( 12-C , 31-H ) :   0.9611 B( 13-S , 14-P ) :   1.0316 B( 14-P , 15-S ) :   1.7601
B( 14-P , 16-O ) :   1.1385 B( 14-P , 18-O ) :   1.0397 B( 16-O , 17-C ) :   0.7883
B( 17-C , 32-H ) :   0.9516 B( 17-C , 33-H ) :   0.9472 B( 17-C , 34-H ) :   0.9546
B( 18-O , 19-C ) :   0.8241 B( 19-C , 35-H ) :   0.9501 B( 19-C , 36-H ) :   0.9568
B( 19-C , 37-H ) :   0.9547

Dispersion correction           -0.017934556
FINAL SINGLE POINT ENERGY     -1981.469705670841

DIPOLE MOMENT
-------------

Method             : SCF
Type of density    : Electron Density
Multiplicity       :   1
Irrep              :   0
Energy             : -1981.4890630290003628 Eh
Relativity type    :
Basis              : AO
                                X                 Y                 Z
Electronic contribution:    -10.725922749       0.600936062      -1.311991808
Nuclear contribution   :      8.940530671      -0.496772829       0.514344328
                        -----------------------------------------
Total Dipole Moment    :     -1.785392078       0.104163233      -0.797647480
                        -----------------------------------------
Magnitude (a.u.)       :      1.958243180
Magnitude (Debye)      :      4.977458599

Rotational constants in cm-1:             0.015809             0.006380             0.005590
Rotational constants in MHz :           473.955243           191.255678           167.580500

                             ****ORCA TERMINATED NORMALLY****
TOTAL RUN TIME: 0 days 0 hours 2 minutes 3 seconds 486 msec
