                         Program Version 6.0.0  -   RELEASE  -
|  1> ! r2scan-3c def2/J RI DEFGRID2 scfconv6 printgap
|  2> %output
|  3>     printlevel normal
|  4> end
|  5> * xyz 0 1
|  6> C 2.1349047294 -2.118790682 2.6745712869
|  7> C 1.2254402714 -1.7054308382 1.5342853542
|  8> O 1.4172627918 -0.3108193982 1.2429168598
|  9> P 2.1670510923 0.2603697891 -0.0430860428
| 10> S 3.1598259402 -1.0867336332 -1.0683315996
| 11> O 2.9327083427 1.5172640095 0.542184557
| 12> C 3.8771430779 1.4347580082 1.6323626029
| 13> C 5.2378316202 0.9569885761 1.1649279354
| 14> S 0.7617087915 1.4190421977 -1.1175053597
| 15> C 0.2157749721 0.112834197 -2.2513479154
| 16> S -0.5228712436 -1.2941806218 -1.3767447772
| 17> P -2.1141865136 -0.2326208454 -0.4753526028
| 18> S -2.9062256263 1.2231003884 -1.5263005774
| 19> O -1.6252712198 0.1967880759 0.9804077823
| 20> C -1.5034032413 1.5524048741 1.4432087127
| 21> C -2.6269294256 1.86584376 2.4114810783
| 22> O -2.9674383252 -1.5329242323 -0.1755919889
| 23> C -4.1139684752 -1.5427451792 0.7035695458
| 24> C -5.3622444921 -1.0397658327 0.0056598089
| 25> H 1.9350163682 -3.1544424599 2.9293360419
| 26> H 3.1758049395 -2.0248127494 2.3712745654
| 27> H 1.9574988298 -1.4941070945 3.5458576925
| 28> H 0.1704383471 -1.810376804 1.7960633962
| 29> H 1.4365907221 -2.293837739 0.635562327
| 30> H 3.924961652 2.4576201299 2.0104050642
| 31> H 3.4706057516 0.7753971945 2.4037236932
| 32> H 5.9304330432 0.9735893987 2.0005959434
| 33> H 5.1734972984 -0.0570843039 0.7750448442
| 34> H 5.6107670969 1.6045313092 0.3758864594
| 35> H 1.0682225547 -0.2777712376 -2.806175269
| 36> H -0.5196314631 0.5645949646 -2.9162820534
| 37> H -0.5239799426 1.6130822163 1.9222574767
| 38> H -1.5302560558 2.2307527085 0.5844231501
| 39> H -3.5839107819 1.8214903911 1.8952527322
| 40> H -2.6288915193 1.1539549313 3.2324015209
| 41> H -2.4861815646 2.8669788293 2.8055379116
| 42> H -4.214340499 -2.5922136794 0.9863750309
| 43> H -3.8871969971 -0.9428151358 1.5888383929
| 44> H -5.2435880386 0.0018945099 -0.286002696
| 45> H -5.5526024932 -1.6268432126 -0.8886814257
| 46> H -6.209125071 -1.1263439247 0.6790562035
| 47> *
| 48>
| 49>                          ****END OF INPUT****

CARTESIAN COORDINATES (ANGSTROEM)
---------------------------------
  C      2.134905   -2.118791    2.674571
  C      1.225440   -1.705431    1.534285
  O      1.417263   -0.310819    1.242917
  P      2.167051    0.260370   -0.043086
  S      3.159826   -1.086734   -1.068332
  O      2.932708    1.517264    0.542185
  C      3.877143    1.434758    1.632363
  C      5.237832    0.956989    1.164928
  S      0.761709    1.419042   -1.117505
  C      0.215775    0.112834   -2.251348
  S     -0.522871   -1.294181   -1.376745
  P     -2.114187   -0.232621   -0.475353
  S     -2.906226    1.223100   -1.526301
  O     -1.625271    0.196788    0.980408
  C     -1.503403    1.552405    1.443209
  C     -2.626929    1.865844    2.411481
  O     -2.967438   -1.532924   -0.175592
  C     -4.113968   -1.542745    0.703570
  C     -5.362244   -1.039766    0.005660
  H      1.935016   -3.154442    2.929336
  H      3.175805   -2.024813    2.371275
  H      1.957499   -1.494107    3.545858
  H      0.170438   -1.810377    1.796063
  H      1.436591   -2.293838    0.635562
  H      3.924962    2.457620    2.010405
  H      3.470606    0.775397    2.403724
  H      5.930433    0.973589    2.000596
  H      5.173497   -0.057084    0.775045
  H      5.610767    1.604531    0.375886
  H      1.068223   -0.277771   -2.806175
  H     -0.519631    0.564595   -2.916282
  H     -0.523980    1.613082    1.922257
  H     -1.530256    2.230753    0.584423
  H     -3.583911    1.821490    1.895253
  H     -2.628892    1.153955    3.232402
  H     -2.486182    2.866979    2.805538
  H     -4.214340   -2.592214    0.986375
  H     -3.887197   -0.942815    1.588838
  H     -5.243588    0.001895   -0.286003
  H     -5.552602   -1.626843   -0.888681
  H     -6.209125   -1.126344    0.679056

 Total Charge           Charge          ....    0
 Multiplicity           Mult            ....    1
 Number of Electrons    NEL             ....  202
 Basis Dimension        Dim             ....  539

ORBITAL ENERGIES
----------------

  NO   OCC          E(Eh)            E(eV)
   0   2.0000     -88.573316     -2410.2025
   1   2.0000     -88.573273     -2410.2013
   2   2.0000     -88.521634     -2408.7961
   3   2.0000     -88.521559     -2408.7941
   4   2.0000     -76.915323     -2092.9723
   5   2.0000     -76.915317     -2092.9722
   6   2.0000     -18.993716      -516.8453
   7   2.0000     -18.993654      -516.8436
   8   2.0000     -18.991714      -516.7908
   9   2.0000     -18.991602      -516.7878
  10   2.0000     -10.105154      -274.9752
  11   2.0000     -10.105108      -274.9740
  12   2.0000     -10.102912      -274.9142
  13   2.0000     -10.093846      -274.6675
  14   2.0000     -10.093834      -274.6672
  15   2.0000     -10.032440      -272.9966
  16   2.0000     -10.032276      -272.9921
  17   2.0000     -10.029316      -272.9116
  18   2.0000     -10.029088      -272.9054
  19   2.0000      -7.867572      -214.0875
  20   2.0000      -7.867531      -214.0864
  21   2.0000      -7.816445      -212.6963
  22   2.0000      -7.816366      -212.6941
  23   2.0000      -6.593463      -179.4173
  24   2.0000      -6.593463      -179.4172
  25   2.0000      -5.814529      -158.2214
  26   2.0000      -5.814491      -158.2203
  27   2.0000      -5.811455      -158.1377
  28   2.0000      -5.811403      -158.1363
  29   2.0000      -5.804592      -157.9510
  30   2.0000      -5.804560      -157.9501
  31   2.0000      -5.764094      -156.8490
  32   2.0000      -5.764022      -156.8470
  33   2.0000      -5.756915      -156.6536
  34   2.0000      -5.756817      -156.6509
  35   2.0000      -5.756254      -156.6356
  36   2.0000      -5.756188      -156.6338
  37   2.0000      -4.739199      -128.9602
  38   2.0000      -4.739177      -128.9596
  39   2.0000      -4.738170      -128.9322
  40   2.0000      -4.738161      -128.9319
  41   2.0000      -4.737253      -128.9072
  42   2.0000      -4.737242      -128.9069
  43   2.0000      -1.051264       -28.6063
  44   2.0000      -1.050186       -28.5770
  45   2.0000      -1.010805       -27.5054
  46   2.0000      -1.009459       -27.4688
  47   2.0000      -0.802041       -21.8247
  48   2.0000      -0.762728       -20.7549
  49   2.0000      -0.750209       -20.4142
  50   2.0000      -0.733710       -19.9653
  51   2.0000      -0.733438       -19.9579
  52   2.0000      -0.707729       -19.2583
  53   2.0000      -0.687474       -18.7071
  54   2.0000      -0.669641       -18.2219
  55   2.0000      -0.630535       -17.1577
  56   2.0000      -0.621747       -16.9186
  57   2.0000      -0.610730       -16.6188
  58   2.0000      -0.610691       -16.6177
  59   2.0000      -0.590277       -16.0623
  60   2.0000      -0.530860       -14.4454
  61   2.0000      -0.521309       -14.1855
  62   2.0000      -0.498389       -13.5618
  63   2.0000      -0.496173       -13.5015
  64   2.0000      -0.478248       -13.0138
  65   2.0000      -0.466794       -12.7021
  66   2.0000      -0.457043       -12.4368
  67   2.0000      -0.448961       -12.2169
  68   2.0000      -0.447690       -12.1823
  69   2.0000      -0.431767       -11.7490
  70   2.0000      -0.427295       -11.6273
  71   2.0000      -0.410661       -11.1747
  72   2.0000      -0.406847       -11.0709
  73   2.0000      -0.399140       -10.8611
  74   2.0000      -0.394650       -10.7390
  75   2.0000      -0.390016       -10.6129
  76   2.0000      -0.389266       -10.5925
  77   2.0000      -0.372710       -10.1420
  78   2.0000      -0.369767       -10.0619
  79   2.0000      -0.368220       -10.0198
  80   2.0000      -0.367458        -9.9990
  81   2.0000      -0.365469        -9.9449
  82   2.0000      -0.356546        -9.7021
  83   2.0000      -0.354653        -9.6506
  84   2.0000      -0.349493        -9.5102
  85   2.0000      -0.338886        -9.2215
  86   2.0000      -0.323073        -8.7913
  87   2.0000      -0.311029        -8.4635
  88   2.0000      -0.309811        -8.4304
  89   2.0000      -0.307088        -8.3563
  90   2.0000      -0.304316        -8.2809
  91   2.0000      -0.295942        -8.0530
  92   2.0000      -0.293841        -7.9958
  93   2.0000      -0.283547        -7.7157
  94   2.0000      -0.273910        -7.4535
  95   2.0000      -0.245783        -6.6881
  96   2.0000      -0.229046        -6.2327
  97   2.0000      -0.227804        -6.1989
  98   2.0000      -0.219890        -5.9835
  99   2.0000      -0.212572        -5.7844
 100   2.0000      -0.209422        -5.6987
 101   0.0000      -0.047998        -1.3061
 102   0.0000      -0.028478        -0.7749
 103   0.0000       0.003163         0.0861
 104   0.0000       0.004084         0.1111
 105   0.0000       0.011070         0.3012

MULLIKEN ATOMIC CHARGES
-----------------------
   0 C :   -0.505235
   1 C :   -0.108310
   2 O :   -0.273565
   3 P :    0.704222
   4 S :   -0.472107
   5 O :   -0.308158
   6 C :   -0.170278
   7 C :   -0.425358
   8 S :   -0.130704
   9 C :   -0.229823
  10 S :   -0.130417
  11 P :    0.705357
  12 S :   -0.472949
  13 O :   -0.273144
  14 C :   -0.107925
  15 C :   -0.506184
  16 O :   -0.308688
  17 C :   -0.169134
  18 C :   -0.426183
  19 H :    0.149256
  20 H :    0.163995
  21 H :    0.154295
  22 H :    0.164363
  23 H :    0.181608
  24 H :    0.150407
  25 H :    0.158683
  26 H :    0.145043
  27 H :    0.170793
  28 H :    0.157463
  29 H :    0.208270
  30 H :    0.208378
  31 H :    0.164092
  32 H :    0.181500
  33 H :    0.164716
  34 H :    0.154370
  35 H :    0.149187
  36 H :    0.150377
  37 H :    0.158012
  38 H :    0.171713
  39 H :    0.157114
  40 H :    0.144948
Sum of atomic charges:    0.0000000

LOEWDIN ATOMIC CHARGES
----------------------
   0 C :   -0.397705
   1 C :    0.002415
   2 O :   -0.676647
   3 P :    0.386950
   4 S :   -0.125348
   5 O :   -0.669064
   6 C :    0.029944
   7 C :   -0.401515
   8 S :    0.183409
   9 C :   -0.417456
  10 S :    0.183634
  11 P :    0.386938
  12 S :   -0.125165
  13 O :   -0.676424
  14 C :    0.002403
  15 C :   -0.398201
  16 O :   -0.669332
  17 C :    0.029985
  18 C :   -0.401325
  19 H :    0.161052
  20 H :    0.160133
  21 H :    0.156441
  22 H :    0.180504
  23 H :    0.185469
  24 H :    0.180840
  25 H :    0.174684
  26 H :    0.157560
  27 H :    0.167054
  28 H :    0.162892
  29 H :    0.189696
  30 H :    0.189628
  31 H :    0.180511
  32 H :    0.185447
  33 H :    0.160280
  34 H :    0.156394
  35 H :    0.161033
  36 H :    0.180752
  37 H :    0.174620
  38 H :    0.167314
  39 H :    0.162680
  40 H :    0.157520

  Mayer bond orders larger than 0.100000
B(  0-C ,  1-C ) :   0.9238 B(  0-C , 19-H ) :   0.9633 B(  0-C , 20-H ) :   0.9738
B(  0-C , 21-H ) :   0.9802 B(  1-C ,  2-O ) :   0.7333 B(  1-C , 22-H ) :   0.9582
B(  1-C , 23-H ) :   0.9479 B(  2-O ,  3-P ) :   1.0443 B(  3-P ,  4-S ) :   1.7655
B(  3-P ,  5-O ) :   1.1554 B(  3-P ,  8-S ) :   1.0699 B(  5-O ,  6-C ) :   0.7925
B(  6-C ,  7-C ) :   0.9485 B(  6-C , 24-H ) :   0.9606 B(  6-C , 25-H ) :   0.9677
B(  7-C , 26-H ) :   0.9660 B(  7-C , 27-H ) :   0.9532 B(  7-C , 28-H ) :   0.9695
B(  8-S ,  9-C ) :   0.8884 B(  9-C , 10-S ) :   0.8885 B(  9-C , 29-H ) :   0.9097
B(  9-C , 30-H ) :   0.9098 B( 10-S , 11-P ) :   1.0701 B( 11-P , 12-S ) :   1.7627
B( 11-P , 13-O ) :   1.0448 B( 11-P , 16-O ) :   1.1571 B( 13-O , 14-C ) :   0.7337
B( 14-C , 15-C ) :   0.9230 B( 14-C , 31-H ) :   0.9584 B( 14-C , 32-H ) :   0.9482
B( 15-C , 33-H ) :   0.9738 B( 15-C , 34-H ) :   0.9803 B( 15-C , 35-H ) :   0.9632
B( 16-O , 17-C ) :   0.7920 B( 17-C , 18-C ) :   0.9491 B( 17-C , 36-H ) :   0.9607
B( 17-C , 37-H ) :   0.9675 B( 18-C , 38-H ) :   0.9534 B( 18-C , 39-H ) :   0.9698
B( 18-C , 40-H ) :   0.9659

Dispersion correction           -0.022121132
FINAL SINGLE POINT ENERGY     -2932.463988724406

DIPOLE MOMENT
-------------

Method             : SCF
Type of density    : Electron Density
Multiplicity       :   1
Irrep              :   0
Energy             : -2932.4884713002725221 Eh
Relativity type    :
Basis              : AO
                                X                 Y                 Z
Electronic contribution:      2.227157575       1.180720894     -22.580909632
Nuclear contribution   :     -2.434782461      -1.288388607      24.704323460
                        -----------------------------------------
Total Dipole Moment    :     -0.207624886      -0.107667713       2.123413828
                        -----------------------------------------
Magnitude (a.u.)       :      2.136255302
Magnitude (Debye)      :      5.429929454

Rotational constants in cm-1:             0.013559             0.004943             0.004833
Rotational constants in MHz :           406.489666           148.182985           144.902406

                             ****ORCA TERMINATED NORMALLY****
TOTAL RUN TIME: 0 days 0 hours 1 minutes 22 seconds 886 msec
