                         Program Version 6.0.0  -   RELEASE  -
|  1> ! r2scan-3c def2/J RI DEFGRID2 scfconv6 printgap
|  2> %output
|  3>     printlevel normal
|  4> end
|  5> %cpcm
|  6>     smd true
|  7>     smdsolvent "water"
|  8> end
|  9> * xyz 0 1
| 10> C 2.1349047294 -2.118790682 2.6745712869
| 11> C 1.2254402714 -1.7054308382 1.5342853542
| 12> O 1.4172627918 -0.3108193982 1.2429168598
| 13> P 2.1670510923 0.2603697891 -0.0430860428
| 14> S 3.1598259402 -1.0867336332 -1.0683315996
| 15> O 2.9327083427 1.5172640095 0.542184557
| 16> C 3.8771430779 1.4347580082 1.6323626029
| 17> C 5.2378316202 0.9569885761 1.1649279354
| 18> S 0.7617087915 1.4190421977 -1.1175053597
| 19> C 0.2157749721 0.112834197 -2.2513479154
| 20> S -0.5228712436 -1.2941806218 -1.3767447772
| 21> P -2.1141865136 -0.2326208454 -0.4753526028
| 22> S -2.9062256263 1.2231003884 -1.5263005774
| 23> O -1.6252712198 0.1967880759 0.9804077823
| 24> C -1.5034032413 1.5524048741 1.4432087127
| 25> C -2.6269294256 1.86584376 2.4114810783
| 26> O -2.9674383252 -1.5329242323 -0.1755919889
| 27> C -4.1139684752 -1.5427451792 0.7035695458
| 28> C -5.3622444921 -1.0397658327 0.0056598089
| 29> H 1.9350163682 -3.1544424599 2.9293360419
| 30> H 3.1758049395 -2.0248127494 2.3712745654
| 31> H 1.9574988298 -1.4941070945 3.5458576925
| 32> H 0.1704383471 -1.810376804 1.7960633962
| 33> H 1.4365907221 -2.293837739 0.635562327
| 34> H 3.924961652 2.4576201299 2.0104050642
| 35> H 3.4706057516 0.7753971945 2.4037236932
| 36> H 5.9304330432 0.9735893987 2.0005959434
| 37> H 5.1734972984 -0.0570843039 0.7750448442
| 38> H 5.6107670969 1.6045313092 0.3758864594
| 39> H 1.0682225547 -0.2777712376 -2.806175269
| 40> H -0.5196314631 0.5645949646 -2.9162820534
| 41> H -0.5239799426 1.6130822163 1.9222574767
| 42> H -1.5302560558 2.2307527085 0.5844231501
| 43> H -3.5839107819 1.8214903911 1.8952527322
| 44> H -2.6288915193 1.1539549313 3.2324015209
| 45> H -2.4861815646 2.8669788293 2.8055379116
| 46> H -4.214340499 -2.5922136794 0.9863750309
| 47> H -3.8871969971 -0.9428151358 1.5888383929
| 48> H -5.2435880386 0.0018945099 -0.286002696
| 49> H -5.5526024932 -1.6268432126 -0.8886814257
| 50> H -6.209125071 -1.1263439247 0.6790562035
| 51> *
| 52>
| 53>                          ****END OF INPUT****

CARTESIAN COORDINATES (ANGSTROEM)
---------------------------------
  C      2.134905   -2.118791    2.674571
  C      1.225440   -1.705431    1.534285
  O      1.417263   -0.310819    1.242917
  P      2.167051    0.260370   -0.043086
  S      3.159826   -1.086734   -1.068332
  O      2.932708    1.517264    0.542185
  C      3.877143    1.434758    1.632363
  C      5.237832    0.956989    1.164928
  S      0.761709    1.419042   -1.117505
  C      0.215775    0.112834   -2.251348
  S     -0.522871   -1.294181   -1.376745
  P     -2.114187   -0.232621   -0.475353
  S     -2.906226    1.223100   -1.526301
  O     -1.625271    0.196788    0.980408
  C     -1.503403    1.552405    1.443209
  C     -2.626929    1.865844    2.411481
  O     -2.967438   -1.532924   -0.175592
  C     -4.113968   -1.542745    0.703570
  C     -5.362244   -1.039766    0.005660
  H      1.935016   -3.154442    2.929336
  H      3.175805   -2.024813    2.371275
  H      1.957499   -1.494107    3.545858
  H      0.170438   -1.810377    1.796063
  H      1.436591   -2.293838    0.635562
  H      3.924962    2.457620    2.010405
  H      3.470606    0.775397    2.403724
  H      5.930433    0.973589    2.000596
  H      5.173497   -0.057084    0.775045
  H      5.610767    1.604531    0.375886
  H      1.068223   -0.277771   -2.806175
  H     -0.519631    0.564595   -2.916282
  H     -0.523980    1.613082    1.922257
  H     -1.530256    2.230753    0.584423
  H     -3.583911    1.821490    1.895253
  H     -2.628892    1.153955    3.232402
  H     -2.486182    2.866979    2.805538
  H     -4.214340   -2.592214    0.986375
  H     -3.887197   -0.942815    1.588838
  H     -5.243588    0.001895   -0.286003
  H     -5.552602   -1.626843   -0.888681
  H     -6.209125   -1.126344    0.679056

 Total Charge           Charge          ....    0
 Multiplicity           Mult            ....    1
 Number of Electrons    NEL             ....  202
 Basis Dimension        Dim             ....  539

ORBITAL ENERGIES
----------------

  NO   OCC          E(Eh)            E(eV)
   0   2.0000     -88.579006     -2410.3573
   1   2.0000     -88.578957     -2410.3560
   2   2.0000     -88.528830     -2408.9919
   3   2.0000     -88.528770     -2408.9903
   4   2.0000     -76.920118     -2093.1028
   5   2.0000     -76.920095     -2093.1022
   6   2.0000     -18.994905      -516.8776
   7   2.0000     -18.994879      -516.8769
   8   2.0000     -18.992953      -516.8245
   9   2.0000     -18.992920      -516.8236
  10   2.0000     -10.104198      -274.9492
  11   2.0000     -10.091368      -274.6001
  12   2.0000     -10.091279      -274.5977
  13   2.0000     -10.086252      -274.4609
  14   2.0000     -10.086205      -274.4596
  15   2.0000     -10.017417      -272.5878
  16   2.0000     -10.017326      -272.5853
  17   2.0000     -10.017290      -272.5843
  18   2.0000     -10.017216      -272.5823
  19   2.0000      -7.873335      -214.2443
  20   2.0000      -7.873289      -214.2431
  21   2.0000      -7.823933      -212.9000
  22   2.0000      -7.823871      -212.8984
  23   2.0000      -6.598270      -179.5480
  24   2.0000      -6.598241      -179.5473
  25   2.0000      -5.820226      -158.3764
  26   2.0000      -5.820181      -158.3752
  27   2.0000      -5.817182      -158.2936
  28   2.0000      -5.817125      -158.2920
  29   2.0000      -5.810459      -158.1106
  30   2.0000      -5.810421      -158.1096
  31   2.0000      -5.771517      -157.0510
  32   2.0000      -5.771462      -157.0495
  33   2.0000      -5.764311      -156.8549
  34   2.0000      -5.764230      -156.8527
  35   2.0000      -5.763844      -156.8422
  36   2.0000      -5.763796      -156.8409
  37   2.0000      -4.743922      -129.0887
  38   2.0000      -4.743913      -129.0884
  39   2.0000      -4.742979      -129.0630
  40   2.0000      -4.742940      -129.0620
  41   2.0000      -4.742159      -129.0407
  42   2.0000      -4.742120      -129.0396
  43   2.0000      -1.051998       -28.6263
  44   2.0000      -1.050886       -28.5961
  45   2.0000      -1.011068       -27.5125
  46   2.0000      -1.009692       -27.4751
  47   2.0000      -0.805615       -21.9219
  48   2.0000      -0.758849       -20.6493
  49   2.0000      -0.742940       -20.2164
  50   2.0000      -0.723112       -19.6769
  51   2.0000      -0.722811       -19.6687
  52   2.0000      -0.706126       -19.2147
  53   2.0000      -0.690096       -18.7785
  54   2.0000      -0.676228       -18.4011
  55   2.0000      -0.628867       -17.1123
  56   2.0000      -0.616498       -16.7758
  57   2.0000      -0.602704       -16.4004
  58   2.0000      -0.602092       -16.3838
  59   2.0000      -0.588080       -16.0025
  60   2.0000      -0.525983       -14.3127
  61   2.0000      -0.516386       -14.0516
  62   2.0000      -0.492814       -13.4101
  63   2.0000      -0.490377       -13.3438
  64   2.0000      -0.476519       -12.9668
  65   2.0000      -0.461184       -12.5495
  66   2.0000      -0.450690       -12.2639
  67   2.0000      -0.446321       -12.1450
  68   2.0000      -0.440931       -11.9984
  69   2.0000      -0.430735       -11.7209
  70   2.0000      -0.423421       -11.5219
  71   2.0000      -0.403310       -10.9746
  72   2.0000      -0.399252       -10.8642
  73   2.0000      -0.396352       -10.7853
  74   2.0000      -0.390405       -10.6235
  75   2.0000      -0.388697       -10.5770
  76   2.0000      -0.387886       -10.5549
  77   2.0000      -0.368463       -10.0264
  78   2.0000      -0.360508        -9.8099
  79   2.0000      -0.359153        -9.7731
  80   2.0000      -0.357010        -9.7147
  81   2.0000      -0.355497        -9.6736
  82   2.0000      -0.347287        -9.4502
  83   2.0000      -0.345803        -9.4098
  84   2.0000      -0.344413        -9.3720
  85   2.0000      -0.334567        -9.1040
  86   2.0000      -0.320062        -8.7093
  87   2.0000      -0.305268        -8.3068
  88   2.0000      -0.304680        -8.2908
  89   2.0000      -0.302716        -8.2373
  90   2.0000      -0.298873        -8.1327
  91   2.0000      -0.292886        -7.9698
  92   2.0000      -0.291396        -7.9293
  93   2.0000      -0.284462        -7.7406
  94   2.0000      -0.275219        -7.4891
  95   2.0000      -0.250213        -6.8086
  96   2.0000      -0.235536        -6.4093
  97   2.0000      -0.235127        -6.3981
  98   2.0000      -0.227761        -6.1977
  99   2.0000      -0.221175        -6.0185
 100   2.0000      -0.216211        -5.8834
 101   0.0000      -0.054283        -1.4771
 102   0.0000      -0.035350        -0.9619
 103   0.0000      -0.002004        -0.0545
 104   0.0000       0.000232         0.0063
 105   0.0000       0.010232         0.2784

MULLIKEN ATOMIC CHARGES
-----------------------
   0 C :   -0.529993
   1 C :   -0.096070
   2 O :   -0.294175
   3 P :    0.730497
   4 S :   -0.515918
   5 O :   -0.341789
   6 C :   -0.150182
   7 C :   -0.477368
   8 S :   -0.152211
   9 C :   -0.242740
  10 S :   -0.151808
  11 P :    0.731194
  12 S :   -0.516082
  13 O :   -0.294172
  14 C :   -0.096221
  15 C :   -0.530201
  16 O :   -0.342299
  17 C :   -0.149928
  18 C :   -0.477409
  19 H :    0.169355
  20 H :    0.168556
  21 H :    0.169101
  22 H :    0.178281
  23 H :    0.175676
  24 H :    0.174920
  25 H :    0.177434
  26 H :    0.170599
  27 H :    0.166314
  28 H :    0.167883
  29 H :    0.230054
  30 H :    0.230415
  31 H :    0.178577
  32 H :    0.175548
  33 H :    0.168589
  34 H :    0.169023
  35 H :    0.169495
  36 H :    0.175045
  37 H :    0.176976
  38 H :    0.166824
  39 H :    0.167658
  40 H :    0.170550
Sum of atomic charges:   -0.0000000

LOEWDIN ATOMIC CHARGES
----------------------
   0 C :   -0.398345
   1 C :    0.007275
   2 O :   -0.681970
   3 P :    0.389487
   4 S :   -0.154989
   5 O :   -0.684222
   6 C :    0.037805
   7 C :   -0.406086
   8 S :    0.170713
   9 C :   -0.412527
  10 S :    0.171030
  11 P :    0.389304
  12 S :   -0.154389
  13 O :   -0.682015
  14 C :    0.007269
  15 C :   -0.398757
  16 O :   -0.684567
  17 C :    0.037683
  18 C :   -0.405934
  19 H :    0.167900
  20 H :    0.161800
  21 H :    0.162929
  22 H :    0.185763
  23 H :    0.183584
  24 H :    0.191279
  25 H :    0.183829
  26 H :    0.167874
  27 H :    0.162474
  28 H :    0.162963
  29 H :    0.196168
  30 H :    0.196197
  31 H :    0.185992
  32 H :    0.183569
  33 H :    0.161716
  34 H :    0.162870
  35 H :    0.167946
  36 H :    0.191263
  37 H :    0.183784
  38 H :    0.162576
  39 H :    0.162908
  40 H :    0.167854

  Mayer bond orders larger than 0.100000
B(  0-C ,  1-C ) :   0.9331 B(  0-C , 19-H ) :   0.9592 B(  0-C , 20-H ) :   0.9701
B(  0-C , 21-H ) :   0.9740 B(  1-C ,  2-O ) :   0.7223 B(  1-C , 22-H ) :   0.9491
B(  1-C , 23-H ) :   0.9461 B(  2-O ,  3-P ) :   1.0523 B(  3-P ,  4-S ) :   1.7362
B(  3-P ,  5-O ) :   1.1645 B(  3-P ,  8-S ) :   1.0772 B(  5-O ,  6-C ) :   0.7854
B(  6-C ,  7-C ) :   0.9297 B(  6-C , 24-H ) :   0.9525 B(  6-C , 25-H ) :   0.9582
B(  7-C , 26-H ) :   0.9593 B(  7-C , 27-H ) :   0.9585 B(  7-C , 28-H ) :   0.9711
B(  8-S ,  9-C ) :   0.8808 B(  9-C , 10-S ) :   0.8809 B(  9-C , 29-H ) :   0.9038
B(  9-C , 30-H ) :   0.9038 B( 10-S , 11-P ) :   1.0774 B( 11-P , 12-S ) :   1.7343
B( 11-P , 13-O ) :   1.0526 B( 11-P , 16-O ) :   1.1657 B( 13-O , 14-C ) :   0.7225
B( 14-C , 15-C ) :   0.9326 B( 14-C , 31-H ) :   0.9492 B( 14-C , 32-H ) :   0.9464
B( 15-C , 33-H ) :   0.9702 B( 15-C , 34-H ) :   0.9740 B( 15-C , 35-H ) :   0.9591
B( 16-O , 17-C ) :   0.7848 B( 17-C , 18-C ) :   0.9305 B( 17-C , 36-H ) :   0.9525
B( 17-C , 37-H ) :   0.9579 B( 18-C , 38-H ) :   0.9587 B( 18-C , 39-H ) :   0.9712
B( 18-C , 40-H ) :   0.9593

Dispersion correction           -0.022121132
FINAL SINGLE POINT ENERGY     -2932.472744706284

DIPOLE MOMENT
-------------

Method             : SCF
Type of density    : Electron Density
Multiplicity       :   1
Irrep              :   0
Energy             : -2932.4972272821505612 Eh
Relativity type    :
Basis              : AO
                                X                 Y                 Z
Electronic contribution:      2.140626049       1.137766558     -21.693150651
Nuclear contribution   :     -2.434782461      -1.288388607      24.704323460
                        -----------------------------------------
Total Dipole Moment    :     -0.294156412      -0.150622049       3.011172809
                        -----------------------------------------
Magnitude (a.u.)       :      3.029253486
Magnitude (Debye)      :      7.699750453

Rotational constants in cm-1:             0.013559             0.004943             0.004833
Rotational constants in MHz :           406.489666           148.182985           144.902406

                             ****ORCA TERMINATED NORMALLY****
TOTAL RUN TIME: 0 days 0 hours 1 minutes 59 seconds 806 msec
