                         Program Version 6.0.1  -  RELEASE   -
|  1> ! pbe def2-sv(p) def2/J RI DEFGRID1 loosescf d4 GCP(DFT/SV(P)) printgap
|  2> %output
|  3>     printlevel normal
|  4> end
|  5> * xyz 0 1
|  6> C 4.3104735893 -3.4099370504 0.2429195013
|  7> C 4.2149862461 -2.8561418806 -1.1695294786
|  8> O 2.8477644904 -2.5416112694 -1.5043243746
|  9> C 2.3802725266 -1.3528710258 -1.1918098398
| 10> O 3.0277961 -0.4670680191 -0.6716778065
| 11> C 0.9151786943 -1.2163107652 -1.5489860509
| 12> C 0.4809273961 0.2268256632 -1.3323086385
| 13> H 0.9154292525 0.9062635522 -2.0662700212
| 14> C 0.8688485516 0.6773806695 0.0620807521
| 15> O 0.6640012063 -0.0199421481 1.0375018519
| 16> O 1.3672535401 1.8824725591 0.0637282935
| 17> C 1.7831442596 2.4808046187 1.3082884987
| 18> C 1.270610363 3.9079840494 1.3605195246
| 19> S -1.3277083242 0.406266571 -1.4863051136
| 20> P -2.0938671725 0.231155526 0.5067981076
| 21> S -1.7507844807 1.6483580899 1.8110182563
| 22> O -3.6461330413 0.1319745379 0.1309164571
| 23> C -4.3950468245 1.2770173641 -0.2891378049
| 24> O -1.8330252847 -1.2437833626 1.0090459904
| 25> C -2.3580644835 -2.3895615897 0.3043193885
| 26> H 3.6822132898 -4.2904292826 0.3443401586
| 27> H 5.3401295708 -3.6774598977 0.4557102709
| 28> H 3.9852476341 -2.6598467451 0.9614123853
| 29> H 4.5119676567 -3.5985389015 -1.9100817505
| 30> H 4.8164477497 -1.9486677197 -1.2719925403
| 31> H 0.3647348003 -1.8794470684 -0.8763205947
| 32> H 0.7405027396 -1.5381829825 -2.5746975623
| 33> H 1.3887153913 1.8801637212 2.1328251121
| 34> H 2.8753887436 2.4419081687 1.3136090386
| 35> H 1.6551574695 4.3902429798 2.2526825514
| 36> H 1.6005324069 4.4529914192 0.4814333401
| 37> H 0.1837673827 3.9101183065 1.3981265399
| 38> H -4.1550821191 2.1341926035 0.3422378238
| 39> H -5.440357741 1.0016556376 -0.1747159854
| 40> H -4.1670226286 1.5038823818 -1.3298221068
| 41> H -2.2845995979 -2.2418720329 -0.7736779995
| 42> H -3.3990987406 -2.5351374669 0.5853736344
| 43> H -1.7496873454 -3.230635837 0.6282383333
| 44> *
| 45>
| 46>                          ****END OF INPUT****

CARTESIAN COORDINATES (ANGSTROEM)
---------------------------------
  C      4.310474   -3.409937    0.242920
  C      4.214986   -2.856142   -1.169529
  O      2.847764   -2.541611   -1.504324
  C      2.380273   -1.352871   -1.191810
  O      3.027796   -0.467068   -0.671678
  C      0.915179   -1.216311   -1.548986
  C      0.480927    0.226826   -1.332309
  H      0.915429    0.906264   -2.066270
  C      0.868849    0.677381    0.062081
  O      0.664001   -0.019942    1.037502
  O      1.367254    1.882473    0.063728
  C      1.783144    2.480805    1.308288
  C      1.270610    3.907984    1.360520
  S     -1.327708    0.406267   -1.486305
  P     -2.093867    0.231156    0.506798
  S     -1.750784    1.648358    1.811018
  O     -3.646133    0.131975    0.130916
  C     -4.395047    1.277017   -0.289138
  O     -1.833025   -1.243783    1.009046
  C     -2.358064   -2.389562    0.304319
  H      3.682213   -4.290429    0.344340
  H      5.340130   -3.677460    0.455710
  H      3.985248   -2.659847    0.961412
  H      4.511968   -3.598539   -1.910082
  H      4.816448   -1.948668   -1.271993
  H      0.364735   -1.879447   -0.876321
  H      0.740503   -1.538183   -2.574698
  H      1.388715    1.880164    2.132825
  H      2.875389    2.441908    1.313609
  H      1.655157    4.390243    2.252683
  H      1.600532    4.452991    0.481433
  H      0.183767    3.910118    1.398127
  H     -4.155082    2.134193    0.342238
  H     -5.440358    1.001656   -0.174716
  H     -4.167023    1.503882   -1.329822
  H     -2.284600   -2.241872   -0.773678
  H     -3.399099   -2.535137    0.585374
  H     -1.749687   -3.230636    0.628238

 Total Charge           Charge          ....    0
 Multiplicity           Mult            ....    1
 Number of Electrons    NEL             ....  174
 Basis Dimension        Dim             ....  316

ORBITAL ENERGIES
----------------

  NO   OCC          E(Eh)            E(eV)
   0   2.0000     -88.038264     -2395.6430
   1   2.0000     -87.975426     -2393.9331
   2   2.0000     -76.421845     -2079.5441
   3   2.0000     -18.810065      -511.8479
   4   2.0000     -18.796041      -511.4663
   5   2.0000     -18.789316      -511.2833
   6   2.0000     -18.787092      -511.2228
   7   2.0000     -18.751295      -510.2487
   8   2.0000     -18.724528      -509.5203
   9   2.0000     -10.019250      -272.6376
  10   2.0000     -10.007881      -272.3283
  11   2.0000      -9.954500      -270.8757
  12   2.0000      -9.946686      -270.6631
  13   2.0000      -9.944398      -270.6008
  14   2.0000      -9.942347      -270.5450
  15   2.0000      -9.932336      -270.2726
  16   2.0000      -9.915265      -269.8081
  17   2.0000      -9.891258      -269.1548
  18   2.0000      -9.872100      -268.6335
  19   2.0000      -7.683070      -209.0670
  20   2.0000      -7.620621      -207.3676
  21   2.0000      -6.418543      -174.6574
  22   2.0000      -5.710979      -155.4036
  23   2.0000      -5.707398      -155.3062
  24   2.0000      -5.700231      -155.1112
  25   2.0000      -5.649785      -153.7385
  26   2.0000      -5.640957      -153.4982
  27   2.0000      -5.640742      -153.4924
  28   2.0000      -4.641723      -126.3077
  29   2.0000      -4.640494      -126.2743
  30   2.0000      -4.638450      -126.2186
  31   2.0000      -1.019811       -27.7505
  32   2.0000      -1.003546       -27.3079
  33   2.0000      -0.983398       -26.7596
  34   2.0000      -0.938474       -25.5372
  35   2.0000      -0.927051       -25.2263
  36   2.0000      -0.907878       -24.7046
  37   2.0000      -0.761853       -20.7311
  38   2.0000      -0.717000       -19.5106
  39   2.0000      -0.698065       -18.9953
  40   2.0000      -0.689874       -18.7724
  41   2.0000      -0.660072       -17.9615
  42   2.0000      -0.635703       -17.2984
  43   2.0000      -0.619454       -16.8562
  44   2.0000      -0.610377       -16.6092
  45   2.0000      -0.595106       -16.1937
  46   2.0000      -0.553140       -15.0517
  47   2.0000      -0.511976       -13.9316
  48   2.0000      -0.505305       -13.7500
  49   2.0000      -0.492827       -13.4105
  50   2.0000      -0.479642       -13.0517
  51   2.0000      -0.473727       -12.8908
  52   2.0000      -0.463673       -12.6172
  53   2.0000      -0.439996       -11.9729
  54   2.0000      -0.436187       -11.8692
  55   2.0000      -0.432520       -11.7695
  56   2.0000      -0.428586       -11.6624
  57   2.0000      -0.419864       -11.4251
  58   2.0000      -0.412717       -11.2306
  59   2.0000      -0.409076       -11.1315
  60   2.0000      -0.401804       -10.9336
  61   2.0000      -0.399110       -10.8603
  62   2.0000      -0.390494       -10.6259
  63   2.0000      -0.382878       -10.4186
  64   2.0000      -0.367989       -10.0135
  65   2.0000      -0.359612        -9.7855
  66   2.0000      -0.358404        -9.7527
  67   2.0000      -0.351510        -9.5651
  68   2.0000      -0.343898        -9.3579
  69   2.0000      -0.337749        -9.1906
  70   2.0000      -0.334967        -9.1149
  71   2.0000      -0.325739        -8.8638
  72   2.0000      -0.314662        -8.5624
  73   2.0000      -0.309599        -8.4246
  74   2.0000      -0.301956        -8.2166
  75   2.0000      -0.298324        -8.1178
  76   2.0000      -0.294411        -8.0113
  77   2.0000      -0.281082        -7.6486
  78   2.0000      -0.269532        -7.3343
  79   2.0000      -0.268073        -7.2946
  80   2.0000      -0.257770        -7.0143
  81   2.0000      -0.250193        -6.8081
  82   2.0000      -0.237344        -6.4585
  83   2.0000      -0.227646        -6.1946
  84   2.0000      -0.215313        -5.8590
  85   2.0000      -0.189970        -5.1694
  86   2.0000      -0.188282        -5.1234
  87   0.0000      -0.042061        -1.1445
  88   0.0000      -0.032819        -0.8931
  89   0.0000      -0.019307        -0.5254
  90   0.0000       0.003130         0.0852
  91   0.0000       0.030336         0.8255

MULLIKEN ATOMIC CHARGES
-----------------------
   0 C :   -0.305481
   1 C :   -0.015993
   2 O :   -0.227158
   3 C :    0.131469
   4 O :   -0.204788
   5 C :   -0.076714
   6 C :   -0.238163
   7 H :    0.132253
   8 C :    0.143804
   9 O :   -0.200484
  10 O :   -0.206724
  11 C :   -0.018373
  12 C :   -0.289563
  13 S :   -0.116384
  14 P :    0.609921
  15 S :   -0.300252
  16 O :   -0.394087
  17 C :   -0.103624
  18 O :   -0.354553
  19 C :   -0.104455
  20 H :    0.115729
  21 H :    0.115437
  22 H :    0.135190
  23 H :    0.105444
  24 H :    0.112128
  25 H :    0.138779
  26 H :    0.120318
  27 H :    0.125757
  28 H :    0.102644
  29 H :    0.104970
  30 H :    0.106407
  31 H :    0.125698
  32 H :    0.119372
  33 H :    0.123611
  34 H :    0.117469
  35 H :    0.113355
  36 H :    0.127543
  37 H :    0.129498
Sum of atomic charges:    0.0000000

LOEWDIN ATOMIC CHARGES
----------------------
   0 C :   -0.355217
   1 C :   -0.109767
   2 O :   -0.056302
   3 C :    0.043253
   4 O :   -0.154529
   5 C :   -0.255907
   6 C :   -0.257298
   7 H :    0.141593
   8 C :   -0.005697
   9 O :   -0.170228
  10 O :   -0.033934
  11 C :   -0.107048
  12 C :   -0.354637
  13 S :    0.086153
  14 P :    0.575824
  15 S :   -0.293028
  16 O :   -0.261602
  17 C :   -0.217195
  18 O :   -0.233882
  19 C :   -0.211304
  20 H :    0.125812
  21 H :    0.131947
  22 H :    0.134588
  23 H :    0.118961
  24 H :    0.121193
  25 H :    0.151944
  26 H :    0.141939
  27 H :    0.123156
  28 H :    0.116714
  29 H :    0.127606
  30 H :    0.122067
  31 H :    0.124721
  32 H :    0.110913
  33 H :    0.121754
  34 H :    0.110226
  35 H :    0.105027
  36 H :    0.119081
  37 H :    0.123105

  Mayer bond orders larger than 0.100000
B(  0-C ,  1-C ) :   1.1753 B(  0-C , 20-H ) :   0.9489 B(  0-C , 21-H ) :   0.9436
B(  0-C , 22-H ) :   0.9450 B(  1-C ,  2-O ) :   0.9081 B(  1-C , 23-H ) :   0.9370
B(  1-C , 24-H ) :   0.9139 B(  2-O ,  3-C ) :   1.2505 B(  3-C ,  4-O ) :   1.9961
B(  3-C ,  5-C ) :   1.0061 B(  5-C ,  6-C ) :   1.0156 B(  5-C , 25-H ) :   0.8712
B(  5-C , 26-H ) :   0.8976 B(  6-C ,  7-H ) :   0.8875 B(  6-C ,  8-C ) :   0.8988
B(  6-C , 13-S ) :   0.9950 B(  8-C ,  9-O ) :   1.9758 B(  8-C , 10-O ) :   1.2848
B( 10-O , 11-C ) :   0.8980 B( 11-C , 12-C ) :   1.1711 B( 11-C , 27-H ) :   0.9060
B( 11-C , 28-H ) :   0.9333 B( 12-C , 29-H ) :   0.9439 B( 12-C , 30-H ) :   0.9484
B( 12-C , 31-H ) :   0.9406 B( 13-S , 14-P ) :   0.9468 B( 13-S , 15-S ) :   0.1174
B( 14-P , 15-S ) :   1.6439 B( 14-P , 16-O ) :   1.0476 B( 14-P , 18-O ) :   1.1256
B( 16-O , 17-C ) :   0.9326 B( 17-C , 32-H ) :   0.9293 B( 17-C , 33-H ) :   0.9586
B( 17-C , 34-H ) :   0.9506 B( 18-O , 19-C ) :   0.9171 B( 19-C , 35-H ) :   0.9297
B( 19-C , 36-H ) :   0.9518 B( 19-C , 37-H ) :   0.9555

Dispersion correction           -0.051750119
FINAL SINGLE POINT ENERGY     -1979.010665685363

DIPOLE MOMENT
-------------

Method             : SCF
Type of density    : Electron Density
Multiplicity       :   1
Irrep              :   0
Energy             : -1979.1416015156341928 Eh
Relativity type    :
Basis              : AO
                                X                 Y                 Z
Electronic contribution:    -11.887630222       3.903881367      -0.717266011
Nuclear contribution   :     12.188611422      -4.970425140      -0.537806794
                        -----------------------------------------
Total Dipole Moment    :      0.300981199      -1.066543773      -1.255072806
                        -----------------------------------------
Magnitude (a.u.)       :      1.674309724
Magnitude (Debye)      :      4.255757107

Rotational constants in cm-1:             0.013981             0.006631             0.005340
Rotational constants in MHz :           419.134123           198.802076           160.097402

                             ****ORCA TERMINATED NORMALLY****
TOTAL RUN TIME: 0 days 0 hours 0 minutes 39 seconds 13 msec
