                         Program Version 6.0.0  -   RELEASE  -
|  1> ! pbe def2-sv(p) def2/J RI DEFGRID1 loosescf d4 GCP(DFT/SV(P)) printgap
|  2> %output
|  3>     printlevel normal
|  4> end
|  5> * xyz 0 1
|  6> C 2.8095477825 -4.3619e-06 0.0067068821
|  7> N 1.396215844 -3.8833e-06 -0.3071201421
|  8> C 0.7323752849 1.1832981427 0.2105444665
|  9> C -0.7323701848 1.1833560241 -0.2104971272
| 10> N -1.3962132127 2.93179e-05 0.3071040541
| 11> C -0.7323879909 -1.1833226607 -0.2104720523
| 12> C 0.7323761686 -1.1833204121 0.2105160257
| 13> C -2.8095455383 -2.02137e-05 -0.0067859103
| 14> H 3.2686096 -0.8854263639 -0.4291519871
| 15> H 3.0018961092 0.0001933876 1.0913967296
| 16> H 3.2686662756 0.8852230631 -0.4294899485
| 17> H 0.7885170959 1.2226874617 1.3133868069
| 18> H 1.2286504686 2.0669332187 -0.1963327647
| 19> H -1.2286111448 2.0669960359 0.1964451677
| 20> H -0.7885193647 1.2228318791 -1.3133420392
| 21> H -1.2286555018 -2.0669356217 0.1965086098
| 22> H -0.7885744471 -1.2228317614 -1.3133270517
| 23> H 0.7885961925 -1.2227738453 1.3133606255
| 24> H 1.2286179448 -2.0669558923 -0.1964279421
| 25> H -3.2686552995 0.8852073164 0.4292617703
| 26> H -3.2686507151 -0.885340918 0.4292340926
| 27> H -3.0018704188 -7.649e-07 -1.0914448883
| 28> *
| 29>
| 30>                          ****END OF INPUT****

CARTESIAN COORDINATES (ANGSTROEM)
---------------------------------
  C      2.809548   -0.000004    0.006707
  N      1.396216   -0.000004   -0.307120
  C      0.732375    1.183298    0.210544
  C     -0.732370    1.183356   -0.210497
  N     -1.396213    0.000029    0.307104
  C     -0.732388   -1.183323   -0.210472
  C      0.732376   -1.183320    0.210516
  C     -2.809546   -0.000020   -0.006786
  H      3.268610   -0.885426   -0.429152
  H      3.001896    0.000193    1.091397
  H      3.268666    0.885223   -0.429490
  H      0.788517    1.222687    1.313387
  H      1.228650    2.066933   -0.196333
  H     -1.228611    2.066996    0.196445
  H     -0.788519    1.222832   -1.313342
  H     -1.228656   -2.066936    0.196509
  H     -0.788574   -1.222832   -1.313327
  H      0.788596   -1.222774    1.313361
  H      1.228618   -2.066956   -0.196428
  H     -3.268655    0.885207    0.429262
  H     -3.268651   -0.885341    0.429234
  H     -3.001870   -0.000001   -1.091445

 Total Charge           Charge          ....    0
 Multiplicity           Mult            ....    1
 Number of Electrons    NEL             ....   64
 Basis Dimension        Dim             ....  140

ORBITAL ENERGIES
----------------

  NO   OCC          E(Eh)            E(eV)
   0   2.0000     -13.980525      -380.4294
   1   2.0000     -13.980493      -380.4286
   2   2.0000      -9.904535      -269.5161
   3   2.0000      -9.904531      -269.5160
   4   2.0000      -9.904510      -269.5154
   5   2.0000      -9.904503      -269.5152
   6   2.0000      -9.898514      -269.3523
   7   2.0000      -9.898496      -269.3518
   8   2.0000      -0.859778       -23.3958
   9   2.0000      -0.819110       -22.2891
  10   2.0000      -0.682639       -18.5755
  11   2.0000      -0.663651       -18.0589
  12   2.0000      -0.600180       -16.3317
  13   2.0000      -0.574207       -15.6250
  14   2.0000      -0.545298       -14.8383
  15   2.0000      -0.488547       -13.2940
  16   2.0000      -0.446011       -12.1366
  17   2.0000      -0.421523       -11.4702
  18   2.0000      -0.411321       -11.1926
  19   2.0000      -0.411308       -11.1923
  20   2.0000      -0.399693       -10.8762
  21   2.0000      -0.385308       -10.4848
  22   2.0000      -0.350188        -9.5291
  23   2.0000      -0.349179        -9.5017
  24   2.0000      -0.349078        -9.4989
  25   2.0000      -0.325492        -8.8571
  26   2.0000      -0.310635        -8.4528
  27   2.0000      -0.305303        -8.3077
  28   2.0000      -0.289322        -7.8729
  29   2.0000      -0.286321        -7.7912
  30   2.0000      -0.173949        -4.7334
  31   2.0000      -0.173029        -4.7084
  32   0.0000       0.038134         1.0377
  33   0.0000       0.046201         1.2572
  34   0.0000       0.064825         1.7640
  35   0.0000       0.075877         2.0647
  36   0.0000       0.086649         2.3578

MULLIKEN ATOMIC CHARGES
-----------------------
   0 C :   -0.142716
   1 N :   -0.321492
   2 C :   -0.036266
   3 C :   -0.036247
   4 N :   -0.321510
   5 C :   -0.036274
   6 C :   -0.036264
   7 C :   -0.142687
   8 H :    0.101339
   9 H :    0.067232
  10 H :    0.101342
  11 H :    0.052421
  12 H :    0.080985
  13 H :    0.080992
  14 H :    0.052422
  15 H :    0.080993
  16 H :    0.052424
  17 H :    0.052421
  18 H :    0.080989
  19 H :    0.101326
  20 H :    0.101335
  21 H :    0.067233
Sum of atomic charges:   -0.0000000

LOEWDIN ATOMIC CHARGES
----------------------
   0 C :   -0.256512
   1 N :   -0.150453
   2 C :   -0.160394
   3 C :   -0.160390
   4 N :   -0.150455
   5 C :   -0.160391
   6 C :   -0.160394
   7 C :   -0.256519
   8 H :    0.113264
   9 H :    0.089499
  10 H :    0.113263
  11 H :    0.092110
  12 H :    0.113753
  13 H :    0.113754
  14 H :    0.092109
  15 H :    0.113754
  16 H :    0.092106
  17 H :    0.092107
  18 H :    0.113752
  19 H :    0.113265
  20 H :    0.113264
  21 H :    0.089506

  Mayer bond orders larger than 0.100000
B(  0-C ,  1-N ) :   1.0449 B(  0-C ,  8-H ) :   0.9559 B(  0-C ,  9-H ) :   0.9252
B(  0-C , 10-H ) :   0.9559 B(  1-N ,  2-C ) :   1.0348 B(  1-N ,  6-C ) :   1.0349
B(  2-C ,  3-C ) :   1.1509 B(  2-C , 11-H ) :   0.8789 B(  2-C , 12-H ) :   0.9182
B(  3-C ,  4-N ) :   1.0348 B(  3-C , 13-H ) :   0.9182 B(  3-C , 14-H ) :   0.8789
B(  4-N ,  5-C ) :   1.0349 B(  4-N ,  7-C ) :   1.0449 B(  5-C ,  6-C ) :   1.1509
B(  5-C , 15-H ) :   0.9182 B(  5-C , 16-H ) :   0.8789 B(  6-C , 17-H ) :   0.8789
B(  6-C , 18-H ) :   0.9182 B(  7-C , 19-H ) :   0.9559 B(  7-C , 20-H ) :   0.9559
B(  7-C , 21-H ) :   0.9252

Dispersion correction           -0.020097003
FINAL SINGLE POINT ENERGY      -345.717585766791

DIPOLE MOMENT
-------------

Method             : SCF
Type of density    : Electron Density
Multiplicity       :   1
Irrep              :   0
Energy             :  -345.8012390758534593 Eh
Relativity type    :
Basis              : AO
                                X                 Y                 Z
Electronic contribution:     -0.000039319       0.000174237      -0.000068057
Nuclear contribution   :      0.000015771      -0.000180744       0.000072320
                        -----------------------------------------
Total Dipole Moment    :     -0.000023548      -0.000006507       0.000004263
                        -----------------------------------------
Magnitude (a.u.)       :      0.000024800
Magnitude (Debye)      :      0.000063037

Rotational constants in cm-1:             0.155062             0.047504             0.038885
Rotational constants in MHz :          4648.632269          1424.145156          1165.740546

                             ****ORCA TERMINATED NORMALLY****
TOTAL RUN TIME: 0 days 0 hours 0 minutes 11 seconds 405 msec
