                         Program Version 6.0.0  -   RELEASE  -
|  1> ! pbe def2-sv(p) def2/J RI DEFGRID1 loosescf d4 GCP(DFT/SV(P)) printgap
|  2> %output
|  3>     printlevel normal
|  4> end
|  5> * xyz 0 1
|  6> C 5.0126157048 -1.2700849939 -1.5695787435
|  7> C 3.608531338 -1.8190197212 -1.7345900967
|  8> O 2.8426905108 -1.6944116606 -0.5202553184
|  9> P 2.0590343464 -0.3804857996 -0.0987290527
| 10> S 3.0974264357 1.2468828737 0.263481079
| 11> O 1.2407784032 -0.9604073266 1.1232025188
| 12> C 1.4295321569 -0.5138555728 2.4770961545
| 13> C 2.6225534961 -1.2033391778 3.1052583986
| 14> S 0.6114379455 -0.2073848165 -1.6387699498
| 15> C 0.1069850454 1.4914184084 -1.2722797085
| 16> S -0.6030479007 1.6842164492 0.3887504818
| 17> P -2.248916393 0.3955175054 0.1165569039
| 18> S -3.0626287819 0.2910894475 -1.6670616905
| 19> O -3.2705261014 0.796276616 1.269715456
| 20> C -4.3053576465 1.777121175 1.07893364
| 21> C -3.7426731167 3.1753691312 0.9256326086
| 22> O -1.6421836066 -0.9383227648 0.7161553037
| 23> C -2.2293852417 -2.2391567457 0.4849134028
| 24> C -1.3811686062 -3.0250053915 -0.4954413553
| 25> H 5.5157422008 -1.769816786 -0.7463389354
| 26> H 5.5706681975 -1.4370906584 -2.485226375
| 27> H 4.982248923 -0.202718781 -1.3626594298
| 28> H 3.6238368278 -2.8933829769 -1.9279494399
| 29> H 3.0786106345 -1.3108453091 -2.5456225818
| 30> H 1.5620403881 0.5735741865 2.4795787795
| 31> H 0.4944344939 -0.7684977919 2.9784385741
| 32> H 2.7126227567 -0.8978613092 4.1427881324
| 33> H 2.5047422862 -2.2820745589 3.0513585719
| 34> H 3.5285985699 -0.9211031017 2.5705253912
| 35> H -0.6347456445 1.7595831226 -2.0234833223
| 36> H 0.9737480514 2.1507592316 -1.3105826567
| 37> H -4.8865763746 1.4971128295 0.1944596759
| 38> H -4.9215380674 1.6850962451 1.9742233181
| 39> H -3.1819695418 3.251164384 -0.0051940692
| 40> H -4.5584983833 3.8907162207 0.9040155235
| 41> H -3.0780293226 3.4087483233 1.7536985881
| 42> H -2.2552207197 -2.7175004288 1.4653392499
| 43> H -3.2491861651 -2.114390688 0.1092363222
| 44> H -1.4082456607 -2.5559754921 -1.4770232836
| 45> H -0.3494907344 -3.0529200893 -0.1521407641
| 46> H -1.7652522301 -4.0370079739 -0.5725013961
| 47> *
| 48>
| 49>                          ****END OF INPUT****

CARTESIAN COORDINATES (ANGSTROEM)
---------------------------------
  C      5.012616   -1.270085   -1.569579
  C      3.608531   -1.819020   -1.734590
  O      2.842691   -1.694412   -0.520255
  P      2.059034   -0.380486   -0.098729
  S      3.097426    1.246883    0.263481
  O      1.240778   -0.960407    1.123203
  C      1.429532   -0.513856    2.477096
  C      2.622553   -1.203339    3.105258
  S      0.611438   -0.207385   -1.638770
  C      0.106985    1.491418   -1.272280
  S     -0.603048    1.684216    0.388750
  P     -2.248916    0.395518    0.116557
  S     -3.062629    0.291089   -1.667062
  O     -3.270526    0.796277    1.269715
  C     -4.305358    1.777121    1.078934
  C     -3.742673    3.175369    0.925633
  O     -1.642184   -0.938323    0.716155
  C     -2.229385   -2.239157    0.484913
  C     -1.381169   -3.025005   -0.495441
  H      5.515742   -1.769817   -0.746339
  H      5.570668   -1.437091   -2.485226
  H      4.982249   -0.202719   -1.362659
  H      3.623837   -2.893383   -1.927949
  H      3.078611   -1.310845   -2.545623
  H      1.562040    0.573574    2.479579
  H      0.494434   -0.768498    2.978439
  H      2.712623   -0.897861    4.142788
  H      2.504742   -2.282075    3.051359
  H      3.528599   -0.921103    2.570525
  H     -0.634746    1.759583   -2.023483
  H      0.973748    2.150759   -1.310583
  H     -4.886576    1.497113    0.194460
  H     -4.921538    1.685096    1.974223
  H     -3.181970    3.251164   -0.005194
  H     -4.558498    3.890716    0.904016
  H     -3.078029    3.408748    1.753699
  H     -2.255221   -2.717500    1.465339
  H     -3.249186   -2.114391    0.109236
  H     -1.408246   -2.555975   -1.477023
  H     -0.349491   -3.052920   -0.152141
  H     -1.765252   -4.037008   -0.572501

 Total Charge           Charge          ....    0
 Multiplicity           Mult            ....    1
 Number of Electrons    NEL             ....  202
 Basis Dimension        Dim             ....  334

ORBITAL ENERGIES
----------------

  NO   OCC          E(Eh)            E(eV)
   0   2.0000     -88.044831     -2395.8217
   1   2.0000     -88.042545     -2395.7595
   2   2.0000     -87.989551     -2394.3174
   3   2.0000     -87.989544     -2394.3172
   4   2.0000     -76.427245     -2079.6911
   5   2.0000     -76.426141     -2079.6610
   6   2.0000     -18.795624      -511.4549
   7   2.0000     -18.792672      -511.3746
   8   2.0000     -18.787034      -511.2212
   9   2.0000     -18.785585      -511.1818
  10   2.0000      -9.956574      -270.9321
  11   2.0000      -9.955821      -270.9117
  12   2.0000      -9.951641      -270.7979
  13   2.0000      -9.949645      -270.7436
  14   2.0000      -9.945633      -270.6344
  15   2.0000      -9.884035      -268.9583
  16   2.0000      -9.881918      -268.9007
  17   2.0000      -9.879851      -268.8444
  18   2.0000      -9.875686      -268.7311
  19   2.0000      -7.689690      -209.2471
  20   2.0000      -7.687333      -209.1830
  21   2.0000      -7.634493      -207.7451
  22   2.0000      -7.634374      -207.7419
  23   2.0000      -6.424570      -174.8214
  24   2.0000      -6.423738      -174.7988
  25   2.0000      -5.717545      -155.5823
  26   2.0000      -5.715158      -155.5174
  27   2.0000      -5.714341      -155.4951
  28   2.0000      -5.711832      -155.4269
  29   2.0000      -5.706525      -155.2824
  30   2.0000      -5.704352      -155.2233
  31   2.0000      -5.663279      -154.1057
  32   2.0000      -5.663217      -154.1040
  33   2.0000      -5.655310      -153.8888
  34   2.0000      -5.654898      -153.8776
  35   2.0000      -5.654727      -153.8730
  36   2.0000      -5.654625      -153.8702
  37   2.0000      -4.646892      -126.4484
  38   2.0000      -4.646477      -126.4371
  39   2.0000      -4.646138      -126.4278
  40   2.0000      -4.645454      -126.4092
  41   2.0000      -4.645146      -126.4009
  42   2.0000      -4.644404      -126.3806
  43   2.0000      -0.987718       -26.8772
  44   2.0000      -0.984485       -26.7892
  45   2.0000      -0.945291       -25.7227
  46   2.0000      -0.942134       -25.6368
  47   2.0000      -0.766536       -20.8585
  48   2.0000      -0.720937       -19.6177
  49   2.0000      -0.707659       -19.2564
  50   2.0000      -0.684863       -18.6361
  51   2.0000      -0.683227       -18.5915
  52   2.0000      -0.672846       -18.3091
  53   2.0000      -0.651823       -17.7370
  54   2.0000      -0.640858       -17.4386
  55   2.0000      -0.600169       -16.3314
  56   2.0000      -0.593496       -16.1499
  57   2.0000      -0.572908       -15.5896
  58   2.0000      -0.567621       -15.4458
  59   2.0000      -0.559005       -15.2113
  60   2.0000      -0.501340       -13.6422
  61   2.0000      -0.496766       -13.5177
  62   2.0000      -0.474673       -12.9165
  63   2.0000      -0.468869       -12.7586
  64   2.0000      -0.457128       -12.4391
  65   2.0000      -0.439655       -11.9636
  66   2.0000      -0.438573       -11.9342
  67   2.0000      -0.436129       -11.8677
  68   2.0000      -0.426585       -11.6080
  69   2.0000      -0.412987       -11.2380
  70   2.0000      -0.406414       -11.0591
  71   2.0000      -0.397132       -10.8065
  72   2.0000      -0.392765       -10.6877
  73   2.0000      -0.386761       -10.5243
  74   2.0000      -0.379404       -10.3241
  75   2.0000      -0.376093       -10.2340
  76   2.0000      -0.369763       -10.0618
  77   2.0000      -0.354060        -9.6345
  78   2.0000      -0.349176        -9.5016
  79   2.0000      -0.348920        -9.4946
  80   2.0000      -0.346655        -9.4330
  81   2.0000      -0.345606        -9.4044
  82   2.0000      -0.338615        -9.2142
  83   2.0000      -0.336708        -9.1623
  84   2.0000      -0.333366        -9.0713
  85   2.0000      -0.321413        -8.7461
  86   2.0000      -0.304449        -8.2845
  87   2.0000      -0.297352        -8.0913
  88   2.0000      -0.296013        -8.0549
  89   2.0000      -0.288127        -7.8403
  90   2.0000      -0.281423        -7.6579
  91   2.0000      -0.278292        -7.5727
  92   2.0000      -0.270897        -7.3715
  93   2.0000      -0.263841        -7.1795
  94   2.0000      -0.257581        -7.0091
  95   2.0000      -0.233089        -6.3427
  96   2.0000      -0.219049        -5.9606
  97   2.0000      -0.215206        -5.8560
  98   2.0000      -0.208356        -5.6697
  99   2.0000      -0.202085        -5.4990
 100   2.0000      -0.199474        -5.4280
 101   0.0000      -0.046394        -1.2624
 102   0.0000      -0.025069        -0.6822
 103   0.0000      -0.002555        -0.0695
 104   0.0000       0.000441         0.0120
 105   0.0000       0.008662         0.2357

MULLIKEN ATOMIC CHARGES
-----------------------
   0 C :   -0.299144
   1 C :   -0.015098
   2 O :   -0.369366
   3 P :    0.623739
   4 S :   -0.335306
   5 O :   -0.353298
   6 C :   -0.007902
   7 C :   -0.293816
   8 S :   -0.081229
   9 C :   -0.357215
  10 S :   -0.076307
  11 P :    0.612355
  12 S :   -0.339647
  13 O :   -0.372580
  14 C :   -0.004037
  15 C :   -0.314024
  16 O :   -0.356624
  17 C :   -0.001635
  18 C :   -0.294433
  19 H :    0.114869
  20 H :    0.108210
  21 H :    0.131253
  22 H :    0.108748
  23 H :    0.106576
  24 H :    0.114076
  25 H :    0.102743
  26 H :    0.109371
  27 H :    0.111996
  28 H :    0.118702
  29 H :    0.190135
  30 H :    0.192051
  31 H :    0.111147
  32 H :    0.104726
  33 H :    0.124420
  34 H :    0.113057
  35 H :    0.118045
  36 H :    0.103228
  37 H :    0.101808
  38 H :    0.126751
  39 H :    0.120645
  40 H :    0.103009
Sum of atomic charges:    0.0000000

LOEWDIN ATOMIC CHARGES
----------------------
   0 C :   -0.365234
   1 C :   -0.116779
   2 O :   -0.241620
   3 P :    0.569543
   4 S :   -0.318379
   5 O :   -0.225703
   6 C :   -0.121217
   7 C :   -0.361841
   8 S :    0.096499
   9 C :   -0.480281
  10 S :    0.102242
  11 P :    0.570220
  12 S :   -0.328019
  13 O :   -0.248539
  14 C :   -0.120170
  15 C :   -0.368735
  16 O :   -0.236469
  17 C :   -0.110622
  18 C :   -0.362275
  19 H :    0.126525
  20 H :    0.129099
  21 H :    0.123977
  22 H :    0.119847
  23 H :    0.105701
  24 H :    0.106346
  25 H :    0.116677
  26 H :    0.129124
  27 H :    0.124178
  28 H :    0.122401
  29 H :    0.131117
  30 H :    0.130728
  31 H :    0.109961
  32 H :    0.118455
  33 H :    0.120277
  34 H :    0.130960
  35 H :    0.124624
  36 H :    0.116693
  37 H :    0.107697
  38 H :    0.123557
  39 H :    0.123996
  40 H :    0.125439

  Mayer bond orders larger than 0.100000
B(  0-C ,  1-C ) :   1.1653 B(  0-C , 19-H ) :   0.9476 B(  0-C , 20-H ) :   0.9386
B(  0-C , 21-H ) :   0.9317 B(  1-C ,  2-O ) :   0.9097 B(  1-C , 22-H ) :   0.9357
B(  1-C , 23-H ) :   0.9167 B(  2-O ,  3-P ) :   1.1167 B(  3-P ,  4-S ) :   1.5891
B(  3-P ,  5-O ) :   1.1255 B(  3-P ,  8-S ) :   0.9537 B(  4-S ,  8-S ) :   0.1082
B(  5-O ,  6-C ) :   0.8998 B(  6-C ,  7-C ) :   1.1624 B(  6-C , 24-H ) :   0.9089
B(  6-C , 25-H ) :   0.9317 B(  7-C , 26-H ) :   0.9412 B(  7-C , 27-H ) :   0.9476
B(  7-C , 28-H ) :   0.9387 B(  8-S ,  9-C ) :   1.0118 B(  9-C , 10-S ) :   0.9993
B(  9-C , 29-H ) :   0.8870 B(  9-C , 30-H ) :   0.8823 B( 10-S , 11-P ) :   0.9555
B( 10-S , 12-S ) :   0.1091 B( 11-P , 12-S ) :   1.5830 B( 11-P , 13-O ) :   1.1116
B( 11-P , 16-O ) :   1.1403 B( 13-O , 14-C ) :   0.9106 B( 14-C , 15-C ) :   1.1645
B( 14-C , 31-H ) :   0.9150 B( 14-C , 32-H ) :   0.9339 B( 15-C , 33-H ) :   0.9360
B( 15-C , 34-H ) :   0.9382 B( 15-C , 35-H ) :   0.9450 B( 16-O , 17-C ) :   0.8933
B( 17-C , 18-C ) :   1.1720 B( 17-C , 36-H ) :   0.9340 B( 17-C , 37-H ) :   0.9130
B( 18-C , 38-H ) :   0.9392 B( 18-C , 39-H ) :   0.9422 B( 18-C , 40-H ) :   0.9394

Dispersion correction           -0.067416192
FINAL SINGLE POINT ENERGY     -2929.527602153210

DIPOLE MOMENT
-------------

Method             : SCF
Type of density    : Electron Density
Multiplicity       :   1
Irrep              :   0
Energy             : -2929.6447530814502898 Eh
Relativity type    :
Basis              : AO
                                X                 Y                 Z
Electronic contribution:     -4.329474172       7.770990415      -6.212963725
Nuclear contribution   :      4.151371744      -8.345902200       6.680444766
                        -----------------------------------------
Total Dipole Moment    :     -0.178102428      -0.574911784       0.467481041
                        -----------------------------------------
Magnitude (a.u.)       :      0.762090912
Magnitude (Debye)      :      1.937081156

Rotational constants in cm-1:             0.013124             0.005101             0.004936
Rotational constants in MHz :           393.441675           152.910858           147.974136

                             ****ORCA TERMINATED NORMALLY****
TOTAL RUN TIME: 0 days 0 hours 0 minutes 21 seconds 625 msec
