                         Program Version 6.0.0  -   RELEASE  -
|  1> ! pbe def2-sv(p) def2/J RI DEFGRID1 loosescf d4 GCP(DFT/SV(P)) printgap
|  2> %output
|  3>     printlevel normal
|  4> end
|  5> * xyz 0 1
|  6> C 3.3438400115 -1.6969563318 -2.7866311285
|  7> C 4.1293753232 -1.1230564353 -1.6268173019
|  8> O 3.517657722 0.0542332725 -1.0652168312
|  9> P 2.0121003527 0.1561268358 -0.5657006846
| 10> S 0.6496806123 0.4565545321 -1.9377900557
| 11> O 2.0683946261 1.4130396573 0.3800998212
| 12> C 3.0625201557 1.6713554848 1.4025257713
| 13> C 2.5802292377 1.2166148781 2.7662122268
| 14> S 1.8335266606 -1.5981030787 0.6280661725
| 15> C 0.2132566366 -1.3116131321 1.3790276208
| 16> S -1.1941896136 -1.569117988 0.254157399
| 17> P -2.0828612816 0.3675579524 0.3424151121
| 18> S -1.1042724573 1.7273730909 1.3502914441
| 19> O -3.5686120592 0.0439549787 0.8350623177
| 20> C -3.9220928527 -0.7499928055 1.9811910212
| 21> C -3.4258223488 -0.1559061307 3.2836673821
| 22> O -2.3842751364 0.8532864223 -1.1194373726
| 23> C -3.052420523 0.0250172379 -2.1054825358
| 24> C -2.7783469358 0.6217033922 -3.4689560139
| 25> H 2.3686469844 -2.0423817242 -2.4455737241
| 26> H 3.1891602965 -0.9399941931 -3.5520420379
| 27> H 3.8879180168 -2.5344187752 -3.211089841
| 28> H 5.1126139768 -0.7718787096 -1.9450656575
| 29> H 4.2374762266 -1.8628691691 -0.8288623415
| 30> H 3.9973718998 1.1844632725 1.1192778876
| 31> H 3.185618368 2.7551109583 1.3724827631
| 32> H 2.5575560536 0.1315278274 2.8303238408
| 33> H 3.2570050422 1.5995359757 3.5233758059
| 34> H 1.5824037093 1.6099670983 2.950564562
| 35> H 0.158984631 -0.2869452121 1.7602762853
| 36> H 0.1352967233 -2.0443750601 2.1781222028
| 37> H -5.0127384044 -0.774830818 1.9459924204
| 38> H -3.5242725418 -1.7588190172 1.8356527454
| 39> H -3.7961937076 -0.7500007066 4.112800548
| 40> H -2.3375471631 -0.1476428603 3.306815618
| 41> H -3.7753148194 0.8683101336 3.3885109242
| 42> H -2.6534539355 -0.9912578771 -2.0333502446
| 43> H -4.1182074473 0.0191280788 -1.8676809929
| 44> H -3.2601935788 0.0150829903 -4.2284740258
| 45> H -3.1594026533 1.6377007681 -3.516018152
| 46> H -1.7054948812 0.6433007392 -3.6476347252
| 47> *
| 48>
| 49>                          ****END OF INPUT****

CARTESIAN COORDINATES (ANGSTROEM)
---------------------------------
  C      3.343840   -1.696956   -2.786631
  C      4.129375   -1.123056   -1.626817
  O      3.517658    0.054233   -1.065217
  P      2.012100    0.156127   -0.565701
  S      0.649681    0.456555   -1.937790
  O      2.068395    1.413040    0.380100
  C      3.062520    1.671355    1.402526
  C      2.580229    1.216615    2.766212
  S      1.833527   -1.598103    0.628066
  C      0.213257   -1.311613    1.379028
  S     -1.194190   -1.569118    0.254157
  P     -2.082861    0.367558    0.342415
  S     -1.104272    1.727373    1.350291
  O     -3.568612    0.043955    0.835062
  C     -3.922093   -0.749993    1.981191
  C     -3.425822   -0.155906    3.283667
  O     -2.384275    0.853286   -1.119437
  C     -3.052421    0.025017   -2.105483
  C     -2.778347    0.621703   -3.468956
  H      2.368647   -2.042382   -2.445574
  H      3.189160   -0.939994   -3.552042
  H      3.887918   -2.534419   -3.211090
  H      5.112614   -0.771879   -1.945066
  H      4.237476   -1.862869   -0.828862
  H      3.997372    1.184463    1.119278
  H      3.185618    2.755111    1.372483
  H      2.557556    0.131528    2.830324
  H      3.257005    1.599536    3.523376
  H      1.582404    1.609967    2.950565
  H      0.158985   -0.286945    1.760276
  H      0.135297   -2.044375    2.178122
  H     -5.012738   -0.774831    1.945992
  H     -3.524273   -1.758819    1.835653
  H     -3.796194   -0.750001    4.112801
  H     -2.337547   -0.147643    3.306816
  H     -3.775315    0.868310    3.388511
  H     -2.653454   -0.991258   -2.033350
  H     -4.118207    0.019128   -1.867681
  H     -3.260194    0.015083   -4.228474
  H     -3.159403    1.637701   -3.516018
  H     -1.705495    0.643301   -3.647635

 Total Charge           Charge          ....    0
 Multiplicity           Mult            ....    1
 Number of Electrons    NEL             ....  202
 Basis Dimension        Dim             ....  334

ORBITAL ENERGIES
----------------

  NO   OCC          E(Eh)            E(eV)
   0   2.0000     -88.043928     -2395.7971
   1   2.0000     -88.040582     -2395.7060
   2   2.0000     -87.979092     -2394.0328
   3   2.0000     -87.971783     -2393.8339
   4   2.0000     -76.420166     -2079.4984
   5   2.0000     -76.419794     -2079.4883
   6   2.0000     -18.789098      -511.2774
   7   2.0000     -18.782851      -511.1074
   8   2.0000     -18.782452      -511.0965
   9   2.0000     -18.782028      -511.0850
  10   2.0000      -9.958239      -270.9774
  11   2.0000      -9.957336      -270.9529
  12   2.0000      -9.951037      -270.7815
  13   2.0000      -9.950448      -270.7654
  14   2.0000      -9.949848      -270.7491
  15   2.0000      -9.881804      -268.8975
  16   2.0000      -9.881534      -268.8902
  17   2.0000      -9.881084      -268.8780
  18   2.0000      -9.879170      -268.8259
  19   2.0000      -7.688872      -209.2248
  20   2.0000      -7.685190      -209.1247
  21   2.0000      -7.624346      -207.4690
  22   2.0000      -7.616790      -207.2634
  23   2.0000      -6.417254      -174.6223
  24   2.0000      -6.416964      -174.6145
  25   2.0000      -5.716475      -155.5532
  26   2.0000      -5.713339      -155.4678
  27   2.0000      -5.712966      -155.4577
  28   2.0000      -5.709695      -155.3687
  29   2.0000      -5.706173      -155.2729
  30   2.0000      -5.702339      -155.1685
  31   2.0000      -5.653304      -153.8342
  32   2.0000      -5.645887      -153.6324
  33   2.0000      -5.645209      -153.6140
  34   2.0000      -5.644118      -153.5843
  35   2.0000      -5.637321      -153.3993
  36   2.0000      -5.636858      -153.3867
  37   2.0000      -4.640260      -126.2679
  38   2.0000      -4.639533      -126.2481
  39   2.0000      -4.639394      -126.2443
  40   2.0000      -4.638975      -126.2329
  41   2.0000      -4.637260      -126.1863
  42   2.0000      -4.637027      -126.1799
  43   2.0000      -0.982713       -26.7410
  44   2.0000      -0.980157       -26.6714
  45   2.0000      -0.938877       -25.5482
  46   2.0000      -0.935001       -25.4427
  47   2.0000      -0.760375       -20.6908
  48   2.0000      -0.716994       -19.5104
  49   2.0000      -0.709585       -19.3088
  50   2.0000      -0.687681       -18.7127
  51   2.0000      -0.684190       -18.6178
  52   2.0000      -0.676241       -18.4014
  53   2.0000      -0.646631       -17.5957
  54   2.0000      -0.632471       -17.2104
  55   2.0000      -0.585422       -15.9301
  56   2.0000      -0.581983       -15.8366
  57   2.0000      -0.573439       -15.6041
  58   2.0000      -0.568737       -15.4761
  59   2.0000      -0.564392       -15.3579
  60   2.0000      -0.504065       -13.7163
  61   2.0000      -0.497448       -13.5362
  62   2.0000      -0.469347       -12.7716
  63   2.0000      -0.468103       -12.7377
  64   2.0000      -0.453408       -12.3379
  65   2.0000      -0.449461       -12.2305
  66   2.0000      -0.436534       -11.8787
  67   2.0000      -0.432900       -11.7798
  68   2.0000      -0.427177       -11.6241
  69   2.0000      -0.414890       -11.2897
  70   2.0000      -0.407876       -11.0989
  71   2.0000      -0.406521       -11.0620
  72   2.0000      -0.395550       -10.7635
  73   2.0000      -0.382917       -10.4197
  74   2.0000      -0.381066       -10.3693
  75   2.0000      -0.355633        -9.6773
  76   2.0000      -0.353213        -9.6114
  77   2.0000      -0.350726        -9.5437
  78   2.0000      -0.348378        -9.4798
  79   2.0000      -0.346556        -9.4303
  80   2.0000      -0.344781        -9.3820
  81   2.0000      -0.341162        -9.2835
  82   2.0000      -0.338158        -9.2018
  83   2.0000      -0.335061        -9.1175
  84   2.0000      -0.329615        -8.9693
  85   2.0000      -0.317668        -8.6442
  86   2.0000      -0.313445        -8.5293
  87   2.0000      -0.294271        -8.0075
  88   2.0000      -0.291282        -7.9262
  89   2.0000      -0.289597        -7.8803
  90   2.0000      -0.283910        -7.7256
  91   2.0000      -0.271472        -7.3871
  92   2.0000      -0.267614        -7.2822
  93   2.0000      -0.258929        -7.0458
  94   2.0000      -0.253468        -6.8972
  95   2.0000      -0.240532        -6.5452
  96   2.0000      -0.219484        -5.9725
  97   2.0000      -0.199659        -5.4330
  98   2.0000      -0.195416        -5.3175
  99   2.0000      -0.182492        -4.9659
 100   2.0000      -0.181510        -4.9391
 101   0.0000      -0.038670        -1.0523
 102   0.0000      -0.029808        -0.8111
 103   0.0000      -0.013092        -0.3563
 104   0.0000       0.001335         0.0363
 105   0.0000       0.023204         0.6314

MULLIKEN ATOMIC CHARGES
-----------------------
   0 C :   -0.308508
   1 C :   -0.015809
   2 O :   -0.382255
   3 P :    0.606689
   4 S :   -0.306880
   5 O :   -0.343137
   6 C :   -0.003363
   7 C :   -0.314611
   8 S :   -0.133024
   9 C :   -0.353944
  10 S :   -0.107204
  11 P :    0.610083
  12 S :   -0.291630
  13 O :   -0.384302
  14 C :   -0.004115
  15 C :   -0.304281
  16 O :   -0.346064
  17 C :   -0.015954
  18 C :   -0.285857
  19 H :    0.127911
  20 H :    0.128057
  21 H :    0.109352
  22 H :    0.110070
  23 H :    0.113862
  24 H :    0.100452
  25 H :    0.111714
  26 H :    0.116419
  27 H :    0.109099
  28 H :    0.140216
  29 H :    0.207310
  30 H :    0.179121
  31 H :    0.103706
  32 H :    0.101088
  33 H :    0.106570
  34 H :    0.116422
  35 H :    0.124171
  36 H :    0.107607
  37 H :    0.105672
  38 H :    0.106136
  39 H :    0.120130
  40 H :    0.139082
Sum of atomic charges:   -0.0000000

LOEWDIN ATOMIC CHARGES
----------------------
   0 C :   -0.370643
   1 C :   -0.115520
   2 O :   -0.247244
   3 P :    0.560998
   4 S :   -0.302686
   5 O :   -0.225270
   6 C :   -0.109451
   7 C :   -0.368876
   8 S :    0.058563
   9 C :   -0.483540
  10 S :    0.071673
  11 P :    0.569899
  12 S :   -0.283930
  13 O :   -0.253080
  14 C :   -0.120356
  15 C :   -0.367499
  16 O :   -0.223895
  17 C :   -0.113632
  18 C :   -0.350706
  19 H :    0.122109
  20 H :    0.131082
  21 H :    0.129110
  22 H :    0.121653
  23 H :    0.106763
  24 H :    0.108334
  25 H :    0.123622
  26 H :    0.116084
  27 H :    0.129273
  28 H :    0.130282
  29 H :    0.120539
  30 H :    0.135321
  31 H :    0.118412
  32 H :    0.100764
  33 H :    0.127365
  34 H :    0.116964
  35 H :    0.130308
  36 H :    0.106279
  37 H :    0.113065
  38 H :    0.128306
  39 H :    0.129655
  40 H :    0.129905

  Mayer bond orders larger than 0.100000
B(  0-C ,  1-C ) :   1.1673 B(  0-C , 19-H ) :   0.9313 B(  0-C , 20-H ) :   0.9420
B(  0-C , 21-H ) :   0.9342 B(  1-C ,  2-O ) :   0.9155 B(  1-C , 22-H ) :   0.9334
B(  1-C , 23-H ) :   0.9253 B(  2-O ,  3-P ) :   1.0765 B(  3-P ,  4-S ) :   1.6765
B(  3-P ,  5-O ) :   1.1419 B(  3-P ,  8-S ) :   0.9311 B(  4-S ,  8-S ) :   0.1137
B(  5-O ,  6-C ) :   0.9000 B(  6-C ,  7-C ) :   1.1721 B(  6-C , 24-H ) :   0.9196
B(  6-C , 25-H ) :   0.9347 B(  7-C , 26-H ) :   0.9326 B(  7-C , 27-H ) :   0.9378
B(  7-C , 28-H ) :   0.9327 B(  8-S ,  9-C ) :   0.9948 B(  9-C , 10-S ) :   1.0093
B(  9-C , 29-H ) :   0.8325 B(  9-C , 30-H ) :   0.9110 B( 10-S , 11-P ) :   0.9376
B( 10-S , 12-S ) :   0.1164 B( 11-P , 12-S ) :   1.6360 B( 11-P , 13-O ) :   1.0659
B( 11-P , 16-O ) :   1.1504 B( 12-S , 29-H ) :   0.1208 B( 13-O , 14-C ) :   0.9271
B( 14-C , 15-C ) :   1.1636 B( 14-C , 31-H ) :   0.9338 B( 14-C , 32-H ) :   0.9164
B( 15-C , 33-H ) :   0.9364 B( 15-C , 34-H ) :   0.9357 B( 15-C , 35-H ) :   0.9448
B( 16-O , 17-C ) :   0.8888 B( 17-C , 18-C ) :   1.1663 B( 17-C , 36-H ) :   0.9163
B( 17-C , 37-H ) :   0.9290 B( 18-C , 38-H ) :   0.9403 B( 18-C , 39-H ) :   0.9492
B( 18-C , 40-H ) :   0.9434

Dispersion correction           -0.067550435
FINAL SINGLE POINT ENERGY     -2929.508106242855

DIPOLE MOMENT
-------------

Method             : SCF
Type of density    : Electron Density
Multiplicity       :   1
Irrep              :   0
Energy             : -2929.6254909292883895 Eh
Relativity type    :
Basis              : AO
                                X                 Y                 Z
Electronic contribution:     -0.009950260       3.226082165      -2.436437917
Nuclear contribution   :      0.359445136      -4.571122250       3.036543476
                        -----------------------------------------
Total Dipole Moment    :      0.349494876      -1.345040085       0.600105559
                        -----------------------------------------
Magnitude (a.u.)       :      1.513739139
Magnitude (Debye)      :      3.847619116

Rotational constants in cm-1:             0.011288             0.005875             0.004935
Rotational constants in MHz :           338.408628           176.124733           147.951026

                             ****ORCA TERMINATED NORMALLY****
TOTAL RUN TIME: 0 days 0 hours 0 minutes 21 seconds 361 msec
