                         Program Version 6.0.0  -   RELEASE  -
|  1> ! pbe def2-sv(p) def2/J RI DEFGRID1 loosescf d4 GCP(DFT/SV(P)) printgap
|  2> %output
|  3>     printlevel normal
|  4> end
|  5> * xyz 0 1
|  6> C 5.5807805286 -0.8172939092 -0.9134391415
|  7> C 4.2083051772 -0.301182108 -1.2956674038
|  8> O 3.2944616361 -0.639699522 -0.2354722
|  9> P 1.8466447824 0.0268330544 -0.132567548
| 10> S 1.9153905823 1.9869110965 -0.2705327078
| 11> O 1.3613406339 -0.6059212954 1.2308001724
| 12> C 1.7323019659 -0.0351053854 2.5041142092
| 13> C 0.7145977119 -0.4761342173 3.5352819088
| 14> S 0.7657923506 -1.0071199219 -1.6049825899
| 15> C -0.3038147089 0.3283004962 -2.2207830673
| 16> S -2.0756336223 0.1304184684 -1.8605939481
| 17> P -2.0500323077 0.0132315485 0.2587263701
| 18> S -3.780587169 0.2026562353 1.1509232068
| 19> O -0.9151101815 1.0412355221 0.6989826217
| 20> C -1.2705378427 2.3709881191 1.1263725417
| 21> C -1.6890585448 3.252588837 -0.0327330466
| 22> O -1.2573504302 -1.3152148371 0.6131034089
| 23> C -1.9200842163 -2.5844992047 0.7441501746
| 24> C -2.3882523129 -3.1271496021 -0.591952519
| 25> H 6.2797099378 -0.593636381 -1.7125204594
| 26> H 5.9190100618 -0.3410042151 0.0024925568
| 27> H 5.5419204668 -1.8915980374 -0.7581167367
| 28> H 3.850045172 -0.766385152 -2.2181717474
| 29> H 4.2086841682 0.7871359456 -1.4200884496
| 30> H 2.7350189057 -0.3920396957 2.7530534767
| 31> H 1.7553856717 1.0559334782 2.4052646176
| 32> H 0.7135230273 -1.559032455 3.61755207
| 33> H 0.9664277645 -0.0398731692 4.4965643862
| 34> H -0.2803325207 -0.1491238837 3.2415879479
| 35> H -0.2458277216 0.3209247823 -3.3063919465
| 36> H 0.0618162507 1.2739893396 -1.814168335
| 37> H -2.0768314469 2.2915716827 1.8621928399
| 38> H -0.3652396086 2.7504525976 1.6030466501
| 39> H -2.5668054552 2.8335181001 -0.524025335
| 40> H -1.9343325038 4.2397649352 0.3455653986
| 41> H -0.8787587425 3.3426460619 -0.7525689891
| 42> H -1.1619934053 -3.2271147416 1.1946226226
| 43> H -2.7639703588 -2.464792419 1.431769579
| 44> H -1.5618307009 -3.1549480229 -1.2988235695
| 45> H -2.7757781067 -4.1312828892 -0.4523750472
| 46> H -3.1792873283 -2.496459212 -0.996611265
| 47> *
| 48>
| 49>                          ****END OF INPUT****

CARTESIAN COORDINATES (ANGSTROEM)
---------------------------------
  C      5.580781   -0.817294   -0.913439
  C      4.208305   -0.301182   -1.295667
  O      3.294462   -0.639700   -0.235472
  P      1.846645    0.026833   -0.132568
  S      1.915391    1.986911   -0.270533
  O      1.361341   -0.605921    1.230800
  C      1.732302   -0.035105    2.504114
  C      0.714598   -0.476134    3.535282
  S      0.765792   -1.007120   -1.604983
  C     -0.303815    0.328300   -2.220783
  S     -2.075634    0.130418   -1.860594
  P     -2.050032    0.013232    0.258726
  S     -3.780587    0.202656    1.150923
  O     -0.915110    1.041236    0.698983
  C     -1.270538    2.370988    1.126373
  C     -1.689059    3.252589   -0.032733
  O     -1.257350   -1.315215    0.613103
  C     -1.920084   -2.584499    0.744150
  C     -2.388252   -3.127150   -0.591953
  H      6.279710   -0.593636   -1.712520
  H      5.919010   -0.341004    0.002493
  H      5.541920   -1.891598   -0.758117
  H      3.850045   -0.766385   -2.218172
  H      4.208684    0.787136   -1.420088
  H      2.735019   -0.392040    2.753053
  H      1.755386    1.055933    2.405265
  H      0.713523   -1.559032    3.617552
  H      0.966428   -0.039873    4.496564
  H     -0.280333   -0.149124    3.241588
  H     -0.245828    0.320925   -3.306392
  H      0.061816    1.273989   -1.814168
  H     -2.076831    2.291572    1.862193
  H     -0.365240    2.750453    1.603047
  H     -2.566805    2.833518   -0.524025
  H     -1.934333    4.239765    0.345565
  H     -0.878759    3.342646   -0.752569
  H     -1.161993   -3.227115    1.194623
  H     -2.763970   -2.464792    1.431770
  H     -1.561831   -3.154948   -1.298824
  H     -2.775778   -4.131283   -0.452375
  H     -3.179287   -2.496459   -0.996611

 Total Charge           Charge          ....    0
 Multiplicity           Mult            ....    1
 Number of Electrons    NEL             ....  202
 Basis Dimension        Dim             ....  334

ORBITAL ENERGIES
----------------

  NO   OCC          E(Eh)            E(eV)
   0   2.0000     -88.049783     -2395.9564
   1   2.0000     -88.043539     -2395.7865
   2   2.0000     -87.990507     -2394.3434
   3   2.0000     -87.987817     -2394.2702
   4   2.0000     -76.428275     -2079.7191
   5   2.0000     -76.425197     -2079.6353
   6   2.0000     -18.792530      -511.3707
   7   2.0000     -18.790675      -511.3203
   8   2.0000     -18.788669      -511.2657
   9   2.0000     -18.784855      -511.1619
  10   2.0000      -9.959662      -271.0162
  11   2.0000      -9.951744      -270.8007
  12   2.0000      -9.951109      -270.7834
  13   2.0000      -9.948621      -270.7157
  14   2.0000      -9.945628      -270.6343
  15   2.0000      -9.888932      -269.0915
  16   2.0000      -9.883500      -268.9437
  17   2.0000      -9.880097      -268.8511
  18   2.0000      -9.876909      -268.7644
  19   2.0000      -7.694873      -209.3881
  20   2.0000      -7.688558      -209.2163
  21   2.0000      -7.635359      -207.7687
  22   2.0000      -7.632996      -207.7044
  23   2.0000      -6.425860      -174.8565
  24   2.0000      -6.422737      -174.7716
  25   2.0000      -5.722740      -155.7237
  26   2.0000      -5.719401      -155.6328
  27   2.0000      -5.716775      -155.5614
  28   2.0000      -5.712746      -155.4517
  29   2.0000      -5.711736      -155.4242
  30   2.0000      -5.705526      -155.2553
  31   2.0000      -5.664097      -154.1279
  32   2.0000      -5.661931      -154.0690
  33   2.0000      -5.656262      -153.9147
  34   2.0000      -5.655351      -153.8899
  35   2.0000      -5.653603      -153.8424
  36   2.0000      -5.653148      -153.8300
  37   2.0000      -4.648156      -126.4828
  38   2.0000      -4.647520      -126.4655
  39   2.0000      -4.646638      -126.4415
  40   2.0000      -4.645105      -126.3997
  41   2.0000      -4.644836      -126.3924
  42   2.0000      -4.643037      -126.3435
  43   2.0000      -0.987983       -26.8844
  44   2.0000      -0.983738       -26.7689
  45   2.0000      -0.943054       -25.6618
  46   2.0000      -0.942575       -25.6488
  47   2.0000      -0.764695       -20.8084
  48   2.0000      -0.722400       -19.6575
  49   2.0000      -0.708126       -19.2691
  50   2.0000      -0.688368       -18.7314
  51   2.0000      -0.680058       -18.5053
  52   2.0000      -0.677951       -18.4480
  53   2.0000      -0.652993       -17.7688
  54   2.0000      -0.639565       -17.4035
  55   2.0000      -0.600151       -16.3309
  56   2.0000      -0.590422       -16.0662
  57   2.0000      -0.568299       -15.4642
  58   2.0000      -0.565171       -15.3791
  59   2.0000      -0.561465       -15.2782
  60   2.0000      -0.509428       -13.8622
  61   2.0000      -0.490877       -13.3574
  62   2.0000      -0.481539       -13.1033
  63   2.0000      -0.464040       -12.6272
  64   2.0000      -0.451708       -12.2916
  65   2.0000      -0.450246       -12.2518
  66   2.0000      -0.440749       -11.9934
  67   2.0000      -0.435082       -11.8392
  68   2.0000      -0.430226       -11.7070
  69   2.0000      -0.418201       -11.3798
  70   2.0000      -0.407393       -11.0857
  71   2.0000      -0.395459       -10.7610
  72   2.0000      -0.392475       -10.6798
  73   2.0000      -0.390080       -10.6146
  74   2.0000      -0.381689       -10.3863
  75   2.0000      -0.374252       -10.1839
  76   2.0000      -0.367352        -9.9962
  77   2.0000      -0.357791        -9.7360
  78   2.0000      -0.351072        -9.5532
  79   2.0000      -0.348390        -9.4802
  80   2.0000      -0.346379        -9.4254
  81   2.0000      -0.339917        -9.2496
  82   2.0000      -0.336870        -9.1667
  83   2.0000      -0.332964        -9.0604
  84   2.0000      -0.330696        -8.9987
  85   2.0000      -0.321749        -8.7552
  86   2.0000      -0.313897        -8.5416
  87   2.0000      -0.303045        -8.2463
  88   2.0000      -0.298389        -8.1196
  89   2.0000      -0.294265        -8.0074
  90   2.0000      -0.284127        -7.7315
  91   2.0000      -0.269048        -7.3212
  92   2.0000      -0.264487        -7.1971
  93   2.0000      -0.263502        -7.1703
  94   2.0000      -0.258392        -7.0312
  95   2.0000      -0.230139        -6.2624
  96   2.0000      -0.223586        -6.0841
  97   2.0000      -0.213102        -5.7988
  98   2.0000      -0.209078        -5.6893
  99   2.0000      -0.203088        -5.5263
 100   2.0000      -0.200845        -5.4653
 101   0.0000      -0.042126        -1.1463
 102   0.0000      -0.030456        -0.8288
 103   0.0000      -0.022387        -0.6092
 104   0.0000      -0.000587        -0.0160
 105   0.0000       0.014820         0.4033

MULLIKEN ATOMIC CHARGES
-----------------------
   0 C :   -0.279527
   1 C :   -0.009537
   2 O :   -0.383510
   3 P :    0.635409
   4 S :   -0.343283
   5 O :   -0.354403
   6 C :   -0.009617
   7 C :   -0.287841
   8 S :   -0.082384
   9 C :   -0.364894
  10 S :   -0.088332
  11 P :    0.603984
  12 S :   -0.322601
  13 O :   -0.375757
  14 C :   -0.004151
  15 C :   -0.322151
  16 O :   -0.349362
  17 C :   -0.001989
  18 C :   -0.314587
  19 H :    0.111533
  20 H :    0.116911
  21 H :    0.116157
  22 H :    0.096212
  23 H :    0.103857
  24 H :    0.101587
  25 H :    0.107160
  26 H :    0.113024
  27 H :    0.107530
  28 H :    0.132974
  29 H :    0.181907
  30 H :    0.213471
  31 H :    0.112766
  32 H :    0.108988
  33 H :    0.124482
  34 H :    0.109355
  35 H :    0.129524
  36 H :    0.104255
  37 H :    0.109896
  38 H :    0.118910
  39 H :    0.110022
  40 H :    0.124011
Sum of atomic charges:   -0.0000000

LOEWDIN ATOMIC CHARGES
----------------------
   0 C :   -0.350481
   1 C :   -0.124169
   2 O :   -0.255284
   3 P :    0.578541
   4 S :   -0.308398
   5 O :   -0.228747
   6 C :   -0.113549
   7 C :   -0.352234
   8 S :    0.101711
   9 C :   -0.481337
  10 S :    0.080953
  11 P :    0.565753
  12 S :   -0.316313
  13 O :   -0.238924
  14 C :   -0.125945
  15 C :   -0.368674
  16 O :   -0.230197
  17 C :   -0.118177
  18 C :   -0.369365
  19 H :    0.130586
  20 H :    0.127182
  21 H :    0.126609
  22 H :    0.106070
  23 H :    0.106067
  24 H :    0.112061
  25 H :    0.106839
  26 H :    0.125485
  27 H :    0.128871
  28 H :    0.128571
  29 H :    0.139919
  30 H :    0.123170
  31 H :    0.108033
  32 H :    0.114104
  33 H :    0.120043
  34 H :    0.130875
  35 H :    0.123001
  36 H :    0.118332
  37 H :    0.108901
  38 H :    0.121132
  39 H :    0.129180
  40 H :    0.119805

  Mayer bond orders larger than 0.100000
B(  0-C ,  1-C ) :   1.1602 B(  0-C , 19-H ) :   0.9424 B(  0-C , 20-H ) :   0.9515
B(  0-C , 21-H ) :   0.9508 B(  1-C ,  2-O ) :   0.9117 B(  1-C , 22-H ) :   0.9258
B(  1-C , 23-H ) :   0.9094 B(  2-O ,  3-P ) :   1.0933 B(  3-P ,  4-S ) :   1.5825
B(  3-P ,  5-O ) :   1.1537 B(  3-P ,  8-S ) :   0.9838 B(  4-S ,  8-S ) :   0.1165
B(  5-O ,  6-C ) :   0.8978 B(  6-C ,  7-C ) :   1.1624 B(  6-C , 24-H ) :   0.9309
B(  6-C , 25-H ) :   0.9092 B(  7-C , 26-H ) :   0.9493 B(  7-C , 27-H ) :   0.9403
B(  7-C , 28-H ) :   0.9435 B(  8-S ,  9-C ) :   1.0101 B(  9-C , 10-S ) :   0.9826
B(  9-C , 29-H ) :   0.9099 B(  9-C , 30-H ) :   0.8463 B( 10-S , 11-P ) :   0.9630
B( 11-P , 12-S ) :   1.6377 B( 11-P , 13-O ) :   1.0787 B( 11-P , 16-O ) :   1.1058
B( 13-O , 14-C ) :   0.8951 B( 14-C , 15-C ) :   1.1730 B( 14-C , 31-H ) :   0.9130
B( 14-C , 32-H ) :   0.9181 B( 15-C , 33-H ) :   0.9352 B( 15-C , 34-H ) :   0.9381
B( 15-C , 35-H ) :   0.9354 B( 16-O , 17-C ) :   0.9133 B( 17-C , 18-C ) :   1.1645
B( 17-C , 36-H ) :   0.9320 B( 17-C , 37-H ) :   0.9160 B( 18-C , 38-H ) :   0.9425
B( 18-C , 39-H ) :   0.9384 B( 18-C , 40-H ) :   0.9379

Dispersion correction           -0.069350925
FINAL SINGLE POINT ENERGY     -2929.520038187281

DIPOLE MOMENT
-------------

Method             : SCF
Type of density    : Electron Density
Multiplicity       :   1
Irrep              :   0
Energy             : -2929.6389305729785519 Eh
Relativity type    :
Basis              : AO
                                X                 Y                 Z
Electronic contribution:    -10.526366357       1.771286231      -7.286814466
Nuclear contribution   :     11.794157141      -2.264753887       7.220066060
                        -----------------------------------------
Total Dipole Moment    :      1.267790785      -0.493467656      -0.066748406
                        -----------------------------------------
Magnitude (a.u.)       :      1.362078981
Magnitude (Debye)      :      3.462129630

Rotational constants in cm-1:             0.011765             0.005820             0.005654
Rotational constants in MHz :           352.716188           174.487913           169.504646

                             ****ORCA TERMINATED NORMALLY****
TOTAL RUN TIME: 0 days 0 hours 0 minutes 22 seconds 809 msec
