                         Program Version 6.0.0  -   RELEASE  -
|  1> ! pbe def2-sv(p) def2/J RI DEFGRID1 loosescf d4 GCP(DFT/SV(P)) printgap
|  2> %output
|  3>     printlevel normal
|  4> end
|  5> * xyz 0 1
|  6> C 5.8195886371 -1.1151760531 0.9462926984
|  7> C 4.4602735589 -1.4407395777 0.3610289538
|  8> O 3.609487009 -0.2915064375 0.5479452674
|  9> P 2.2808894082 -0.0940048456 -0.2989538692
| 10> S 2.4811290918 -0.3344867555 -2.2390777778
| 11> O 1.7937131629 1.3266113979 0.1962946557
| 12> C 2.0847145544 2.5349425929 -0.5341842336
| 13> C 3.5555785891 2.8848906555 -0.4600577759
| 14> S 0.8975554148 -1.3666427518 0.6592177835
| 15> C -0.3248022717 -1.3757836329 -0.6797290693
| 16> S -1.09524437 0.2437573185 -0.9742817984
| 17> P -2.7220483758 0.0249677534 0.3870687093
| 18> S -3.9767417494 1.5222896913 0.4961624043
| 19> O -2.0420162353 -0.4425347253 1.7427366405
| 20> C -1.8094278116 0.4712298613 2.8292173931
| 21> C -0.774415005 1.5240680386 2.4867425651
| 22> O -3.3529739133 -1.3850304319 0.0089755164
| 23> C -4.4519482124 -1.4945964075 -0.9132301928
| 24> C -4.0351232525 -1.1981368147 -2.3404118967
| 25> H 6.2637623102 -0.2746375403 0.4207693015
| 26> H 5.7178084863 -0.8593483754 1.9968253529
| 27> H 6.4662523905 -1.980807408 0.8472436694
| 28> H 4.0000889167 -2.2919290078 0.8699955749
| 29> H 4.5250693728 -1.6564105271 -0.7109104195
| 30> H 1.7661748789 2.3980158152 -1.57268864
| 31> H 1.4598798215 3.2893918093 -0.0545738266
| 32> H 3.8755649322 2.9418368863 0.5769257482
| 33> H 4.1409212417 2.1194547726 -0.9685201758
| 34> H 3.7249312729 3.8404214775 -0.9463134306
| 35> H -1.0878124279 -2.0994385434 -0.404233617
| 36> H 0.1745936285 -1.6484498896 -1.6092525359
| 37> H -2.7603214273 0.9459540854 3.0908757598
| 38> H -1.4755856037 -0.172522194 3.6439566313
| 39> H -0.6136898469 2.1631758582 3.3490613927
| 40> H 0.1684832738 1.0621911364 2.2035566413
| 41> H -1.1309437852 2.1344229229 1.6562538197
| 42> H -4.7897192621 -2.5254000572 -0.7969776676
| 43> H -5.2416525933 -0.8068169365 -0.5948517612
| 44> H -3.7242649289 -0.157494791 -2.4291999332
| 45> H -3.2093144012 -1.8384365897 -2.6404416674
| 46> H -4.8786497242 -1.3696703421 -3.0014540657
| 47> *
| 48>
| 49>                          ****END OF INPUT****

CARTESIAN COORDINATES (ANGSTROEM)
---------------------------------
  C      5.819589   -1.115176    0.946293
  C      4.460274   -1.440740    0.361029
  O      3.609487   -0.291506    0.547945
  P      2.280889   -0.094005   -0.298954
  S      2.481129   -0.334487   -2.239078
  O      1.793713    1.326611    0.196295
  C      2.084715    2.534943   -0.534184
  C      3.555579    2.884891   -0.460058
  S      0.897555   -1.366643    0.659218
  C     -0.324802   -1.375784   -0.679729
  S     -1.095244    0.243757   -0.974282
  P     -2.722048    0.024968    0.387069
  S     -3.976742    1.522290    0.496162
  O     -2.042016   -0.442535    1.742737
  C     -1.809428    0.471230    2.829217
  C     -0.774415    1.524068    2.486743
  O     -3.352974   -1.385030    0.008976
  C     -4.451948   -1.494596   -0.913230
  C     -4.035123   -1.198137   -2.340412
  H      6.263762   -0.274638    0.420769
  H      5.717808   -0.859348    1.996825
  H      6.466252   -1.980807    0.847244
  H      4.000089   -2.291929    0.869996
  H      4.525069   -1.656411   -0.710910
  H      1.766175    2.398016   -1.572689
  H      1.459880    3.289392   -0.054574
  H      3.875565    2.941837    0.576926
  H      4.140921    2.119455   -0.968520
  H      3.724931    3.840421   -0.946313
  H     -1.087812   -2.099439   -0.404234
  H      0.174594   -1.648450   -1.609253
  H     -2.760321    0.945954    3.090876
  H     -1.475586   -0.172522    3.643957
  H     -0.613690    2.163176    3.349061
  H      0.168483    1.062191    2.203557
  H     -1.130944    2.134423    1.656254
  H     -4.789719   -2.525400   -0.796978
  H     -5.241653   -0.806817   -0.594852
  H     -3.724265   -0.157495   -2.429200
  H     -3.209314   -1.838437   -2.640442
  H     -4.878650   -1.369670   -3.001454

 Total Charge           Charge          ....    0
 Multiplicity           Mult            ....    1
 Number of Electrons    NEL             ....  202
 Basis Dimension        Dim             ....  334

ORBITAL ENERGIES
----------------

  NO   OCC          E(Eh)            E(eV)
   0   2.0000     -88.044751     -2395.8195
   1   2.0000     -88.041168     -2395.7220
   2   2.0000     -87.993700     -2394.4303
   3   2.0000     -87.989340     -2394.3117
   4   2.0000     -76.430408     -2079.7771
   5   2.0000     -76.426187     -2079.6623
   6   2.0000     -18.799095      -511.5494
   7   2.0000     -18.795187      -511.4430
   8   2.0000     -18.791882      -511.3531
   9   2.0000     -18.787196      -511.2256
  10   2.0000      -9.957507      -270.9575
  11   2.0000      -9.956429      -270.9282
  12   2.0000      -9.952899      -270.8322
  13   2.0000      -9.952671      -270.8260
  14   2.0000      -9.947405      -270.6826
  15   2.0000      -9.892512      -269.1889
  16   2.0000      -9.885655      -269.0024
  17   2.0000      -9.883768      -268.9510
  18   2.0000      -9.872897      -268.6552
  19   2.0000      -7.690095      -209.2581
  20   2.0000      -7.685875      -209.1433
  21   2.0000      -7.638568      -207.8560
  22   2.0000      -7.634500      -207.7453
  23   2.0000      -6.428179      -174.9196
  24   2.0000      -6.423629      -174.7958
  25   2.0000      -5.717831      -155.5901
  26   2.0000      -5.714706      -155.5051
  27   2.0000      -5.713980      -155.4853
  28   2.0000      -5.710338      -155.3862
  29   2.0000      -5.707044      -155.2966
  30   2.0000      -5.702743      -155.1795
  31   2.0000      -5.667332      -154.2159
  32   2.0000      -5.663449      -154.1103
  33   2.0000      -5.659203      -153.9948
  34   2.0000      -5.658912      -153.9868
  35   2.0000      -5.654988      -153.8801
  36   2.0000      -5.654769      -153.8741
  37   2.0000      -4.650549      -126.5479
  38   2.0000      -4.649955      -126.5317
  39   2.0000      -4.648751      -126.4989
  40   2.0000      -4.645934      -126.4223
  41   2.0000      -4.645803      -126.4187
  42   2.0000      -4.643968      -126.3688
  43   2.0000      -0.992301       -27.0019
  44   2.0000      -0.987149       -26.8617
  45   2.0000      -0.951355       -25.8877
  46   2.0000      -0.943854       -25.6836
  47   2.0000      -0.764791       -20.8110
  48   2.0000      -0.723386       -19.6843
  49   2.0000      -0.709647       -19.3105
  50   2.0000      -0.691769       -18.8240
  51   2.0000      -0.680452       -18.5160
  52   2.0000      -0.675617       -18.3845
  53   2.0000      -0.656071       -17.8526
  54   2.0000      -0.640877       -17.4392
  55   2.0000      -0.602783       -16.4026
  56   2.0000      -0.595968       -16.2171
  57   2.0000      -0.570318       -15.5191
  58   2.0000      -0.567601       -15.4452
  59   2.0000      -0.562451       -15.3051
  60   2.0000      -0.507487       -13.8094
  61   2.0000      -0.493350       -13.4247
  62   2.0000      -0.481495       -13.1021
  63   2.0000      -0.464082       -12.6283
  64   2.0000      -0.461323       -12.5532
  65   2.0000      -0.446913       -12.1611
  66   2.0000      -0.443777       -12.0758
  67   2.0000      -0.437851       -11.9145
  68   2.0000      -0.422215       -11.4891
  69   2.0000      -0.420071       -11.4307
  70   2.0000      -0.408875       -11.1260
  71   2.0000      -0.399104       -10.8602
  72   2.0000      -0.395365       -10.7584
  73   2.0000      -0.389581       -10.6010
  74   2.0000      -0.384061       -10.4508
  75   2.0000      -0.377796       -10.2804
  76   2.0000      -0.369850       -10.0641
  77   2.0000      -0.361304        -9.8316
  78   2.0000      -0.353122        -9.6089
  79   2.0000      -0.350702        -9.5431
  80   2.0000      -0.348782        -9.4908
  81   2.0000      -0.346086        -9.4175
  82   2.0000      -0.342400        -9.3172
  83   2.0000      -0.334250        -9.0954
  84   2.0000      -0.330684        -8.9984
  85   2.0000      -0.320544        -8.7225
  86   2.0000      -0.316589        -8.6148
  87   2.0000      -0.305474        -8.3124
  88   2.0000      -0.299772        -8.1572
  89   2.0000      -0.288909        -7.8616
  90   2.0000      -0.285517        -7.7693
  91   2.0000      -0.279177        -7.5968
  92   2.0000      -0.269429        -7.3315
  93   2.0000      -0.265947        -7.2368
  94   2.0000      -0.256821        -6.9885
  95   2.0000      -0.232534        -6.3276
  96   2.0000      -0.218474        -5.9450
  97   2.0000      -0.213393        -5.8067
  98   2.0000      -0.208257        -5.6670
  99   2.0000      -0.207507        -5.6465
 100   2.0000      -0.205787        -5.5998
 101   0.0000      -0.043329        -1.1790
 102   0.0000      -0.027725        -0.7544
 103   0.0000      -0.010638        -0.2895
 104   0.0000       0.005328         0.1450
 105   0.0000       0.008287         0.2255

MULLIKEN ATOMIC CHARGES
-----------------------
   0 C :   -0.281749
   1 C :   -0.013062
   2 O :   -0.375641
   3 P :    0.612522
   4 S :   -0.334624
   5 O :   -0.352741
   6 C :   -0.004408
   7 C :   -0.307627
   8 S :   -0.074316
   9 C :   -0.373480
  10 S :   -0.062188
  11 P :    0.577003
  12 S :   -0.316121
  13 O :   -0.367938
  14 C :    0.006466
  15 C :   -0.334225
  16 O :   -0.368644
  17 C :   -0.003763
  18 C :   -0.312552
  19 H :    0.120363
  20 H :    0.118353
  21 H :    0.113866
  22 H :    0.103980
  23 H :    0.107694
  24 H :    0.115507
  25 H :    0.110939
  26 H :    0.116841
  27 H :    0.122037
  28 H :    0.114079
  29 H :    0.193012
  30 H :    0.196905
  31 H :    0.108913
  32 H :    0.103377
  33 H :    0.104437
  34 H :    0.139871
  35 H :    0.120315
  36 H :    0.106313
  37 H :    0.113857
  38 H :    0.129368
  39 H :    0.114119
  40 H :    0.112941
Sum of atomic charges:    0.0000000

LOEWDIN ATOMIC CHARGES
----------------------
   0 C :   -0.350167
   1 C :   -0.120123
   2 O :   -0.246741
   3 P :    0.569527
   4 S :   -0.321265
   5 O :   -0.229271
   6 C :   -0.115811
   7 C :   -0.364652
   8 S :    0.092126
   9 C :   -0.483804
  10 S :    0.088098
  11 P :    0.572646
  12 S :   -0.315918
  13 O :   -0.241926
  14 C :   -0.115384
  15 C :   -0.375616
  16 O :   -0.242527
  17 C :   -0.118648
  18 C :   -0.367653
  19 H :    0.128398
  20 H :    0.127830
  21 H :    0.131853
  22 H :    0.110819
  23 H :    0.108994
  24 H :    0.112153
  25 H :    0.121192
  26 H :    0.126439
  27 H :    0.121492
  28 H :    0.131449
  29 H :    0.134102
  30 H :    0.130762
  31 H :    0.109498
  32 H :    0.118877
  33 H :    0.127557
  34 H :    0.119996
  35 H :    0.118581
  36 H :    0.118832
  37 H :    0.111369
  38 H :    0.122586
  39 H :    0.123388
  40 H :    0.130940

  Mayer bond orders larger than 0.100000
B(  0-C ,  1-C ) :   1.1612 B(  0-C , 19-H ) :   0.9514 B(  0-C , 20-H ) :   0.9502
B(  0-C , 21-H ) :   0.9415 B(  1-C ,  2-O ) :   0.9023 B(  1-C , 22-H ) :   0.9292
B(  1-C , 23-H ) :   0.9100 B(  2-O ,  3-P ) :   1.1109 B(  3-P ,  4-S ) :   1.5964
B(  3-P ,  5-O ) :   1.1327 B(  3-P ,  8-S ) :   0.9700 B(  4-S ,  8-S ) :   0.1100
B(  5-O ,  6-C ) :   0.8989 B(  6-C ,  7-C ) :   1.1640 B(  6-C , 24-H ) :   0.9168
B(  6-C , 25-H ) :   0.9330 B(  7-C , 26-H ) :   0.9461 B(  7-C , 27-H ) :   0.9353
B(  7-C , 28-H ) :   0.9392 B(  8-S ,  9-C ) :   0.9981 B(  9-C , 10-S ) :   0.9837
B(  9-C , 29-H ) :   0.8862 B(  9-C , 30-H ) :   0.8775 B( 10-S , 11-P ) :   0.9718
B( 11-P , 12-S ) :   1.6312 B( 11-P , 13-O ) :   1.1102 B( 11-P , 16-O ) :   1.0859
B( 13-O , 14-C ) :   0.9026 B( 14-C , 15-C ) :   1.1622 B( 14-C , 31-H ) :   0.9204
B( 14-C , 32-H ) :   0.9336 B( 15-C , 33-H ) :   0.9372 B( 15-C , 34-H ) :   0.9286
B( 15-C , 35-H ) :   0.9342 B( 16-O , 17-C ) :   0.9087 B( 17-C , 18-C ) :   1.1626
B( 17-C , 36-H ) :   0.9347 B( 17-C , 37-H ) :   0.9152 B( 18-C , 38-H ) :   0.9357
B( 18-C , 39-H ) :   0.9470 B( 18-C , 40-H ) :   0.9382

Dispersion correction           -0.064754356
FINAL SINGLE POINT ENERGY     -2929.525456261608

DIPOLE MOMENT
-------------

Method             : SCF
Type of density    : Electron Density
Multiplicity       :   1
Irrep              :   0
Energy             : -2929.6461708343222199 Eh
Relativity type    :
Basis              : AO
                                X                 Y                 Z
Electronic contribution:    -12.093698004      -3.586399645      -2.322290719
Nuclear contribution   :     12.988151792       3.062886893       2.762941263
                        -----------------------------------------
Total Dipole Moment    :      0.894453788      -0.523512752       0.440650543
                        -----------------------------------------
Magnitude (a.u.)       :      1.126182082
Magnitude (Debye)      :      2.862527363

Rotational constants in cm-1:             0.013750             0.004395             0.004192
Rotational constants in MHz :           412.215798           131.765083           125.664967

                             ****ORCA TERMINATED NORMALLY****
TOTAL RUN TIME: 0 days 0 hours 0 minutes 20 seconds 934 msec
