                         Program Version 6.0.0  -   RELEASE  -
|  1> ! pbe def2-sv(p) def2/J RI DEFGRID1 loosescf d4 GCP(DFT/SV(P)) printgap
|  2> %output
|  3>     printlevel normal
|  4> end
|  5> * xyz 0 1
|  6> C 1.2202696663 -0.8295845621 -2.4000988824
|  7> C 2.3025478056 -1.4798995037 -1.5645775447
|  8> O 2.1641009632 -1.1770930252 -0.1690791111
|  9> P 2.4545344504 0.2771444144 0.4213782343
| 10> S 3.8061772652 1.3172238833 -0.5400811842
| 11> O 2.775024396 -0.0551100165 1.9420873294
| 12> C 4.1220823155 -0.3005550991 2.3960991567
| 13> C 4.680024969 -1.5957727584 1.8447187879
| 14> S 0.5693512679 1.1767929176 0.7141658045
| 15> C -0.2608493179 -0.1814686812 1.6052723015
| 16> S -1.1343813836 -1.3538253417 0.5339110147
| 17> P -2.5002663097 -0.0260367411 -0.3911174588
| 18> S -1.9467460095 1.0515822007 -1.9397349615
| 19> O -3.0029658388 0.7709066648 0.8797954286
| 20> C -3.4374327801 2.1475067818 0.8452579073
| 21> C -2.5910582029 2.9671365108 1.7990068985
| 22> O -3.7622986033 -0.948178574 -0.6956212995
| 23> C -3.9107767283 -1.6680342698 -1.9297809999
| 24> C -2.9666857775 -2.8511217301 -2.0018134517
| 25> H 1.3412683276 -1.1116512802 -3.4407611816
| 26> H 0.2345899709 -1.139246402 -2.0605789268
| 27> H 1.2849807497 0.2565581509 -2.3230719497
| 28> H 3.2892024349 -1.1411008492 -1.8971512838
| 29> H 2.2431561514 -2.5680910471 -1.6064726392
| 30> H 4.746315383 0.5468279677 2.0960517875
| 31> H 4.0285967552 -0.3274441817 3.4825241409
| 32> H 4.808070714 -1.5139016262 0.7662122485
| 33> H 5.6461169755 -1.7919708139 2.2991823029
| 34> H 4.0048789764 -2.4202502661 2.0583205154
| 35> H -0.9757137379 0.2864592222 2.2767245132
| 36> H 0.4797420852 -0.7573258925 2.1527228403
| 37> H -3.3485257481 2.5241557387 -0.1790523062
| 38> H -4.4873683982 2.1418467962 1.1430638659
| 39> H -2.9449626296 3.9928726412 1.7947588933
| 40> H -2.6653995095 2.567986345 2.806722427
| 41> H -1.5487992774 2.950350007 1.4841231857
| 42> H -4.9548066032 -1.9837601456 -1.9298937971
| 43> H -3.7306455967 -0.9754814746 -2.7590479668
| 44> H -3.0999179981 -3.4936120526 -1.1355188419
| 45> H -3.162870666 -3.4164467408 -2.9070768574
| 46> H -1.9350916206 -2.5007986529 -2.0196036109
| 47> *
| 48>
| 49>                          ****END OF INPUT****

CARTESIAN COORDINATES (ANGSTROEM)
---------------------------------
  C      1.220270   -0.829585   -2.400099
  C      2.302548   -1.479900   -1.564578
  O      2.164101   -1.177093   -0.169079
  P      2.454534    0.277144    0.421378
  S      3.806177    1.317224   -0.540081
  O      2.775024   -0.055110    1.942087
  C      4.122082   -0.300555    2.396099
  C      4.680025   -1.595773    1.844719
  S      0.569351    1.176793    0.714166
  C     -0.260849   -0.181469    1.605272
  S     -1.134381   -1.353825    0.533911
  P     -2.500266   -0.026037   -0.391117
  S     -1.946746    1.051582   -1.939735
  O     -3.002966    0.770907    0.879795
  C     -3.437433    2.147507    0.845258
  C     -2.591058    2.967137    1.799007
  O     -3.762299   -0.948179   -0.695621
  C     -3.910777   -1.668034   -1.929781
  C     -2.966686   -2.851122   -2.001813
  H      1.341268   -1.111651   -3.440761
  H      0.234590   -1.139246   -2.060579
  H      1.284981    0.256558   -2.323072
  H      3.289202   -1.141101   -1.897151
  H      2.243156   -2.568091   -1.606473
  H      4.746315    0.546828    2.096052
  H      4.028597   -0.327444    3.482524
  H      4.808071   -1.513902    0.766212
  H      5.646117   -1.791971    2.299182
  H      4.004879   -2.420250    2.058321
  H     -0.975714    0.286459    2.276725
  H      0.479742   -0.757326    2.152723
  H     -3.348526    2.524156   -0.179052
  H     -4.487368    2.141847    1.143064
  H     -2.944963    3.992873    1.794759
  H     -2.665400    2.567986    2.806722
  H     -1.548799    2.950350    1.484123
  H     -4.954807   -1.983760   -1.929894
  H     -3.730646   -0.975481   -2.759048
  H     -3.099918   -3.493612   -1.135519
  H     -3.162871   -3.416447   -2.907077
  H     -1.935092   -2.500799   -2.019604

 Total Charge           Charge          ....    0
 Multiplicity           Mult            ....    1
 Number of Electrons    NEL             ....  202
 Basis Dimension        Dim             ....  334

ORBITAL ENERGIES
----------------

  NO   OCC          E(Eh)            E(eV)
   0   2.0000     -88.043986     -2395.7987
   1   2.0000     -88.040944     -2395.7159
   2   2.0000     -87.988164     -2394.2797
   3   2.0000     -87.987172     -2394.2527
   4   2.0000     -76.429060     -2079.7405
   5   2.0000     -76.425796     -2079.6516
   6   2.0000     -18.797354      -511.5020
   7   2.0000     -18.791985      -511.3559
   8   2.0000     -18.791343      -511.3384
   9   2.0000     -18.789956      -511.3007
  10   2.0000      -9.960061      -271.0270
  11   2.0000      -9.954656      -270.8800
  12   2.0000      -9.953381      -270.8453
  13   2.0000      -9.953310      -270.8433
  14   2.0000      -9.945352      -270.6268
  15   2.0000      -9.889704      -269.1125
  16   2.0000      -9.888751      -269.0866
  17   2.0000      -9.885638      -269.0019
  18   2.0000      -9.869987      -268.5760
  19   2.0000      -7.689220      -209.2343
  20   2.0000      -7.685988      -209.1464
  21   2.0000      -7.633289      -207.7124
  22   2.0000      -7.632012      -207.6776
  23   2.0000      -6.426467      -174.8731
  24   2.0000      -6.423550      -174.7937
  25   2.0000      -5.717225      -155.5736
  26   2.0000      -5.714296      -155.4939
  27   2.0000      -5.713726      -155.4784
  28   2.0000      -5.710340      -155.3862
  29   2.0000      -5.706019      -155.2687
  30   2.0000      -5.702651      -155.1770
  31   2.0000      -5.662276      -154.0784
  32   2.0000      -5.660773      -154.0375
  33   2.0000      -5.653939      -153.8515
  34   2.0000      -5.653362      -153.8358
  35   2.0000      -5.652815      -153.8209
  36   2.0000      -5.652183      -153.8037
  37   2.0000      -4.649112      -126.5088
  38   2.0000      -4.648300      -126.4867
  39   2.0000      -4.646776      -126.4452
  40   2.0000      -4.645871      -126.4206
  41   2.0000      -4.645475      -126.4098
  42   2.0000      -4.644101      -126.3724
  43   2.0000      -0.989384       -26.9225
  44   2.0000      -0.985424       -26.8148
  45   2.0000      -0.949168       -25.8282
  46   2.0000      -0.944357       -25.6973
  47   2.0000      -0.764112       -20.7925
  48   2.0000      -0.724291       -19.7090
  49   2.0000      -0.709100       -19.2956
  50   2.0000      -0.689611       -18.7653
  51   2.0000      -0.682302       -18.5664
  52   2.0000      -0.672544       -18.3009
  53   2.0000      -0.656042       -17.8518
  54   2.0000      -0.639921       -17.4131
  55   2.0000      -0.600759       -16.3475
  56   2.0000      -0.594344       -16.1729
  57   2.0000      -0.575252       -15.6534
  58   2.0000      -0.569375       -15.4935
  59   2.0000      -0.562929       -15.3181
  60   2.0000      -0.503821       -13.7097
  61   2.0000      -0.492715       -13.4075
  62   2.0000      -0.475895       -12.9498
  63   2.0000      -0.470401       -12.8003
  64   2.0000      -0.462101       -12.5744
  65   2.0000      -0.444956       -12.1079
  66   2.0000      -0.441904       -12.0248
  67   2.0000      -0.435522       -11.8512
  68   2.0000      -0.430758       -11.7215
  69   2.0000      -0.415707       -11.3120
  70   2.0000      -0.411193       -11.1891
  71   2.0000      -0.395940       -10.7741
  72   2.0000      -0.394197       -10.7266
  73   2.0000      -0.391469       -10.6524
  74   2.0000      -0.388290       -10.5659
  75   2.0000      -0.377917       -10.2836
  76   2.0000      -0.367682       -10.0051
  77   2.0000      -0.359989        -9.7958
  78   2.0000      -0.357764        -9.7353
  79   2.0000      -0.351912        -9.5760
  80   2.0000      -0.346535        -9.4297
  81   2.0000      -0.344581        -9.3765
  82   2.0000      -0.338944        -9.2231
  83   2.0000      -0.335143        -9.1197
  84   2.0000      -0.331055        -9.0085
  85   2.0000      -0.320002        -8.7077
  86   2.0000      -0.310834        -8.4582
  87   2.0000      -0.299957        -8.1622
  88   2.0000      -0.292682        -7.9643
  89   2.0000      -0.288315        -7.8455
  90   2.0000      -0.285767        -7.7761
  91   2.0000      -0.277325        -7.5464
  92   2.0000      -0.272801        -7.4233
  93   2.0000      -0.265651        -7.2287
  94   2.0000      -0.262397        -7.1402
  95   2.0000      -0.233466        -6.3529
  96   2.0000      -0.219122        -5.9626
  97   2.0000      -0.209406        -5.6982
  98   2.0000      -0.207559        -5.6480
  99   2.0000      -0.201035        -5.4704
 100   2.0000      -0.195507        -5.3200
 101   0.0000      -0.045736        -1.2445
 102   0.0000      -0.028286        -0.7697
 103   0.0000      -0.019224        -0.5231
 104   0.0000      -0.007108        -0.1934
 105   0.0000       0.015369         0.4182

MULLIKEN ATOMIC CHARGES
-----------------------
   0 C :   -0.340948
   1 C :   -0.003774
   2 O :   -0.379721
   3 P :    0.612163
   4 S :   -0.314906
   5 O :   -0.384320
   6 C :   -0.003094
   7 C :   -0.307860
   8 S :   -0.062653
   9 C :   -0.358134
  10 S :   -0.093204
  11 P :    0.602586
  12 S :   -0.308493
  13 O :   -0.376078
  14 C :   -0.007568
  15 C :   -0.311661
  16 O :   -0.365736
  17 C :   -0.002409
  18 C :   -0.339092
  19 H :    0.104418
  20 H :    0.150732
  21 H :    0.130023
  22 H :    0.108500
  23 H :    0.099166
  24 H :    0.114029
  25 H :    0.104559
  26 H :    0.125321
  27 H :    0.112695
  28 H :    0.114904
  29 H :    0.196617
  30 H :    0.193525
  31 H :    0.114185
  32 H :    0.107767
  33 H :    0.115950
  34 H :    0.117449
  35 H :    0.136196
  36 H :    0.106910
  37 H :    0.110945
  38 H :    0.122130
  39 H :    0.116383
  40 H :    0.142499
Sum of atomic charges:   -0.0000000

LOEWDIN ATOMIC CHARGES
----------------------
   0 C :   -0.372811
   1 C :   -0.121673
   2 O :   -0.247406
   3 P :    0.571516
   4 S :   -0.313363
   5 O :   -0.251383
   6 C :   -0.116135
   7 C :   -0.365029
   8 S :    0.100572
   9 C :   -0.474463
  10 S :    0.090194
  11 P :    0.564982
  12 S :   -0.301074
  13 O :   -0.242708
  14 C :   -0.117236
  15 C :   -0.359228
  16 O :   -0.244926
  17 C :   -0.121078
  18 C :   -0.369463
  19 H :    0.128203
  20 H :    0.113640
  21 H :    0.123714
  22 H :    0.106937
  23 H :    0.116553
  24 H :    0.112554
  25 H :    0.118386
  26 H :    0.123627
  27 H :    0.130708
  28 H :    0.125525
  29 H :    0.135464
  30 H :    0.137361
  31 H :    0.109055
  32 H :    0.118004
  33 H :    0.133562
  34 H :    0.124343
  35 H :    0.123180
  36 H :    0.119673
  37 H :    0.108957
  38 H :    0.127000
  39 H :    0.133157
  40 H :    0.121112

  Mayer bond orders larger than 0.100000
B(  0-C ,  1-C ) :   1.1606 B(  0-C , 19-H ) :   0.9377 B(  0-C , 20-H ) :   0.9196
B(  0-C , 21-H ) :   0.9328 B(  1-C ,  2-O ) :   0.9037 B(  1-C , 22-H ) :   0.9149
B(  1-C , 23-H ) :   0.9318 B(  2-O ,  3-P ) :   1.0862 B(  3-P ,  4-S ) :   1.6376
B(  3-P ,  5-O ) :   1.0879 B(  3-P ,  8-S ) :   0.9838 B(  5-O ,  6-C ) :   0.9084
B(  6-C ,  7-C ) :   1.1625 B(  6-C , 24-H ) :   0.9174 B(  6-C , 25-H ) :   0.9358
B(  7-C , 26-H ) :   0.9363 B(  7-C , 27-H ) :   0.9381 B(  7-C , 28-H ) :   0.9464
B(  8-S ,  9-C ) :   0.9891 B(  9-C , 10-S ) :   0.9956 B(  9-C , 29-H ) :   0.8948
B(  9-C , 30-H ) :   0.8920 B( 10-S , 11-P ) :   0.9611 B( 10-S , 12-S ) :   0.1058
B( 11-P , 12-S ) :   1.6341 B( 11-P , 13-O ) :   1.1137 B( 11-P , 16-O ) :   1.1109
B( 13-O , 14-C ) :   0.8947 B( 14-C , 15-C ) :   1.1674 B( 14-C , 31-H ) :   0.9006
B( 14-C , 32-H ) :   0.9323 B( 15-C , 33-H ) :   0.9389 B( 15-C , 34-H ) :   0.9464
B( 15-C , 35-H ) :   0.9359 B( 16-O , 17-C ) :   0.9150 B( 17-C , 18-C ) :   1.1608
B( 17-C , 36-H ) :   0.9326 B( 17-C , 37-H ) :   0.9108 B( 18-C , 38-H ) :   0.9431
B( 18-C , 39-H ) :   0.9374 B( 18-C , 40-H ) :   0.9294

Dispersion correction           -0.065583981
FINAL SINGLE POINT ENERGY     -2929.518577010697

DIPOLE MOMENT
-------------

Method             : SCF
Type of density    : Electron Density
Multiplicity       :   1
Irrep              :   0
Energy             : -2929.6388838536222465 Eh
Relativity type    :
Basis              : AO
                                X                 Y                 Z
Electronic contribution:      0.067517298       8.485476421       0.683384160
Nuclear contribution   :     -0.724639377      -9.572217751       0.133463291
                        -----------------------------------------
Total Dipole Moment    :     -0.657122078      -1.086741331       0.816847451
                        -----------------------------------------
Magnitude (a.u.)       :      1.509985399
Magnitude (Debye)      :      3.838077866

Rotational constants in cm-1:             0.012540             0.004870             0.004384
Rotational constants in MHz :           375.930842           146.006746           131.433317

                             ****ORCA TERMINATED NORMALLY****
TOTAL RUN TIME: 0 days 0 hours 0 minutes 21 seconds 149 msec
