                         Program Version 6.0.0  -   RELEASE  -
|  1> ! r2scan-3c def2/J RI DEFGRID2 scfconv6 printgap
|  2> %output
|  3>     printlevel normal
|  4> end
|  5> * xyz 0 1
|  6> C 4.7110738882 -2.1607853675 -0.1222309601
|  7> C 4.5869452212 -0.6873380069 0.2091691055
|  8> O 3.8796838303 -0.0010602871 -0.8586377156
|  9> P 2.4478340337 0.6280533449 -0.68295198
| 10> S 1.8091512277 1.3837387576 -2.3673899507
| 11> O 2.7124500985 1.6509580226 0.5070488247
| 12> C 1.7578424813 2.6219902306 0.9732214319
| 13> C 1.078323009 2.147466714 2.2427316361
| 14> S 1.2652506713 -0.9187077015 0.1889988469
| 15> C 0.255080922 -1.3565531424 -1.2635458344
| 16> S -1.3884085525 -1.911429263 -0.779067284
| 17> P -2.0168773272 -0.1356982312 0.2302159814
| 18> S -1.4340428838 1.558345401 -0.5580388976
| 19> O -1.563195682 -0.2809376441 1.7278904164
| 20> C -1.9067322938 -1.4167622635 2.5643121533
| 21> C -3.1093549971 -1.096048472 3.4269296248
| 22> O -3.5879651365 -0.3503585141 0.3120751924
| 23> C -4.4193440832 -0.2478709218 -0.8619463552
| 24> C -5.8622705802 -0.1902610891 -0.40351262
| 25> H 5.1633339142 -2.2825128796 -1.1024243937
| 26> H 5.3364226779 -2.6404985214 0.6238858638
| 27> H 3.7322713047 -2.6338115926 -0.1230713733
| 28> H 5.5638421384 -0.2043973421 0.2572414446
| 29> H 4.0542910619 -0.5331721627 1.1500757438
| 30> H 2.3475194917 3.5226958209 1.1543324969
| 31> H 1.0273717727 2.8224951302 0.1827270353
| 32> H 1.8228535606 1.869758674 2.9833602587
| 33> H 0.4621804045 2.9519292267 2.6315308288
| 34> H 0.4394031338 1.290618467 2.03922206
| 35> H 0.7146722414 -2.1871178672 -1.7937372675
| 36> H 0.1788417268 -0.4722087073 -1.9033692947
| 37> H -2.0941756061 -2.2834281016 1.9248028604
| 38> H -1.013258848 -1.5892509151 3.1667631544
| 39> H -2.9139227051 -0.2100168415 4.0244329925
| 40> H -3.9808344996 -0.9132434029 2.804191859
| 41> H -3.3076311524 -1.9363455667 4.0848323193
| 42> H -4.1350709035 0.6548750791 -1.4126461615
| 43> H -4.2336290177 -1.1231040595 -1.4905320726
| 44> H -6.111268956 -1.0886523024 0.1536044578
| 45> H -6.017453851 0.6763300662 0.2329633446
| 46> H -6.5082815742 -0.116117948 -1.2720733681
| 47> *
| 48>
| 49>                          ****END OF INPUT****

CARTESIAN COORDINATES (ANGSTROEM)
---------------------------------
  C      4.711074   -2.160785   -0.122231
  C      4.586945   -0.687338    0.209169
  O      3.879684   -0.001060   -0.858638
  P      2.447834    0.628053   -0.682952
  S      1.809151    1.383739   -2.367390
  O      2.712450    1.650958    0.507049
  C      1.757842    2.621990    0.973221
  C      1.078323    2.147467    2.242732
  S      1.265251   -0.918708    0.188999
  C      0.255081   -1.356553   -1.263546
  S     -1.388409   -1.911429   -0.779067
  P     -2.016877   -0.135698    0.230216
  S     -1.434043    1.558345   -0.558039
  O     -1.563196   -0.280938    1.727890
  C     -1.906732   -1.416762    2.564312
  C     -3.109355   -1.096048    3.426930
  O     -3.587965   -0.350359    0.312075
  C     -4.419344   -0.247871   -0.861946
  C     -5.862271   -0.190261   -0.403513
  H      5.163334   -2.282513   -1.102424
  H      5.336423   -2.640499    0.623886
  H      3.732271   -2.633812   -0.123071
  H      5.563842   -0.204397    0.257241
  H      4.054291   -0.533172    1.150076
  H      2.347519    3.522696    1.154332
  H      1.027372    2.822495    0.182727
  H      1.822854    1.869759    2.983360
  H      0.462180    2.951929    2.631531
  H      0.439403    1.290618    2.039222
  H      0.714672   -2.187118   -1.793737
  H      0.178842   -0.472209   -1.903369
  H     -2.094176   -2.283428    1.924803
  H     -1.013259   -1.589251    3.166763
  H     -2.913923   -0.210017    4.024433
  H     -3.980834   -0.913243    2.804192
  H     -3.307631   -1.936346    4.084832
  H     -4.135071    0.654875   -1.412646
  H     -4.233629   -1.123104   -1.490532
  H     -6.111269   -1.088652    0.153604
  H     -6.017454    0.676330    0.232963
  H     -6.508282   -0.116118   -1.272073

 Total Charge           Charge          ....    0
 Multiplicity           Mult            ....    1
 Number of Electrons    NEL             ....  202
 Basis Dimension        Dim             ....  539

ORBITAL ENERGIES
----------------

  NO   OCC          E(Eh)            E(eV)
   0   2.0000     -88.579450     -2410.3694
   1   2.0000     -88.570915     -2410.1371
   2   2.0000     -88.516776     -2408.6639
   3   2.0000     -88.511835     -2408.5295
   4   2.0000     -76.915195     -2092.9688
   5   2.0000     -76.907162     -2092.7503
   6   2.0000     -18.997183      -516.9396
   7   2.0000     -18.996019      -516.9080
   8   2.0000     -18.984820      -516.6032
   9   2.0000     -18.983106      -516.5566
  10   2.0000     -10.106707      -275.0175
  11   2.0000     -10.102803      -274.9113
  12   2.0000     -10.102795      -274.9110
  13   2.0000     -10.100357      -274.8447
  14   2.0000     -10.086868      -274.4776
  15   2.0000     -10.037363      -273.1305
  16   2.0000     -10.035270      -273.0736
  17   2.0000     -10.029444      -272.9151
  18   2.0000     -10.016093      -272.5518
  19   2.0000      -7.873708      -214.2545
  20   2.0000      -7.865316      -214.0261
  21   2.0000      -7.811411      -212.5593
  22   2.0000      -7.806566      -212.4275
  23   2.0000      -6.593665      -179.4228
  24   2.0000      -6.585439      -179.1989
  25   2.0000      -5.820564      -158.3856
  26   2.0000      -5.817371      -158.2987
  27   2.0000      -5.812040      -158.1537
  28   2.0000      -5.811057      -158.1269
  29   2.0000      -5.809256      -158.0779
  30   2.0000      -5.802479      -157.8935
  31   2.0000      -5.759240      -156.7169
  32   2.0000      -5.754341      -156.5836
  33   2.0000      -5.751493      -156.5061
  34   2.0000      -5.751455      -156.5050
  35   2.0000      -5.746790      -156.3781
  36   2.0000      -5.746498      -156.3702
  37   2.0000      -4.739458      -128.9672
  38   2.0000      -4.738786      -128.9489
  39   2.0000      -4.736924      -128.8982
  40   2.0000      -4.731131      -128.7406
  41   2.0000      -4.730409      -128.7210
  42   2.0000      -4.728988      -128.6823
  43   2.0000      -1.056178       -28.7401
  44   2.0000      -1.043601       -28.3978
  45   2.0000      -1.015698       -27.6385
  46   2.0000      -1.001616       -27.2554
  47   2.0000      -0.799234       -21.7483
  48   2.0000      -0.760643       -20.6981
  49   2.0000      -0.750835       -20.4313
  50   2.0000      -0.741100       -20.1664
  51   2.0000      -0.725593       -19.7444
  52   2.0000      -0.708778       -19.2868
  53   2.0000      -0.682896       -18.5825
  54   2.0000      -0.662829       -18.0365
  55   2.0000      -0.623118       -16.9559
  56   2.0000      -0.615819       -16.7573
  57   2.0000      -0.607724       -16.5370
  58   2.0000      -0.603497       -16.4220
  59   2.0000      -0.593133       -16.1400
  60   2.0000      -0.536574       -14.6009
  61   2.0000      -0.523157       -14.2358
  62   2.0000      -0.505498       -13.7553
  63   2.0000      -0.490440       -13.3455
  64   2.0000      -0.468481       -12.7480
  65   2.0000      -0.465849       -12.6764
  66   2.0000      -0.463461       -12.6114
  67   2.0000      -0.451928       -12.2976
  68   2.0000      -0.449281       -12.2256
  69   2.0000      -0.432618       -11.7721
  70   2.0000      -0.424533       -11.5521
  71   2.0000      -0.411223       -11.1899
  72   2.0000      -0.409634       -11.1467
  73   2.0000      -0.401509       -10.9256
  74   2.0000      -0.391425       -10.6512
  75   2.0000      -0.383467       -10.4347
  76   2.0000      -0.377871       -10.2824
  77   2.0000      -0.374002       -10.1771
  78   2.0000      -0.371173       -10.1001
  79   2.0000      -0.370059       -10.0698
  80   2.0000      -0.364272        -9.9123
  81   2.0000      -0.360457        -9.8085
  82   2.0000      -0.357002        -9.7145
  83   2.0000      -0.352272        -9.5858
  84   2.0000      -0.340474        -9.2648
  85   2.0000      -0.333829        -9.0840
  86   2.0000      -0.321589        -8.7509
  87   2.0000      -0.319395        -8.6912
  88   2.0000      -0.313266        -8.5244
  89   2.0000      -0.310015        -8.4359
  90   2.0000      -0.296717        -8.0741
  91   2.0000      -0.294358        -8.0099
  92   2.0000      -0.284499        -7.7416
  93   2.0000      -0.278447        -7.5769
  94   2.0000      -0.269081        -7.3221
  95   2.0000      -0.247326        -6.7301
  96   2.0000      -0.234014        -6.3678
  97   2.0000      -0.220487        -5.9998
  98   2.0000      -0.212728        -5.7886
  99   2.0000      -0.208158        -5.6643
 100   2.0000      -0.199276        -5.4226
 101   0.0000      -0.046469        -1.2645
 102   0.0000      -0.032370        -0.8808
 103   0.0000      -0.007038        -0.1915
 104   0.0000       0.011555         0.3144
 105   0.0000       0.015247         0.4149

MULLIKEN ATOMIC CHARGES
-----------------------
   0 C :   -0.447657
   1 C :   -0.119148
   2 O :   -0.275406
   3 P :    0.656010
   4 S :   -0.420977
   5 O :   -0.280506
   6 C :   -0.150591
   7 C :   -0.446273
   8 S :   -0.189587
   9 C :   -0.221475
  10 S :   -0.185936
  11 P :    0.666189
  12 S :   -0.416586
  13 O :   -0.273540
  14 C :   -0.107855
  15 C :   -0.458177
  16 O :   -0.283676
  17 C :   -0.154814
  18 C :   -0.441509
  19 H :    0.158607
  20 H :    0.144904
  21 H :    0.164260
  22 H :    0.155575
  23 H :    0.149168
  24 H :    0.146292
  25 H :    0.174990
  26 H :    0.142916
  27 H :    0.145211
  28 H :    0.181357
  29 H :    0.188973
  30 H :    0.226703
  31 H :    0.159888
  32 H :    0.158227
  33 H :    0.156876
  34 H :    0.167118
  35 H :    0.146956
  36 H :    0.172913
  37 H :    0.151403
  38 H :    0.150461
  39 H :    0.159768
  40 H :    0.148949
Sum of atomic charges:    0.0000000

LOEWDIN ATOMIC CHARGES
----------------------
   0 C :   -0.397760
   1 C :    0.021948
   2 O :   -0.653674
   3 P :    0.377614
   4 S :   -0.088866
   5 O :   -0.664604
   6 C :    0.021789
   7 C :   -0.407144
   8 S :    0.127481
   9 C :   -0.415476
  10 S :    0.121253
  11 P :    0.374582
  12 S :   -0.082249
  13 O :   -0.667489
  14 C :    0.022062
  15 C :   -0.392259
  16 O :   -0.677569
  17 C :    0.019982
  18 C :   -0.385925
  19 H :    0.162120
  20 H :    0.158132
  21 H :    0.161262
  22 H :    0.180134
  23 H :    0.173859
  24 H :    0.176291
  25 H :    0.185118
  26 H :    0.153963
  27 H :    0.161615
  28 H :    0.174524
  29 H :    0.177450
  30 H :    0.200944
  31 H :    0.176586
  32 H :    0.181079
  33 H :    0.161517
  34 H :    0.166799
  35 H :    0.158936
  36 H :    0.182108
  37 H :    0.172400
  38 H :    0.158115
  39 H :    0.162095
  40 H :    0.161255

  Mayer bond orders larger than 0.100000
B(  0-C ,  1-C ) :   0.9518 B(  0-C , 19-H ) :   0.9707 B(  0-C , 20-H ) :   0.9667
B(  0-C , 21-H ) :   0.9666 B(  1-C ,  2-O ) :   0.7299 B(  1-C , 22-H ) :   0.9573
B(  1-C , 23-H ) :   0.9687 B(  2-O ,  3-P ) :   1.1826 B(  3-P ,  4-S ) :   1.8622
B(  3-P ,  5-O ) :   1.0660 B(  3-P ,  8-S ) :   0.9654 B(  5-O ,  6-C ) :   0.7748
B(  6-C ,  7-C ) :   0.9433 B(  6-C , 24-H ) :   0.9673 B(  6-C , 25-H ) :   0.9545
B(  7-C , 26-H ) :   0.9769 B(  7-C , 27-H ) :   0.9629 B(  7-C , 28-H ) :   0.9508
B(  8-S ,  9-C ) :   0.8959 B(  9-C , 10-S ) :   0.9310 B(  9-C , 29-H ) :   0.9154
B(  9-C , 30-H ) :   0.9016 B( 10-S , 11-P ) :   0.9806 B( 11-P , 12-S ) :   1.8464
B( 11-P , 13-O ) :   1.1297 B( 11-P , 16-O ) :   1.0602 B( 13-O , 14-C ) :   0.7394
B( 14-C , 15-C ) :   0.9407 B( 14-C , 31-H ) :   0.9645 B( 14-C , 32-H ) :   0.9611
B( 15-C , 33-H ) :   0.9711 B( 15-C , 34-H ) :   0.9665 B( 15-C , 35-H ) :   0.9658
B( 16-O , 17-C ) :   0.7886 B( 17-C , 18-C ) :   0.9548 B( 17-C , 36-H ) :   0.9491
B( 17-C , 37-H ) :   0.9416 B( 18-C , 38-H ) :   0.9721 B( 18-C , 39-H ) :   0.9713
B( 18-C , 40-H ) :   0.9629

Dispersion correction           -0.021332760
FINAL SINGLE POINT ENERGY     -2932.458701073133

DIPOLE MOMENT
-------------

Method             : SCF
Type of density    : Electron Density
Multiplicity       :   1
Irrep              :   0
Energy             : -2932.4837589690700952 Eh
Relativity type    :
Basis              : AO
                                X                 Y                 Z
Electronic contribution:      8.511202001       5.001439217     -16.080728096
Nuclear contribution   :     -9.257868860      -6.455995457      17.714951638
                        -----------------------------------------
Total Dipole Moment    :     -0.746666858      -1.454556240       1.634223541
                        -----------------------------------------
Magnitude (a.u.)       :      2.311694581
Magnitude (Debye)      :      5.875860663

Rotational constants in cm-1:             0.012766             0.004701             0.004602
Rotational constants in MHz :           382.715526           140.918067           137.960135

                             ****ORCA TERMINATED NORMALLY****
TOTAL RUN TIME: 0 days 0 hours 1 minutes 22 seconds 97 msec
