                         Program Version 6.0.0  -   RELEASE  -
|  1> ! r2scan-3c def2/J RI DEFGRID2 scfconv6 printgap
|  2> %output
|  3>     printlevel normal
|  4> end
|  5> %cpcm
|  6>     smd true
|  7>     smdsolvent "water"
|  8> end
|  9> * xyz 0 1
| 10> C 4.7110738882 -2.1607853675 -0.1222309601
| 11> C 4.5869452212 -0.6873380069 0.2091691055
| 12> O 3.8796838303 -0.0010602871 -0.8586377156
| 13> P 2.4478340337 0.6280533449 -0.68295198
| 14> S 1.8091512277 1.3837387576 -2.3673899507
| 15> O 2.7124500985 1.6509580226 0.5070488247
| 16> C 1.7578424813 2.6219902306 0.9732214319
| 17> C 1.078323009 2.147466714 2.2427316361
| 18> S 1.2652506713 -0.9187077015 0.1889988469
| 19> C 0.255080922 -1.3565531424 -1.2635458344
| 20> S -1.3884085525 -1.911429263 -0.779067284
| 21> P -2.0168773272 -0.1356982312 0.2302159814
| 22> S -1.4340428838 1.558345401 -0.5580388976
| 23> O -1.563195682 -0.2809376441 1.7278904164
| 24> C -1.9067322938 -1.4167622635 2.5643121533
| 25> C -3.1093549971 -1.096048472 3.4269296248
| 26> O -3.5879651365 -0.3503585141 0.3120751924
| 27> C -4.4193440832 -0.2478709218 -0.8619463552
| 28> C -5.8622705802 -0.1902610891 -0.40351262
| 29> H 5.1633339142 -2.2825128796 -1.1024243937
| 30> H 5.3364226779 -2.6404985214 0.6238858638
| 31> H 3.7322713047 -2.6338115926 -0.1230713733
| 32> H 5.5638421384 -0.2043973421 0.2572414446
| 33> H 4.0542910619 -0.5331721627 1.1500757438
| 34> H 2.3475194917 3.5226958209 1.1543324969
| 35> H 1.0273717727 2.8224951302 0.1827270353
| 36> H 1.8228535606 1.869758674 2.9833602587
| 37> H 0.4621804045 2.9519292267 2.6315308288
| 38> H 0.4394031338 1.290618467 2.03922206
| 39> H 0.7146722414 -2.1871178672 -1.7937372675
| 40> H 0.1788417268 -0.4722087073 -1.9033692947
| 41> H -2.0941756061 -2.2834281016 1.9248028604
| 42> H -1.013258848 -1.5892509151 3.1667631544
| 43> H -2.9139227051 -0.2100168415 4.0244329925
| 44> H -3.9808344996 -0.9132434029 2.804191859
| 45> H -3.3076311524 -1.9363455667 4.0848323193
| 46> H -4.1350709035 0.6548750791 -1.4126461615
| 47> H -4.2336290177 -1.1231040595 -1.4905320726
| 48> H -6.111268956 -1.0886523024 0.1536044578
| 49> H -6.017453851 0.6763300662 0.2329633446
| 50> H -6.5082815742 -0.116117948 -1.2720733681
| 51> *
| 52>
| 53>                          ****END OF INPUT****

CARTESIAN COORDINATES (ANGSTROEM)
---------------------------------
  C      4.711074   -2.160785   -0.122231
  C      4.586945   -0.687338    0.209169
  O      3.879684   -0.001060   -0.858638
  P      2.447834    0.628053   -0.682952
  S      1.809151    1.383739   -2.367390
  O      2.712450    1.650958    0.507049
  C      1.757842    2.621990    0.973221
  C      1.078323    2.147467    2.242732
  S      1.265251   -0.918708    0.188999
  C      0.255081   -1.356553   -1.263546
  S     -1.388409   -1.911429   -0.779067
  P     -2.016877   -0.135698    0.230216
  S     -1.434043    1.558345   -0.558039
  O     -1.563196   -0.280938    1.727890
  C     -1.906732   -1.416762    2.564312
  C     -3.109355   -1.096048    3.426930
  O     -3.587965   -0.350359    0.312075
  C     -4.419344   -0.247871   -0.861946
  C     -5.862271   -0.190261   -0.403513
  H      5.163334   -2.282513   -1.102424
  H      5.336423   -2.640499    0.623886
  H      3.732271   -2.633812   -0.123071
  H      5.563842   -0.204397    0.257241
  H      4.054291   -0.533172    1.150076
  H      2.347519    3.522696    1.154332
  H      1.027372    2.822495    0.182727
  H      1.822854    1.869759    2.983360
  H      0.462180    2.951929    2.631531
  H      0.439403    1.290618    2.039222
  H      0.714672   -2.187118   -1.793737
  H      0.178842   -0.472209   -1.903369
  H     -2.094176   -2.283428    1.924803
  H     -1.013259   -1.589251    3.166763
  H     -2.913923   -0.210017    4.024433
  H     -3.980834   -0.913243    2.804192
  H     -3.307631   -1.936346    4.084832
  H     -4.135071    0.654875   -1.412646
  H     -4.233629   -1.123104   -1.490532
  H     -6.111269   -1.088652    0.153604
  H     -6.017454    0.676330    0.232963
  H     -6.508282   -0.116118   -1.272073

 Total Charge           Charge          ....    0
 Multiplicity           Mult            ....    1
 Number of Electrons    NEL             ....  202
 Basis Dimension        Dim             ....  539

ORBITAL ENERGIES
----------------

  NO   OCC          E(Eh)            E(eV)
   0   2.0000     -88.581085     -2410.4139
   1   2.0000     -88.575853     -2410.2715
   2   2.0000     -88.528080     -2408.9715
   3   2.0000     -88.525231     -2408.8940
   4   2.0000     -76.918822     -2093.0676
   5   2.0000     -76.918790     -2093.0667
   6   2.0000     -18.995720      -516.8998
   7   2.0000     -18.995680      -516.8987
   8   2.0000     -18.993944      -516.8515
   9   2.0000     -18.991643      -516.7889
  10   2.0000     -10.102314      -274.8979
  11   2.0000     -10.092832      -274.6399
  12   2.0000     -10.092667      -274.6354
  13   2.0000     -10.091078      -274.5922
  14   2.0000     -10.087821      -274.5036
  15   2.0000     -10.019988      -272.6577
  16   2.0000     -10.018830      -272.6262
  17   2.0000     -10.018374      -272.6138
  18   2.0000     -10.014587      -272.5108
  19   2.0000      -7.875265      -214.2969
  20   2.0000      -7.870137      -214.1573
  21   2.0000      -7.823229      -212.8809
  22   2.0000      -7.820246      -212.7997
  23   2.0000      -6.597327      -179.5224
  24   2.0000      -6.597119      -179.5167
  25   2.0000      -5.822145      -158.4286
  26   2.0000      -5.818959      -158.3419
  27   2.0000      -5.816913      -158.2862
  28   2.0000      -5.814119      -158.2102
  29   2.0000      -5.812573      -158.1681
  30   2.0000      -5.807227      -158.0227
  31   2.0000      -5.770853      -157.0329
  32   2.0000      -5.767943      -156.9537
  33   2.0000      -5.763463      -156.8318
  34   2.0000      -5.763223      -156.8253
  35   2.0000      -5.760403      -156.7485
  36   2.0000      -5.760271      -156.7450
  37   2.0000      -4.743047      -129.0649
  38   2.0000      -4.742793      -129.0580
  39   2.0000      -4.742424      -129.0479
  40   2.0000      -4.742010      -129.0366
  41   2.0000      -4.740804      -129.0038
  42   2.0000      -4.740736      -129.0020
  43   2.0000      -1.055070       -28.7099
  44   2.0000      -1.052270       -28.6337
  45   2.0000      -1.013849       -27.5882
  46   2.0000      -1.009714       -27.4757
  47   2.0000      -0.800870       -21.7928
  48   2.0000      -0.756309       -20.5802
  49   2.0000      -0.747256       -20.3339
  50   2.0000      -0.727813       -19.8048
  51   2.0000      -0.723351       -19.6834
  52   2.0000      -0.709915       -19.3178
  53   2.0000      -0.686857       -18.6903
  54   2.0000      -0.671182       -18.2638
  55   2.0000      -0.621395       -16.9090
  56   2.0000      -0.614687       -16.7265
  57   2.0000      -0.600449       -16.3391
  58   2.0000      -0.597763       -16.2660
  59   2.0000      -0.591783       -16.1032
  60   2.0000      -0.532196       -14.4818
  61   2.0000      -0.523734       -14.2515
  62   2.0000      -0.498397       -13.5621
  63   2.0000      -0.493258       -13.4222
  64   2.0000      -0.469327       -12.7710
  65   2.0000      -0.461590       -12.5605
  66   2.0000      -0.458642       -12.4803
  67   2.0000      -0.450977       -12.2717
  68   2.0000      -0.443554       -12.0697
  69   2.0000      -0.431209       -11.7338
  70   2.0000      -0.420238       -11.4352
  71   2.0000      -0.412371       -11.2212
  72   2.0000      -0.403030       -10.9670
  73   2.0000      -0.393034       -10.6950
  74   2.0000      -0.390360       -10.6222
  75   2.0000      -0.384672       -10.4674
  76   2.0000      -0.375051       -10.2057
  77   2.0000      -0.366835        -9.9821
  78   2.0000      -0.364466        -9.9176
  79   2.0000      -0.359678        -9.7873
  80   2.0000      -0.356740        -9.7074
  81   2.0000      -0.355594        -9.6762
  82   2.0000      -0.350903        -9.5485
  83   2.0000      -0.347400        -9.4532
  84   2.0000      -0.341942        -9.3047
  85   2.0000      -0.326599        -8.8872
  86   2.0000      -0.321597        -8.7511
  87   2.0000      -0.314410        -8.5555
  88   2.0000      -0.310964        -8.4618
  89   2.0000      -0.306287        -8.3345
  90   2.0000      -0.298420        -8.1204
  91   2.0000      -0.291056        -7.9200
  92   2.0000      -0.286992        -7.8095
  93   2.0000      -0.278101        -7.5675
  94   2.0000      -0.274543        -7.4707
  95   2.0000      -0.250794        -6.8245
  96   2.0000      -0.243438        -6.6243
  97   2.0000      -0.233246        -6.3469
  98   2.0000      -0.221922        -6.0388
  99   2.0000      -0.220484        -5.9997
 100   2.0000      -0.212480        -5.7819
 101   0.0000      -0.049658        -1.3513
 102   0.0000      -0.040324        -1.0973
 103   0.0000      -0.011110        -0.3023
 104   0.0000       0.007453         0.2028
 105   0.0000       0.014321         0.3897

MULLIKEN ATOMIC CHARGES
-----------------------
   0 C :   -0.481724
   1 C :   -0.119380
   2 O :   -0.312645
   3 P :    0.671931
   4 S :   -0.490053
   5 O :   -0.299615
   6 C :   -0.136066
   7 C :   -0.488845
   8 S :   -0.175610
   9 C :   -0.222580
  10 S :   -0.181889
  11 P :    0.683745
  12 S :   -0.476895
  13 O :   -0.299700
  14 C :   -0.094318
  15 C :   -0.499525
  16 O :   -0.301203
  17 C :   -0.146007
  18 C :   -0.481011
  19 H :    0.166928
  20 H :    0.170952
  21 H :    0.167846
  22 H :    0.179231
  23 H :    0.168711
  24 H :    0.172198
  25 H :    0.167217
  26 H :    0.164127
  27 H :    0.168668
  28 H :    0.171482
  29 H :    0.229871
  30 H :    0.217938
  31 H :    0.171942
  32 H :    0.180809
  33 H :    0.167418
  34 H :    0.169617
  35 H :    0.171344
  36 H :    0.173381
  37 H :    0.168991
  38 H :    0.166177
  39 H :    0.166860
  40 H :    0.169682
Sum of atomic charges:    0.0000000

LOEWDIN ATOMIC CHARGES
----------------------
   0 C :   -0.399844
   1 C :    0.028454
   2 O :   -0.677379
   3 P :    0.379753
   4 S :   -0.141868
   5 O :   -0.673602
   6 C :    0.024301
   7 C :   -0.410600
   8 S :    0.142588
   9 C :   -0.411689
  10 S :    0.132228
  11 P :    0.377734
  12 S :   -0.127055
  13 O :   -0.681912
  14 C :    0.029774
  15 C :   -0.395051
  16 O :   -0.683495
  17 C :    0.023912
  18 C :   -0.388933
  19 H :    0.163997
  20 H :    0.168789
  21 H :    0.161193
  22 H :    0.190204
  23 H :    0.181813
  24 H :    0.186784
  25 H :    0.182317
  26 H :    0.162051
  27 H :    0.168496
  28 H :    0.169202
  29 H :    0.192739
  30 H :    0.197209
  31 H :    0.182283
  32 H :    0.190474
  33 H :    0.163564
  34 H :    0.165657
  35 H :    0.168940
  36 H :    0.181590
  37 H :    0.179586
  38 H :    0.163210
  39 H :    0.163426
  40 H :    0.169158

  Mayer bond orders larger than 0.100000
B(  0-C ,  1-C ) :   0.9443 B(  0-C , 19-H ) :   0.9686 B(  0-C , 20-H ) :   0.9603
B(  0-C , 21-H ) :   0.9657 B(  1-C ,  2-O ) :   0.7189 B(  1-C , 22-H ) :   0.9462
B(  1-C , 23-H ) :   0.9588 B(  2-O ,  3-P ) :   1.1847 B(  3-P ,  4-S ) :   1.8257
B(  3-P ,  5-O ) :   1.0681 B(  3-P ,  8-S ) :   0.9938 B(  5-O ,  6-C ) :   0.7647
B(  6-C ,  7-C ) :   0.9348 B(  6-C , 24-H ) :   0.9568 B(  6-C , 25-H ) :   0.9531
B(  7-C , 26-H ) :   0.9711 B(  7-C , 27-H ) :   0.9611 B(  7-C , 28-H ) :   0.9556
B(  8-S ,  9-C ) :   0.8867 B(  9-C , 10-S ) :   0.9254 B(  9-C , 29-H ) :   0.9012
B(  9-C , 30-H ) :   0.9061 B( 10-S , 11-P ) :   0.9960 B( 11-P , 12-S ) :   1.8087
B( 11-P , 13-O ) :   1.1396 B( 11-P , 16-O ) :   1.0707 B( 13-O , 14-C ) :   0.7292
B( 14-C , 15-C ) :   0.9316 B( 14-C , 31-H ) :   0.9557 B( 14-C , 32-H ) :   0.9511
B( 15-C , 33-H ) :   0.9698 B( 15-C , 34-H ) :   0.9665 B( 15-C , 35-H ) :   0.9591
B( 16-O , 17-C ) :   0.7804 B( 17-C , 18-C ) :   0.9544 B( 17-C , 36-H ) :   0.9468
B( 17-C , 37-H ) :   0.9330 B( 18-C , 38-H ) :   0.9685 B( 18-C , 39-H ) :   0.9691
B( 18-C , 40-H ) :   0.9576

Dispersion correction           -0.021332760
FINAL SINGLE POINT ENERGY     -2932.469258320863

DIPOLE MOMENT
-------------

Method             : SCF
Type of density    : Electron Density
Multiplicity       :   1
Irrep              :   0
Energy             : -2932.4943162168005983 Eh
Relativity type    :
Basis              : AO
                                X                 Y                 Z
Electronic contribution:      8.386445600       4.173862571     -15.411484364
Nuclear contribution   :     -9.257868860      -6.455995457      17.714951638
                        -----------------------------------------
Total Dipole Moment    :     -0.871423259      -2.282132886       2.303467274
                        -----------------------------------------
Magnitude (a.u.)       :      3.357598917
Magnitude (Debye)      :      8.534338212

Rotational constants in cm-1:             0.012766             0.004701             0.004602
Rotational constants in MHz :           382.715526           140.918067           137.960135

                             ****ORCA TERMINATED NORMALLY****
TOTAL RUN TIME: 0 days 0 hours 1 minutes 49 seconds 490 msec
