                         Program Version 6.0.0  -   RELEASE  -
|  1> ! wb97x-v def2-tzvp def2/J RIJCOSX DEFGRID2 scfconv7 GCP(DFT/TZ) printgap
|  2> %output
|  3>     printlevel normal
|  4> end
|  5> * xyz 0 1
|  6> C -4.182485054792282 -0.00022113365109918177 0.0152479682497849
|  7> C -2.681160944831526 0.00011557495686158571 -0.010379866917862399
|  8> C -1.9630033845340533 1.199277605484026 -0.009406579004104841
|  9> C -0.5705640122462189 1.2122810723252893 -0.0021109845681122346
| 10> C 0.10630143423947859 0.00010648842386684292 0.0021204898369488225
| 11> C -0.5706076856114479 -1.2121298076308824 -0.0021023688018111495
| 12> C -1.9629600271483794 -1.1991173110217548 -0.009423647878178955
| 13> Br 2.028821886302317 4.6375034085305984e-05 0.006385736098232981
| 14> H -4.586655682763474 0.8928225608608341 -0.46862491776761056
| 15> H -4.586451593905537 -0.8847331164585843 -0.48433671691882707
| 16> H -4.550529948062251 -0.009707147637521174 1.0481279680579678
| 17> H -2.497394174085603 2.1451300328614757 -0.015590395461719237
| 18> H -0.03087834516452114 2.152354394644569 -0.003576035068442942
| 19> H -0.030898434890618783 -2.1521906682859595 -0.0035589433363951693
| 20> H -2.4973895270828383 -2.144959743647089 -0.01559097964750951
| 21> *
| 22>
| 23>                          ****END OF INPUT****

CARTESIAN COORDINATES (ANGSTROEM)
---------------------------------
  C     -4.182485   -0.000221    0.015248
  C     -2.681161    0.000116   -0.010380
  C     -1.963003    1.199278   -0.009407
  C     -0.570564    1.212281   -0.002111
  C      0.106301    0.000106    0.002120
  C     -0.570608   -1.212130   -0.002102
  C     -1.962960   -1.199117   -0.009424
  Br     2.028822    0.000046    0.006386
  H     -4.586656    0.892823   -0.468625
  H     -4.586452   -0.884733   -0.484337
  H     -4.550530   -0.009707    1.048128
  H     -2.497394    2.145130   -0.015590
  H     -0.030878    2.152354   -0.003576
  H     -0.030898   -2.152191   -0.003559
  H     -2.497390   -2.144960   -0.015591

 Total Charge           Charge          ....    0
 Multiplicity           Mult            ....    1
 Number of Electrons    NEL             ....   84
 Basis Dimension        Dim             ....  307

ORBITAL ENERGIES
----------------

  NO   OCC          E(Eh)            E(eV)
   0   2.0000    -494.720336    -13462.0247
   1   2.0000     -66.889584     -1820.1581
   2   2.0000     -60.946237     -1658.4314
   3   2.0000     -60.944973     -1658.3970
   4   2.0000     -60.944910     -1658.3953
   5   2.0000     -12.111072      -329.5590
   6   2.0000     -12.071543      -328.4834
   7   2.0000     -12.067030      -328.3606
   8   2.0000     -12.066559      -328.3478
   9   2.0000     -12.061919      -328.2215
  10   2.0000     -12.061472      -328.2093
  11   2.0000     -12.052328      -327.9605
  12   2.0000     -10.641397      -289.5671
  13   2.0000      -8.421129      -229.1506
  14   2.0000      -8.414471      -228.9694
  15   2.0000      -8.414413      -228.9678
  16   2.0000      -4.406276      -119.9009
  17   2.0000      -4.403701      -119.8308
  18   2.0000      -4.403499      -119.8253
  19   2.0000      -4.396249      -119.6280
  20   2.0000      -4.396219      -119.6272
  21   2.0000      -1.407306       -38.2947
  22   2.0000      -1.345134       -36.6030
  23   2.0000      -1.288622       -35.0652
  24   2.0000      -1.287549       -35.0360
  25   2.0000      -1.197636       -32.5893
  26   2.0000      -1.126206       -30.6456
  27   2.0000      -1.089625       -29.6502
  28   2.0000      -0.975151       -26.5352
  29   2.0000      -0.963605       -26.2210
  30   2.0000      -0.921338       -25.0709
  31   2.0000      -0.889442       -24.2030
  32   2.0000      -0.877151       -23.8685
  33   2.0000      -0.848295       -23.0833
  34   2.0000      -0.839987       -22.8572
  35   2.0000      -0.824791       -22.4437
  36   2.0000      -0.811781       -22.0897
  37   2.0000      -0.792060       -21.5530
  38   2.0000      -0.731105       -19.8944
  39   2.0000      -0.728014       -19.8103
  40   2.0000      -0.652329       -17.7508
  41   2.0000      -0.644533       -17.5386
  42   0.0000      -0.289410        -7.8753
  43   0.0000      -0.258474        -7.0334
  44   0.0000      -0.250021        -6.8034
  45   0.0000      -0.087235        -2.3738
  46   0.0000      -0.046980        -1.2784

MULLIKEN ATOMIC CHARGES
-----------------------
   0 C :   -0.361259
   1 C :    0.158964
   2 C :   -0.192177
   3 C :   -0.142065
   4 C :    0.057607
   5 C :   -0.141771
   6 C :   -0.192376
   7 Br:   -0.080714
   8 H :    0.122321
   9 H :    0.122522
  10 H :    0.128921
  11 H :    0.121335
  12 H :    0.138647
  13 H :    0.138659
  14 H :    0.121387
Sum of atomic charges:   -0.0000000

LOEWDIN ATOMIC CHARGES
----------------------
   0 C :   -0.249663
   1 C :   -0.166569
   2 C :   -0.107988
   3 C :   -0.140592
   4 C :   -0.368147
   5 C :   -0.140598
   6 C :   -0.107876
   7 Br:    0.311033
   8 H :    0.126337
   9 H :    0.126418
  10 H :    0.129944
  11 H :    0.146367
  12 H :    0.147465
  13 H :    0.147465
  14 H :    0.146403

  Mayer bond orders larger than 0.100000
B(  0-C ,  1-C ) :   0.9173 B(  0-C ,  8-H ) :   0.9917 B(  0-C ,  9-H ) :   0.9914
B(  0-C , 10-H ) :   0.9614 B(  1-C ,  2-C ) :   1.3858 B(  1-C ,  6-C ) :   1.3842
B(  2-C ,  3-C ) :   1.4196 B(  2-C , 11-H ) :   0.9706 B(  3-C ,  4-C ) :   1.3769
B(  3-C , 12-H ) :   0.9690 B(  4-C ,  5-C ) :   1.3762 B(  4-C ,  7-Br) :   1.0436
B(  5-C ,  6-C ) :   1.4200 B(  5-C , 13-H ) :   0.9690 B(  6-C , 14-H ) :   0.9710

FINAL SINGLE POINT ENERGY     -2844.892329286668

DIPOLE MOMENT
-------------

Method             : SCF
Type of density    : Electron Density
Multiplicity       :   1
Irrep              :   0
Energy             : -2844.9015488939676288 Eh
Relativity type    :
Basis              : AO
                                X                 Y                 Z
Electronic contribution:     35.481744721       0.001063656       0.013707317
Nuclear contribution   :    -36.438507025      -0.001536959      -0.000002354
                        -----------------------------------------
Total Dipole Moment    :     -0.956762304      -0.000473303       0.013704963
                        -----------------------------------------
Magnitude (a.u.)       :      0.956860573
Magnitude (Debye)      :      2.432146290

Rotational constants in cm-1:             0.183984             0.020986             0.018904
Rotational constants in MHz :          5515.706890           629.147674           566.725025

                             ****ORCA TERMINATED NORMALLY****
TOTAL RUN TIME: 0 days 0 hours 2 minutes 46 seconds 814 msec
