                         Program Version 6.0.0  -   RELEASE  -
|  1> ! wb97x-v def2-tzvp def2/J RIJCOSX DEFGRID2 scfconv7 GCP(DFT/TZ) printgap
|  2> %output
|  3>     printlevel normal
|  4> end
|  5> %cpcm
|  6>     smd true
|  7>     smdsolvent "water"
|  8> end
|  9> * xyz 0 1
| 10> C -4.182485054792282 -0.00022113365109918177 0.0152479682497849
| 11> C -2.681160944831526 0.00011557495686158571 -0.010379866917862399
| 12> C -1.9630033845340533 1.199277605484026 -0.009406579004104841
| 13> C -0.5705640122462189 1.2122810723252893 -0.0021109845681122346
| 14> C 0.10630143423947859 0.00010648842386684292 0.0021204898369488225
| 15> C -0.5706076856114479 -1.2121298076308824 -0.0021023688018111495
| 16> C -1.9629600271483794 -1.1991173110217548 -0.009423647878178955
| 17> Br 2.028821886302317 4.6375034085305984e-05 0.006385736098232981
| 18> H -4.586655682763474 0.8928225608608341 -0.46862491776761056
| 19> H -4.586451593905537 -0.8847331164585843 -0.48433671691882707
| 20> H -4.550529948062251 -0.009707147637521174 1.0481279680579678
| 21> H -2.497394174085603 2.1451300328614757 -0.015590395461719237
| 22> H -0.03087834516452114 2.152354394644569 -0.003576035068442942
| 23> H -0.030898434890618783 -2.1521906682859595 -0.0035589433363951693
| 24> H -2.4973895270828383 -2.144959743647089 -0.01559097964750951
| 25> *
| 26>
| 27>                          ****END OF INPUT****

CARTESIAN COORDINATES (ANGSTROEM)
---------------------------------
  C     -4.182485   -0.000221    0.015248
  C     -2.681161    0.000116   -0.010380
  C     -1.963003    1.199278   -0.009407
  C     -0.570564    1.212281   -0.002111
  C      0.106301    0.000106    0.002120
  C     -0.570608   -1.212130   -0.002102
  C     -1.962960   -1.199117   -0.009424
  Br     2.028822    0.000046    0.006386
  H     -4.586656    0.892823   -0.468625
  H     -4.586452   -0.884733   -0.484337
  H     -4.550530   -0.009707    1.048128
  H     -2.497394    2.145130   -0.015590
  H     -0.030878    2.152354   -0.003576
  H     -0.030898   -2.152191   -0.003559
  H     -2.497390   -2.144960   -0.015591

 Total Charge           Charge          ....    0
 Multiplicity           Mult            ....    1
 Number of Electrons    NEL             ....   84
 Basis Dimension        Dim             ....  307

ORBITAL ENERGIES
----------------

  NO   OCC          E(Eh)            E(eV)
   0   2.0000    -494.722580    -13462.0858
   1   2.0000     -66.891899     -1820.2211
   2   2.0000     -60.948530     -1658.4938
   3   2.0000     -60.947303     -1658.4604
   4   2.0000     -60.947237     -1658.4586
   5   2.0000     -12.108267      -329.4827
   6   2.0000     -12.064193      -328.2834
   7   2.0000     -12.061165      -328.2010
   8   2.0000     -12.060732      -328.1892
   9   2.0000     -12.053588      -327.9948
  10   2.0000     -12.053133      -327.9824
  11   2.0000     -12.035452      -327.5013
  12   2.0000     -10.643773      -289.6318
  13   2.0000      -8.423416      -229.2128
  14   2.0000      -8.416943      -229.0367
  15   2.0000      -8.416878      -229.0349
  16   2.0000      -4.408532      -119.9622
  17   2.0000      -4.406047      -119.8946
  18   2.0000      -4.405825      -119.8886
  19   2.0000      -4.398766      -119.6965
  20   2.0000      -4.398737      -119.6957
  21   2.0000      -1.403106       -38.1804
  22   2.0000      -1.343380       -36.5552
  23   2.0000      -1.282665       -34.9031
  24   2.0000      -1.282503       -34.8987
  25   2.0000      -1.186677       -32.2911
  26   2.0000      -1.119514       -30.4635
  27   2.0000      -1.081834       -29.4382
  28   2.0000      -0.968710       -26.3599
  29   2.0000      -0.956139       -26.0179
  30   2.0000      -0.912174       -24.8215
  31   2.0000      -0.881228       -23.9794
  32   2.0000      -0.870197       -23.6793
  33   2.0000      -0.833951       -22.6930
  34   2.0000      -0.826785       -22.4980
  35   2.0000      -0.818676       -22.2773
  36   2.0000      -0.798924       -21.7398
  37   2.0000      -0.788792       -21.4641
  38   2.0000      -0.731280       -19.8991
  39   2.0000      -0.730479       -19.8773
  40   2.0000      -0.647273       -17.6132
  41   2.0000      -0.640568       -17.4307
  42   0.0000      -0.289421        -7.8755
  43   0.0000      -0.253904        -6.9091
  44   0.0000      -0.244554        -6.6546
  45   0.0000      -0.081225        -2.2102
  46   0.0000      -0.034290        -0.9331

MULLIKEN ATOMIC CHARGES
-----------------------
   0 C :   -0.389252
   1 C :    0.138625
   2 C :   -0.238531
   3 C :   -0.174353
   4 C :    0.071789
   5 C :   -0.174146
   6 C :   -0.238614
   7 Br:   -0.097086
   8 H :    0.143940
   9 H :    0.143966
  10 H :    0.143777
  11 H :    0.163738
  12 H :    0.171218
  13 H :    0.171229
  14 H :    0.163701
Sum of atomic charges:   -0.0000000

LOEWDIN ATOMIC CHARGES
----------------------
   0 C :   -0.250041
   1 C :   -0.169148
   2 C :   -0.109818
   3 C :   -0.148618
   4 C :   -0.380873
   5 C :   -0.148625
   6 C :   -0.109671
   7 Br:    0.294681
   8 H :    0.131546
   9 H :    0.131616
  10 H :    0.134535
  11 H :    0.157345
  12 H :    0.154848
  13 H :    0.154848
  14 H :    0.157373

  Mayer bond orders larger than 0.100000
B(  0-C ,  1-C ) :   0.9308 B(  0-C ,  8-H ) :   0.9855 B(  0-C ,  9-H ) :   0.9851
B(  0-C , 10-H ) :   0.9563 B(  1-C ,  2-C ) :   1.3651 B(  1-C ,  6-C ) :   1.3636
B(  2-C ,  3-C ) :   1.4187 B(  2-C , 11-H ) :   0.9767 B(  3-C ,  4-C ) :   1.3380
B(  3-C , 12-H ) :   0.9745 B(  4-C ,  5-C ) :   1.3373 B(  4-C ,  7-Br) :   1.0456
B(  5-C ,  6-C ) :   1.4192 B(  5-C , 13-H ) :   0.9745 B(  6-C , 14-H ) :   0.9770

FINAL SINGLE POINT ENERGY     -2844.895024139566

DIPOLE MOMENT
-------------

Method             : SCF
Type of density    : Electron Density
Multiplicity       :   1
Irrep              :   0
Energy             : -2844.9042437468656317 Eh
Relativity type    :
Basis              : AO
                                X                 Y                 Z
Electronic contribution:     35.149542135       0.000852955       0.018295514
Nuclear contribution   :    -36.438507025      -0.001536959      -0.000002354
                        -----------------------------------------
Total Dipole Moment    :     -1.288964890      -0.000684003       0.018293159
                        -----------------------------------------
Magnitude (a.u.)       :      1.289094874
Magnitude (Debye)      :      3.276618774

Rotational constants in cm-1:             0.183984             0.020986             0.018904
Rotational constants in MHz :          5515.706890           629.147674           566.725025

                             ****ORCA TERMINATED NORMALLY****
TOTAL RUN TIME: 0 days 0 hours 2 minutes 40 seconds 342 msec
