                         Program Version 6.0.0  -   RELEASE  -
|  1> ! pbe def2-sv(p) def2/J RI DEFGRID1 loosescf d4 GCP(DFT/SV(P)) printgap
|  2> %output
|  3>     printlevel normal
|  4> end
|  5> * xyz 0 1
|  6> C 1.4096436501 2.2729679252 -2.2368718849
|  7> C 1.8611892016 0.8508923361 -1.9783836455
|  8> O 1.2838567853 0.362650082 -0.7469362464
|  9> P 2.1453469281 0.3275794021 0.5846133177
| 10> S 3.2271069863 1.9040577452 1.001628672
| 11> O 3.0004855641 -1.0037006647 0.3403650674
| 12> C 4.1876170604 -1.2892592408 1.0985239957
| 13> C 3.8653574974 -1.6671576304 2.5303250391
| 14> S 0.6476249958 -0.1691132675 1.9634328499
| 15> C -0.0875553585 -1.6472795903 1.1631703599
| 16> S -1.8784973553 -1.4844735906 1.0135761709
| 17> P -1.9284895321 -0.3510041188 -0.7909446272
| 18> S -0.9918041199 -1.1621736772 -2.3025639149
| 19> O -1.4502741091 1.1102997983 -0.4542647147
| 20> C -2.0643963391 1.9245023952 0.578949021
| 21> C -1.1330263129 3.0823625685 0.8692291484
| 22> O -3.4908272487 -0.1446063747 -0.9955033081
| 23> C -4.3430951052 -1.2392412003 -1.3910640665
| 24> C -5.6738803198 -0.6584098948 -1.8231209218
| 25> H 1.7882920803 2.5996883752 -3.1999351683
| 26> H 0.3232163765 2.3128938901 -2.2420946293
| 27> H 1.7861468268 2.9336097885 -1.4585192535
| 28> H 2.9508702086 0.784154536 -1.9152032324
| 29> H 1.4946114546 0.168497647 -2.7481936939
| 30> H 4.6562990798 -2.1119758337 0.5568710721
| 31> H 4.835293686 -0.4069805125 1.0712601496
| 32> H 3.4121136825 -0.8201399579 3.0448720585
| 33> H 3.1764103519 -2.5074385358 2.556532114
| 34> H 4.7821817785 -1.9398486161 3.0429652452
| 35> H 0.0934924552 -2.5030755619 1.8073900087
| 36> H 0.3512233834 -1.7811570351 0.1748637562
| 37> H -3.0296936044 2.267823559 0.2034487977
| 38> H -2.2183087326 1.3054813957 1.4679484745
| 39> H -1.5670200242 3.7013032322 1.6476605279
| 40> H -0.1655900271 2.7162170471 1.2085103464
| 41> H -0.9822920694 3.6802260395 -0.0251471869
| 42> H -3.8554457176 -1.7815471721 -2.2075752669
| 43> H -4.4567688783 -1.908688581 -0.5343910728
| 44> H -5.5315445955 0.0181453258 -2.6611005316
| 45> H -6.3333107059 -1.466057181 -2.1229855988
| 46> H -6.1253858536 -0.1116158673 -1.0006011672
| 47> *
| 48>
| 49>                          ****END OF INPUT****

CARTESIAN COORDINATES (ANGSTROEM)
---------------------------------
  C      1.409644    2.272968   -2.236872
  C      1.861189    0.850892   -1.978384
  O      1.283857    0.362650   -0.746936
  P      2.145347    0.327579    0.584613
  S      3.227107    1.904058    1.001629
  O      3.000486   -1.003701    0.340365
  C      4.187617   -1.289259    1.098524
  C      3.865357   -1.667158    2.530325
  S      0.647625   -0.169113    1.963433
  C     -0.087555   -1.647280    1.163170
  S     -1.878497   -1.484474    1.013576
  P     -1.928490   -0.351004   -0.790945
  S     -0.991804   -1.162174   -2.302564
  O     -1.450274    1.110300   -0.454265
  C     -2.064396    1.924502    0.578949
  C     -1.133026    3.082363    0.869229
  O     -3.490827   -0.144606   -0.995503
  C     -4.343095   -1.239241   -1.391064
  C     -5.673880   -0.658410   -1.823121
  H      1.788292    2.599688   -3.199935
  H      0.323216    2.312894   -2.242095
  H      1.786147    2.933610   -1.458519
  H      2.950870    0.784155   -1.915203
  H      1.494611    0.168498   -2.748194
  H      4.656299   -2.111976    0.556871
  H      4.835294   -0.406981    1.071260
  H      3.412114   -0.820140    3.044872
  H      3.176410   -2.507439    2.556532
  H      4.782182   -1.939849    3.042965
  H      0.093492   -2.503076    1.807390
  H      0.351223   -1.781157    0.174864
  H     -3.029694    2.267824    0.203449
  H     -2.218309    1.305481    1.467948
  H     -1.567020    3.701303    1.647661
  H     -0.165590    2.716217    1.208510
  H     -0.982292    3.680226   -0.025147
  H     -3.855446   -1.781547   -2.207575
  H     -4.456769   -1.908689   -0.534391
  H     -5.531545    0.018145   -2.661101
  H     -6.333311   -1.466057   -2.122986
  H     -6.125386   -0.111616   -1.000601

 Total Charge           Charge          ....    0
 Multiplicity           Mult            ....    1
 Number of Electrons    NEL             ....  202
 Basis Dimension        Dim             ....  334

ORBITAL ENERGIES
----------------

  NO   OCC          E(Eh)            E(eV)
   0   2.0000     -88.048593     -2395.9240
   1   2.0000     -88.045275     -2395.8337
   2   2.0000     -87.988015     -2394.2756
   3   2.0000     -87.986290     -2394.2287
   4   2.0000     -76.428172     -2079.7163
   5   2.0000     -76.423958     -2079.6016
   6   2.0000     -18.798845      -511.5426
   7   2.0000     -18.793211      -511.3893
   8   2.0000     -18.790164      -511.3064
   9   2.0000     -18.781219      -511.0629
  10   2.0000      -9.962126      -271.0832
  11   2.0000      -9.957952      -270.9696
  12   2.0000      -9.951970      -270.8069
  13   2.0000      -9.949938      -270.7516
  14   2.0000      -9.940037      -270.4822
  15   2.0000      -9.892606      -269.1915
  16   2.0000      -9.884630      -268.9744
  17   2.0000      -9.880361      -268.8583
  18   2.0000      -9.868787      -268.5433
  19   2.0000      -7.693855      -209.3604
  20   2.0000      -7.690457      -209.2680
  21   2.0000      -7.633112      -207.7075
  22   2.0000      -7.631394      -207.6608
  23   2.0000      -6.425815      -174.8553
  24   2.0000      -6.421718      -174.7438
  25   2.0000      -5.721600      -155.6927
  26   2.0000      -5.718802      -155.6165
  27   2.0000      -5.718266      -155.6019
  28   2.0000      -5.714674      -155.5042
  29   2.0000      -5.711041      -155.4053
  30   2.0000      -5.707207      -155.3010
  31   2.0000      -5.662067      -154.0727
  32   2.0000      -5.660463      -154.0290
  33   2.0000      -5.653780      -153.8472
  34   2.0000      -5.653196      -153.8313
  35   2.0000      -5.651893      -153.7958
  36   2.0000      -5.651485      -153.7847
  37   2.0000      -4.648695      -126.4974
  38   2.0000      -4.647664      -126.4694
  39   2.0000      -4.645884      -126.4209
  40   2.0000      -4.644046      -126.3709
  41   2.0000      -4.643674      -126.3608
  42   2.0000      -4.642242      -126.3218
  43   2.0000      -0.992057       -26.9952
  44   2.0000      -0.981564       -26.7097
  45   2.0000      -0.948026       -25.7971
  46   2.0000      -0.938598       -25.5405
  47   2.0000      -0.766189       -20.8491
  48   2.0000      -0.724063       -19.7028
  49   2.0000      -0.708931       -19.2910
  50   2.0000      -0.692436       -18.8421
  51   2.0000      -0.683349       -18.5949
  52   2.0000      -0.671086       -18.2612
  53   2.0000      -0.652103       -17.7446
  54   2.0000      -0.638933       -17.3862
  55   2.0000      -0.591155       -16.0861
  56   2.0000      -0.585518       -15.9327
  57   2.0000      -0.572263       -15.5721
  58   2.0000      -0.568118       -15.4593
  59   2.0000      -0.561520       -15.2797
  60   2.0000      -0.513741       -13.9796
  61   2.0000      -0.496494       -13.5103
  62   2.0000      -0.485153       -13.2017
  63   2.0000      -0.465110       -12.6563
  64   2.0000      -0.459048       -12.4913
  65   2.0000      -0.447768       -12.1844
  66   2.0000      -0.442896       -12.0518
  67   2.0000      -0.435942       -11.8626
  68   2.0000      -0.426988       -11.6189
  69   2.0000      -0.420035       -11.4297
  70   2.0000      -0.410295       -11.1647
  71   2.0000      -0.398705       -10.8493
  72   2.0000      -0.393166       -10.6986
  73   2.0000      -0.378846       -10.3089
  74   2.0000      -0.377652       -10.2764
  75   2.0000      -0.372076       -10.1247
  76   2.0000      -0.366787        -9.9808
  77   2.0000      -0.357186        -9.7195
  78   2.0000      -0.350658        -9.5419
  79   2.0000      -0.348166        -9.4741
  80   2.0000      -0.346313        -9.4237
  81   2.0000      -0.341354        -9.2887
  82   2.0000      -0.338426        -9.2090
  83   2.0000      -0.332565        -9.0495
  84   2.0000      -0.327339        -8.9073
  85   2.0000      -0.318837        -8.6760
  86   2.0000      -0.309706        -8.4275
  87   2.0000      -0.306793        -8.3483
  88   2.0000      -0.301068        -8.1925
  89   2.0000      -0.293574        -7.9886
  90   2.0000      -0.281440        -7.6584
  91   2.0000      -0.271796        -7.3959
  92   2.0000      -0.267069        -7.2673
  93   2.0000      -0.263133        -7.1602
  94   2.0000      -0.261715        -7.1216
  95   2.0000      -0.243390        -6.6230
  96   2.0000      -0.221615        -6.0305
  97   2.0000      -0.211644        -5.7591
  98   2.0000      -0.206289        -5.6134
  99   2.0000      -0.201021        -5.4701
 100   2.0000      -0.197356        -5.3703
 101   0.0000      -0.044711        -1.2166
 102   0.0000      -0.028330        -0.7709
 103   0.0000      -0.021938        -0.5970
 104   0.0000       0.005821         0.1584
 105   0.0000       0.017484         0.4758

MULLIKEN ATOMIC CHARGES
-----------------------
   0 C :   -0.298436
   1 C :   -0.000863
   2 O :   -0.363570
   3 P :    0.603260
   4 S :   -0.321162
   5 O :   -0.380653
   6 C :   -0.007687
   7 C :   -0.312211
   8 S :   -0.079420
   9 C :   -0.351697
  10 S :   -0.109850
  11 P :    0.621396
  12 S :   -0.310306
  13 O :   -0.350949
  14 C :   -0.013111
  15 C :   -0.290260
  16 O :   -0.387258
  17 C :   -0.016020
  18 C :   -0.280634
  19 H :    0.102281
  20 H :    0.124157
  21 H :    0.119445
  22 H :    0.096350
  23 H :    0.114689
  24 H :    0.104809
  25 H :    0.111802
  26 H :    0.126733
  27 H :    0.110428
  28 H :    0.113042
  29 H :    0.187918
  30 H :    0.203696
  31 H :    0.105454
  32 H :    0.103517
  33 H :    0.107600
  34 H :    0.130496
  35 H :    0.119848
  36 H :    0.108641
  37 H :    0.105459
  38 H :    0.122832
  39 H :    0.114242
  40 H :    0.115992
Sum of atomic charges:   -0.0000000

LOEWDIN ATOMIC CHARGES
----------------------
   0 C :   -0.362230
   1 C :   -0.116990
   2 O :   -0.236522
   3 P :    0.564896
   4 S :   -0.317834
   5 O :   -0.252919
   6 C :   -0.122759
   7 C :   -0.367301
   8 S :    0.088478
   9 C :   -0.471589
  10 S :    0.068689
  11 P :    0.576282
  12 S :   -0.301750
  13 O :   -0.224541
  14 C :   -0.117680
  15 C :   -0.353072
  16 O :   -0.250971
  17 C :   -0.120455
  18 C :   -0.350310
  19 H :    0.126320
  20 H :    0.125889
  21 H :    0.121719
  22 H :    0.105229
  23 H :    0.113986
  24 H :    0.118147
  25 H :    0.109313
  26 H :    0.121473
  27 H :    0.121642
  28 H :    0.130967
  29 H :    0.136691
  30 H :    0.132162
  31 H :    0.113009
  32 H :    0.102560
  33 H :    0.129824
  34 H :    0.123641
  35 H :    0.127468
  36 H :    0.110814
  37 H :    0.108806
  38 H :    0.130207
  39 H :    0.132140
  40 H :    0.126569

  Mayer bond orders larger than 0.100000
B(  0-C ,  1-C ) :   1.1763 B(  0-C , 19-H ) :   0.9398 B(  0-C , 20-H ) :   0.9381
B(  0-C , 21-H ) :   0.9373 B(  1-C ,  2-O ) :   0.8825 B(  1-C , 22-H ) :   0.9135
B(  1-C , 23-H ) :   0.9157 B(  2-O ,  3-P ) :   1.1311 B(  3-P ,  4-S ) :   1.6167
B(  3-P ,  5-O ) :   1.0632 B(  3-P ,  8-S ) :   0.9852 B(  5-O ,  6-C ) :   0.9171
B(  6-C ,  7-C ) :   1.1626 B(  6-C , 24-H ) :   0.9335 B(  6-C , 25-H ) :   0.9121
B(  7-C , 26-H ) :   0.9360 B(  7-C , 27-H ) :   0.9469 B(  7-C , 28-H ) :   0.9391
B(  8-S ,  9-C ) :   0.9563 B(  9-C , 10-S ) :   1.0152 B(  9-C , 29-H ) :   0.9092
B(  9-C , 30-H ) :   0.8660 B( 10-S , 11-P ) :   0.9445 B( 10-S , 12-S ) :   0.1047
B( 11-P , 12-S ) :   1.6481 B( 11-P , 13-O ) :   1.1464 B( 11-P , 16-O ) :   1.0831
B( 13-O , 14-C ) :   0.8836 B( 14-C , 15-C ) :   1.1657 B( 14-C , 31-H ) :   0.9290
B( 14-C , 32-H ) :   0.9082 B( 15-C , 33-H ) :   0.9394 B( 15-C , 34-H ) :   0.9358
B( 15-C , 35-H ) :   0.9480 B( 16-O , 17-C ) :   0.9044 B( 17-C , 18-C ) :   1.1605
B( 17-C , 36-H ) :   0.9111 B( 17-C , 37-H ) :   0.9284 B( 18-C , 38-H ) :   0.9507
B( 18-C , 39-H ) :   0.9415 B( 18-C , 40-H ) :   0.9510

Dispersion correction           -0.066310683
FINAL SINGLE POINT ENERGY     -2929.522901387124

DIPOLE MOMENT
-------------

Method             : SCF
Type of density    : Electron Density
Multiplicity       :   1
Irrep              :   0
Energy             : -2929.6436287334345252 Eh
Relativity type    :
Basis              : AO
                                X                 Y                 Z
Electronic contribution:      3.678829916      -5.524363483       3.291937453
Nuclear contribution   :     -4.562424198       4.883260102      -3.018976900
                        -----------------------------------------
Total Dipole Moment    :     -0.883594282      -0.641103381       0.272960553
                        -----------------------------------------
Magnitude (a.u.)       :      1.125282127
Magnitude (Debye)      :      2.860239859

Rotational constants in cm-1:             0.013152             0.005089             0.004782
Rotational constants in MHz :           394.275725           152.568118           143.360234

                             ****ORCA TERMINATED NORMALLY****
TOTAL RUN TIME: 0 days 0 hours 0 minutes 21 seconds 731 msec
