                         Program Version 6.0.0  -   RELEASE  -
|  1> ! pbe def2-sv(p) def2/J RI DEFGRID1 loosescf d4 GCP(DFT/SV(P)) printgap
|  2> %output
|  3>     printlevel normal
|  4> end
|  5> * xyz 0 1
|  6> C 2.2125838813 1.9802534379 -2.7992480983
|  7> C 2.4710822776 0.7888550391 -1.9024636165
|  8> O 1.9184548214 1.0961301381 -0.5960338674
|  9> P 2.0347555678 0.1322619641 0.6446393049
| 10> S 1.3792395423 1.042506912 2.2478345301
| 11> O 3.5824555039 -0.2330009077 0.586142691
| 12> C 4.2079728216 -1.3386661311 1.263644321
| 13> C 3.951283355 -1.3350991701 2.7559160967
| 14> S 1.096013043 -1.7270776365 0.1615129003
| 15> C -0.2502274881 -1.7207693924 1.379557854
| 16> S -1.9147478576 -1.7543342053 0.6608362896
| 17> P -1.9758835415 0.0432297669 -0.4399122499
| 18> S -0.9600276623 0.2241253725 -2.1094157138
| 19> O -1.6189426256 1.0682993 0.7135701123
| 20> C -1.2474717 2.4340779803 0.4444762534
| 21> C -2.3862700028 3.2254438276 -0.1597486688
| 22> O -3.5391644732 0.2615229962 -0.6330636304
| 23> C -4.2490990224 -0.2362268473 -1.7789629145
| 24> C -4.3404981974 -1.748388728 -1.7722387421
| 25> H 2.632324214 2.8793521525 -2.357160978
| 26> H 2.6722078057 1.8009805263 -3.7655018997
| 27> H 1.1425495482 2.1146458364 -2.9352251802
| 28> H 3.5383905878 0.596108175 -1.7838436241
| 29> H 1.9717712417 -0.1066830212 -2.2826662937
| 30> H 3.8465351175 -2.2652939101 0.8091749238
| 31> H 5.2682340673 -1.2056347136 1.0416293476
| 32> H 4.2488922514 -0.3836179436 3.190205472
| 33> H 2.8917763174 -1.4863809972 2.9574802878
| 34> H 4.518238509 -2.1356714878 3.219870447
| 35> H -0.1378220753 -0.8391376073 2.0181449174
| 36> H -0.1802785589 -2.6398762891 1.9566975773
| 37> H -0.9519150003 2.8177051242 1.4226793715
| 38> H -0.3755139556 2.4310844469 -0.2189730919
| 39> H -2.0947943824 4.2682738978 -0.2360627698
| 40> H -2.6148748798 2.8466477032 -1.1552994792
| 41> H -3.2724852406 3.1395356935 0.4635652532
| 42> H -5.2323283195 0.2295215988 -1.7020757584
| 43> H -3.7391240333 0.1142066376 -2.6826923494
| 44> H -4.7628931888 -2.0972404992 -0.8333329617
| 45> H -4.9663355951 -2.0762578489 -2.5960023308
| 46> H -3.3466586899 -2.1802804457 -1.8886042733
| 47> *
| 48>
| 49>                          ****END OF INPUT****

CARTESIAN COORDINATES (ANGSTROEM)
---------------------------------
  C      2.212584    1.980253   -2.799248
  C      2.471082    0.788855   -1.902464
  O      1.918455    1.096130   -0.596034
  P      2.034756    0.132262    0.644639
  S      1.379240    1.042507    2.247835
  O      3.582456   -0.233001    0.586143
  C      4.207973   -1.338666    1.263644
  C      3.951283   -1.335099    2.755916
  S      1.096013   -1.727078    0.161513
  C     -0.250227   -1.720769    1.379558
  S     -1.914748   -1.754334    0.660836
  P     -1.975884    0.043230   -0.439912
  S     -0.960028    0.224125   -2.109416
  O     -1.618943    1.068299    0.713570
  C     -1.247472    2.434078    0.444476
  C     -2.386270    3.225444   -0.159749
  O     -3.539164    0.261523   -0.633064
  C     -4.249099   -0.236227   -1.778963
  C     -4.340498   -1.748389   -1.772239
  H      2.632324    2.879352   -2.357161
  H      2.672208    1.800981   -3.765502
  H      1.142550    2.114646   -2.935225
  H      3.538391    0.596108   -1.783844
  H      1.971771   -0.106683   -2.282666
  H      3.846535   -2.265294    0.809175
  H      5.268234   -1.205635    1.041629
  H      4.248892   -0.383618    3.190205
  H      2.891776   -1.486381    2.957480
  H      4.518239   -2.135671    3.219870
  H     -0.137822   -0.839138    2.018145
  H     -0.180279   -2.639876    1.956698
  H     -0.951915    2.817705    1.422679
  H     -0.375514    2.431084   -0.218973
  H     -2.094794    4.268274   -0.236063
  H     -2.614875    2.846648   -1.155299
  H     -3.272485    3.139536    0.463565
  H     -5.232328    0.229522   -1.702076
  H     -3.739124    0.114207   -2.682692
  H     -4.762893   -2.097240   -0.833333
  H     -4.966336   -2.076258   -2.596002
  H     -3.346659   -2.180280   -1.888604

 Total Charge           Charge          ....    0
 Multiplicity           Mult            ....    1
 Number of Electrons    NEL             ....  202
 Basis Dimension        Dim             ....  334

ORBITAL ENERGIES
----------------

  NO   OCC          E(Eh)            E(eV)
   0   2.0000     -88.044217     -2395.8049
   1   2.0000     -88.039889     -2395.6872
   2   2.0000     -87.986132     -2394.2244
   3   2.0000     -87.983644     -2394.1567
   4   2.0000     -76.426256     -2079.6641
   5   2.0000     -76.422902     -2079.5729
   6   2.0000     -18.794125      -511.4141
   7   2.0000     -18.789811      -511.2967
   8   2.0000     -18.788409      -511.2586
   9   2.0000     -18.783660      -511.1294
  10   2.0000      -9.957881      -270.9677
  11   2.0000      -9.954469      -270.8749
  12   2.0000      -9.950497      -270.7668
  13   2.0000      -9.948129      -270.7024
  14   2.0000      -9.936982      -270.3990
  15   2.0000      -9.885082      -268.9868
  16   2.0000      -9.884190      -268.9625
  17   2.0000      -9.880509      -268.8623
  18   2.0000      -9.875018      -268.7129
  19   2.0000      -7.688809      -209.2231
  20   2.0000      -7.685486      -209.1327
  21   2.0000      -7.631150      -207.6541
  22   2.0000      -7.628465      -207.5811
  23   2.0000      -6.423504      -174.7924
  24   2.0000      -6.420513      -174.7110
  25   2.0000      -5.716556      -155.5554
  26   2.0000      -5.713548      -155.4735
  27   2.0000      -5.713337      -155.4678
  28   2.0000      -5.709862      -155.3732
  29   2.0000      -5.705980      -155.2676
  30   2.0000      -5.702310      -155.1677
  31   2.0000      -5.660188      -154.0215
  32   2.0000      -5.657116      -153.9379
  33   2.0000      -5.651741      -153.7917
  34   2.0000      -5.651148      -153.7755
  35   2.0000      -5.649105      -153.7200
  36   2.0000      -5.648859      -153.7133
  37   2.0000      -4.646173      -126.4288
  38   2.0000      -4.645400      -126.4078
  39   2.0000      -4.643819      -126.3647
  40   2.0000      -4.643068      -126.3443
  41   2.0000      -4.642315      -126.3238
  42   2.0000      -4.640978      -126.2874
  43   2.0000      -0.987526       -26.8720
  44   2.0000      -0.982211       -26.7273
  45   2.0000      -0.942103       -25.6359
  46   2.0000      -0.941399       -25.6168
  47   2.0000      -0.760345       -20.6901
  48   2.0000      -0.720092       -19.5947
  49   2.0000      -0.706536       -19.2258
  50   2.0000      -0.689305       -18.7569
  51   2.0000      -0.683559       -18.6006
  52   2.0000      -0.671190       -18.2640
  53   2.0000      -0.650827       -17.7099
  54   2.0000      -0.638318       -17.3695
  55   2.0000      -0.597455       -16.2576
  56   2.0000      -0.588784       -16.0216
  57   2.0000      -0.568174       -15.4608
  58   2.0000      -0.566933       -15.4270
  59   2.0000      -0.562168       -15.2974
  60   2.0000      -0.506108       -13.7719
  61   2.0000      -0.486850       -13.2479
  62   2.0000      -0.473492       -12.8844
  63   2.0000      -0.466974       -12.7070
  64   2.0000      -0.456057       -12.4099
  65   2.0000      -0.445560       -12.1243
  66   2.0000      -0.435652       -11.8547
  67   2.0000      -0.430066       -11.7027
  68   2.0000      -0.425134       -11.5685
  69   2.0000      -0.417069       -11.3490
  70   2.0000      -0.412265       -11.2183
  71   2.0000      -0.406119       -11.0510
  72   2.0000      -0.387162       -10.5352
  73   2.0000      -0.384350       -10.4587
  74   2.0000      -0.382061       -10.3964
  75   2.0000      -0.373825       -10.1723
  76   2.0000      -0.356370        -9.6973
  77   2.0000      -0.353376        -9.6158
  78   2.0000      -0.350698        -9.5430
  79   2.0000      -0.347902        -9.4669
  80   2.0000      -0.344871        -9.3844
  81   2.0000      -0.343406        -9.3446
  82   2.0000      -0.336554        -9.1581
  83   2.0000      -0.333808        -9.0834
  84   2.0000      -0.327877        -8.9220
  85   2.0000      -0.318545        -8.6681
  86   2.0000      -0.309039        -8.4094
  87   2.0000      -0.298429        -8.1207
  88   2.0000      -0.295004        -8.0275
  89   2.0000      -0.291745        -7.9388
  90   2.0000      -0.276016        -7.5108
  91   2.0000      -0.271457        -7.3867
  92   2.0000      -0.266555        -7.2533
  93   2.0000      -0.260438        -7.0869
  94   2.0000      -0.259607        -7.0643
  95   2.0000      -0.241563        -6.5733
  96   2.0000      -0.222748        -6.0613
  97   2.0000      -0.204106        -5.5540
  98   2.0000      -0.202234        -5.5031
  99   2.0000      -0.196957        -5.3595
 100   2.0000      -0.193649        -5.2695
 101   0.0000      -0.041852        -1.1389
 102   0.0000      -0.032917        -0.8957
 103   0.0000      -0.015051        -0.4096
 104   0.0000       0.003489         0.0949
 105   0.0000       0.014652         0.3987

MULLIKEN ATOMIC CHARGES
-----------------------
   0 C :   -0.290749
   1 C :   -0.014708
   2 O :   -0.352702
   3 P :    0.611687
   4 S :   -0.300943
   5 O :   -0.384738
   6 C :   -0.003329
   7 C :   -0.308361
   8 S :   -0.107903
   9 C :   -0.350428
  10 S :   -0.093346
  11 P :    0.618475
  12 S :   -0.335182
  13 O :   -0.364164
  14 C :   -0.024455
  15 C :   -0.297380
  16 O :   -0.370564
  17 C :   -0.004894
  18 C :   -0.323881
  19 H :    0.115756
  20 H :    0.107121
  21 H :    0.133543
  22 H :    0.105235
  23 H :    0.114036
  24 H :    0.109355
  25 H :    0.107020
  26 H :    0.127425
  27 H :    0.119455
  28 H :    0.111102
  29 H :    0.207932
  30 H :    0.180377
  31 H :    0.111443
  32 H :    0.126182
  33 H :    0.109588
  34 H :    0.115121
  35 H :    0.113970
  36 H :    0.105844
  37 H :    0.110487
  38 H :    0.121613
  39 H :    0.114920
  40 H :    0.130043
Sum of atomic charges:   -0.0000000

LOEWDIN ATOMIC CHARGES
----------------------
   0 C :   -0.353104
   1 C :   -0.119821
   2 O :   -0.228342
   3 P :    0.570004
   4 S :   -0.283145
   5 O :   -0.245482
   6 C :   -0.117028
   7 C :   -0.368152
   8 S :    0.071131
   9 C :   -0.483417
  10 S :    0.087188
  11 P :    0.568979
  12 S :   -0.316258
  13 O :   -0.234137
  14 C :   -0.125709
  15 C :   -0.366235
  16 O :   -0.241404
  17 C :   -0.121847
  18 C :   -0.371321
  19 H :    0.127022
  20 H :    0.129263
  21 H :    0.125887
  22 H :    0.109962
  23 H :    0.108714
  24 H :    0.106416
  25 H :    0.120147
  26 H :    0.130684
  27 H :    0.118950
  28 H :    0.129825
  29 H :    0.124059
  30 H :    0.136616
  31 H :    0.117557
  32 H :    0.111711
  33 H :    0.129501
  34 H :    0.118786
  35 H :    0.125034
  36 H :    0.119090
  37 H :    0.108989
  38 H :    0.125421
  39 H :    0.132206
  40 H :    0.122263

  Mayer bond orders larger than 0.100000
B(  0-C ,  1-C ) :   1.1715 B(  0-C , 19-H ) :   0.9494 B(  0-C , 20-H ) :   0.9408
B(  0-C , 21-H ) :   0.9414 B(  1-C ,  2-O ) :   0.8849 B(  1-C , 22-H ) :   0.9241
B(  1-C , 23-H ) :   0.9133 B(  2-O ,  3-P ) :   1.1397 B(  3-P ,  4-S ) :   1.6285
B(  3-P ,  5-O ) :   1.0807 B(  3-P ,  8-S ) :   0.9459 B(  4-S ,  8-S ) :   0.1200
B(  4-S , 29-H ) :   0.1188 B(  5-O ,  6-C ) :   0.9134 B(  6-C ,  7-C ) :   1.1667
B(  6-C , 24-H ) :   0.9225 B(  6-C , 25-H ) :   0.9328 B(  7-C , 26-H ) :   0.9435
B(  7-C , 27-H ) :   0.9349 B(  7-C , 28-H ) :   0.9355 B(  8-S ,  9-C ) :   1.0034
B(  9-C , 10-S ) :   0.9982 B(  9-C , 29-H ) :   0.8429 B(  9-C , 30-H ) :   0.9114
B( 10-S , 11-P ) :   0.9660 B( 10-S , 12-S ) :   0.1104 B( 11-P , 12-S ) :   1.6058
B( 11-P , 13-O ) :   1.1397 B( 11-P , 16-O ) :   1.0983 B( 13-O , 14-C ) :   0.8909
B( 14-C , 15-C ) :   1.1573 B( 14-C , 31-H ) :   0.9283 B( 14-C , 32-H ) :   0.9146
B( 15-C , 33-H ) :   0.9396 B( 15-C , 34-H ) :   0.9355 B( 15-C , 35-H ) :   0.9446
B( 16-O , 17-C ) :   0.9101 B( 17-C , 18-C ) :   1.1656 B( 17-C , 36-H ) :   0.9326
B( 17-C , 37-H ) :   0.9125 B( 18-C , 38-H ) :   0.9438 B( 18-C , 39-H ) :   0.9382
B( 18-C , 40-H ) :   0.9333

Dispersion correction           -0.067879897
FINAL SINGLE POINT ENERGY     -2929.519988731871

DIPOLE MOMENT
-------------

Method             : SCF
Type of density    : Electron Density
Multiplicity       :   1
Irrep              :   0
Energy             : -2929.6386310189177493 Eh
Relativity type    :
Basis              : AO
                                X                 Y                 Z
Electronic contribution:     -0.606912590      -5.935995809       6.741787141
Nuclear contribution   :      0.954651253       5.401810956      -7.112752462
                        -----------------------------------------
Total Dipole Moment    :      0.347738663      -0.534184853      -0.370965321
                        -----------------------------------------
Magnitude (a.u.)       :      0.737489596
Magnitude (Debye)      :      1.874549579

Rotational constants in cm-1:             0.012182             0.005559             0.005086
Rotational constants in MHz :           365.193608           166.645739           152.469315

                             ****ORCA TERMINATED NORMALLY****
TOTAL RUN TIME: 0 days 0 hours 0 minutes 21 seconds 644 msec
