                         Program Version 6.0.0  -   RELEASE  -
|  1> ! r2scan-3c def2/J RI DEFGRID2 scfconv6 printgap
|  2> %output
|  3>     printlevel normal
|  4> end
|  5> * xyz 0 1
|  6> C -4.1733443357 -0.0002325856 0.0113760867
|  7> C -2.6775103335 0.0001534725 -0.0085083707
|  8> C -1.9671463023 1.1956811564 -0.0063458432
|  9> C -0.5837979919 1.2059677317 -0.0026381163
| 10> C 0.0921178561 9.66982e-05 -0.0007541231
| 11> C -0.5838396077 -1.2057958765 -0.002658382
| 12> C -1.9671276188 -1.1954549495 -0.0063367817
| 13> Br 2.0191630371 -4.61539e-05 0.0016098465
| 14> H -4.5666907887 0.8899195373 -0.4715362647
| 15> H -4.5661778839 -0.8819636615 -0.4872302062
| 16> H -4.5257535223 -0.0097130586 1.0423305853
| 17> H -2.498958234 2.1347987596 -0.0084294098
| 18> H -0.0388387993 2.1369287121 -0.0026457861
| 19> H -0.0388719995 -2.1367530667 -0.0025686703
| 20> H -2.4990789062 -2.1345113115 -0.0084838175
| 21> *
| 22>
| 23>                          ****END OF INPUT****

CARTESIAN COORDINATES (ANGSTROEM)
---------------------------------
  C     -4.173344   -0.000233    0.011376
  C     -2.677510    0.000153   -0.008508
  C     -1.967146    1.195681   -0.006346
  C     -0.583798    1.205968   -0.002638
  C      0.092118    0.000097   -0.000754
  C     -0.583840   -1.205796   -0.002658
  C     -1.967128   -1.195455   -0.006337
  Br     2.019163   -0.000046    0.001610
  H     -4.566691    0.889920   -0.471536
  H     -4.566178   -0.881964   -0.487230
  H     -4.525754   -0.009713    1.042331
  H     -2.498958    2.134799   -0.008429
  H     -0.038839    2.136929   -0.002646
  H     -0.038872   -2.136753   -0.002569
  H     -2.499079   -2.134511   -0.008484

 Total Charge           Charge          ....    0
 Multiplicity           Mult            ....    1
 Number of Electrons    NEL             ....   84
 Basis Dimension        Dim             ....  204

ORBITAL ENERGIES
----------------

  NO   OCC          E(Eh)            E(eV)
   0   2.0000    -482.225314    -13122.0179
   1   2.0000     -62.296779     -1695.1815
   2   2.0000     -56.077126     -1525.9362
   3   2.0000     -56.074606     -1525.8676
   4   2.0000     -56.074570     -1525.8666
   5   2.0000     -10.095785      -274.7203
   6   2.0000     -10.055097      -273.6131
   7   2.0000     -10.050259      -273.4815
   8   2.0000     -10.050244      -273.4810
   9   2.0000     -10.046000      -273.3655
  10   2.0000     -10.045985      -273.3651
  11   2.0000     -10.036432      -273.1052
  12   2.0000      -8.628625      -234.7968
  13   2.0000      -6.436188      -175.1376
  14   2.0000      -6.422486      -174.7647
  15   2.0000      -6.422176      -174.7563
  16   2.0000      -2.533738       -68.9465
  17   2.0000      -2.530308       -68.8532
  18   2.0000      -2.530138       -68.8486
  19   2.0000      -2.519935       -68.5709
  20   2.0000      -2.519932       -68.5708
  21   2.0000      -0.850185       -23.1347
  22   2.0000      -0.780589       -21.2409
  23   2.0000      -0.732308       -19.9271
  24   2.0000      -0.723646       -19.6914
  25   2.0000      -0.650858       -17.7108
  26   2.0000      -0.594315       -16.1721
  27   2.0000      -0.560795       -15.2600
  28   2.0000      -0.479541       -13.0490
  29   2.0000      -0.452035       -12.3005
  30   2.0000      -0.433625       -11.7995
  31   2.0000      -0.406419       -11.0592
  32   2.0000      -0.404512       -11.0073
  33   2.0000      -0.381358       -10.3773
  34   2.0000      -0.368353       -10.0234
  35   2.0000      -0.358089        -9.7441
  36   2.0000      -0.325322        -8.8525
  37   2.0000      -0.325109        -8.8467
  38   2.0000      -0.285119        -7.7585
  39   2.0000      -0.263536        -7.1712
  40   2.0000      -0.251218        -6.8360
  41   2.0000      -0.221570        -6.0292
  42   0.0000      -0.046120        -1.2550
  43   0.0000      -0.040770        -1.1094
  44   0.0000      -0.025929        -0.7056
  45   0.0000       0.081597         2.2204
  46   0.0000       0.099525         2.7082

MULLIKEN ATOMIC CHARGES
-----------------------
   0 C :   -0.511957
   1 C :    0.174281
   2 C :   -0.179876
   3 C :   -0.191429
   4 C :    0.133111
   5 C :   -0.191424
   6 C :   -0.179276
   7 Br:   -0.153031
   8 H :    0.152520
   9 H :    0.152659
  10 H :    0.171938
  11 H :    0.149754
  12 H :    0.161482
  13 H :    0.161485
  14 H :    0.149763
Sum of atomic charges:   -0.0000000

LOEWDIN ATOMIC CHARGES
----------------------
   0 C :   -0.387108
   1 C :   -0.099225
   2 C :   -0.153686
   3 C :   -0.170999
   4 C :   -0.224940
   5 C :   -0.170976
   6 C :   -0.153574
   7 Br:    0.168257
   8 H :    0.162087
   9 H :    0.162221
  10 H :    0.167999
  11 H :    0.171817
  12 H :    0.178138
  13 H :    0.178136
  14 H :    0.171853

  Mayer bond orders larger than 0.100000
B(  0-C ,  1-C ) :   0.8049 B(  0-C ,  8-H ) :   0.9889 B(  0-C ,  9-H ) :   0.9885
B(  0-C , 10-H ) :   0.9658 B(  1-C ,  2-C ) :   1.4067 B(  1-C ,  6-C ) :   1.4057
B(  2-C ,  3-C ) :   1.4366 B(  2-C , 11-H ) :   0.9450 B(  3-C ,  4-C ) :   1.4132
B(  3-C , 12-H ) :   0.9397 B(  4-C ,  5-C ) :   1.4126 B(  4-C ,  7-Br) :   0.9617
B(  5-C ,  6-C ) :   1.4370 B(  5-C , 13-H ) :   0.9398 B(  6-C , 14-H ) :   0.9453

Dispersion correction           -0.005238390
FINAL SINGLE POINT ENERGY     -2845.022594926723

DIPOLE MOMENT
-------------

Method             : SCF
Type of density    : Electron Density
Multiplicity       :   1
Irrep              :   0
Energy             : -2845.0218362738760334 Eh
Relativity type    :
Basis              : AO
                                X                 Y                 Z
Electronic contribution:     35.337699023       0.000148927      -0.021797579
Nuclear contribution   :    -36.324262512      -0.000785542       0.042690680
                        -----------------------------------------
Total Dipole Moment    :     -0.986563488      -0.000636615       0.020893101
                        -----------------------------------------
Magnitude (a.u.)       :      0.986784902
Magnitude (Debye)      :      2.508207891

Rotational constants in cm-1:             0.185647             0.021095             0.019009
Rotational constants in MHz :          5565.555199           632.403564           569.877881

                             ****ORCA TERMINATED NORMALLY****
TOTAL RUN TIME: 0 days 0 hours 0 minutes 18 seconds 885 msec
