                         Program Version 6.0.0  -   RELEASE  -
|  1> ! r2scan-3c def2/J RI DEFGRID2 scfconv6 printgap
|  2> %output
|  3>     printlevel normal
|  4> end
|  5> %cpcm
|  6>     smd true
|  7>     smdsolvent "water"
|  8> end
|  9> * xyz 0 1
| 10> C -4.1733443357 -0.0002325856 0.0113760867
| 11> C -2.6775103335 0.0001534725 -0.0085083707
| 12> C -1.9671463023 1.1956811564 -0.0063458432
| 13> C -0.5837979919 1.2059677317 -0.0026381163
| 14> C 0.0921178561 9.66982e-05 -0.0007541231
| 15> C -0.5838396077 -1.2057958765 -0.002658382
| 16> C -1.9671276188 -1.1954549495 -0.0063367817
| 17> Br 2.0191630371 -4.61539e-05 0.0016098465
| 18> H -4.5666907887 0.8899195373 -0.4715362647
| 19> H -4.5661778839 -0.8819636615 -0.4872302062
| 20> H -4.5257535223 -0.0097130586 1.0423305853
| 21> H -2.498958234 2.1347987596 -0.0084294098
| 22> H -0.0388387993 2.1369287121 -0.0026457861
| 23> H -0.0388719995 -2.1367530667 -0.0025686703
| 24> H -2.4990789062 -2.1345113115 -0.0084838175
| 25> *
| 26>
| 27>                          ****END OF INPUT****

CARTESIAN COORDINATES (ANGSTROEM)
---------------------------------
  C     -4.173344   -0.000233    0.011376
  C     -2.677510    0.000153   -0.008508
  C     -1.967146    1.195681   -0.006346
  C     -0.583798    1.205968   -0.002638
  C      0.092118    0.000097   -0.000754
  C     -0.583840   -1.205796   -0.002658
  C     -1.967128   -1.195455   -0.006337
  Br     2.019163   -0.000046    0.001610
  H     -4.566691    0.889920   -0.471536
  H     -4.566178   -0.881964   -0.487230
  H     -4.525754   -0.009713    1.042331
  H     -2.498958    2.134799   -0.008429
  H     -0.038839    2.136929   -0.002646
  H     -0.038872   -2.136753   -0.002569
  H     -2.499079   -2.134511   -0.008484

 Total Charge           Charge          ....    0
 Multiplicity           Mult            ....    1
 Number of Electrons    NEL             ....   84
 Basis Dimension        Dim             ....  204

ORBITAL ENERGIES
----------------

  NO   OCC          E(Eh)            E(eV)
   0   2.0000    -482.226925    -13122.0618
   1   2.0000     -62.298547     -1695.2297
   2   2.0000     -56.078837     -1525.9827
   3   2.0000     -56.076380     -1525.9159
   4   2.0000     -56.076342     -1525.9148
   5   2.0000     -10.093153      -274.6486
   6   2.0000     -10.048773      -273.4410
   7   2.0000     -10.044854      -273.3344
   8   2.0000     -10.044841      -273.3340
   9   2.0000     -10.038358      -273.1576
  10   2.0000     -10.038342      -273.1572
  11   2.0000     -10.019759      -272.6515
  12   2.0000      -8.630700      -234.8533
  13   2.0000      -6.438050      -175.1882
  14   2.0000      -6.424701      -174.8250
  15   2.0000      -6.424346      -174.8154
  16   2.0000      -2.535671       -68.9991
  17   2.0000      -2.532338       -68.9084
  18   2.0000      -2.532129       -68.9027
  19   2.0000      -2.522185       -68.6321
  20   2.0000      -2.522182       -68.6321
  21   2.0000      -0.846203       -23.0264
  22   2.0000      -0.777218       -21.1492
  23   2.0000      -0.726380       -19.7658
  24   2.0000      -0.718633       -19.5550
  25   2.0000      -0.642002       -17.4698
  26   2.0000      -0.587296       -15.9811
  27   2.0000      -0.553049       -15.0492
  28   2.0000      -0.472604       -12.8602
  29   2.0000      -0.444841       -12.1047
  30   2.0000      -0.423840       -11.5333
  31   2.0000      -0.397768       -10.8238
  32   2.0000      -0.392594       -10.6830
  33   2.0000      -0.376070       -10.2334
  34   2.0000      -0.354055        -9.6343
  35   2.0000      -0.353102        -9.6084
  36   2.0000      -0.318053        -8.6547
  37   2.0000      -0.315220        -8.5776
  38   2.0000      -0.285124        -7.7586
  39   2.0000      -0.266168        -7.2428
  40   2.0000      -0.247916        -6.7461
  41   2.0000      -0.220014        -5.9869
  42   0.0000      -0.041948        -1.1415
  43   0.0000      -0.037137        -1.0105
  44   0.0000      -0.026015        -0.7079
  45   0.0000       0.096901         2.6368
  46   0.0000       0.105447         2.8693

MULLIKEN ATOMIC CHARGES
-----------------------
   0 C :   -0.533889
   1 C :    0.145534
   2 C :   -0.210042
   3 C :   -0.216858
   4 C :    0.135951
   5 C :   -0.216992
   6 C :   -0.209299
   7 Br:   -0.172799
   8 H :    0.171137
   9 H :    0.171172
  10 H :    0.186526
  11 H :    0.185548
  12 H :    0.189242
  13 H :    0.189248
  14 H :    0.185521
Sum of atomic charges:   -0.0000000

LOEWDIN ATOMIC CHARGES
----------------------
   0 C :   -0.391227
   1 C :   -0.099952
   2 C :   -0.156529
   3 C :   -0.180412
   4 C :   -0.239265
   5 C :   -0.180394
   6 C :   -0.156357
   7 Br:    0.150801
   8 H :    0.168350
   9 H :    0.168489
  10 H :    0.174292
  11 H :    0.184546
  12 H :    0.186542
  13 H :    0.186541
  14 H :    0.184575

  Mayer bond orders larger than 0.100000
B(  0-C ,  1-C ) :   0.8185 B(  0-C ,  8-H ) :   0.9825 B(  0-C ,  9-H ) :   0.9821
B(  0-C , 10-H ) :   0.9589 B(  1-C ,  2-C ) :   1.3826 B(  1-C ,  6-C ) :   1.3816
B(  2-C ,  3-C ) :   1.4338 B(  2-C , 11-H ) :   0.9499 B(  3-C ,  4-C ) :   1.3649
B(  3-C , 12-H ) :   0.9435 B(  4-C ,  5-C ) :   1.3644 B(  4-C ,  7-Br) :   0.9535
B(  5-C ,  6-C ) :   1.4344 B(  5-C , 13-H ) :   0.9435 B(  6-C , 14-H ) :   0.9501

Dispersion correction           -0.005238390
FINAL SINGLE POINT ENERGY     -2845.025489958019

DIPOLE MOMENT
-------------

Method             : SCF
Type of density    : Electron Density
Multiplicity       :   1
Irrep              :   0
Energy             : -2845.0247313051718265 Eh
Relativity type    :
Basis              : AO
                                X                 Y                 Z
Electronic contribution:     34.990467269      -0.000183605      -0.013867929
Nuclear contribution   :    -36.324262512      -0.000785542       0.042690680
                        -----------------------------------------
Total Dipole Moment    :     -1.333795242      -0.000969147       0.028822751
                        -----------------------------------------
Magnitude (a.u.)       :      1.334106981
Magnitude (Debye)      :      3.391030457

Rotational constants in cm-1:             0.185647             0.021095             0.019009
Rotational constants in MHz :          5565.555199           632.403564           569.877881

                             ****ORCA TERMINATED NORMALLY****
TOTAL RUN TIME: 0 days 0 hours 0 minutes 21 seconds 613 msec
