                         Program Version 6.0.0  -   RELEASE  -
|  1> ! pbe def2-sv(p) def2/J RI DEFGRID1 loosescf d4 GCP(DFT/SV(P)) printgap
|  2> %output
|  3>     printlevel normal
|  4> end
|  5> * xyz 0 1
|  6> C 2.1667437387 1.162305891 -2.7144541443
|  7> C 2.7196053736 1.0070927409 -1.3126109289
|  8> O 1.8643420262 0.0913417553 -0.5961293939
|  9> P 1.8070971341 0.0877305509 0.9867241028
| 10> S 1.7879993873 1.8241827032 1.8943613289
| 11> O 3.1333291439 -0.7586963308 1.2967170321
| 12> C 3.7365933517 -0.7871415786 2.5978550671
| 13> C 2.8752113593 -1.5218283711 3.6055617202
| 14> S 0.1992795378 -1.2327800092 1.3354486692
| 15> C 0.2651126031 -2.2677225072 -0.1398860641
| 16> S -0.3300380224 -1.4918380106 -1.7019156518
| 17> P -1.6363769428 0.0352245674 -1.0966488452
| 18> S -2.5676373777 0.842265722 -2.6191213006
| 19> O -0.7352194078 1.0467545008 -0.2604703956
| 20> C -1.1312434818 2.4273708047 -0.119068995
| 21> C -2.3328049684 2.5678201166 0.7890257397
| 22> O -2.5377183238 -0.6031067703 0.053033556
| 23> C -3.5436250702 -1.594334119 -0.2360357601
| 24> C -4.9043880281 -0.9485038463 -0.410965615
| 25> H 2.7976664403 1.8443907118 -3.2747166636
| 26> H 2.1392141659 0.1981127207 -3.2149773919
| 27> H 1.1545446041 1.5608250391 -2.6797691301
| 28> H 2.7358191568 1.9632699056 -0.7776660619
| 29> H 3.7275230611 0.5852120746 -1.3244861693
| 30> H 4.6912237912 -1.2900142177 2.4374526294
| 31> H 3.9091365443 0.2448485818 2.9205050859
| 32> H 2.6491177648 -2.5250748437 3.2542801647
| 33> H 3.4017638341 -1.5810132829 4.5526149881
| 34> H 1.9393056438 -0.9828391325 3.7544424787
| 35> H -0.3645917493 -3.127338707 0.0770538146
| 36> H 1.2903417587 -2.5696776865 -0.3404247936
| 37> H -0.249409339 2.9146164337 0.3015587217
| 38> H -1.3437516677 2.8306691549 -1.1146440494
| 39> H -2.1327199357 2.0938458561 1.7469765727
| 40> H -2.5429916464 3.6213710987 0.9436326853
| 41> H -3.1987284393 2.0929984927 0.3297554496
| 42> H -3.2580856664 -2.1478118868 -1.1366713605
| 43> H -3.5288293681 -2.2603914607 0.6288965762
| 44> H -5.1646850616 -0.3790206324 0.4768985717
| 45> H -4.8962251954 -0.2796818244 -1.2691313823
| 46> H -5.6487403999 -1.7213702595 -0.5730610477
| 47> *
| 48>
| 49>                          ****END OF INPUT****

CARTESIAN COORDINATES (ANGSTROEM)
---------------------------------
  C      2.166744    1.162306   -2.714454
  C      2.719605    1.007093   -1.312611
  O      1.864342    0.091342   -0.596129
  P      1.807097    0.087731    0.986724
  S      1.787999    1.824183    1.894361
  O      3.133329   -0.758696    1.296717
  C      3.736593   -0.787142    2.597855
  C      2.875211   -1.521828    3.605562
  S      0.199280   -1.232780    1.335449
  C      0.265113   -2.267723   -0.139886
  S     -0.330038   -1.491838   -1.701916
  P     -1.636377    0.035225   -1.096649
  S     -2.567637    0.842266   -2.619121
  O     -0.735219    1.046755   -0.260470
  C     -1.131243    2.427371   -0.119069
  C     -2.332805    2.567820    0.789026
  O     -2.537718   -0.603107    0.053034
  C     -3.543625   -1.594334   -0.236036
  C     -4.904388   -0.948504   -0.410966
  H      2.797666    1.844391   -3.274717
  H      2.139214    0.198113   -3.214977
  H      1.154545    1.560825   -2.679769
  H      2.735819    1.963270   -0.777666
  H      3.727523    0.585212   -1.324486
  H      4.691224   -1.290014    2.437453
  H      3.909137    0.244849    2.920505
  H      2.649118   -2.525075    3.254280
  H      3.401764   -1.581013    4.552615
  H      1.939306   -0.982839    3.754442
  H     -0.364592   -3.127339    0.077054
  H      1.290342   -2.569678   -0.340425
  H     -0.249409    2.914616    0.301559
  H     -1.343752    2.830669   -1.114644
  H     -2.132720    2.093846    1.746977
  H     -2.542992    3.621371    0.943633
  H     -3.198728    2.092998    0.329755
  H     -3.258086   -2.147812   -1.136671
  H     -3.528829   -2.260391    0.628897
  H     -5.164685   -0.379021    0.476899
  H     -4.896225   -0.279682   -1.269131
  H     -5.648740   -1.721370   -0.573061

 Total Charge           Charge          ....    0
 Multiplicity           Mult            ....    1
 Number of Electrons    NEL             ....  202
 Basis Dimension        Dim             ....  334

ORBITAL ENERGIES
----------------

  NO   OCC          E(Eh)            E(eV)
   0   2.0000     -88.048673     -2395.9262
   1   2.0000     -88.041226     -2395.7235
   2   2.0000     -87.992067     -2394.3859
   3   2.0000     -87.983886     -2394.1632
   4   2.0000     -76.429053     -2079.7403
   5   2.0000     -76.425116     -2079.6331
   6   2.0000     -18.791019      -511.3296
   7   2.0000     -18.790578      -511.3176
   8   2.0000     -18.790134      -511.3055
   9   2.0000     -18.784012      -511.1389
  10   2.0000      -9.966362      -271.1985
  11   2.0000      -9.955242      -270.8959
  12   2.0000      -9.951473      -270.7934
  13   2.0000      -9.951437      -270.7924
  14   2.0000      -9.937376      -270.4098
  15   2.0000      -9.886023      -269.0124
  16   2.0000      -9.880998      -268.8756
  17   2.0000      -9.880581      -268.8643
  18   2.0000      -9.872923      -268.6559
  19   2.0000      -7.693800      -209.3589
  20   2.0000      -7.686182      -209.1516
  21   2.0000      -7.637020      -207.8139
  22   2.0000      -7.629006      -207.5958
  23   2.0000      -6.426450      -174.8726
  24   2.0000      -6.422315      -174.7601
  25   2.0000      -5.722255      -155.7105
  26   2.0000      -5.718218      -155.6006
  27   2.0000      -5.714760      -155.5065
  28   2.0000      -5.710301      -155.3852
  29   2.0000      -5.710125      -155.3804
  30   2.0000      -5.702835      -155.1820
  31   2.0000      -5.665873      -154.1762
  32   2.0000      -5.657979      -153.9614
  33   2.0000      -5.657915      -153.9597
  34   2.0000      -5.656896      -153.9320
  35   2.0000      -5.649520      -153.7313
  36   2.0000      -5.649287      -153.7249
  37   2.0000      -4.648916      -126.5034
  38   2.0000      -4.648392      -126.4892
  39   2.0000      -4.646916      -126.4490
  40   2.0000      -4.644658      -126.3876
  41   2.0000      -4.644414      -126.3809
  42   2.0000      -4.642757      -126.3358
  43   2.0000      -0.987112       -26.8607
  44   2.0000      -0.981770       -26.7153
  45   2.0000      -0.943970       -25.6867
  46   2.0000      -0.940459       -25.5912
  47   2.0000      -0.765754       -20.8372
  48   2.0000      -0.721027       -19.6201
  49   2.0000      -0.706026       -19.2119
  50   2.0000      -0.685885       -18.6639
  51   2.0000      -0.682196       -18.5635
  52   2.0000      -0.673908       -18.3380
  53   2.0000      -0.656158       -17.8550
  54   2.0000      -0.638733       -17.3808
  55   2.0000      -0.596941       -16.2436
  56   2.0000      -0.590561       -16.0700
  57   2.0000      -0.575510       -15.6604
  58   2.0000      -0.566648       -15.4193
  59   2.0000      -0.558894       -15.2083
  60   2.0000      -0.505480       -13.7548
  61   2.0000      -0.498029       -13.5521
  62   2.0000      -0.473248       -12.8777
  63   2.0000      -0.468972       -12.7614
  64   2.0000      -0.457129       -12.4391
  65   2.0000      -0.444372       -12.0920
  66   2.0000      -0.439701       -11.9649
  67   2.0000      -0.432346       -11.7647
  68   2.0000      -0.427340       -11.6285
  69   2.0000      -0.417933       -11.3725
  70   2.0000      -0.412768       -11.2320
  71   2.0000      -0.398318       -10.8388
  72   2.0000      -0.394533       -10.7358
  73   2.0000      -0.387665       -10.5489
  74   2.0000      -0.379716       -10.3326
  75   2.0000      -0.374143       -10.1809
  76   2.0000      -0.360821        -9.8184
  77   2.0000      -0.356830        -9.7098
  78   2.0000      -0.353341        -9.6149
  79   2.0000      -0.350490        -9.5373
  80   2.0000      -0.342486        -9.3195
  81   2.0000      -0.341807        -9.3010
  82   2.0000      -0.336133        -9.1466
  83   2.0000      -0.332463        -9.0468
  84   2.0000      -0.326380        -8.8813
  85   2.0000      -0.320814        -8.7298
  86   2.0000      -0.312780        -8.5112
  87   2.0000      -0.300230        -8.1697
  88   2.0000      -0.296627        -8.0716
  89   2.0000      -0.294732        -8.0201
  90   2.0000      -0.281671        -7.6647
  91   2.0000      -0.274008        -7.4561
  92   2.0000      -0.265434        -7.2228
  93   2.0000      -0.261266        -7.1094
  94   2.0000      -0.258088        -7.0229
  95   2.0000      -0.227737        -6.1970
  96   2.0000      -0.215915        -5.8754
  97   2.0000      -0.213717        -5.8155
  98   2.0000      -0.206753        -5.6260
  99   2.0000      -0.201572        -5.4850
 100   2.0000      -0.197199        -5.3661
 101   0.0000      -0.046365        -1.2617
 102   0.0000      -0.034139        -0.9290
 103   0.0000      -0.019821        -0.5394
 104   0.0000       0.001138         0.0310
 105   0.0000       0.015640         0.4256

MULLIKEN ATOMIC CHARGES
-----------------------
   0 C :   -0.286315
   1 C :   -0.009508
   2 O :   -0.376001
   3 P :    0.642813
   4 S :   -0.323753
   5 O :   -0.382974
   6 C :   -0.005965
   7 C :   -0.309583
   8 S :   -0.078781
   9 C :   -0.320987
  10 S :   -0.084111
  11 P :    0.624494
  12 S :   -0.327290
  13 O :   -0.376556
  14 C :   -0.018130
  15 C :   -0.302719
  16 O :   -0.370738
  17 C :   -0.016870
  18 C :   -0.292542
  19 H :    0.107768
  20 H :    0.118231
  21 H :    0.129910
  22 H :    0.104520
  23 H :    0.100756
  24 H :    0.102591
  25 H :    0.110264
  26 H :    0.112780
  27 H :    0.113001
  28 H :    0.121774
  29 H :    0.184766
  30 H :    0.184088
  31 H :    0.112926
  32 H :    0.110295
  33 H :    0.118092
  34 H :    0.107739
  35 H :    0.118709
  36 H :    0.100376
  37 H :    0.101817
  38 H :    0.116822
  39 H :    0.131352
  40 H :    0.106938
Sum of atomic charges:    0.0000000

LOEWDIN ATOMIC CHARGES
----------------------
   0 C :   -0.353067
   1 C :   -0.113892
   2 O :   -0.240531
   3 P :    0.581427
   4 S :   -0.304750
   5 O :   -0.257486
   6 C :   -0.123333
   7 C :   -0.367237
   8 S :    0.116718
   9 C :   -0.469499
  10 S :    0.087387
  11 P :    0.564383
  12 S :   -0.322387
  13 O :   -0.241156
  14 C :   -0.128467
  15 C :   -0.363624
  16 O :   -0.245665
  17 C :   -0.119250
  18 C :   -0.363003
  19 H :    0.128591
  20 H :    0.125575
  21 H :    0.128308
  22 H :    0.107492
  23 H :    0.111694
  24 H :    0.117209
  25 H :    0.108439
  26 H :    0.122579
  27 H :    0.130585
  28 H :    0.118422
  29 H :    0.136159
  30 H :    0.136075
  31 H :    0.109559
  32 H :    0.105766
  33 H :    0.127319
  34 H :    0.129163
  35 H :    0.118912
  36 H :    0.106274
  37 H :    0.115194
  38 H :    0.125955
  39 H :    0.125766
  40 H :    0.128395

  Mayer bond orders larger than 0.100000
B(  0-C ,  1-C ) :   1.1618 B(  0-C , 19-H ) :   0.9396 B(  0-C , 20-H ) :   0.9475
B(  0-C , 21-H ) :   0.9442 B(  1-C ,  2-O ) :   0.8961 B(  1-C , 22-H ) :   0.9106
B(  1-C , 23-H ) :   0.9320 B(  2-O ,  3-P ) :   1.1156 B(  3-P ,  4-S ) :   1.6286
B(  3-P ,  5-O ) :   1.0682 B(  3-P ,  8-S ) :   0.9606 B(  5-O ,  6-C ) :   0.9221
B(  6-C ,  7-C ) :   1.1622 B(  6-C , 24-H ) :   0.9336 B(  6-C , 25-H ) :   0.9136
B(  7-C , 26-H ) :   0.9453 B(  7-C , 27-H ) :   0.9388 B(  7-C , 28-H ) :   0.9371
B(  8-S ,  9-C ) :   1.0236 B(  9-C , 10-S ) :   0.9435 B(  9-C , 29-H ) :   0.9091
B(  9-C , 30-H ) :   0.9052 B( 10-S , 11-P ) :   1.0108 B( 11-P , 12-S ) :   1.6193
B( 11-P , 13-O ) :   1.0977 B( 11-P , 16-O ) :   1.0735 B( 13-O , 14-C ) :   0.8952
B( 14-C , 15-C ) :   1.1702 B( 14-C , 31-H ) :   0.9090 B( 14-C , 32-H ) :   0.9133
B( 15-C , 33-H ) :   0.9449 B( 15-C , 34-H ) :   0.9387 B( 15-C , 35-H ) :   0.9353
B( 16-O , 17-C ) :   0.9139 B( 17-C , 18-C ) :   1.1710 B( 17-C , 36-H ) :   0.9110
B( 17-C , 37-H ) :   0.9337 B( 18-C , 38-H ) :   0.9454 B( 18-C , 39-H ) :   0.9313
B( 18-C , 40-H ) :   0.9393

Dispersion correction           -0.069007422
FINAL SINGLE POINT ENERGY     -2929.513544512430

DIPOLE MOMENT
-------------

Method             : SCF
Type of density    : Electron Density
Multiplicity       :   1
Irrep              :   0
Energy             : -2929.6313402674386452 Eh
Relativity type    :
Basis              : AO
                                X                 Y                 Z
Electronic contribution:      2.505634119      -2.032254147      -4.848590918
Nuclear contribution   :     -1.876696929       0.907295021       5.502063937
                        -----------------------------------------
Total Dipole Moment    :      0.628937190      -1.124959127       0.653473019
                        -----------------------------------------
Magnitude (a.u.)       :      1.445033568
Magnitude (Debye)      :      3.672983433

Rotational constants in cm-1:             0.012255             0.005711             0.005413
Rotational constants in MHz :           367.396062           171.223542           162.279890

                             ****ORCA TERMINATED NORMALLY****
TOTAL RUN TIME: 0 days 0 hours 0 minutes 22 seconds 446 msec
