                         Program Version 6.0.0  -   RELEASE  -
|  1> ! r2scan-3c def2/J RI DEFGRID2 scfconv6 printgap
|  2> %output
|  3>     printlevel normal
|  4> end
|  5> * xyz 0 1
|  6> C 3.4450318572 -0.3421503546 -2.6126095228
|  7> C 1.9654117679 -0.1042206719 -2.4064842296
|  8> O 1.4688620319 -0.7725157523 -1.2264007561
|  9> P 1.9648699303 -0.3751571129 0.2235036182
| 10> S 2.440588463 1.4987261048 0.5666585458
| 11> O 3.1705747916 -1.396198698 0.4027059639
| 12> C 3.9983020821 -1.379042955 1.5814991886
| 13> C 5.2502569089 -2.1792148652 1.2835602839
| 14> S 0.4859398369 -1.2232178442 1.4708823498
| 15> C -0.2863845814 0.285792131 2.1524556608
| 16> S -2.083762439 0.3233683272 1.9478709874
| 17> P -2.164413973 0.3725812294 -0.1535071423
| 18> S -0.8364286937 1.4799845281 -1.0922730678
| 19> O -3.6738156428 0.7407216214 -0.479457013
| 20> C -4.129746885 2.0960919888 -0.6309277401
| 21> C -4.0900358675 2.8617811157 0.6757433217
| 22> O -2.1396573313 -1.1825999524 -0.4450831575
| 23> C -1.8252615196 -1.757338979 -1.7288050103
| 24> C -2.7920228407 -1.3145583843 -2.8063317032
| 25> H 3.7491631607 0.0946546186 -3.5586553373
| 26> H 4.0098380907 0.127370464 -1.8080394481
| 27> H 3.6555747561 -1.4084495499 -2.616843557
| 28> H 1.3690886197 -0.5272033239 -3.2164810216
| 29> H 1.7447591314 0.9645536989 -2.3136329624
| 30> H 4.2336046188 -0.3375554813 1.8261736652
| 31> H 3.4294087164 -1.8194488715 2.4052230809
| 32> H 5.8028631166 -1.7214580365 0.468056901
| 33> H 5.8753390271 -2.2045959956 2.1699822705
| 34> H 4.9818051022 -3.1931599587 1.0018954395
| 35> H 0.1687475879 1.1544935613 1.6680550973
| 36> H -0.1116961959 0.3027068218 3.2251210126
| 37> H -3.5060316787 2.5886696571 -1.3840006992
| 38> H -5.14889909 1.9881878919 -1.0043714935
| 39> H -4.6125229432 2.3097804809 1.452890207
| 40> H -3.0576089481 3.0132741603 0.9884958647
| 41> H -4.5612572023 3.8299106025 0.5393761278
| 42> H -0.797639874 -1.4818102438 -1.9849730272
| 43> H -1.8812876315 -2.8317477714 -1.5471732198
| 44> H -2.5733128912 -1.8455934813 -3.7275690334
| 45> H -3.8139898374 -1.5230215752 -2.5003533529
| 46> H -2.6876337256 -0.2438113365 -2.9804541142
| 47> *
| 48>
| 49>                          ****END OF INPUT****

CARTESIAN COORDINATES (ANGSTROEM)
---------------------------------
  C      3.445032   -0.342150   -2.612610
  C      1.965412   -0.104221   -2.406484
  O      1.468862   -0.772516   -1.226401
  P      1.964870   -0.375157    0.223504
  S      2.440588    1.498726    0.566659
  O      3.170575   -1.396199    0.402706
  C      3.998302   -1.379043    1.581499
  C      5.250257   -2.179215    1.283560
  S      0.485940   -1.223218    1.470882
  C     -0.286385    0.285792    2.152456
  S     -2.083762    0.323368    1.947871
  P     -2.164414    0.372581   -0.153507
  S     -0.836429    1.479985   -1.092273
  O     -3.673816    0.740722   -0.479457
  C     -4.129747    2.096092   -0.630928
  C     -4.090036    2.861781    0.675743
  O     -2.139657   -1.182600   -0.445083
  C     -1.825262   -1.757339   -1.728805
  C     -2.792023   -1.314558   -2.806332
  H      3.749163    0.094655   -3.558655
  H      4.009838    0.127370   -1.808039
  H      3.655575   -1.408450   -2.616844
  H      1.369089   -0.527203   -3.216481
  H      1.744759    0.964554   -2.313633
  H      4.233605   -0.337555    1.826174
  H      3.429409   -1.819449    2.405223
  H      5.802863   -1.721458    0.468057
  H      5.875339   -2.204596    2.169982
  H      4.981805   -3.193160    1.001895
  H      0.168748    1.154494    1.668055
  H     -0.111696    0.302707    3.225121
  H     -3.506032    2.588670   -1.384001
  H     -5.148899    1.988188   -1.004371
  H     -4.612523    2.309780    1.452890
  H     -3.057609    3.013274    0.988496
  H     -4.561257    3.829911    0.539376
  H     -0.797640   -1.481810   -1.984973
  H     -1.881288   -2.831748   -1.547173
  H     -2.573313   -1.845593   -3.727569
  H     -3.813990   -1.523022   -2.500353
  H     -2.687634   -0.243811   -2.980454

 Total Charge           Charge          ....    0
 Multiplicity           Mult            ....    1
 Number of Electrons    NEL             ....  202
 Basis Dimension        Dim             ....  539

ORBITAL ENERGIES
----------------

  NO   OCC          E(Eh)            E(eV)
   0   2.0000     -88.574212     -2410.2269
   1   2.0000     -88.572414     -2410.1779
   2   2.0000     -88.516233     -2408.6492
   3   2.0000     -88.515546     -2408.6305
   4   2.0000     -76.911057     -2092.8563
   5   2.0000     -76.910059     -2092.8291
   6   2.0000     -18.990568      -516.7596
   7   2.0000     -18.986774      -516.6564
   8   2.0000     -18.986259      -516.6424
   9   2.0000     -18.983540      -516.5684
  10   2.0000     -10.103808      -274.9386
  11   2.0000     -10.097107      -274.7563
  12   2.0000     -10.094176      -274.6765
  13   2.0000     -10.093695      -274.6634
  14   2.0000     -10.092560      -274.6325
  15   2.0000     -10.031106      -272.9603
  16   2.0000     -10.027273      -272.8560
  17   2.0000     -10.025736      -272.8141
  18   2.0000     -10.025009      -272.7944
  19   2.0000      -7.868824      -214.1216
  20   2.0000      -7.866639      -214.0621
  21   2.0000      -7.811007      -212.5483
  22   2.0000      -7.810320      -212.5296
  23   2.0000      -6.589438      -179.3077
  24   2.0000      -6.588564      -179.2839
  25   2.0000      -5.815806      -158.2561
  26   2.0000      -5.813464      -158.1924
  27   2.0000      -5.812580      -158.1683
  28   2.0000      -5.810555      -158.1132
  29   2.0000      -5.805865      -157.9856
  30   2.0000      -5.803750      -157.9281
  31   2.0000      -5.758675      -156.7015
  32   2.0000      -5.757985      -156.6827
  33   2.0000      -5.751472      -156.5055
  34   2.0000      -5.750800      -156.4872
  35   2.0000      -5.750620      -156.4823
  36   2.0000      -5.750301      -156.4736
  37   2.0000      -4.734824      -128.8411
  38   2.0000      -4.734375      -128.8289
  39   2.0000      -4.733845      -128.8145
  40   2.0000      -4.733440      -128.8035
  41   2.0000      -4.733290      -128.7994
  42   2.0000      -4.732538      -128.7789
  43   2.0000      -1.046751       -28.4836
  44   2.0000      -1.046050       -28.4645
  45   2.0000      -1.007443       -27.4139
  46   2.0000      -1.005997       -27.3746
  47   2.0000      -0.797553       -21.7025
  48   2.0000      -0.756426       -20.5834
  49   2.0000      -0.746090       -20.3021
  50   2.0000      -0.729891       -19.8614
  51   2.0000      -0.729032       -19.8380
  52   2.0000      -0.708856       -19.2890
  53   2.0000      -0.684332       -18.6216
  54   2.0000      -0.662750       -18.0343
  55   2.0000      -0.632574       -17.2132
  56   2.0000      -0.623391       -16.9633
  57   2.0000      -0.603953       -16.4344
  58   2.0000      -0.596103       -16.2208
  59   2.0000      -0.590019       -16.0552
  60   2.0000      -0.525471       -14.2988
  61   2.0000      -0.513215       -13.9653
  62   2.0000      -0.491251       -13.3676
  63   2.0000      -0.488224       -13.2853
  64   2.0000      -0.467079       -12.7099
  65   2.0000      -0.463477       -12.6119
  66   2.0000      -0.455785       -12.4026
  67   2.0000      -0.449927       -12.2431
  68   2.0000      -0.443995       -12.0817
  69   2.0000      -0.432366       -11.7653
  70   2.0000      -0.425603       -11.5813
  71   2.0000      -0.415075       -11.2948
  72   2.0000      -0.408405       -11.1133
  73   2.0000      -0.401805       -10.9337
  74   2.0000      -0.395444       -10.7606
  75   2.0000      -0.386878       -10.5275
  76   2.0000      -0.385690       -10.4952
  77   2.0000      -0.370513       -10.0822
  78   2.0000      -0.368487       -10.0271
  79   2.0000      -0.361103        -9.8261
  80   2.0000      -0.359265        -9.7761
  81   2.0000      -0.355989        -9.6870
  82   2.0000      -0.355176        -9.6648
  83   2.0000      -0.347580        -9.4581
  84   2.0000      -0.346686        -9.4338
  85   2.0000      -0.326794        -8.8925
  86   2.0000      -0.322649        -8.7797
  87   2.0000      -0.311578        -8.4785
  88   2.0000      -0.307598        -8.3702
  89   2.0000      -0.298243        -8.1156
  90   2.0000      -0.294997        -8.0273
  91   2.0000      -0.286427        -7.7941
  92   2.0000      -0.284181        -7.7330
  93   2.0000      -0.276810        -7.5324
  94   2.0000      -0.271479        -7.3873
  95   2.0000      -0.243369        -6.6224
  96   2.0000      -0.233672        -6.3585
  97   2.0000      -0.226715        -6.1692
  98   2.0000      -0.215035        -5.8514
  99   2.0000      -0.208275        -5.6674
 100   2.0000      -0.200844        -5.4652
 101   0.0000      -0.040411        -1.0996
 102   0.0000      -0.031743        -0.8638
 103   0.0000      -0.006647        -0.1809
 104   0.0000       0.015763         0.4289
 105   0.0000       0.024427         0.6647

MULLIKEN ATOMIC CHARGES
-----------------------
   0 C :   -0.454947
   1 C :   -0.152650
   2 O :   -0.295192
   3 P :    0.688328
   4 S :   -0.474650
   5 O :   -0.270976
   6 C :   -0.159596
   7 C :   -0.442408
   8 S :   -0.139931
   9 C :   -0.230313
  10 S :   -0.106971
  11 P :    0.705392
  12 S :   -0.444546
  13 O :   -0.307491
  14 C :   -0.153907
  15 C :   -0.459651
  16 O :   -0.291156
  17 C :   -0.145421
  18 C :   -0.458821
  19 H :    0.147000
  20 H :    0.173467
  21 H :    0.155706
  22 H :    0.148192
  23 H :    0.181185
  24 H :    0.170554
  25 H :    0.153114
  26 H :    0.154151
  27 H :    0.146088
  28 H :    0.153523
  29 H :    0.218020
  30 H :    0.189209
  31 H :    0.172348
  32 H :    0.147741
  33 H :    0.156011
  34 H :    0.179928
  35 H :    0.147952
  36 H :    0.175683
  37 H :    0.150103
  38 H :    0.145612
  39 H :    0.157551
  40 H :    0.171771
Sum of atomic charges:   -0.0000000

LOEWDIN ATOMIC CHARGES
----------------------
   0 C :   -0.401455
   1 C :    0.008826
   2 O :   -0.684486
   3 P :    0.373119
   4 S :   -0.130461
   5 O :   -0.673243
   6 C :    0.015309
   7 C :   -0.386388
   8 S :    0.173718
   9 C :   -0.413530
  10 S :    0.167648
  11 P :    0.376261
  12 S :   -0.088662
  13 O :   -0.662890
  14 C :    0.019061
  15 C :   -0.407256
  16 O :   -0.669600
  17 C :    0.024855
  18 C :   -0.402713
  19 H :    0.159373
  20 H :    0.166917
  21 H :    0.161121
  22 H :    0.179157
  23 H :    0.183945
  24 H :    0.179891
  25 H :    0.172179
  26 H :    0.159575
  27 H :    0.159375
  28 H :    0.159716
  29 H :    0.200297
  30 H :    0.179755
  31 H :    0.179617
  32 H :    0.179252
  33 H :    0.160103
  34 H :    0.166265
  35 H :    0.159406
  36 H :    0.189031
  37 H :    0.181634
  38 H :    0.158321
  39 H :    0.161445
  40 H :    0.165512

  Mayer bond orders larger than 0.100000
B(  0-C ,  1-C ) :   0.9168 B(  0-C , 19-H ) :   0.9599 B(  0-C , 20-H ) :   0.9611
B(  0-C , 21-H ) :   0.9708 B(  1-C ,  2-O ) :   0.8019 B(  1-C , 22-H ) :   0.9590
B(  1-C , 23-H ) :   0.9621 B(  2-O ,  3-P ) :   1.1855 B(  3-P ,  4-S ) :   1.7223
B(  3-P ,  5-O ) :   1.0783 B(  3-P ,  8-S ) :   1.1004 B(  5-O ,  6-C ) :   0.7888
B(  6-C ,  7-C ) :   0.9544 B(  6-C , 24-H ) :   0.9500 B(  6-C , 25-H ) :   0.9455
B(  7-C , 26-H ) :   0.9723 B(  7-C , 27-H ) :   0.9651 B(  7-C , 28-H ) :   0.9721
B(  8-S ,  9-C ) :   0.8956 B(  9-C , 10-S ) :   0.9234 B(  9-C , 29-H ) :   0.9038
B(  9-C , 30-H ) :   0.9136 B( 10-S , 11-P ) :   1.0994 B( 11-P , 12-S ) :   1.7361
B( 11-P , 13-O ) :   1.0581 B( 11-P , 16-O ) :   1.1675 B( 13-O , 14-C ) :   0.8170
B( 14-C , 15-C ) :   0.9194 B( 14-C , 31-H ) :   0.9663 B( 14-C , 32-H ) :   0.9587
B( 15-C , 33-H ) :   0.9687 B( 15-C , 34-H ) :   0.9622 B( 15-C , 35-H ) :   0.9587
B( 16-O , 17-C ) :   0.8158 B( 17-C , 18-C ) :   0.9108 B( 17-C , 36-H ) :   0.9625
B( 17-C , 37-H ) :   0.9622 B( 18-C , 38-H ) :   0.9602 B( 18-C , 39-H ) :   0.9706
B( 18-C , 40-H ) :   0.9609

Dispersion correction           -0.021993359
FINAL SINGLE POINT ENERGY     -2932.460999063138

DIPOLE MOMENT
-------------

Method             : SCF
Type of density    : Electron Density
Multiplicity       :   1
Irrep              :   0
Energy             : -2932.4856475103365483 Eh
Relativity type    :
Basis              : AO
                                X                 Y                 Z
Electronic contribution:     -6.173793452       2.049674458      11.904672908
Nuclear contribution   :      6.041475890      -2.689883906     -12.272044462
                        -----------------------------------------
Total Dipole Moment    :     -0.132317562      -0.640209448      -0.367371554
                        -----------------------------------------
Magnitude (a.u.)       :      0.749891947
Magnitude (Debye)      :      1.906073852

Rotational constants in cm-1:             0.013330             0.005092             0.004680
Rotational constants in MHz :           399.624553           152.656069           140.316200

                             ****ORCA TERMINATED NORMALLY****
TOTAL RUN TIME: 0 days 0 hours 1 minutes 25 seconds 674 msec
