                         Program Version 6.0.0  -   RELEASE  -
|  1> ! r2scan-3c def2/J RI DEFGRID2 scfconv6 printgap
|  2> %output
|  3>     printlevel normal
|  4> end
|  5> %cpcm
|  6>     smd true
|  7>     smdsolvent "water"
|  8> end
|  9> * xyz 0 1
| 10> C 3.4450318572 -0.3421503546 -2.6126095228
| 11> C 1.9654117679 -0.1042206719 -2.4064842296
| 12> O 1.4688620319 -0.7725157523 -1.2264007561
| 13> P 1.9648699303 -0.3751571129 0.2235036182
| 14> S 2.440588463 1.4987261048 0.5666585458
| 15> O 3.1705747916 -1.396198698 0.4027059639
| 16> C 3.9983020821 -1.379042955 1.5814991886
| 17> C 5.2502569089 -2.1792148652 1.2835602839
| 18> S 0.4859398369 -1.2232178442 1.4708823498
| 19> C -0.2863845814 0.285792131 2.1524556608
| 20> S -2.083762439 0.3233683272 1.9478709874
| 21> P -2.164413973 0.3725812294 -0.1535071423
| 22> S -0.8364286937 1.4799845281 -1.0922730678
| 23> O -3.6738156428 0.7407216214 -0.479457013
| 24> C -4.129746885 2.0960919888 -0.6309277401
| 25> C -4.0900358675 2.8617811157 0.6757433217
| 26> O -2.1396573313 -1.1825999524 -0.4450831575
| 27> C -1.8252615196 -1.757338979 -1.7288050103
| 28> C -2.7920228407 -1.3145583843 -2.8063317032
| 29> H 3.7491631607 0.0946546186 -3.5586553373
| 30> H 4.0098380907 0.127370464 -1.8080394481
| 31> H 3.6555747561 -1.4084495499 -2.616843557
| 32> H 1.3690886197 -0.5272033239 -3.2164810216
| 33> H 1.7447591314 0.9645536989 -2.3136329624
| 34> H 4.2336046188 -0.3375554813 1.8261736652
| 35> H 3.4294087164 -1.8194488715 2.4052230809
| 36> H 5.8028631166 -1.7214580365 0.468056901
| 37> H 5.8753390271 -2.2045959956 2.1699822705
| 38> H 4.9818051022 -3.1931599587 1.0018954395
| 39> H 0.1687475879 1.1544935613 1.6680550973
| 40> H -0.1116961959 0.3027068218 3.2251210126
| 41> H -3.5060316787 2.5886696571 -1.3840006992
| 42> H -5.14889909 1.9881878919 -1.0043714935
| 43> H -4.6125229432 2.3097804809 1.452890207
| 44> H -3.0576089481 3.0132741603 0.9884958647
| 45> H -4.5612572023 3.8299106025 0.5393761278
| 46> H -0.797639874 -1.4818102438 -1.9849730272
| 47> H -1.8812876315 -2.8317477714 -1.5471732198
| 48> H -2.5733128912 -1.8455934813 -3.7275690334
| 49> H -3.8139898374 -1.5230215752 -2.5003533529
| 50> H -2.6876337256 -0.2438113365 -2.9804541142
| 51> *
| 52>
| 53>                          ****END OF INPUT****

CARTESIAN COORDINATES (ANGSTROEM)
---------------------------------
  C      3.445032   -0.342150   -2.612610
  C      1.965412   -0.104221   -2.406484
  O      1.468862   -0.772516   -1.226401
  P      1.964870   -0.375157    0.223504
  S      2.440588    1.498726    0.566659
  O      3.170575   -1.396199    0.402706
  C      3.998302   -1.379043    1.581499
  C      5.250257   -2.179215    1.283560
  S      0.485940   -1.223218    1.470882
  C     -0.286385    0.285792    2.152456
  S     -2.083762    0.323368    1.947871
  P     -2.164414    0.372581   -0.153507
  S     -0.836429    1.479985   -1.092273
  O     -3.673816    0.740722   -0.479457
  C     -4.129747    2.096092   -0.630928
  C     -4.090036    2.861781    0.675743
  O     -2.139657   -1.182600   -0.445083
  C     -1.825262   -1.757339   -1.728805
  C     -2.792023   -1.314558   -2.806332
  H      3.749163    0.094655   -3.558655
  H      4.009838    0.127370   -1.808039
  H      3.655575   -1.408450   -2.616844
  H      1.369089   -0.527203   -3.216481
  H      1.744759    0.964554   -2.313633
  H      4.233605   -0.337555    1.826174
  H      3.429409   -1.819449    2.405223
  H      5.802863   -1.721458    0.468057
  H      5.875339   -2.204596    2.169982
  H      4.981805   -3.193160    1.001895
  H      0.168748    1.154494    1.668055
  H     -0.111696    0.302707    3.225121
  H     -3.506032    2.588670   -1.384001
  H     -5.148899    1.988188   -1.004371
  H     -4.612523    2.309780    1.452890
  H     -3.057609    3.013274    0.988496
  H     -4.561257    3.829911    0.539376
  H     -0.797640   -1.481810   -1.984973
  H     -1.881288   -2.831748   -1.547173
  H     -2.573313   -1.845593   -3.727569
  H     -3.813990   -1.523022   -2.500353
  H     -2.687634   -0.243811   -2.980454

 Total Charge           Charge          ....    0
 Multiplicity           Mult            ....    1
 Number of Electrons    NEL             ....  202
 Basis Dimension        Dim             ....  539

ORBITAL ENERGIES
----------------

  NO   OCC          E(Eh)            E(eV)
   0   2.0000     -88.579703     -2410.3762
   1   2.0000     -88.578413     -2410.3411
   2   2.0000     -88.525952     -2408.9136
   3   2.0000     -88.522980     -2408.8327
   4   2.0000     -76.917440     -2093.0299
   5   2.0000     -76.917088     -2093.0204
   6   2.0000     -18.994102      -516.8558
   7   2.0000     -18.991827      -516.7939
   8   2.0000     -18.990986      -516.7710
   9   2.0000     -18.989662      -516.7350
  10   2.0000     -10.104775      -274.9649
  11   2.0000     -10.089195      -274.5409
  12   2.0000     -10.088503      -274.5221
  13   2.0000     -10.087895      -274.5056
  14   2.0000     -10.087689      -274.5000
  15   2.0000     -10.019102      -272.6336
  16   2.0000     -10.018537      -272.6183
  17   2.0000     -10.018013      -272.6040
  18   2.0000     -10.017992      -272.6034
  19   2.0000      -7.874290      -214.2703
  20   2.0000      -7.872665      -214.2261
  21   2.0000      -7.821038      -212.8213
  22   2.0000      -7.817976      -212.7379
  23   2.0000      -6.595987      -179.4859
  24   2.0000      -6.595566      -179.4745
  25   2.0000      -5.821241      -158.4040
  26   2.0000      -5.819479      -158.3561
  27   2.0000      -5.818019      -158.3164
  28   2.0000      -5.816595      -158.2776
  29   2.0000      -5.811403      -158.1363
  30   2.0000      -5.809787      -158.0923
  31   2.0000      -5.768638      -156.9726
  32   2.0000      -5.765606      -156.8901
  33   2.0000      -5.761491      -156.7781
  34   2.0000      -5.760852      -156.7607
  35   2.0000      -5.758285      -156.6909
  36   2.0000      -5.757939      -156.6815
  37   2.0000      -4.741234      -129.0155
  38   2.0000      -4.740914      -129.0068
  39   2.0000      -4.740849      -129.0051
  40   2.0000      -4.740508      -128.9958
  41   2.0000      -4.740042      -128.9831
  42   2.0000      -4.739457      -128.9672
  43   2.0000      -1.051236       -28.6056
  44   2.0000      -1.050675       -28.5903
  45   2.0000      -1.011544       -27.5255
  46   2.0000      -1.009939       -27.4818
  47   2.0000      -0.801245       -21.8030
  48   2.0000      -0.755853       -20.5678
  49   2.0000      -0.742463       -20.2035
  50   2.0000      -0.723628       -19.6909
  51   2.0000      -0.723069       -19.6757
  52   2.0000      -0.709723       -19.3126
  53   2.0000      -0.689052       -18.7501
  54   2.0000      -0.670173       -18.2363
  55   2.0000      -0.633285       -17.2326
  56   2.0000      -0.621814       -16.9204
  57   2.0000      -0.599833       -16.3223
  58   2.0000      -0.592381       -16.1195
  59   2.0000      -0.589008       -16.0277
  60   2.0000      -0.525091       -14.2884
  61   2.0000      -0.511515       -13.9190
  62   2.0000      -0.491211       -13.3665
  63   2.0000      -0.487274       -13.2594
  64   2.0000      -0.467673       -12.7260
  65   2.0000      -0.464905       -12.6507
  66   2.0000      -0.453372       -12.3369
  67   2.0000      -0.446822       -12.1587
  68   2.0000      -0.442553       -12.0425
  69   2.0000      -0.433285       -11.7903
  70   2.0000      -0.423228       -11.5166
  71   2.0000      -0.413107       -11.2412
  72   2.0000      -0.405875       -11.0444
  73   2.0000      -0.403103       -10.9690
  74   2.0000      -0.395980       -10.7752
  75   2.0000      -0.385814       -10.4985
  76   2.0000      -0.384778       -10.4703
  77   2.0000      -0.364307        -9.9133
  78   2.0000      -0.361502        -9.8370
  79   2.0000      -0.354690        -9.6516
  80   2.0000      -0.353483        -9.6188
  81   2.0000      -0.351600        -9.5675
  82   2.0000      -0.349427        -9.5084
  83   2.0000      -0.346922        -9.4402
  84   2.0000      -0.344190        -9.3659
  85   2.0000      -0.326058        -8.8725
  86   2.0000      -0.321710        -8.7542
  87   2.0000      -0.311197        -8.4681
  88   2.0000      -0.303947        -8.2708
  89   2.0000      -0.298847        -8.1320
  90   2.0000      -0.297541        -8.0965
  91   2.0000      -0.287652        -7.8274
  92   2.0000      -0.286222        -7.7885
  93   2.0000      -0.278632        -7.5820
  94   2.0000      -0.274220        -7.4619
  95   2.0000      -0.249102        -6.7784
  96   2.0000      -0.241581        -6.5737
  97   2.0000      -0.235713        -6.4141
  98   2.0000      -0.223339        -6.0774
  99   2.0000      -0.216555        -5.8928
 100   2.0000      -0.210122        -5.7177
 101   0.0000      -0.045938        -1.2500
 102   0.0000      -0.039381        -1.0716
 103   0.0000      -0.011339        -0.3086
 104   0.0000       0.010924         0.2973
 105   0.0000       0.017635         0.4799

MULLIKEN ATOMIC CHARGES
-----------------------
   0 C :   -0.497131
   1 C :   -0.147429
   2 O :   -0.317213
   3 P :    0.726044
   4 S :   -0.526831
   5 O :   -0.300798
   6 C :   -0.149777
   7 C :   -0.483999
   8 S :   -0.152548
   9 C :   -0.229803
  10 S :   -0.121477
  11 P :    0.731556
  12 S :   -0.487290
  13 O :   -0.332902
  14 C :   -0.153518
  15 C :   -0.493601
  16 O :   -0.321203
  17 C :   -0.143593
  18 C :   -0.495693
  19 H :    0.172468
  20 H :    0.171242
  21 H :    0.169801
  22 H :    0.179733
  23 H :    0.178182
  24 H :    0.171661
  25 H :    0.170121
  26 H :    0.165445
  27 H :    0.169187
  28 H :    0.165385
  29 H :    0.214901
  30 H :    0.231171
  31 H :    0.177815
  32 H :    0.174940
  33 H :    0.169748
  34 H :    0.173914
  35 H :    0.173034
  36 H :    0.181664
  37 H :    0.174802
  38 H :    0.172308
  39 H :    0.169036
  40 H :    0.170646
Sum of atomic charges:   -0.0000000

LOEWDIN ATOMIC CHARGES
----------------------
   0 C :   -0.404191
   1 C :    0.012817
   2 O :   -0.693978
   3 P :    0.377757
   4 S :   -0.162879
   5 O :   -0.687135
   6 C :    0.020055
   7 C :   -0.389841
   8 S :    0.168114
   9 C :   -0.407249
  10 S :    0.163109
  11 P :    0.378547
  12 S :   -0.111191
  13 O :   -0.675828
  14 C :    0.024389
  15 C :   -0.410251
  16 O :   -0.688487
  17 C :    0.027770
  18 C :   -0.404082
  19 H :    0.168911
  20 H :    0.163463
  21 H :    0.164620
  22 H :    0.191158
  23 H :    0.182533
  24 H :    0.180863
  25 H :    0.179040
  26 H :    0.162228
  27 H :    0.168483
  28 H :    0.162971
  29 H :    0.198715
  30 H :    0.196052
  31 H :    0.181350
  32 H :    0.190706
  33 H :    0.163573
  34 H :    0.161607
  35 H :    0.168516
  36 H :    0.190683
  37 H :    0.191282
  38 H :    0.168652
  39 H :    0.163905
  40 H :    0.163242

  Mayer bond orders larger than 0.100000
B(  0-C ,  1-C ) :   0.9072 B(  0-C , 19-H ) :   0.9537 B(  0-C , 20-H ) :   0.9617
B(  0-C , 21-H ) :   0.9694 B(  1-C ,  2-O ) :   0.7868 B(  1-C , 22-H ) :   0.9479
B(  1-C , 23-H ) :   0.9599 B(  2-O ,  3-P ) :   1.1901 B(  3-P ,  4-S ) :   1.6753
B(  3-P ,  5-O ) :   1.0847 B(  3-P ,  8-S ) :   1.1181 B(  5-O ,  6-C ) :   0.7825
B(  6-C ,  7-C ) :   0.9507 B(  6-C , 24-H ) :   0.9468 B(  6-C , 25-H ) :   0.9374
B(  7-C , 26-H ) :   0.9697 B(  7-C , 27-H ) :   0.9589 B(  7-C , 28-H ) :   0.9692
B(  8-S ,  9-C ) :   0.8892 B(  9-C , 10-S ) :   0.9163 B(  9-C , 29-H ) :   0.9077
B(  9-C , 30-H ) :   0.8984 B( 10-S , 11-P ) :   1.1117 B( 11-P , 12-S ) :   1.7054
B( 11-P , 13-O ) :   1.0632 B( 11-P , 16-O ) :   1.1672 B( 13-O , 14-C ) :   0.8058
B( 14-C , 15-C ) :   0.9060 B( 14-C , 31-H ) :   0.9648 B( 14-C , 32-H ) :   0.9489
B( 15-C , 33-H ) :   0.9657 B( 15-C , 34-H ) :   0.9640 B( 15-C , 35-H ) :   0.9533
B( 16-O , 17-C ) :   0.8042 B( 17-C , 18-C ) :   0.9056 B( 17-C , 36-H ) :   0.9560
B( 17-C , 37-H ) :   0.9511 B( 18-C , 38-H ) :   0.9535 B( 18-C , 39-H ) :   0.9700
B( 18-C , 40-H ) :   0.9600

Dispersion correction           -0.021993359
FINAL SINGLE POINT ENERGY     -2932.468610393303

DIPOLE MOMENT
-------------

Method             : SCF
Type of density    : Electron Density
Multiplicity       :   1
Irrep              :   0
Energy             : -2932.4932588405008573 Eh
Relativity type    :
Basis              : AO
                                X                 Y                 Z
Electronic contribution:     -6.232853046       1.870044213      11.824766949
Nuclear contribution   :      6.041475890      -2.689883906     -12.272044462
                        -----------------------------------------
Total Dipole Moment    :     -0.191377156      -0.819839693      -0.447277513
                        -----------------------------------------
Magnitude (a.u.)       :      0.953320256
Magnitude (Debye)      :      2.423147521

Rotational constants in cm-1:             0.013330             0.005092             0.004680
Rotational constants in MHz :           399.624553           152.656069           140.316200

                             ****ORCA TERMINATED NORMALLY****
TOTAL RUN TIME: 0 days 0 hours 1 minutes 50 seconds 36 msec
