                         Program Version 6.0.0  -   RELEASE  -
|  1> ! wb97x-v def2-tzvp def2/J RIJCOSX DEFGRID2 scfconv7 GCP(DFT/TZ) printgap
|  2> %output
|  3>     printlevel normal
|  4> end
|  5> %cpcm
|  6>     smd true
|  7>     smdsolvent "water"
|  8> end
|  9> * xyz 0 1
| 10> C -0.46982607566030254 -0.7305928537691059 3.4682657934954095e-06
| 11> C -0.3977001944973596 0.7722035946212965 3.160168772897282e-05
| 12> C 0.8676303694333454 -0.04172835037437798 -1.979610700515493e-05
| 13> H -0.7851924984521589 -1.2211297731881134 -0.9154814417420603
| 14> H -0.7851453966088754 -1.221164919840893 0.9154831223862008
| 15> H -0.6648263129517691 1.290628713616786 -0.9154178770253844
| 16> H -0.6647735891509347 1.290594637731142 0.9155158653650254
| 17> H 1.4498804967822965 -0.06935292798770418 -0.9156425720338671
| 18> H 1.4499269990510095 -0.06939064237383129 0.9155702119106155
| 19> *
| 20>
| 21>                          ****END OF INPUT****

CARTESIAN COORDINATES (ANGSTROEM)
---------------------------------
  C     -0.469826   -0.730593    0.000003
  C     -0.397700    0.772204    0.000032
  C      0.867630   -0.041728   -0.000020
  H     -0.785192   -1.221130   -0.915481
  H     -0.785145   -1.221165    0.915483
  H     -0.664826    1.290629   -0.915418
  H     -0.664774    1.290595    0.915516
  H      1.449880   -0.069353   -0.915643
  H      1.449927   -0.069391    0.915570

 Total Charge           Charge          ....    0
 Multiplicity           Mult            ....    1
 Number of Electrons    NEL             ....   24
 Basis Dimension        Dim             ....  129

ORBITAL ENERGIES
----------------

  NO   OCC          E(Eh)            E(eV)
   0   2.0000     -12.040790      -327.6466
   1   2.0000     -12.039204      -327.6034
   2   2.0000     -12.039191      -327.6030
   3   2.0000      -1.376119       -37.4461
   4   2.0000      -1.066660       -29.0253
   5   2.0000      -1.066625       -29.0243
   6   2.0000      -0.920001       -25.0345
   7   2.0000      -0.908486       -24.7212
   8   2.0000      -0.784085       -21.3360
   9   2.0000      -0.784079       -21.3359
  10   2.0000      -0.724961       -19.7272
  11   2.0000      -0.724901       -19.7256
  12   0.0000      -0.070972        -1.9313
  13   0.0000      -0.006824        -0.1857
  14   0.0000       0.005640         0.1535
  15   0.0000       0.005692         0.1549
  16   0.0000       0.009460         0.2574

MULLIKEN ATOMIC CHARGES
-----------------------
   0 C :   -0.268396
   1 C :   -0.267878
   2 C :   -0.267077
   3 H :    0.133963
   4 H :    0.133965
   5 H :    0.133871
   6 H :    0.133873
   7 H :    0.133839
   8 H :    0.133840
Sum of atomic charges:   -0.0000000

LOEWDIN ATOMIC CHARGES
----------------------
   0 C :   -0.256369
   1 C :   -0.256272
   2 C :   -0.256262
   3 H :    0.128154
   4 H :    0.128153
   5 H :    0.128138
   6 H :    0.128138
   7 H :    0.128161
   8 H :    0.128160

  Mayer bond orders larger than 0.100000
B(  0-C ,  1-C ) :   0.9659 B(  0-C ,  2-C ) :   0.9655 B(  0-C ,  3-H ) :   0.9674
B(  0-C ,  4-H ) :   0.9674 B(  1-C ,  2-C ) :   0.9653 B(  1-C ,  5-H ) :   0.9675
B(  1-C ,  6-H ) :   0.9675 B(  2-C ,  7-H ) :   0.9675 B(  2-C ,  8-H ) :   0.9675

FINAL SINGLE POINT ENERGY      -117.899000304158

DIPOLE MOMENT
-------------

Method             : SCF
Type of density    : Electron Density
Multiplicity       :   1
Irrep              :   0
Energy             :  -117.9043876804580719 Eh
Relativity type    :
Basis              : AO
                                X                 Y                 Z
Electronic contribution:      0.000573449       0.000142937       0.000003861
Nuclear contribution   :     -0.000271930       0.000337649      -0.000002602
                        -----------------------------------------
Total Dipole Moment    :      0.000301519       0.000480586       0.000001259
                        -----------------------------------------
Magnitude (a.u.)       :      0.000567343
Magnitude (Debye)      :      0.001442071

Rotational constants in cm-1:             0.673394             0.673299             0.422152
Rotational constants in MHz :         20187.858995         20184.996795         12655.792997

                             ****ORCA TERMINATED NORMALLY****
TOTAL RUN TIME: 0 days 0 hours 0 minutes 24 seconds 964 msec
