                         Program Version 6.0.0  -   RELEASE  -
|  1> ! pbe def2-sv(p) def2/J RI DEFGRID1 loosescf d4 GCP(DFT/SV(P)) printgap
|  2> %output
|  3>     printlevel normal
|  4> end
|  5> * xyz 0 1
|  6> C 5.5606358662 0.3766319342 -0.9344687573
|  7> C 4.788371662 -0.9202134919 -1.0536965918
|  8> O 3.6380122541 -0.944223931 -0.1842246479
|  9> P 2.3725718389 -0.0247662089 -0.425131416
| 10> S 1.9243063695 0.2854679393 -2.3128513007
| 11> O 2.7606409606 1.2659676716 0.4165402654
| 12> C 1.9906621454 2.4803727223 0.4404477181
| 13> C 1.1433048931 2.556018252 1.6950494059
| 14> S 0.9947988589 -1.0847850535 0.7667145535
| 15> C -0.0226182759 -1.8276330041 -0.561671828
| 16> S -1.7481474796 -1.9802815479 -0.0710810887
| 17> P -2.1455463874 0.0894520572 0.2801135141
| 18> S -1.2883371446 1.3790872044 -0.914496361
| 19> O -1.7441450323 0.3363847274 1.7842664268
| 20> C -2.2328120744 -0.4547755098 2.8962481384
| 21> C -3.4217732133 0.2170548326 3.5516226553
| 22> O -3.7334029437 0.1497037374 0.329020726
| 23> C -4.5445740322 0.3457834032 -0.842938736
| 24> C -4.4490423548 -0.8125518903 -1.814465374
| 25> H 4.9566149659 1.2017030329 -1.3099617657
| 26> H 5.8117121831 0.5699699746 0.1050923763
| 27> H 6.4708557508 0.3094868009 -1.5221171028
| 28> H 5.378847873 -1.7765075424 -0.7255617062
| 29> H 4.4457731978 -1.0723233896 -2.0822317108
| 30> H 2.7323344064 3.2813525587 0.4184746371
| 31> H 1.3697957624 2.535821461 -0.4602792118
| 32> H 1.7651644154 2.4033597478 2.5725793156
| 33> H 0.6740784831 3.5333559458 1.7459486212
| 34> H 0.3634514025 1.7969718866 1.6773553938
| 35> H 0.3273482891 -2.836387172 -0.7659133956
| 36> H 0.0577945952 -1.1918746645 -1.4483013794
| 37> H -2.4903050576 -1.4537734687 2.5341166023
| 38> H -1.3814348118 -0.5187500384 3.5763872717
| 39> H -4.2564849803 0.2666948199 2.8578423629
| 40> H -3.714738601 -0.3573288364 4.4248400065
| 41> H -3.1584122757 1.225874097 3.8572206282
| 42> H -5.5543484159 0.4531142081 -0.4441669273
| 43> H -4.2340103617 1.2783406498 -1.3241375716
| 44> H -4.6355872326 -1.7533513376 -1.3027753714
| 45> H -5.1816891222 -0.6782041542 -2.6038511794
| 46> H -3.4560259347 -0.8456939301 -2.2603565804
| 47> *
| 48>
| 49>                          ****END OF INPUT****

CARTESIAN COORDINATES (ANGSTROEM)
---------------------------------
  C      5.560636    0.376632   -0.934469
  C      4.788372   -0.920213   -1.053697
  O      3.638012   -0.944224   -0.184225
  P      2.372572   -0.024766   -0.425131
  S      1.924306    0.285468   -2.312851
  O      2.760641    1.265968    0.416540
  C      1.990662    2.480373    0.440448
  C      1.143305    2.556018    1.695049
  S      0.994799   -1.084785    0.766715
  C     -0.022618   -1.827633   -0.561672
  S     -1.748147   -1.980282   -0.071081
  P     -2.145546    0.089452    0.280114
  S     -1.288337    1.379087   -0.914496
  O     -1.744145    0.336385    1.784266
  C     -2.232812   -0.454776    2.896248
  C     -3.421773    0.217055    3.551623
  O     -3.733403    0.149704    0.329021
  C     -4.544574    0.345783   -0.842939
  C     -4.449042   -0.812552   -1.814465
  H      4.956615    1.201703   -1.309962
  H      5.811712    0.569970    0.105092
  H      6.470856    0.309487   -1.522117
  H      5.378848   -1.776508   -0.725562
  H      4.445773   -1.072323   -2.082232
  H      2.732334    3.281353    0.418475
  H      1.369796    2.535821   -0.460279
  H      1.765164    2.403360    2.572579
  H      0.674078    3.533356    1.745949
  H      0.363451    1.796972    1.677355
  H      0.327348   -2.836387   -0.765913
  H      0.057795   -1.191875   -1.448301
  H     -2.490305   -1.453773    2.534117
  H     -1.381435   -0.518750    3.576387
  H     -4.256485    0.266695    2.857842
  H     -3.714739   -0.357329    4.424840
  H     -3.158412    1.225874    3.857221
  H     -5.554348    0.453114   -0.444167
  H     -4.234010    1.278341   -1.324138
  H     -4.635587   -1.753351   -1.302775
  H     -5.181689   -0.678204   -2.603851
  H     -3.456026   -0.845694   -2.260357

 Total Charge           Charge          ....    0
 Multiplicity           Mult            ....    1
 Number of Electrons    NEL             ....  202
 Basis Dimension        Dim             ....  334

ORBITAL ENERGIES
----------------

  NO   OCC          E(Eh)            E(eV)
   0   2.0000     -88.047102     -2395.8834
   1   2.0000     -88.037166     -2395.6131
   2   2.0000     -87.985094     -2394.1961
   3   2.0000     -87.982373     -2394.1221
   4   2.0000     -76.428490     -2079.7249
   5   2.0000     -76.419931     -2079.4921
   6   2.0000     -18.797788      -511.5138
   7   2.0000     -18.794419      -511.4222
   8   2.0000     -18.785983      -511.1926
   9   2.0000     -18.781943      -511.0827
  10   2.0000      -9.956841      -270.9394
  11   2.0000      -9.956261      -270.9236
  12   2.0000      -9.952212      -270.8135
  13   2.0000      -9.945885      -270.6413
  14   2.0000      -9.940458      -270.4936
  15   2.0000      -9.887819      -269.0612
  16   2.0000      -9.886272      -269.0192
  17   2.0000      -9.878917      -268.8190
  18   2.0000      -9.869048      -268.5504
  19   2.0000      -7.691914      -209.3076
  20   2.0000      -7.682276      -209.0454
  21   2.0000      -7.629999      -207.6228
  22   2.0000      -7.627294      -207.5492
  23   2.0000      -6.425681      -174.8517
  24   2.0000      -6.417742      -174.6356
  25   2.0000      -5.719804      -155.6438
  26   2.0000      -5.716277      -155.5478
  27   2.0000      -5.710155      -155.3812
  28   2.0000      -5.709074      -155.3518
  29   2.0000      -5.706995      -155.2952
  30   2.0000      -5.698989      -155.0774
  31   2.0000      -5.658991      -153.9890
  32   2.0000      -5.656057      -153.9091
  33   2.0000      -5.650369      -153.7544
  34   2.0000      -5.650316      -153.7529
  35   2.0000      -5.648035      -153.6909
  36   2.0000      -5.647485      -153.6759
  37   2.0000      -4.648559      -126.4937
  38   2.0000      -4.647471      -126.4641
  39   2.0000      -4.645877      -126.4207
  40   2.0000      -4.640068      -126.2627
  41   2.0000      -4.639399      -126.2445
  42   2.0000      -4.638492      -126.2198
  43   2.0000      -0.991430       -26.9782
  44   2.0000      -0.979504       -26.6537
  45   2.0000      -0.948917       -25.8214
  46   2.0000      -0.937886       -25.5212
  47   2.0000      -0.761779       -20.7291
  48   2.0000      -0.720105       -19.5950
  49   2.0000      -0.707610       -19.2551
  50   2.0000      -0.692744       -18.8505
  51   2.0000      -0.678708       -18.4686
  52   2.0000      -0.672090       -18.2885
  53   2.0000      -0.650213       -17.6932
  54   2.0000      -0.632058       -17.1992
  55   2.0000      -0.598985       -16.2992
  56   2.0000      -0.591064       -16.0837
  57   2.0000      -0.577555       -15.7161
  58   2.0000      -0.561203       -15.2711
  59   2.0000      -0.558979       -15.2106
  60   2.0000      -0.502430       -13.6718
  61   2.0000      -0.489134       -13.3100
  62   2.0000      -0.477117       -12.9830
  63   2.0000      -0.468752       -12.7554
  64   2.0000      -0.451484       -12.2855
  65   2.0000      -0.446918       -12.1613
  66   2.0000      -0.442143       -12.0313
  67   2.0000      -0.431306       -11.7364
  68   2.0000      -0.427849       -11.6424
  69   2.0000      -0.415204       -11.2983
  70   2.0000      -0.405928       -11.0459
  71   2.0000      -0.394216       -10.7272
  72   2.0000      -0.389900       -10.6097
  73   2.0000      -0.384573       -10.4648
  74   2.0000      -0.380496       -10.3538
  75   2.0000      -0.372103       -10.1254
  76   2.0000      -0.366500        -9.9730
  77   2.0000      -0.356844        -9.7102
  78   2.0000      -0.354752        -9.6533
  79   2.0000      -0.350536        -9.5386
  80   2.0000      -0.348214        -9.4754
  81   2.0000      -0.341887        -9.3032
  82   2.0000      -0.338144        -9.2014
  83   2.0000      -0.334322        -9.0974
  84   2.0000      -0.324749        -8.8369
  85   2.0000      -0.317779        -8.6472
  86   2.0000      -0.307093        -8.3564
  87   2.0000      -0.299619        -8.1530
  88   2.0000      -0.294904        -8.0247
  89   2.0000      -0.283192        -7.7060
  90   2.0000      -0.278498        -7.5783
  91   2.0000      -0.274940        -7.4815
  92   2.0000      -0.267640        -7.2828
  93   2.0000      -0.265640        -7.2284
  94   2.0000      -0.257078        -6.9955
  95   2.0000      -0.232556        -6.3282
  96   2.0000      -0.222540        -6.0556
  97   2.0000      -0.210532        -5.7289
  98   2.0000      -0.201119        -5.4727
  99   2.0000      -0.196937        -5.3589
 100   2.0000      -0.188903        -5.1403
 101   0.0000      -0.043167        -1.1746
 102   0.0000      -0.031286        -0.8513
 103   0.0000      -0.009963        -0.2711
 104   0.0000       0.012063         0.3282
 105   0.0000       0.016996         0.4625

MULLIKEN ATOMIC CHARGES
-----------------------
   0 C :   -0.304971
   1 C :   -0.002879
   2 O :   -0.368353
   3 P :    0.627683
   4 S :   -0.321034
   5 O :   -0.374084
   6 C :   -0.011461
   7 C :   -0.312947
   8 S :   -0.104859
   9 C :   -0.349135
  10 S :   -0.107252
  11 P :    0.599497
  12 S :   -0.298624
  13 O :   -0.346644
  14 C :   -0.010492
  15 C :   -0.289996
  16 O :   -0.379534
  17 C :    0.000878
  18 C :   -0.321887
  19 H :    0.122760
  20 H :    0.116347
  21 H :    0.109326
  22 H :    0.102611
  23 H :    0.107961
  24 H :    0.098651
  25 H :    0.120080
  26 H :    0.102605
  27 H :    0.104714
  28 H :    0.147318
  29 H :    0.181467
  30 H :    0.210562
  31 H :    0.102677
  32 H :    0.111342
  33 H :    0.121584
  34 H :    0.110121
  35 H :    0.119581
  36 H :    0.104938
  37 H :    0.114426
  38 H :    0.117565
  39 H :    0.115671
  40 H :    0.133785
Sum of atomic charges:    0.0000000

LOEWDIN ATOMIC CHARGES
----------------------
   0 C :   -0.364408
   1 C :   -0.117620
   2 O :   -0.246721
   3 P :    0.570490
   4 S :   -0.304471
   5 O :   -0.241641
   6 C :   -0.117452
   7 C :   -0.367770
   8 S :    0.076411
   9 C :   -0.478941
  10 S :    0.079380
  11 P :    0.567800
  12 S :   -0.291808
  13 O :   -0.229082
  14 C :   -0.116361
  15 C :   -0.359315
  16 O :   -0.247717
  17 C :   -0.116308
  18 C :   -0.371300
  19 H :    0.123524
  20 H :    0.126317
  21 H :    0.128900
  22 H :    0.117631
  23 H :    0.108871
  24 H :    0.114748
  25 H :    0.108123
  26 H :    0.120140
  27 H :    0.128876
  28 H :    0.122087
  29 H :    0.134805
  30 H :    0.123156
  31 H :    0.102831
  32 H :    0.121050
  33 H :    0.126060
  34 H :    0.129675
  35 H :    0.128636
  36 H :    0.118410
  37 H :    0.114047
  38 H :    0.122889
  39 H :    0.132441
  40 H :    0.123622

  Mayer bond orders larger than 0.100000
B(  0-C ,  1-C ) :   1.1633 B(  0-C , 19-H ) :   0.9376 B(  0-C , 20-H ) :   0.9464
B(  0-C , 21-H ) :   0.9388 B(  1-C ,  2-O ) :   0.9139 B(  1-C , 22-H ) :   0.9352
B(  1-C , 23-H ) :   0.9156 B(  2-O ,  3-P ) :   1.1274 B(  3-P ,  4-S ) :   1.6102
B(  3-P ,  5-O ) :   1.1189 B(  3-P ,  8-S ) :   0.9555 B(  4-S ,  8-S ) :   0.1192
B(  5-O ,  6-C ) :   0.8989 B(  6-C ,  7-C ) :   1.1721 B(  6-C , 24-H ) :   0.9344
B(  6-C , 25-H ) :   0.9044 B(  7-C , 26-H ) :   0.9462 B(  7-C , 27-H ) :   0.9402
B(  7-C , 28-H ) :   0.9240 B(  8-S ,  9-C ) :   0.9919 B(  9-C , 10-S ) :   1.0051
B(  9-C , 29-H ) :   0.9091 B(  9-C , 30-H ) :   0.8483 B( 10-S , 11-P ) :   0.9395
B( 10-S , 12-S ) :   0.1087 B( 11-P , 12-S ) :   1.6490 B( 11-P , 13-O ) :   1.1205
B( 11-P , 16-O ) :   1.0847 B( 13-O , 14-C ) :   0.8906 B( 14-C , 15-C ) :   1.1645
B( 14-C , 31-H ) :   0.9103 B( 14-C , 32-H ) :   0.9345 B( 15-C , 33-H ) :   0.9420
B( 15-C , 34-H ) :   0.9399 B( 15-C , 35-H ) :   0.9475 B( 16-O , 17-C ) :   0.9041
B( 17-C , 18-C ) :   1.1666 B( 17-C , 36-H ) :   0.9341 B( 17-C , 37-H ) :   0.9183
B( 18-C , 38-H ) :   0.9433 B( 18-C , 39-H ) :   0.9368 B( 18-C , 40-H ) :   0.9349

Dispersion correction           -0.066074707
FINAL SINGLE POINT ENERGY     -2929.521588761724

DIPOLE MOMENT
-------------

Method             : SCF
Type of density    : Electron Density
Multiplicity       :   1
Irrep              :   0
Energy             : -2929.6405562549271053 Eh
Relativity type    :
Basis              : AO
                                X                 Y                 Z
Electronic contribution:      3.026542006      -6.401201922      -6.459788148
Nuclear contribution   :     -3.665737200       5.972598533       7.292841885
                        -----------------------------------------
Total Dipole Moment    :     -0.639195195      -0.428603389       0.833053737
                        -----------------------------------------
Magnitude (a.u.)       :      1.134129574
Magnitude (Debye)      :      2.882728282

Rotational constants in cm-1:             0.013766             0.004776             0.004515
Rotational constants in MHz :           412.689162           143.169081           135.367912

                             ****ORCA TERMINATED NORMALLY****
TOTAL RUN TIME: 0 days 0 hours 0 minutes 21 seconds 131 msec
