                         Program Version 6.0.1  -  RELEASE   -
|  1> ! r2scan-3c def2/J RI DEFGRID2 scfconv6 printgap
|  2> %output
|  3>     printlevel normal
|  4> end
|  5> * xyz 0 1
|  6> C 4.0614439219 -0.203195989 -2.3283013962
|  7> C 3.6867357264 -1.6737455457 -2.2393777854
|  8> O 2.4760072946 -1.8321501165 -1.4773393356
|  9> C 2.5664359059 -2.1530251113 -0.1980713819
| 10> O 3.5943101978 -2.4298984223 0.3757176234
| 11> C 1.1943360424 -2.2166280806 0.4526680848
| 12> C 0.3983715456 -0.9575035385 0.135406951
| 13> H 0.2553670428 -0.8643573134 -0.9497313548
| 14> C 1.1444226233 0.2886089413 0.5756657844
| 15> O 2.3500326384 0.3755351721 0.5368321198
| 16> O 0.3275580386 1.2496817992 0.950032594
| 17> C 0.8828635833 2.5178276042 1.3545278731
| 18> C 1.1843492718 2.519046746 2.8433817499
| 19> S -1.2597893304 -1.0326993366 0.8882939989
| 20> P -2.1376860971 0.6018407557 -0.161077527
| 21> S -1.2882829143 1.121768012 -1.8472549168
| 22> O -3.6542554313 0.1080480685 -0.3176522114
| 23> C -3.9987098085 -0.9734875417 -1.1896359741
| 24> O -2.3478841795 1.8079479769 0.835242516
| 25> C -3.0122744174 1.6441451263 2.1039638003
| 26> H 3.267446273 0.3571522534 -2.8156821722
| 27> H 4.2059784491 0.1996770427 -1.3279110193
| 28> H 4.9799982235 -0.0957170242 -2.8952362903
| 29> H 4.4793796344 -2.2511230579 -1.7552990905
| 30> H 3.4584617069 -2.0868888193 -3.2227893864
| 31> H 1.3303010566 -2.3343700568 1.5278339857
| 32> H 0.6667831173 -3.0874604285 0.060964897
| 33> H 1.7874816708 2.6983514405 0.7677396079
| 34> H 0.1113779507 3.2438822166 1.0949585169
| 35> H 0.2888250711 2.2787737778 3.4098234879
| 36> H 1.9562650457 1.7864976474 3.0689633496
| 37> H 1.5377862866 3.5030859069 3.1325085714
| 38> H -3.6561406943 -1.9163537637 -0.7636297862
| 39> H -3.5493280409 -0.8218301663 -2.172351474
| 40> H -5.0831189216 -0.9572533036 -1.2625663482
| 41> H -2.5244921605 0.8581261588 2.6806801338
| 42> H -4.0590431099 1.3933567282 1.9447062359
| 43> H -2.917122268 2.6057266766 2.6016609737
| 44> *
| 45>
| 46>                          ****END OF INPUT****

CARTESIAN COORDINATES (ANGSTROEM)
---------------------------------
  C      4.061444   -0.203196   -2.328301
  C      3.686736   -1.673746   -2.239378
  O      2.476007   -1.832150   -1.477339
  C      2.566436   -2.153025   -0.198071
  O      3.594310   -2.429898    0.375718
  C      1.194336   -2.216628    0.452668
  C      0.398372   -0.957504    0.135407
  H      0.255367   -0.864357   -0.949731
  C      1.144423    0.288609    0.575666
  O      2.350033    0.375535    0.536832
  O      0.327558    1.249682    0.950033
  C      0.882864    2.517828    1.354528
  C      1.184349    2.519047    2.843382
  S     -1.259789   -1.032699    0.888294
  P     -2.137686    0.601841   -0.161078
  S     -1.288283    1.121768   -1.847255
  O     -3.654255    0.108048   -0.317652
  C     -3.998710   -0.973488   -1.189636
  O     -2.347884    1.807948    0.835243
  C     -3.012274    1.644145    2.103964
  H      3.267446    0.357152   -2.815682
  H      4.205978    0.199677   -1.327911
  H      4.979998   -0.095717   -2.895236
  H      4.479380   -2.251123   -1.755299
  H      3.458462   -2.086889   -3.222789
  H      1.330301   -2.334370    1.527834
  H      0.666783   -3.087460    0.060965
  H      1.787482    2.698351    0.767740
  H      0.111378    3.243882    1.094959
  H      0.288825    2.278774    3.409823
  H      1.956265    1.786498    3.068963
  H      1.537786    3.503086    3.132509
  H     -3.656141   -1.916354   -0.763630
  H     -3.549328   -0.821830   -2.172351
  H     -5.083119   -0.957253   -1.262566
  H     -2.524492    0.858126    2.680680
  H     -4.059043    1.393357    1.944706
  H     -2.917122    2.605727    2.601661

 Total Charge           Charge          ....    0
 Multiplicity           Mult            ....    1
 Number of Electrons    NEL             ....  174
 Basis Dimension        Dim             ....  510

ORBITAL ENERGIES
----------------

  NO   OCC          E(Eh)            E(eV)
   0   2.0000     -88.580643     -2410.4018
   1   2.0000     -88.522992     -2408.8331
   2   2.0000     -76.919212     -2093.0782
   3   2.0000     -19.009039      -517.2622
   4   2.0000     -19.000445      -517.0284
   5   2.0000     -18.995911      -516.9050
   6   2.0000     -18.992962      -516.8248
   7   2.0000     -18.944975      -515.5190
   8   2.0000     -18.922701      -514.9129
   9   2.0000     -10.168517      -276.6994
  10   2.0000     -10.154228      -276.3106
  11   2.0000     -10.104589      -274.9598
  12   2.0000     -10.097828      -274.7759
  13   2.0000     -10.097117      -274.7565
  14   2.0000     -10.095443      -274.7110
  15   2.0000     -10.084289      -274.4075
  16   2.0000     -10.061006      -273.7739
  17   2.0000     -10.035734      -273.0862
  18   2.0000     -10.017751      -272.5969
  19   2.0000      -7.874863      -214.2859
  20   2.0000      -7.817662      -212.7294
  21   2.0000      -6.597437      -179.5254
  22   2.0000      -5.821650      -158.4151
  23   2.0000      -5.818811      -158.3379
  24   2.0000      -5.812012      -158.1529
  25   2.0000      -5.765551      -156.8886
  26   2.0000      -5.757908      -156.6806
  27   2.0000      -5.757475      -156.6688
  28   2.0000      -4.743184      -129.0686
  29   2.0000      -4.742496      -129.0499
  30   2.0000      -4.740881      -129.0059
  31   2.0000      -1.088852       -29.6292
  32   2.0000      -1.068766       -29.0826
  33   2.0000      -1.056735       -28.7552
  34   2.0000      -1.014242       -27.5989
  35   2.0000      -0.994836       -27.0709
  36   2.0000      -0.973094       -26.4792
  37   2.0000      -0.814866       -22.1736
  38   2.0000      -0.754533       -20.5319
  39   2.0000      -0.745378       -20.2828
  40   2.0000      -0.731365       -19.9014
  41   2.0000      -0.699213       -19.0266
  42   2.0000      -0.681384       -18.5414
  43   2.0000      -0.663007       -18.0413
  44   2.0000      -0.653814       -17.7912
  45   2.0000      -0.622011       -16.9258
  46   2.0000      -0.603747       -16.4288
  47   2.0000      -0.546927       -14.8827
  48   2.0000      -0.530840       -14.4449
  49   2.0000      -0.522386       -14.2148
  50   2.0000      -0.503303       -13.6956
  51   2.0000      -0.498784       -13.5726
  52   2.0000      -0.487333       -13.2610
  53   2.0000      -0.466172       -12.6852
  54   2.0000      -0.459254       -12.4969
  55   2.0000      -0.456104       -12.4112
  56   2.0000      -0.449479       -12.2309
  57   2.0000      -0.442263       -12.0346
  58   2.0000      -0.436421       -11.8756
  59   2.0000      -0.427478       -11.6323
  60   2.0000      -0.424507       -11.5514
  61   2.0000      -0.420955       -11.4548
  62   2.0000      -0.417489       -11.3605
  63   2.0000      -0.398667       -10.8483
  64   2.0000      -0.388582       -10.5738
  65   2.0000      -0.386886       -10.5277
  66   2.0000      -0.375357       -10.2140
  67   2.0000      -0.368999       -10.0410
  68   2.0000      -0.361278        -9.8309
  69   2.0000      -0.357407        -9.7255
  70   2.0000      -0.348431        -9.4813
  71   2.0000      -0.344311        -9.3692
  72   2.0000      -0.334757        -9.1092
  73   2.0000      -0.332719        -9.0537
  74   2.0000      -0.327597        -8.9144
  75   2.0000      -0.319959        -8.7065
  76   2.0000      -0.314453        -8.5567
  77   2.0000      -0.300646        -8.1810
  78   2.0000      -0.292879        -7.9696
  79   2.0000      -0.288443        -7.8489
  80   2.0000      -0.281685        -7.6650
  81   2.0000      -0.266879        -7.2621
  82   2.0000      -0.264371        -7.1939
  83   2.0000      -0.233688        -6.3590
  84   2.0000      -0.231008        -6.2861
  85   2.0000      -0.222549        -6.0559
  86   2.0000      -0.218391        -5.9427
  87   0.0000      -0.048755        -1.3267
  88   0.0000      -0.031580        -0.8593
  89   0.0000      -0.009268        -0.2522
  90   0.0000       0.002953         0.0804
  91   0.0000       0.014500         0.3946

MULLIKEN ATOMIC CHARGES
-----------------------
   0 C :   -0.467054
   1 C :   -0.151011
   2 O :   -0.140087
   3 C :    0.352153
   4 O :   -0.393319
   5 C :   -0.460437
   6 C :    0.031391
   7 H :    0.256427
   8 C :    0.265945
   9 O :   -0.388791
  10 O :   -0.112247
  11 C :   -0.161243
  12 C :   -0.466467
  13 S :   -0.221309
  14 P :    0.779611
  15 S :   -0.449496
  16 O :   -0.352702
  17 C :   -0.294029
  18 O :   -0.315205
  19 C :   -0.293227
  20 H :    0.151876
  21 H :    0.184263
  22 H :    0.142348
  23 H :    0.178360
  24 H :    0.144322
  25 H :    0.191435
  26 H :    0.185548
  27 H :    0.172309
  28 H :    0.171085
  29 H :    0.149859
  30 H :    0.172922
  31 H :    0.153130
  32 H :    0.158513
  33 H :    0.174916
  34 H :    0.152503
  35 H :    0.169885
  36 H :    0.170435
  37 H :    0.157388
Sum of atomic charges:    0.0000000

LOEWDIN ATOMIC CHARGES
----------------------
   0 C :   -0.389123
   1 C :    0.032397
   2 O :   -0.597049
   3 C :    0.359213
   4 O :   -0.414456
   5 C :   -0.201662
   6 C :   -0.205181
   7 H :    0.222648
   8 C :    0.366175
   9 O :   -0.408780
  10 O :   -0.624848
  11 C :    0.036075
  12 C :   -0.384930
  13 S :    0.192920
  14 P :    0.401127
  15 S :   -0.087789
  16 O :   -0.685345
  17 C :   -0.059445
  18 O :   -0.649692
  19 C :   -0.052115
  20 H :    0.158612
  21 H :    0.173688
  22 H :    0.156304
  23 H :    0.192332
  24 H :    0.176199
  25 H :    0.189994
  26 H :    0.188861
  27 H :    0.191987
  28 H :    0.187069
  29 H :    0.156129
  30 H :    0.165633
  31 H :    0.161020
  32 H :    0.169053
  33 H :    0.176851
  34 H :    0.177425
  35 H :    0.173399
  36 H :    0.175463
  37 H :    0.179839

  Mayer bond orders larger than 0.100000
B(  0-C ,  1-C ) :   0.9390 B(  0-C , 20-H ) :   0.9696 B(  0-C , 21-H ) :   0.9671
B(  0-C , 22-H ) :   0.9665 B(  1-C ,  2-O ) :   0.7942 B(  1-C , 23-H ) :   0.9723
B(  1-C , 24-H ) :   0.9597 B(  2-O ,  3-C ) :   1.0779 B(  2-O ,  6-C ) :   0.1150
B(  3-C ,  4-O ) :   1.9008 B(  3-C ,  5-C ) :   0.9097 B(  5-C ,  6-C ) :   0.8609
B(  5-C , 25-H ) :   1.0105 B(  5-C , 26-H ) :   0.9424 B(  6-C ,  7-H ) :   0.8855
B(  6-C ,  8-C ) :   0.9463 B(  6-C , 13-S ) :   0.8340 B(  8-C ,  9-O ) :   1.7859
B(  8-C , 10-O ) :   1.1837 B( 10-O , 11-C ) :   0.7588 B( 11-C , 12-C ) :   0.9197
B( 11-C , 27-H ) :   0.9585 B( 11-C , 28-H ) :   0.9610 B( 12-C , 29-H ) :   0.9786
B( 12-C , 30-H ) :   0.9704 B( 12-C , 31-H ) :   0.9673 B( 13-S , 14-P ) :   0.9928
B( 14-P , 15-S ) :   1.8070 B( 14-P , 16-O ) :   1.0327 B( 14-P , 18-O ) :   1.1463
B( 16-O , 17-C ) :   0.8301 B( 17-C , 32-H ) :   0.9561 B( 17-C , 33-H ) :   0.9592
B( 17-C , 34-H ) :   0.9673 B( 18-O , 19-C ) :   0.7911 B( 19-C , 35-H ) :   0.9569
B( 19-C , 36-H ) :   0.9596 B( 19-C , 37-H ) :   0.9654

Dispersion correction           -0.017611468
FINAL SINGLE POINT ENERGY     -1981.452923562253

DIPOLE MOMENT
-------------

Method             : SCF
Type of density    : Electron Density
Multiplicity       :   1
Irrep              :   0
Energy             : -1981.4728984053299428 Eh
Relativity type    :
Basis              : AO
                                X                 Y                 Z
Electronic contribution:     -9.545984705      -3.446407937      -2.518940534
Nuclear contribution   :      8.156546012       3.679470800       3.116505968
                        -----------------------------------------
Total Dipole Moment    :     -1.389438693       0.233062863       0.597565434
                        -----------------------------------------
Magnitude (a.u.)       :      1.530340690
Magnitude (Debye)      :      3.889816906

Rotational constants in cm-1:             0.014369             0.006672             0.005832
Rotational constants in MHz :           430.783357           200.007556           174.829706

                             ****ORCA TERMINATED NORMALLY****
TOTAL RUN TIME: 0 days 0 hours 1 minutes 22 seconds 318 msec
