                         Program Version 6.0.1  -  RELEASE   -
|  1> ! r2scan-3c def2/J RI DEFGRID2 scfconv6 printgap
|  2> %output
|  3>     printlevel normal
|  4> end
|  5> %cpcm
|  6>     smd true
|  7>     smdsolvent "water"
|  8> end
|  9> * xyz 0 1
| 10> C 4.0614439219 -0.203195989 -2.3283013962
| 11> C 3.6867357264 -1.6737455457 -2.2393777854
| 12> O 2.4760072946 -1.8321501165 -1.4773393356
| 13> C 2.5664359059 -2.1530251113 -0.1980713819
| 14> O 3.5943101978 -2.4298984223 0.3757176234
| 15> C 1.1943360424 -2.2166280806 0.4526680848
| 16> C 0.3983715456 -0.9575035385 0.135406951
| 17> H 0.2553670428 -0.8643573134 -0.9497313548
| 18> C 1.1444226233 0.2886089413 0.5756657844
| 19> O 2.3500326384 0.3755351721 0.5368321198
| 20> O 0.3275580386 1.2496817992 0.950032594
| 21> C 0.8828635833 2.5178276042 1.3545278731
| 22> C 1.1843492718 2.519046746 2.8433817499
| 23> S -1.2597893304 -1.0326993366 0.8882939989
| 24> P -2.1376860971 0.6018407557 -0.161077527
| 25> S -1.2882829143 1.121768012 -1.8472549168
| 26> O -3.6542554313 0.1080480685 -0.3176522114
| 27> C -3.9987098085 -0.9734875417 -1.1896359741
| 28> O -2.3478841795 1.8079479769 0.835242516
| 29> C -3.0122744174 1.6441451263 2.1039638003
| 30> H 3.267446273 0.3571522534 -2.8156821722
| 31> H 4.2059784491 0.1996770427 -1.3279110193
| 32> H 4.9799982235 -0.0957170242 -2.8952362903
| 33> H 4.4793796344 -2.2511230579 -1.7552990905
| 34> H 3.4584617069 -2.0868888193 -3.2227893864
| 35> H 1.3303010566 -2.3343700568 1.5278339857
| 36> H 0.6667831173 -3.0874604285 0.060964897
| 37> H 1.7874816708 2.6983514405 0.7677396079
| 38> H 0.1113779507 3.2438822166 1.0949585169
| 39> H 0.2888250711 2.2787737778 3.4098234879
| 40> H 1.9562650457 1.7864976474 3.0689633496
| 41> H 1.5377862866 3.5030859069 3.1325085714
| 42> H -3.6561406943 -1.9163537637 -0.7636297862
| 43> H -3.5493280409 -0.8218301663 -2.172351474
| 44> H -5.0831189216 -0.9572533036 -1.2625663482
| 45> H -2.5244921605 0.8581261588 2.6806801338
| 46> H -4.0590431099 1.3933567282 1.9447062359
| 47> H -2.917122268 2.6057266766 2.6016609737
| 48> *
| 49>
| 50>                          ****END OF INPUT****

CARTESIAN COORDINATES (ANGSTROEM)
---------------------------------
  C      4.061444   -0.203196   -2.328301
  C      3.686736   -1.673746   -2.239378
  O      2.476007   -1.832150   -1.477339
  C      2.566436   -2.153025   -0.198071
  O      3.594310   -2.429898    0.375718
  C      1.194336   -2.216628    0.452668
  C      0.398372   -0.957504    0.135407
  H      0.255367   -0.864357   -0.949731
  C      1.144423    0.288609    0.575666
  O      2.350033    0.375535    0.536832
  O      0.327558    1.249682    0.950033
  C      0.882864    2.517828    1.354528
  C      1.184349    2.519047    2.843382
  S     -1.259789   -1.032699    0.888294
  P     -2.137686    0.601841   -0.161078
  S     -1.288283    1.121768   -1.847255
  O     -3.654255    0.108048   -0.317652
  C     -3.998710   -0.973488   -1.189636
  O     -2.347884    1.807948    0.835243
  C     -3.012274    1.644145    2.103964
  H      3.267446    0.357152   -2.815682
  H      4.205978    0.199677   -1.327911
  H      4.979998   -0.095717   -2.895236
  H      4.479380   -2.251123   -1.755299
  H      3.458462   -2.086889   -3.222789
  H      1.330301   -2.334370    1.527834
  H      0.666783   -3.087460    0.060965
  H      1.787482    2.698351    0.767740
  H      0.111378    3.243882    1.094959
  H      0.288825    2.278774    3.409823
  H      1.956265    1.786498    3.068963
  H      1.537786    3.503086    3.132509
  H     -3.656141   -1.916354   -0.763630
  H     -3.549328   -0.821830   -2.172351
  H     -5.083119   -0.957253   -1.262566
  H     -2.524492    0.858126    2.680680
  H     -4.059043    1.393357    1.944706
  H     -2.917122    2.605727    2.601661

 Total Charge           Charge          ....    0
 Multiplicity           Mult            ....    1
 Number of Electrons    NEL             ....  174
 Basis Dimension        Dim             ....  510

ORBITAL ENERGIES
----------------

  NO   OCC          E(Eh)            E(eV)
   0   2.0000     -88.580886     -2410.4084
   1   2.0000     -88.530007     -2409.0240
   2   2.0000     -76.921558     -2093.1420
   3   2.0000     -19.011629      -517.3327
   4   2.0000     -19.005054      -517.1538
   5   2.0000     -18.998059      -516.9635
   6   2.0000     -18.994483      -516.8662
   7   2.0000     -18.955959      -515.8179
   8   2.0000     -18.945939      -515.5452
   9   2.0000     -10.176502      -276.9167
  10   2.0000     -10.171852      -276.7902
  11   2.0000     -10.098290      -274.7884
  12   2.0000     -10.088388      -274.5190
  13   2.0000     -10.085414      -274.4381
  14   2.0000     -10.084280      -274.4072
  15   2.0000     -10.081597      -274.3342
  16   2.0000     -10.058683      -273.7107
  17   2.0000     -10.020712      -272.6774
  18   2.0000     -10.018044      -272.6048
  19   2.0000      -7.875015      -214.2901
  20   2.0000      -7.825034      -212.9300
  21   2.0000      -6.599832      -179.5906
  22   2.0000      -5.821869      -158.4211
  23   2.0000      -5.819038      -158.3441
  24   2.0000      -5.812029      -158.1534
  25   2.0000      -5.772788      -157.0856
  26   2.0000      -5.765333      -156.8827
  27   2.0000      -5.764861      -156.8698
  28   2.0000      -4.745517      -129.1321
  29   2.0000      -4.744850      -129.1139
  30   2.0000      -4.743421      -129.0750
  31   2.0000      -1.093314       -29.7506
  32   2.0000      -1.082904       -29.4673
  33   2.0000      -1.054508       -28.6946
  34   2.0000      -1.011482       -27.5238
  35   2.0000      -1.003805       -27.3149
  36   2.0000      -0.994291       -27.0560
  37   2.0000      -0.815519       -22.1914
  38   2.0000      -0.753689       -20.5089
  39   2.0000      -0.739961       -20.1354
  40   2.0000      -0.729931       -19.8624
  41   2.0000      -0.696687       -18.9578
  42   2.0000      -0.670657       -18.2495
  43   2.0000      -0.660744       -17.9797
  44   2.0000      -0.651425       -17.7262
  45   2.0000      -0.623430       -16.9644
  46   2.0000      -0.601951       -16.3799
  47   2.0000      -0.541952       -14.7473
  48   2.0000      -0.528292       -14.3756
  49   2.0000      -0.524804       -14.2806
  50   2.0000      -0.503868       -13.7109
  51   2.0000      -0.493006       -13.4154
  52   2.0000      -0.489608       -13.3229
  53   2.0000      -0.469233       -12.7685
  54   2.0000      -0.461149       -12.5485
  55   2.0000      -0.457446       -12.4477
  56   2.0000      -0.450066       -12.2469
  57   2.0000      -0.448010       -12.1910
  58   2.0000      -0.438625       -11.9356
  59   2.0000      -0.427477       -11.6322
  60   2.0000      -0.418290       -11.3823
  61   2.0000      -0.415490       -11.3061
  62   2.0000      -0.410989       -11.1836
  63   2.0000      -0.400375       -10.8948
  64   2.0000      -0.387006       -10.5310
  65   2.0000      -0.381858       -10.3909
  66   2.0000      -0.375358       -10.2140
  67   2.0000      -0.368068       -10.0157
  68   2.0000      -0.359245        -9.7755
  69   2.0000      -0.355814        -9.6822
  70   2.0000      -0.348454        -9.4819
  71   2.0000      -0.343426        -9.3451
  72   2.0000      -0.338499        -9.2110
  73   2.0000      -0.333552        -9.0764
  74   2.0000      -0.320936        -8.7331
  75   2.0000      -0.316478        -8.6118
  76   2.0000      -0.309563        -8.4236
  77   2.0000      -0.304390        -8.2829
  78   2.0000      -0.291917        -7.9435
  79   2.0000      -0.287801        -7.8315
  80   2.0000      -0.281829        -7.6690
  81   2.0000      -0.278430        -7.5765
  82   2.0000      -0.273198        -7.4341
  83   2.0000      -0.255289        -6.9468
  84   2.0000      -0.237611        -6.4657
  85   2.0000      -0.230318        -6.2673
  86   2.0000      -0.225230        -6.1288
  87   0.0000      -0.051760        -1.4084
  88   0.0000      -0.037364        -1.0167
  89   0.0000      -0.021097        -0.5741
  90   0.0000       0.002639         0.0718
  91   0.0000       0.012722         0.3462

MULLIKEN ATOMIC CHARGES
-----------------------
   0 C :   -0.504272
   1 C :   -0.141329
   2 O :   -0.157012
   3 C :    0.373524
   4 O :   -0.480804
   5 C :   -0.477823
   6 C :    0.040902
   7 H :    0.265224
   8 C :    0.286757
   9 O :   -0.446194
  10 O :   -0.121677
  11 C :   -0.157657
  12 C :   -0.497819
  13 S :   -0.208437
  14 P :    0.800315
  15 S :   -0.508534
  16 O :   -0.378235
  17 C :   -0.305096
  18 O :   -0.349629
  19 C :   -0.297369
  20 H :    0.168827
  21 H :    0.171931
  22 H :    0.170010
  23 H :    0.180128
  24 H :    0.173785
  25 H :    0.213940
  26 H :    0.225031
  27 H :    0.178889
  28 H :    0.183776
  29 H :    0.169998
  30 H :    0.171717
  31 H :    0.175254
  32 H :    0.175227
  33 H :    0.176662
  34 H :    0.179703
  35 H :    0.180585
  36 H :    0.184740
  37 H :    0.184960
Sum of atomic charges:    0.0000000

LOEWDIN ATOMIC CHARGES
----------------------
   0 C :   -0.392461
   1 C :    0.038013
   2 O :   -0.596176
   3 C :    0.366321
   4 O :   -0.477719
   5 C :   -0.195859
   6 C :   -0.201588
   7 H :    0.224858
   8 C :    0.372158
   9 O :   -0.452101
  10 O :   -0.624199
  11 C :    0.040675
  12 C :   -0.386478
  13 S :    0.210906
  14 P :    0.403945
  15 S :   -0.132198
  16 O :   -0.694624
  17 C :   -0.055095
  18 O :   -0.667107
  19 C :   -0.042791
  20 H :    0.162410
  21 H :    0.166386
  22 H :    0.167053
  23 H :    0.192979
  24 H :    0.189108
  25 H :    0.198278
  26 H :    0.205623
  27 H :    0.193763
  28 H :    0.193420
  29 H :    0.163407
  30 H :    0.163774
  31 H :    0.169472
  32 H :    0.176170
  33 H :    0.177435
  34 H :    0.188840
  35 H :    0.179525
  36 H :    0.181980
  37 H :    0.191897

  Mayer bond orders larger than 0.100000
B(  0-C ,  1-C ) :   0.9234 B(  0-C , 20-H ) :   0.9689 B(  0-C , 21-H ) :   0.9692
B(  0-C , 22-H ) :   0.9600 B(  1-C ,  2-O ) :   0.7815 B(  1-C , 23-H ) :   0.9680
B(  1-C , 24-H ) :   0.9501 B(  2-O ,  3-C ) :   1.0950 B(  2-O ,  6-C ) :   0.1035
B(  3-C ,  4-O ) :   1.8305 B(  3-C ,  5-C ) :   0.9172 B(  5-C ,  6-C ) :   0.8413
B(  5-C , 25-H ) :   1.0081 B(  5-C , 26-H ) :   0.9234 B(  6-C ,  7-H ) :   0.8858
B(  6-C ,  8-C ) :   0.9434 B(  6-C , 13-S ) :   0.8305 B(  8-C ,  9-O ) :   1.7420
B(  8-C , 10-O ) :   1.2064 B( 10-O , 11-C ) :   0.7458 B( 11-C , 12-C ) :   0.9187
B( 11-C , 27-H ) :   0.9537 B( 11-C , 28-H ) :   0.9520 B( 12-C , 29-H ) :   0.9728
B( 12-C , 30-H ) :   0.9693 B( 12-C , 31-H ) :   0.9612 B( 13-S , 14-P ) :   1.0057
B( 14-P , 15-S ) :   1.7756 B( 14-P , 16-O ) :   1.0405 B( 14-P , 18-O ) :   1.1551
B( 16-O , 17-C ) :   0.8223 B( 17-C , 32-H ) :   0.9498 B( 17-C , 33-H ) :   0.9557
B( 17-C , 34-H ) :   0.9574 B( 18-O , 19-C ) :   0.7834 B( 19-C , 35-H ) :   0.9483
B( 19-C , 36-H ) :   0.9517 B( 19-C , 37-H ) :   0.9543

Dispersion correction           -0.017611468
FINAL SINGLE POINT ENERGY     -1981.467396438104

DIPOLE MOMENT
-------------

Method             : SCF
Type of density    : Electron Density
Multiplicity       :   1
Irrep              :   0
Energy             : -1981.4873712811809128 Eh
Relativity type    :
Basis              : AO
                                X                 Y                 Z
Electronic contribution:    -10.212708495      -3.642829821      -2.315331093
Nuclear contribution   :      8.156546012       3.679470800       3.116505968
                        -----------------------------------------
Total Dipole Moment    :     -2.056162484       0.036640979       0.801174875
                        -----------------------------------------
Magnitude (a.u.)       :      2.207040530
Magnitude (Debye)      :      5.609851205

Rotational constants in cm-1:             0.014369             0.006672             0.005832
Rotational constants in MHz :           430.783357           200.007556           174.829706

                             ****ORCA TERMINATED NORMALLY****
TOTAL RUN TIME: 0 days 0 hours 1 minutes 54 seconds 352 msec
