                         Program Version 6.0.1  -  RELEASE   -
|  1> ! r2scan-3c def2/J RI DEFGRID2 scfconv6 printgap
|  2> %output
|  3>     printlevel normal
|  4> end
|  5> * xyz 0 1
|  6> C 2.1235345832 -3.2395539963 -2.8324469187
|  7> C 3.0891792465 -3.0535858364 -1.6727468388
|  8> O 2.8894746265 -1.7663209343 -1.05735171
|  9> C 2.0410890235 -1.672322546 -0.0550335721
| 10> O 1.4585288145 -2.6053767186 0.4511729157
| 11> C 1.8509644399 -0.2277477217 0.3705367455
| 12> C 0.9868287458 0.475060775 -0.6777396619
| 13> H 1.5519979694 0.5945029298 -1.6072489976
| 14> C 0.4938337465 1.8421669007 -0.2327852986
| 15> O -0.6265483913 2.2438132543 -0.4796910795
| 16> O 1.4143264164 2.5157478696 0.3958767804
| 17> C 1.0643847234 3.8216047408 0.9035600654
| 18> C 2.3369028836 4.4945749238 1.3758755953
| 19> S -0.4731075854 -0.5061743985 -1.165253061
| 20> P -1.7926370636 -0.0600293261 0.4391772609
| 21> S -1.0919490442 0.6252229273 2.1341008754
| 22> O -2.9938809069 0.7984306512 -0.1156641515
| 23> C -3.6881930938 0.478074384 -1.3367678406
| 24> O -2.5251475738 -1.4802477247 0.6029518694
| 25> C -1.8733733488 -2.5776933219 1.2499378762
| 26> H 2.2964024493 -4.2065285268 -3.2927651393
| 27> H 1.0969115632 -3.1930420393 -2.4753960872
| 28> H 2.2698942732 -2.4582661026 -3.5725951561
| 29> H 4.1247252225 -3.0423203988 -2.0131026658
| 30> H 2.9443074311 -3.8288682803 -0.9153925954
| 31> H 2.8145360557 0.2765657825 0.4287516849
| 32> H 1.3607494552 -0.2096264096 1.3454748634
| 33> H 0.571079659 4.3824456654 0.1040123776
| 34> H 0.3489795348 3.6779477457 1.7197273361
| 35> H 2.094337721 5.47509859 1.7712963882
| 36> H 2.8030273984 3.9001740302 2.1555126847
| 37> H 3.0323105174 4.602796625 0.5489920271
| 38> H -2.9917293229 0.5034508715 -2.1748408095
| 39> H -4.4422473767 1.2536982426 -1.4416179052
| 40> H -4.1470747748 -0.5058085285 -1.2559565143
| 41> H -0.9327760629 -2.8205421388 0.7530760768
| 42> H -2.5684437709 -3.4099695768 1.1832054361
| 43> H -1.6727068118 -2.3261331422 2.2920312636
| 44> *
| 45>
| 46>                          ****END OF INPUT****

CARTESIAN COORDINATES (ANGSTROEM)
---------------------------------
  C      2.123535   -3.239554   -2.832447
  C      3.089179   -3.053586   -1.672747
  O      2.889475   -1.766321   -1.057352
  C      2.041089   -1.672323   -0.055034
  O      1.458529   -2.605377    0.451173
  C      1.850964   -0.227748    0.370537
  C      0.986829    0.475061   -0.677740
  H      1.551998    0.594503   -1.607249
  C      0.493834    1.842167   -0.232785
  O     -0.626548    2.243813   -0.479691
  O      1.414326    2.515748    0.395877
  C      1.064385    3.821605    0.903560
  C      2.336903    4.494575    1.375876
  S     -0.473108   -0.506174   -1.165253
  P     -1.792637   -0.060029    0.439177
  S     -1.091949    0.625223    2.134101
  O     -2.993881    0.798431   -0.115664
  C     -3.688193    0.478074   -1.336768
  O     -2.525148   -1.480248    0.602952
  C     -1.873373   -2.577693    1.249938
  H      2.296402   -4.206529   -3.292765
  H      1.096912   -3.193042   -2.475396
  H      2.269894   -2.458266   -3.572595
  H      4.124725   -3.042320   -2.013103
  H      2.944307   -3.828868   -0.915393
  H      2.814536    0.276566    0.428752
  H      1.360749   -0.209626    1.345475
  H      0.571080    4.382446    0.104012
  H      0.348980    3.677948    1.719727
  H      2.094338    5.475099    1.771296
  H      2.803027    3.900174    2.155513
  H      3.032311    4.602797    0.548992
  H     -2.991729    0.503451   -2.174841
  H     -4.442247    1.253698   -1.441618
  H     -4.147075   -0.505809   -1.255957
  H     -0.932776   -2.820542    0.753076
  H     -2.568444   -3.409970    1.183205
  H     -1.672707   -2.326133    2.292031

 Total Charge           Charge          ....    0
 Multiplicity           Mult            ....    1
 Number of Electrons    NEL             ....  174
 Basis Dimension        Dim             ....  510

ORBITAL ENERGIES
----------------

  NO   OCC          E(Eh)            E(eV)
   0   2.0000     -88.570576     -2410.1279
   1   2.0000     -88.510529     -2408.4939
   2   2.0000     -76.907371     -2092.7559
   3   2.0000     -19.011927      -517.3408
   4   2.0000     -19.006652      -517.1973
   5   2.0000     -18.982394      -516.5372
   6   2.0000     -18.977726      -516.4102
   7   2.0000     -18.935508      -515.2614
   8   2.0000     -18.934554      -515.2354
   9   2.0000     -10.167350      -276.6677
  10   2.0000     -10.160549      -276.4826
  11   2.0000     -10.102673      -274.9077
  12   2.0000     -10.097609      -274.7699
  13   2.0000     -10.097113      -274.7564
  14   2.0000     -10.088347      -274.5179
  15   2.0000     -10.072417      -274.0844
  16   2.0000     -10.052206      -273.5344
  17   2.0000     -10.035847      -273.0893
  18   2.0000     -10.034286      -273.0468
  19   2.0000      -7.865196      -214.0229
  20   2.0000      -7.805639      -212.4022
  21   2.0000      -6.585312      -179.1955
  22   2.0000      -5.812273      -158.1600
  23   2.0000      -5.809071      -158.0729
  24   2.0000      -5.802009      -157.8807
  25   2.0000      -5.753583      -156.5630
  26   2.0000      -5.746017      -156.3571
  27   2.0000      -5.745190      -156.3346
  28   2.0000      -4.730919      -128.7348
  29   2.0000      -4.730474      -128.7227
  30   2.0000      -4.728882      -128.6794
  31   2.0000      -1.090039       -29.6615
  32   2.0000      -1.082546       -29.4576
  33   2.0000      -1.038766       -28.2663
  34   2.0000      -0.996057       -27.1041
  35   2.0000      -0.988528       -26.8992
  36   2.0000      -0.984634       -26.7932
  37   2.0000      -0.812196       -22.1010
  38   2.0000      -0.757141       -20.6029
  39   2.0000      -0.750984       -20.4353
  40   2.0000      -0.724281       -19.7087
  41   2.0000      -0.693546       -18.8723
  42   2.0000      -0.663665       -18.0592
  43   2.0000      -0.656847       -17.8737
  44   2.0000      -0.649044       -17.6614
  45   2.0000      -0.627272       -17.0689
  46   2.0000      -0.598118       -16.2756
  47   2.0000      -0.544396       -14.8138
  48   2.0000      -0.533203       -14.5092
  49   2.0000      -0.525527       -14.3003
  50   2.0000      -0.502339       -13.6693
  51   2.0000      -0.482427       -13.1275
  52   2.0000      -0.477191       -12.9850
  53   2.0000      -0.471850       -12.8397
  54   2.0000      -0.464004       -12.6262
  55   2.0000      -0.450570       -12.2606
  56   2.0000      -0.440576       -11.9887
  57   2.0000      -0.440110       -11.9760
  58   2.0000      -0.434070       -11.8116
  59   2.0000      -0.425850       -11.5880
  60   2.0000      -0.417478       -11.3602
  61   2.0000      -0.411144       -11.1878
  62   2.0000      -0.407387       -11.0856
  63   2.0000      -0.397285       -10.8107
  64   2.0000      -0.391786       -10.6610
  65   2.0000      -0.383208       -10.4276
  66   2.0000      -0.378592       -10.3020
  67   2.0000      -0.376727       -10.2513
  68   2.0000      -0.360766        -9.8169
  69   2.0000      -0.351543        -9.5660
  70   2.0000      -0.349978        -9.5234
  71   2.0000      -0.345245        -9.3946
  72   2.0000      -0.337347        -9.1797
  73   2.0000      -0.325556        -8.8588
  74   2.0000      -0.324434        -8.8283
  75   2.0000      -0.314490        -8.5577
  76   2.0000      -0.309238        -8.4148
  77   2.0000      -0.303503        -8.2587
  78   2.0000      -0.284645        -7.7456
  79   2.0000      -0.280478        -7.6322
  80   2.0000      -0.277465        -7.5502
  81   2.0000      -0.265119        -7.2142
  82   2.0000      -0.255402        -6.9498
  83   2.0000      -0.237491        -6.4625
  84   2.0000      -0.229237        -6.2379
  85   2.0000      -0.210290        -5.7223
  86   2.0000      -0.205530        -5.5928
  87   0.0000      -0.044648        -1.2149
  88   0.0000      -0.031368        -0.8536
  89   0.0000      -0.014397        -0.3918
  90   0.0000       0.005803         0.1579
  91   0.0000       0.022891         0.6229

MULLIKEN ATOMIC CHARGES
-----------------------
   0 C :   -0.475977
   1 C :   -0.130052
   2 O :   -0.166606
   3 C :    0.395873
   4 O :   -0.395251
   5 C :   -0.474978
   6 C :    0.059491
   7 H :    0.196729
   8 C :    0.230994
   9 O :   -0.381528
  10 O :   -0.122507
  11 C :   -0.155922
  12 C :   -0.444997
  13 S :   -0.186891
  14 P :    0.794847
  15 S :   -0.461069
  16 O :   -0.299166
  17 C :   -0.301608
  18 O :   -0.359519
  19 C :   -0.301738
  20 H :    0.149323
  21 H :    0.175269
  22 H :    0.153199
  23 H :    0.149308
  24 H :    0.174259
  25 H :    0.174881
  26 H :    0.219715
  27 H :    0.163844
  28 H :    0.174297
  29 H :    0.150954
  30 H :    0.155848
  31 H :    0.151453
  32 H :    0.168058
  33 H :    0.155607
  34 H :    0.167452
  35 H :    0.184651
  36 H :    0.142733
  37 H :    0.169023
Sum of atomic charges:    0.0000000

LOEWDIN ATOMIC CHARGES
----------------------
   0 C :   -0.390190
   1 C :    0.030292
   2 O :   -0.590326
   3 C :    0.339218
   4 O :   -0.442218
   5 C :   -0.209599
   6 C :   -0.189575
   7 H :    0.204143
   8 C :    0.334096
   9 O :   -0.451485
  10 O :   -0.575887
  11 C :    0.039613
  12 C :   -0.384637
  13 S :    0.222913
  14 P :    0.417298
  15 S :   -0.070569
  16 O :   -0.639547
  17 C :   -0.051169
  18 O :   -0.689181
  19 C :   -0.061983
  20 H :    0.160013
  21 H :    0.166314
  22 H :    0.156808
  23 H :    0.178225
  24 H :    0.191001
  25 H :    0.189666
  26 H :    0.200571
  27 H :    0.183799
  28 H :    0.188009
  29 H :    0.161731
  30 H :    0.161044
  31 H :    0.158693
  32 H :    0.173723
  33 H :    0.180767
  34 H :    0.171843
  35 H :    0.188688
  36 H :    0.172494
  37 H :    0.175403

  Mayer bond orders larger than 0.100000
B(  0-C ,  1-C ) :   0.9299 B(  0-C , 20-H ) :   0.9650 B(  0-C , 21-H ) :   0.9685
B(  0-C , 22-H ) :   0.9732 B(  1-C ,  2-O ) :   0.8022 B(  1-C , 23-H ) :   0.9627
B(  1-C , 24-H ) :   0.9678 B(  2-O ,  3-C ) :   1.0316 B(  3-C ,  4-O ) :   1.8205
B(  3-C ,  5-C ) :   0.9195 B(  5-C ,  6-C ) :   0.9091 B(  5-C , 25-H ) :   0.9390
B(  5-C , 26-H ) :   0.9731 B(  6-C ,  7-H ) :   0.8784 B(  6-C ,  8-C ) :   0.9333
B(  6-C , 13-S ) :   0.8292 B(  8-C ,  9-O ) :   1.7825 B(  8-C , 10-O ) :   1.1659
B( 10-O , 11-C ) :   0.7744 B( 11-C , 12-C ) :   0.9433 B( 11-C , 27-H ) :   0.9573
B( 11-C , 28-H ) :   0.9428 B( 12-C , 29-H ) :   0.9667 B( 12-C , 30-H ) :   0.9696
B( 12-C , 31-H ) :   0.9751 B( 13-S , 14-P ) :   0.9889 B( 14-P , 15-S ) :   1.7423
B( 14-P , 16-O ) :   1.1922 B( 14-P , 18-O ) :   1.0285 B( 16-O , 17-C ) :   0.7991
B( 17-C , 32-H ) :   0.9573 B( 17-C , 33-H ) :   0.9649 B( 17-C , 34-H ) :   0.9633
B( 18-O , 19-C ) :   0.8347 B( 19-C , 35-H ) :   0.9422 B( 19-C , 36-H ) :   0.9690
B( 19-C , 37-H ) :   0.9582

Dispersion correction           -0.017658897
FINAL SINGLE POINT ENERGY     -1981.447502351328

DIPOLE MOMENT
-------------

Method             : SCF
Type of density    : Electron Density
Multiplicity       :   1
Irrep              :   0
Energy             : -1981.4673501159154512 Eh
Relativity type    :
Basis              : AO
                                X                 Y                 Z
Electronic contribution:    -10.457375736       1.237823216       5.156752939
Nuclear contribution   :     11.543087161      -1.206082092      -6.471693202
                        -----------------------------------------
Total Dipole Moment    :      1.085711425       0.031741123      -1.314940263
                        -----------------------------------------
Magnitude (a.u.)       :      1.705533550
Magnitude (Debye)      :      4.335121767

Rotational constants in cm-1:             0.010563             0.008551             0.005957
Rotational constants in MHz :           316.656804           256.348397           178.574833

                             ****ORCA TERMINATED NORMALLY****
TOTAL RUN TIME: 0 days 0 hours 1 minutes 17 seconds 164 msec
