                         Program Version 6.0.1  -  RELEASE   -
|  1> ! r2scan-3c def2/J RI DEFGRID2 scfconv6 printgap
|  2> %output
|  3>     printlevel normal
|  4> end
|  5> %cpcm
|  6>     smd true
|  7>     smdsolvent "water"
|  8> end
|  9> * xyz 0 1
| 10> C 2.1235345832 -3.2395539963 -2.8324469187
| 11> C 3.0891792465 -3.0535858364 -1.6727468388
| 12> O 2.8894746265 -1.7663209343 -1.05735171
| 13> C 2.0410890235 -1.672322546 -0.0550335721
| 14> O 1.4585288145 -2.6053767186 0.4511729157
| 15> C 1.8509644399 -0.2277477217 0.3705367455
| 16> C 0.9868287458 0.475060775 -0.6777396619
| 17> H 1.5519979694 0.5945029298 -1.6072489976
| 18> C 0.4938337465 1.8421669007 -0.2327852986
| 19> O -0.6265483913 2.2438132543 -0.4796910795
| 20> O 1.4143264164 2.5157478696 0.3958767804
| 21> C 1.0643847234 3.8216047408 0.9035600654
| 22> C 2.3369028836 4.4945749238 1.3758755953
| 23> S -0.4731075854 -0.5061743985 -1.165253061
| 24> P -1.7926370636 -0.0600293261 0.4391772609
| 25> S -1.0919490442 0.6252229273 2.1341008754
| 26> O -2.9938809069 0.7984306512 -0.1156641515
| 27> C -3.6881930938 0.478074384 -1.3367678406
| 28> O -2.5251475738 -1.4802477247 0.6029518694
| 29> C -1.8733733488 -2.5776933219 1.2499378762
| 30> H 2.2964024493 -4.2065285268 -3.2927651393
| 31> H 1.0969115632 -3.1930420393 -2.4753960872
| 32> H 2.2698942732 -2.4582661026 -3.5725951561
| 33> H 4.1247252225 -3.0423203988 -2.0131026658
| 34> H 2.9443074311 -3.8288682803 -0.9153925954
| 35> H 2.8145360557 0.2765657825 0.4287516849
| 36> H 1.3607494552 -0.2096264096 1.3454748634
| 37> H 0.571079659 4.3824456654 0.1040123776
| 38> H 0.3489795348 3.6779477457 1.7197273361
| 39> H 2.094337721 5.47509859 1.7712963882
| 40> H 2.8030273984 3.9001740302 2.1555126847
| 41> H 3.0323105174 4.602796625 0.5489920271
| 42> H -2.9917293229 0.5034508715 -2.1748408095
| 43> H -4.4422473767 1.2536982426 -1.4416179052
| 44> H -4.1470747748 -0.5058085285 -1.2559565143
| 45> H -0.9327760629 -2.8205421388 0.7530760768
| 46> H -2.5684437709 -3.4099695768 1.1832054361
| 47> H -1.6727068118 -2.3261331422 2.2920312636
| 48> *
| 49>
| 50>                          ****END OF INPUT****

CARTESIAN COORDINATES (ANGSTROEM)
---------------------------------
  C      2.123535   -3.239554   -2.832447
  C      3.089179   -3.053586   -1.672747
  O      2.889475   -1.766321   -1.057352
  C      2.041089   -1.672323   -0.055034
  O      1.458529   -2.605377    0.451173
  C      1.850964   -0.227748    0.370537
  C      0.986829    0.475061   -0.677740
  H      1.551998    0.594503   -1.607249
  C      0.493834    1.842167   -0.232785
  O     -0.626548    2.243813   -0.479691
  O      1.414326    2.515748    0.395877
  C      1.064385    3.821605    0.903560
  C      2.336903    4.494575    1.375876
  S     -0.473108   -0.506174   -1.165253
  P     -1.792637   -0.060029    0.439177
  S     -1.091949    0.625223    2.134101
  O     -2.993881    0.798431   -0.115664
  C     -3.688193    0.478074   -1.336768
  O     -2.525148   -1.480248    0.602952
  C     -1.873373   -2.577693    1.249938
  H      2.296402   -4.206529   -3.292765
  H      1.096912   -3.193042   -2.475396
  H      2.269894   -2.458266   -3.572595
  H      4.124725   -3.042320   -2.013103
  H      2.944307   -3.828868   -0.915393
  H      2.814536    0.276566    0.428752
  H      1.360749   -0.209626    1.345475
  H      0.571080    4.382446    0.104012
  H      0.348980    3.677948    1.719727
  H      2.094338    5.475099    1.771296
  H      2.803027    3.900174    2.155513
  H      3.032311    4.602797    0.548992
  H     -2.991729    0.503451   -2.174841
  H     -4.442247    1.253698   -1.441618
  H     -4.147075   -0.505809   -1.255957
  H     -0.932776   -2.820542    0.753076
  H     -2.568444   -3.409970    1.183205
  H     -1.672707   -2.326133    2.292031

 Total Charge           Charge          ....    0
 Multiplicity           Mult            ....    1
 Number of Electrons    NEL             ....  174
 Basis Dimension        Dim             ....  510

ORBITAL ENERGIES
----------------

  NO   OCC          E(Eh)            E(eV)
   0   2.0000     -88.578950     -2410.3558
   1   2.0000     -88.528022     -2408.9699
   2   2.0000     -76.921512     -2093.1408
   3   2.0000     -19.016330      -517.4606
   4   2.0000     -19.008380      -517.2443
   5   2.0000     -18.996584      -516.9233
   6   2.0000     -18.990833      -516.7668
   7   2.0000     -18.950219      -515.6617
   8   2.0000     -18.947186      -515.5791
   9   2.0000     -10.178387      -276.9680
  10   2.0000     -10.169442      -276.7246
  11   2.0000     -10.103163      -274.9210
  12   2.0000     -10.089663      -274.5537
  13   2.0000     -10.085663      -274.4448
  14   2.0000     -10.084758      -274.4202
  15   2.0000     -10.077847      -274.2322
  16   2.0000     -10.052647      -273.5464
  17   2.0000     -10.020625      -272.6751
  18   2.0000     -10.019739      -272.6510
  19   2.0000      -7.873472      -214.2481
  20   2.0000      -7.823401      -212.8856
  21   2.0000      -6.599631      -179.5851
  22   2.0000      -5.820540      -158.3849
  23   2.0000      -5.817338      -158.2978
  24   2.0000      -5.810317      -158.1068
  25   2.0000      -5.771232      -157.0432
  26   2.0000      -5.763784      -156.8405
  27   2.0000      -5.763002      -156.8193
  28   2.0000      -4.745249      -129.1248
  29   2.0000      -4.744716      -129.1103
  30   2.0000      -4.743259      -129.0706
  31   2.0000      -1.096273       -29.8311
  32   2.0000      -1.086253       -29.5585
  33   2.0000      -1.052382       -28.6368
  34   2.0000      -1.009134       -27.4599
  35   2.0000      -1.001313       -27.2471
  36   2.0000      -0.995052       -27.0767
  37   2.0000      -0.814889       -22.1742
  38   2.0000      -0.749864       -20.4048
  39   2.0000      -0.748084       -20.3564
  40   2.0000      -0.728949       -19.8357
  41   2.0000      -0.695578       -18.9276
  42   2.0000      -0.668033       -18.1781
  43   2.0000      -0.662017       -18.0144
  44   2.0000      -0.654432       -17.8080
  45   2.0000      -0.620068       -16.8729
  46   2.0000      -0.595961       -16.2169
  47   2.0000      -0.544155       -14.8072
  48   2.0000      -0.533752       -14.5241
  49   2.0000      -0.525560       -14.3012
  50   2.0000      -0.505864       -13.7653
  51   2.0000      -0.491143       -13.3647
  52   2.0000      -0.480831       -13.0841
  53   2.0000      -0.476114       -12.9557
  54   2.0000      -0.463802       -12.6207
  55   2.0000      -0.459011       -12.4903
  56   2.0000      -0.449215       -12.2238
  57   2.0000      -0.447061       -12.1651
  58   2.0000      -0.437412       -11.9026
  59   2.0000      -0.425704       -11.5840
  60   2.0000      -0.423813       -11.5325
  61   2.0000      -0.411981       -11.2106
  62   2.0000      -0.410925       -11.1818
  63   2.0000      -0.400255       -10.8915
  64   2.0000      -0.390038       -10.6135
  65   2.0000      -0.383520       -10.4361
  66   2.0000      -0.371179       -10.1003
  67   2.0000      -0.365601        -9.9485
  68   2.0000      -0.359681        -9.7874
  69   2.0000      -0.353453        -9.6180
  70   2.0000      -0.348874        -9.4933
  71   2.0000      -0.340776        -9.2730
  72   2.0000      -0.336812        -9.1651
  73   2.0000      -0.329936        -8.9780
  74   2.0000      -0.322813        -8.7842
  75   2.0000      -0.317216        -8.6319
  76   2.0000      -0.313590        -8.5332
  77   2.0000      -0.307304        -8.3622
  78   2.0000      -0.291972        -7.9449
  79   2.0000      -0.286126        -7.7859
  80   2.0000      -0.283566        -7.7162
  81   2.0000      -0.276475        -7.5233
  82   2.0000      -0.268529        -7.3070
  83   2.0000      -0.251333        -6.8391
  84   2.0000      -0.241663        -6.5760
  85   2.0000      -0.226744        -6.1700
  86   2.0000      -0.223950        -6.0940
  87   0.0000      -0.053833        -1.4649
  88   0.0000      -0.040925        -1.1136
  89   0.0000      -0.021991        -0.5984
  90   0.0000      -0.001428        -0.0389
  91   0.0000       0.011414         0.3106

MULLIKEN ATOMIC CHARGES
-----------------------
   0 C :   -0.504082
   1 C :   -0.129753
   2 O :   -0.176037
   3 C :    0.417886
   4 O :   -0.462223
   5 C :   -0.488999
   6 C :    0.080346
   7 H :    0.246279
   8 C :    0.257711
   9 O :   -0.445558
  10 O :   -0.132881
  11 C :   -0.151834
  12 C :   -0.491046
  13 S :   -0.189320
  14 P :    0.794032
  15 S :   -0.499260
  16 O :   -0.350616
  17 C :   -0.305362
  18 O :   -0.382308
  19 C :   -0.318678
  20 H :    0.172439
  21 H :    0.169202
  22 H :    0.170621
  23 H :    0.176042
  24 H :    0.176608
  25 H :    0.205205
  26 H :    0.213775
  27 H :    0.178282
  28 H :    0.179479
  29 H :    0.172191
  30 H :    0.166405
  31 H :    0.167938
  32 H :    0.179563
  33 H :    0.182494
  34 H :    0.186415
  35 H :    0.180085
  36 H :    0.176161
  37 H :    0.178799
Sum of atomic charges:    0.0000000

LOEWDIN ATOMIC CHARGES
----------------------
   0 C :   -0.392260
   1 C :    0.036916
   2 O :   -0.585457
   3 C :    0.346711
   4 O :   -0.490859
   5 C :   -0.205155
   6 C :   -0.180639
   7 H :    0.224687
   8 C :    0.343830
   9 O :   -0.500304
  10 O :   -0.571435
  11 C :    0.043069
  12 C :   -0.386335
  13 S :    0.231743
  14 P :    0.410720
  15 S :   -0.102223
  16 O :   -0.671906
  17 C :   -0.043814
  18 O :   -0.700729
  19 C :   -0.060680
  20 H :    0.168646
  21 H :    0.162468
  22 H :    0.162592
  23 H :    0.190159
  24 H :    0.191862
  25 H :    0.203695
  26 H :    0.196762
  27 H :    0.189302
  28 H :    0.188563
  29 H :    0.170080
  30 H :    0.163919
  31 H :    0.163978
  32 H :    0.179629
  33 H :    0.191970
  34 H :    0.181274
  35 H :    0.185734
  36 H :    0.186573
  37 H :    0.176911

  Mayer bond orders larger than 0.100000
B(  0-C ,  1-C ) :   0.9245 B(  0-C , 20-H ) :   0.9597 B(  0-C , 21-H ) :   0.9677
B(  0-C , 22-H ) :   0.9693 B(  1-C ,  2-O ) :   0.7860 B(  1-C , 23-H ) :   0.9528
B(  1-C , 24-H ) :   0.9644 B(  2-O ,  3-C ) :   1.0645 B(  3-C ,  4-O ) :   1.7637
B(  3-C ,  5-C ) :   0.9262 B(  5-C ,  6-C ) :   0.8969 B(  5-C , 25-H ) :   0.9217
B(  5-C , 26-H ) :   0.9812 B(  6-C ,  7-H ) :   0.8521 B(  6-C ,  8-C ) :   0.9516
B(  6-C , 13-S ) :   0.8030 B(  8-C ,  9-O ) :   1.7377 B(  8-C , 10-O ) :   1.1866
B( 10-O , 11-C ) :   0.7630 B( 11-C , 12-C ) :   0.9469 B( 11-C , 27-H ) :   0.9508
B( 11-C , 28-H ) :   0.9350 B( 12-C , 29-H ) :   0.9604 B( 12-C , 30-H ) :   0.9668
B( 12-C , 31-H ) :   0.9727 B( 13-S , 14-P ) :   1.0124 B( 14-P , 15-S ) :   1.7440
B( 14-P , 16-O ) :   1.1778 B( 14-P , 18-O ) :   1.0201 B( 16-O , 17-C ) :   0.7926
B( 17-C , 32-H ) :   0.9475 B( 17-C , 33-H ) :   0.9541 B( 17-C , 34-H ) :   0.9533
B( 18-O , 19-C ) :   0.8261 B( 19-C , 35-H ) :   0.9422 B( 19-C , 36-H ) :   0.9581
B( 19-C , 37-H ) :   0.9550

Dispersion correction           -0.017658897
FINAL SINGLE POINT ENERGY     -1981.461931987849

DIPOLE MOMENT
-------------

Method             : SCF
Type of density    : Electron Density
Multiplicity       :   1
Irrep              :   0
Energy             : -1981.4817797524362959 Eh
Relativity type    :
Basis              : AO
                                X                 Y                 Z
Electronic contribution:     -9.773064895       1.170060974       4.503886806
Nuclear contribution   :     11.543087161      -1.206082092      -6.471693202
                        -----------------------------------------
Total Dipole Moment    :      1.770022266      -0.036021119      -1.967806396
                        -----------------------------------------
Magnitude (a.u.)       :      2.646986656
Magnitude (Debye)      :      6.728105387

Rotational constants in cm-1:             0.010563             0.008551             0.005957
Rotational constants in MHz :           316.656804           256.348397           178.574833

                             ****ORCA TERMINATED NORMALLY****
TOTAL RUN TIME: 0 days 0 hours 1 minutes 42 seconds 675 msec
