                         Program Version 6.0.0  -   RELEASE  -
|  1> ! pbe def2-sv(p) def2/J RI DEFGRID1 loosescf d4 GCP(DFT/SV(P)) printgap
|  2> %output
|  3>     printlevel normal
|  4> end
|  5> * xyz 0 1
|  6> C 0.6626185356 1.6866530345 -0.0524480566
|  7> C 1.4218283768 0.3765352374 -0.2805723017
|  8> H 1.6110706024 0.2407829932 -1.356130884
|  9> C 0.5620727937 -0.8012843018 0.198216974
| 10> H 0.4302271955 -0.7309920593 1.290651742
| 11> C -0.808028319 -0.7426863675 -0.4969097543
| 12> H -0.6576402804 -0.904073974 -1.5700317632
| 13> C -1.4649718243 0.6388723301 -0.2808331586
| 14> H -2.3442472985 0.7293210393 -0.9294354185
| 15> O -0.6210100631 1.6871870698 -0.6586760222
| 16> O -1.9569738253 0.7447047596 1.0245087689
| 17> O -1.6490675123 -1.7708969136 -0.039118216
| 18> O 1.2416355576 -1.9964008097 -0.1104523488
| 19> O 2.6319395547 0.4588774137 0.4279259314
| 20> H 1.1977552986 2.515774502 -0.513931763
| 21> H 0.6033266406 1.8724236013 1.0273911997
| 22> H -1.2445474076 0.9640039865 1.6431092359
| 23> H -2.1424329318 -1.4460752085 0.7330420636
| 24> H 0.6191102206 -2.7345851799 -0.0293881429
| 25> H 3.0872797962 -0.3933625316 0.3535681344
| 26> *
| 27>
| 28>                          ****END OF INPUT****

CARTESIAN COORDINATES (ANGSTROEM)
---------------------------------
  C      0.662619    1.686653   -0.052448
  C      1.421828    0.376535   -0.280572
  H      1.611071    0.240783   -1.356131
  C      0.562073   -0.801284    0.198217
  H      0.430227   -0.730992    1.290652
  C     -0.808028   -0.742686   -0.496910
  H     -0.657640   -0.904074   -1.570032
  C     -1.464972    0.638872   -0.280833
  H     -2.344247    0.729321   -0.929435
  O     -0.621010    1.687187   -0.658676
  O     -1.956974    0.744705    1.024509
  O     -1.649068   -1.770897   -0.039118
  O      1.241636   -1.996401   -0.110452
  O      2.631940    0.458877    0.427926
  H      1.197755    2.515775   -0.513932
  H      0.603327    1.872424    1.027391
  H     -1.244547    0.964004    1.643109
  H     -2.142433   -1.446075    0.733042
  H      0.619110   -2.734585   -0.029388
  H      3.087280   -0.393363    0.353568

 Total Charge           Charge          ....    0
 Multiplicity           Mult            ....    1
 Number of Electrons    NEL             ....   80
 Basis Dimension        Dim             ....  160

ORBITAL ENERGIES
----------------

  NO   OCC          E(Eh)            E(eV)
   0   2.0000     -18.780611      -511.0464
   1   2.0000     -18.780265      -511.0370
   2   2.0000     -18.759213      -510.4641
   3   2.0000     -18.758371      -510.4412
   4   2.0000     -18.754409      -510.3334
   5   2.0000      -9.994654      -271.9684
   6   2.0000      -9.947905      -270.6963
   7   2.0000      -9.947434      -270.6834
   8   2.0000      -9.945738      -270.6373
   9   2.0000      -9.945429      -270.6289
  10   2.0000      -0.994546       -27.0630
  11   2.0000      -0.948172       -25.8011
  12   2.0000      -0.939036       -25.5525
  13   2.0000      -0.922711       -25.1082
  14   2.0000      -0.918127       -24.9835
  15   2.0000      -0.707140       -19.2422
  16   2.0000      -0.688661       -18.7394
  17   2.0000      -0.595581       -16.2066
  18   2.0000      -0.587609       -15.9896
  19   2.0000      -0.538085       -14.6420
  20   2.0000      -0.507808       -13.8182
  21   2.0000      -0.494878       -13.4663
  22   2.0000      -0.472791       -12.8653
  23   2.0000      -0.452464       -12.3122
  24   2.0000      -0.440613       -11.9897
  25   2.0000      -0.427565       -11.6346
  26   2.0000      -0.413974       -11.2648
  27   2.0000      -0.389661       -10.6032
  28   2.0000      -0.362918        -9.8755
  29   2.0000      -0.355635        -9.6773
  30   2.0000      -0.334009        -9.0888
  31   2.0000      -0.319234        -8.6868
  32   2.0000      -0.307807        -8.3759
  33   2.0000      -0.301434        -8.2024
  34   2.0000      -0.287768        -7.8306
  35   2.0000      -0.255254        -6.9458
  36   2.0000      -0.251910        -6.8548
  37   2.0000      -0.240616        -6.5475
  38   2.0000      -0.222191        -6.0461
  39   2.0000      -0.209970        -5.7136
  40   0.0000       0.001852         0.0504
  41   0.0000       0.020421         0.5557
  42   0.0000       0.041447         1.1278
  43   0.0000       0.051395         1.3985
  44   0.0000       0.071828         1.9545

MULLIKEN ATOMIC CHARGES
-----------------------
   0 C :    0.051371
   1 C :    0.036858
   2 H :    0.067069
   3 C :    0.027292
   4 H :    0.028879
   5 C :    0.041848
   6 H :    0.076772
   7 C :    0.163333
   8 H :    0.085124
   9 O :   -0.297624
  10 O :   -0.415241
  11 O :   -0.425595
  12 O :   -0.427698
  13 O :   -0.420224
  14 H :    0.113478
  15 H :    0.059843
  16 H :    0.309812
  17 H :    0.302075
  18 H :    0.309718
  19 H :    0.312909
Sum of atomic charges:   -0.0000000

LOEWDIN ATOMIC CHARGES
----------------------
   0 C :   -0.115196
   1 C :   -0.075749
   2 H :    0.107389
   3 C :   -0.087459
   4 H :    0.090621
   5 C :   -0.101517
   6 H :    0.120422
   7 C :   -0.004588
   8 H :    0.115753
   9 O :   -0.141207
  10 O :   -0.307634
  11 O :   -0.320871
  12 O :   -0.328941
  13 O :   -0.321953
  14 H :    0.128801
  15 H :    0.095600
  16 H :    0.285692
  17 H :    0.279413
  18 H :    0.289264
  19 H :    0.292160

  Mayer bond orders larger than 0.100000
B(  0-C ,  1-C ) :   1.0485 B(  0-C ,  9-O ) :   1.0043 B(  0-C , 14-H ) :   0.9245
B(  0-C , 15-H ) :   0.8922 B(  1-C ,  2-H ) :   0.8759 B(  1-C ,  3-C ) :   1.0150
B(  1-C , 13-O ) :   1.0807 B(  3-C ,  4-H ) :   0.8772 B(  3-C ,  5-C ) :   0.9686
B(  3-C , 12-O ) :   1.0865 B(  5-C ,  6-H ) :   0.8734 B(  5-C ,  7-C ) :   0.9803
B(  5-C , 11-O ) :   1.0612 B(  7-C ,  8-H ) :   0.9028 B(  7-C ,  9-O ) :   1.0786
B(  7-C , 10-O ) :   1.0553 B( 10-O , 16-H ) :   0.8334 B( 11-O , 17-H ) :   0.8234
B( 12-O , 18-H ) :   0.8312 B( 13-O , 19-H ) :   0.8383

Dispersion correction           -0.019190367
FINAL SINGLE POINT ENERGY      -571.418579957377

DIPOLE MOMENT
-------------

Method             : SCF
Type of density    : Electron Density
Multiplicity       :   1
Irrep              :   0
Energy             :  -571.5278930675841593 Eh
Relativity type    :
Basis              : AO
                                X                 Y                 Z
Electronic contribution:     -1.017009980      -0.333106492      -0.242153322
Nuclear contribution   :      1.082948671       0.093231641       0.618269750
                        -----------------------------------------
Total Dipole Moment    :      0.065938691      -0.239874851       0.376116428
                        -----------------------------------------
Magnitude (a.u.)       :      0.450945033
Magnitude (Debye)      :      1.146211183

Rotational constants in cm-1:             0.057488             0.043894             0.028588
Rotational constants in MHz :          1723.448413          1315.913968           857.041235

                             ****ORCA TERMINATED NORMALLY****
TOTAL RUN TIME: 0 days 0 hours 0 minutes 11 seconds 549 msec
