                         Program Version 6.0.0  -   RELEASE  -
|  1> ! pbe def2-sv(p) def2/J RI DEFGRID1 loosescf d4 GCP(DFT/SV(P)) printgap
|  2> %output
|  3>     printlevel normal
|  4> end
|  5> * xyz 0 1
|  6> C 3.8142208775 0.7056096845 -2.4010152322
|  7> C 2.5426597458 -0.0625093604 -2.1086963692
|  8> O 1.8181259755 0.5435769043 -1.0092018419
|  9> P 1.9197456301 0.0835096353 0.4938874544
| 10> S 0.8888187883 1.25055776 1.6726508023
| 11> O 3.4852363065 0.0892572823 0.7771513808
| 12> C 4.0277371578 0.0937429062 2.1093774536
| 13> C 3.7304189359 -1.1922870359 2.8522307992
| 14> S 1.4872172616 -2.0030063104 0.4664692018
| 15> C -0.1402625008 -2.0095897573 -0.3296642778
| 16> S -1.4610048377 -1.2448865191 0.6623708669
| 17> P -2.0386890908 0.3415268218 -0.6439378574
| 18> S -1.0982471752 0.4650050349 -2.3512688477
| 19> O -1.954541869 1.6671356563 0.1974842961
| 20> C -2.6227971366 1.8304256217 1.4747870095
| 21> C -2.2805766791 3.2093174531 1.9951229361
| 22> O -3.6211972225 0.170248712 -0.767900937
| 23> C -4.2477532917 -0.6535502535 -1.7666234557
| 24> C -3.9086682705 -2.1218051596 -1.6100001089
| 25> H 4.291618025 0.2762032025 -3.2761954766
| 26> H 3.5813179993 1.7491738068 -2.5950524832
| 27> H 4.4928702012 0.6473228447 -1.5541191917
| 28> H 2.7606375005 -1.1048280224 -1.8596855148
| 29> H 1.8423158307 -0.0153510151 -2.9464748777
| 30> H 5.0985059727 0.232259252 1.9535753854
| 31> H 3.6148335883 0.9535153133 2.6463150038
| 32> H 4.2613366778 -1.1904493559 3.7987166436
| 33> H 2.6616995039 -1.2695284551 3.0482819406
| 34> H 4.0418134595 -2.0514852622 2.2633654066
| 35> H -0.3856717996 -3.0612235546 -0.4559967655
| 36> H -0.0906511209 -1.4909899978 -1.2919481049
| 37> H -3.6958419535 1.7080363938 1.3148412589
| 38> H -2.2581069607 1.0526034003 2.1519867763
| 39> H -2.7824801945 3.3653359429 2.9442192727
| 40> H -1.2056689217 3.2874964731 2.1393430347
| 41> H -2.5976410161 3.9673970926 1.284754784
| 42> H -5.3128083512 -0.468025318 -1.6201618392
| 43> H -3.9389557094 -0.2909965152 -2.7518981908
| 44> H -4.1021126533 -2.4498560619 -0.591815559
| 45> H -4.5158863541 -2.7016172404 -2.2976522207
| 46> H -2.8579739316 -2.2865080865 -1.8441318984
| 47> *
| 48>
| 49>                          ****END OF INPUT****

CARTESIAN COORDINATES (ANGSTROEM)
---------------------------------
  C      3.814221    0.705610   -2.401015
  C      2.542660   -0.062509   -2.108696
  O      1.818126    0.543577   -1.009202
  P      1.919746    0.083510    0.493887
  S      0.888819    1.250558    1.672651
  O      3.485236    0.089257    0.777151
  C      4.027737    0.093743    2.109377
  C      3.730419   -1.192287    2.852231
  S      1.487217   -2.003006    0.466469
  C     -0.140263   -2.009590   -0.329664
  S     -1.461005   -1.244887    0.662371
  P     -2.038689    0.341527   -0.643938
  S     -1.098247    0.465005   -2.351269
  O     -1.954542    1.667136    0.197484
  C     -2.622797    1.830426    1.474787
  C     -2.280577    3.209317    1.995123
  O     -3.621197    0.170249   -0.767901
  C     -4.247753   -0.653550   -1.766623
  C     -3.908668   -2.121805   -1.610000
  H      4.291618    0.276203   -3.276195
  H      3.581318    1.749174   -2.595052
  H      4.492870    0.647323   -1.554119
  H      2.760638   -1.104828   -1.859686
  H      1.842316   -0.015351   -2.946475
  H      5.098506    0.232259    1.953575
  H      3.614834    0.953515    2.646315
  H      4.261337   -1.190449    3.798717
  H      2.661700   -1.269528    3.048282
  H      4.041813   -2.051485    2.263365
  H     -0.385672   -3.061224   -0.455997
  H     -0.090651   -1.490990   -1.291948
  H     -3.695842    1.708036    1.314841
  H     -2.258107    1.052603    2.151987
  H     -2.782480    3.365336    2.944219
  H     -1.205669    3.287496    2.139343
  H     -2.597641    3.967397    1.284755
  H     -5.312808   -0.468025   -1.620162
  H     -3.938956   -0.290997   -2.751898
  H     -4.102113   -2.449856   -0.591816
  H     -4.515886   -2.701617   -2.297652
  H     -2.857974   -2.286508   -1.844132

 Total Charge           Charge          ....    0
 Multiplicity           Mult            ....    1
 Number of Electrons    NEL             ....  202
 Basis Dimension        Dim             ....  334

ORBITAL ENERGIES
----------------

  NO   OCC          E(Eh)            E(eV)
   0   2.0000     -88.041063     -2395.7191
   1   2.0000     -88.038214     -2395.6416
   2   2.0000     -87.986264     -2394.2280
   3   2.0000     -87.978383     -2394.0135
   4   2.0000     -76.421714     -2079.5405
   5   2.0000     -76.421499     -2079.5347
   6   2.0000     -18.790783      -511.3232
   7   2.0000     -18.785802      -511.1877
   8   2.0000     -18.784719      -511.1582
   9   2.0000     -18.782846      -511.1072
  10   2.0000      -9.955320      -270.8980
  11   2.0000      -9.951894      -270.8048
  12   2.0000      -9.951128      -270.7840
  13   2.0000      -9.947974      -270.6981
  14   2.0000      -9.947518      -270.6857
  15   2.0000      -9.884700      -268.9764
  16   2.0000      -9.884618      -268.9741
  17   2.0000      -9.880531      -268.8629
  18   2.0000      -9.878296      -268.8021
  19   2.0000      -7.686025      -209.1474
  20   2.0000      -7.683034      -209.0660
  21   2.0000      -7.631416      -207.6614
  22   2.0000      -7.623473      -207.4452
  23   2.0000      -6.419360      -174.6797
  24   2.0000      -6.418972      -174.6691
  25   2.0000      -5.713804      -155.4805
  26   2.0000      -5.710873      -155.4007
  27   2.0000      -5.710404      -155.3880
  28   2.0000      -5.707697      -155.3143
  29   2.0000      -5.703235      -155.1929
  30   2.0000      -5.699911      -155.1025
  31   2.0000      -5.660251      -154.0233
  32   2.0000      -5.652427      -153.8104
  33   2.0000      -5.652121      -153.8020
  34   2.0000      -5.651489      -153.7848
  35   2.0000      -5.643988      -153.5807
  36   2.0000      -5.643658      -153.5717
  37   2.0000      -4.642049      -126.3166
  38   2.0000      -4.642012      -126.3156
  39   2.0000      -4.640892      -126.2851
  40   2.0000      -4.640760      -126.2815
  41   2.0000      -4.639986      -126.2604
  42   2.0000      -4.638979      -126.2330
  43   2.0000      -0.983731       -26.7687
  44   2.0000      -0.981659       -26.7123
  45   2.0000      -0.941608       -25.6225
  46   2.0000      -0.936997       -25.4970
  47   2.0000      -0.758270       -20.6336
  48   2.0000      -0.716769       -19.5043
  49   2.0000      -0.707724       -19.2582
  50   2.0000      -0.687809       -18.7162
  51   2.0000      -0.685544       -18.6546
  52   2.0000      -0.673776       -18.3344
  53   2.0000      -0.647844       -17.6287
  54   2.0000      -0.635517       -17.2933
  55   2.0000      -0.594883       -16.1876
  56   2.0000      -0.586605       -15.9623
  57   2.0000      -0.570959       -15.5366
  58   2.0000      -0.564331       -15.3562
  59   2.0000      -0.560033       -15.2393
  60   2.0000      -0.501383       -13.6433
  61   2.0000      -0.496134       -13.5005
  62   2.0000      -0.472171       -12.8484
  63   2.0000      -0.468719       -12.7545
  64   2.0000      -0.450483       -12.2583
  65   2.0000      -0.447824       -12.1859
  66   2.0000      -0.437745       -11.9117
  67   2.0000      -0.434485       -11.8229
  68   2.0000      -0.424577       -11.5533
  69   2.0000      -0.420708       -11.4480
  70   2.0000      -0.412702       -11.2302
  71   2.0000      -0.390817       -10.6347
  72   2.0000      -0.388130       -10.5616
  73   2.0000      -0.384240       -10.4557
  74   2.0000      -0.379164       -10.3176
  75   2.0000      -0.363547        -9.8926
  76   2.0000      -0.359649        -9.7865
  77   2.0000      -0.355945        -9.6858
  78   2.0000      -0.351261        -9.5583
  79   2.0000      -0.349451        -9.5090
  80   2.0000      -0.348298        -9.4777
  81   2.0000      -0.342688        -9.3250
  82   2.0000      -0.338574        -9.2131
  83   2.0000      -0.334981        -9.1153
  84   2.0000      -0.326171        -8.8756
  85   2.0000      -0.313903        -8.5417
  86   2.0000      -0.310803        -8.4574
  87   2.0000      -0.295230        -8.0336
  88   2.0000      -0.294218        -8.0061
  89   2.0000      -0.291475        -7.9314
  90   2.0000      -0.287134        -7.8133
  91   2.0000      -0.265002        -7.2111
  92   2.0000      -0.262715        -7.1488
  93   2.0000      -0.260963        -7.1012
  94   2.0000      -0.256283        -6.9738
  95   2.0000      -0.238902        -6.5009
  96   2.0000      -0.216970        -5.9040
  97   2.0000      -0.204538        -5.5658
  98   2.0000      -0.201736        -5.4895
  99   2.0000      -0.194413        -5.2902
 100   2.0000      -0.187451        -5.1008
 101   0.0000      -0.039727        -1.0810
 102   0.0000      -0.029275        -0.7966
 103   0.0000      -0.013090        -0.3562
 104   0.0000       0.002298         0.0625
 105   0.0000       0.019292         0.5250

MULLIKEN ATOMIC CHARGES
-----------------------
   0 C :   -0.282417
   1 C :   -0.022742
   2 O :   -0.342528
   3 P :    0.603990
   4 S :   -0.310117
   5 O :   -0.381345
   6 C :    0.000801
   7 C :   -0.328179
   8 S :   -0.108665
   9 C :   -0.353327
  10 S :   -0.100137
  11 P :    0.616185
  12 S :   -0.303745
  13 O :   -0.347089
  14 C :   -0.020338
  15 C :   -0.283193
  16 O :   -0.388499
  17 C :    0.006105
  18 C :   -0.318708
  19 H :    0.106569
  20 H :    0.122093
  21 H :    0.118650
  22 H :    0.097622
  23 H :    0.113691
  24 H :    0.104177
  25 H :    0.112713
  26 H :    0.115750
  27 H :    0.133236
  28 H :    0.119727
  29 H :    0.181528
  30 H :    0.195012
  31 H :    0.106386
  32 H :    0.114140
  33 H :    0.105863
  34 H :    0.134838
  35 H :    0.117481
  36 H :    0.103227
  37 H :    0.109704
  38 H :    0.120416
  39 H :    0.111633
  40 H :    0.119495
Sum of atomic charges:    0.0000000

LOEWDIN ATOMIC CHARGES
----------------------
   0 C :   -0.358135
   1 C :   -0.119323
   2 O :   -0.225650
   3 P :    0.564272
   4 S :   -0.304462
   5 O :   -0.248002
   6 C :   -0.118754
   7 C :   -0.373660
   8 S :    0.071176
   9 C :   -0.484827
  10 S :    0.073593
  11 P :    0.574618
  12 S :   -0.289731
  13 O :   -0.225489
  14 C :   -0.117804
  15 C :   -0.350213
  16 O :   -0.254155
  17 C :   -0.115424
  18 C :   -0.371340
  19 H :    0.128434
  20 H :    0.129896
  21 H :    0.124793
  22 H :    0.101445
  23 H :    0.116400
  24 H :    0.118085
  25 H :    0.112313
  26 H :    0.132655
  27 H :    0.123344
  28 H :    0.123504
  29 H :    0.136090
  30 H :    0.118939
  31 H :    0.110948
  32 H :    0.108844
  33 H :    0.128555
  34 H :    0.129079
  35 H :    0.128298
  36 H :    0.118124
  37 H :    0.111195
  38 H :    0.124216
  39 H :    0.129883
  40 H :    0.118272

  Mayer bond orders larger than 0.100000
B(  0-C ,  1-C ) :   1.1675 B(  0-C , 19-H ) :   0.9398 B(  0-C , 20-H ) :   0.9472
B(  0-C , 21-H ) :   0.9422 B(  1-C ,  2-O ) :   0.8950 B(  1-C , 22-H ) :   0.9086
B(  1-C , 23-H ) :   0.9237 B(  2-O ,  3-P ) :   1.1462 B(  3-P ,  4-S ) :   1.6636
B(  3-P ,  5-O ) :   1.0735 B(  3-P ,  8-S ) :   0.9475 B(  4-S ,  8-S ) :   0.1098
B(  5-O ,  6-C ) :   0.9082 B(  6-C ,  7-C ) :   1.1651 B(  6-C , 24-H ) :   0.9332
B(  6-C , 25-H ) :   0.9159 B(  7-C , 26-H ) :   0.9373 B(  7-C , 27-H ) :   0.9325
B(  7-C , 28-H ) :   0.9424 B(  8-S ,  9-C ) :   0.9924 B(  9-C , 10-S ) :   1.0104
B(  9-C , 29-H ) :   0.9092 B(  9-C , 30-H ) :   0.8457 B( 10-S , 11-P ) :   0.9498
B( 10-S , 12-S ) :   0.1166 B( 11-P , 12-S ) :   1.6154 B( 11-P , 13-O ) :   1.1623
B( 11-P , 16-O ) :   1.0714 B( 12-S , 30-H ) :   0.1210 B( 13-O , 14-C ) :   0.8885
B( 14-C , 15-C ) :   1.1713 B( 14-C , 31-H ) :   0.9244 B( 14-C , 32-H ) :   0.9140
B( 15-C , 33-H ) :   0.9401 B( 15-C , 34-H ) :   0.9442 B( 15-C , 35-H ) :   0.9495
B( 16-O , 17-C ) :   0.9191 B( 17-C , 18-C ) :   1.1647 B( 17-C , 36-H ) :   0.9348
B( 17-C , 37-H ) :   0.9195 B( 18-C , 38-H ) :   0.9411 B( 18-C , 39-H ) :   0.9367
B( 18-C , 40-H ) :   0.9383

Dispersion correction           -0.067055113
FINAL SINGLE POINT ENERGY     -2929.514843257535

DIPOLE MOMENT
-------------

Method             : SCF
Type of density    : Electron Density
Multiplicity       :   1
Irrep              :   0
Energy             : -2929.6333575948056023 Eh
Relativity type    :
Basis              : AO
                                X                 Y                 Z
Electronic contribution:     -2.815502312       0.421271673      -0.446627439
Nuclear contribution   :      2.831199501      -1.369768542       0.540963414
                        -----------------------------------------
Total Dipole Moment    :      0.015697188      -0.948496869       0.094335975
                        -----------------------------------------
Magnitude (a.u.)       :      0.953305821
Magnitude (Debye)      :      2.423110829

Rotational constants in cm-1:             0.011636             0.005487             0.005017
Rotational constants in MHz :           348.852337           164.498629           150.417717

                             ****ORCA TERMINATED NORMALLY****
TOTAL RUN TIME: 0 days 0 hours 0 minutes 20 seconds 986 msec
