                         Program Version 6.0.0  -   RELEASE  -
|  1> ! r2scan-3c def2/J RI DEFGRID2 scfconv6 printgap
|  2> %output
|  3>     printlevel normal
|  4> end
|  5> * xyz 0 1
|  6> C 5.1630169675 -2.4737733397 -1.2035864292
|  7> C 4.1069023294 -1.4229620222 -1.4786738516
|  8> O 3.3730945129 -1.2040870865 -0.2544745363
|  9> P 2.4002688235 0.0393267478 -0.095804798
| 10> S 3.1753316519 1.7939175829 -0.4687623584
| 11> O 1.9014592561 -0.0915183998 1.3892711986
| 12> C 1.3799333023 -1.3260247786 1.9424211175
| 13> C 2.4344605258 -2.0083520302 2.78812096
| 14> S 0.7561800105 -0.5066866812 -1.3508721675
| 15> C 0.0233083605 1.1413640258 -1.4138099094
| 16> S -0.6272153885 1.6745193318 0.1929960103
| 17> P -2.3697958877 0.4815426475 0.1425010698
| 18> S -3.2670578462 0.3615868614 -1.6008346701
| 19> O -3.2315330271 1.054491597 1.3493361909
| 20> C -3.9314092929 2.3140154471 1.2759910472
| 21> C -5.3702592273 2.1072521299 0.8438877881
| 22> O -1.8753201227 -0.8887797482 0.7532560629
| 23> C -2.5711350932 -2.1382575159 0.513471673
| 24> C -1.5572414999 -3.2302335029 0.2411607447
| 25> H 5.7248765763 -2.6583201706 -2.1132005102
| 26> H 5.8412185904 -2.1278934719 -0.4286275134
| 27> H 4.6937696351 -3.3973915454 -0.8777535371
| 28> H 3.4010463941 -1.7542272215 -2.2450575252
| 29> H 4.5535074216 -0.4730529154 -1.7893964489
| 30> H 0.5162737523 -1.0205458479 2.5372362034
| 31> H 1.052175605 -1.968563047 1.1211420452
| 32> H 2.7795889238 -1.334028377 3.5669955165
| 33> H 2.0071730092 -2.8955774062 3.2448099834
| 34> H 3.281872691 -2.293029945 2.1701895896
| 35> H -0.7881195403 1.107268262 -2.1419739853
| 36> H 0.7888653103 1.8639106972 -1.6974208564
| 37> H -3.8734891999 2.7192377273 2.2879251193
| 38> H -3.4047598125 2.980740352 0.5872697186
| 39> H -5.8887527066 3.0604180873 0.8617897607
| 40> H -5.4070960289 1.7027123593 -0.1651551286
| 41> H -5.8660360276 1.4145256666 1.5179844257
| 42> H -3.1598529797 -2.3493037552 1.4080277074
| 43> H -3.243153348 -2.0053786372 -0.3410398788
| 44> H -0.9427299456 -2.963496437 -0.6156688269
| 45> H -0.920218119 -3.3790088557 1.1079650796
| 46> H -2.0869325814 -4.1523856453 0.024352452
| 47> *
| 48>
| 49>                          ****END OF INPUT****

CARTESIAN COORDINATES (ANGSTROEM)
---------------------------------
  C      5.163017   -2.473773   -1.203586
  C      4.106902   -1.422962   -1.478674
  O      3.373095   -1.204087   -0.254475
  P      2.400269    0.039327   -0.095805
  S      3.175332    1.793918   -0.468762
  O      1.901459   -0.091518    1.389271
  C      1.379933   -1.326025    1.942421
  C      2.434461   -2.008352    2.788121
  S      0.756180   -0.506687   -1.350872
  C      0.023308    1.141364   -1.413810
  S     -0.627215    1.674519    0.192996
  P     -2.369796    0.481543    0.142501
  S     -3.267058    0.361587   -1.600835
  O     -3.231533    1.054492    1.349336
  C     -3.931409    2.314015    1.275991
  C     -5.370259    2.107252    0.843888
  O     -1.875320   -0.888780    0.753256
  C     -2.571135   -2.138258    0.513472
  C     -1.557241   -3.230234    0.241161
  H      5.724877   -2.658320   -2.113201
  H      5.841219   -2.127893   -0.428628
  H      4.693770   -3.397392   -0.877754
  H      3.401046   -1.754227   -2.245058
  H      4.553507   -0.473053   -1.789396
  H      0.516274   -1.020546    2.537236
  H      1.052176   -1.968563    1.121142
  H      2.779589   -1.334028    3.566996
  H      2.007173   -2.895577    3.244810
  H      3.281873   -2.293030    2.170190
  H     -0.788120    1.107268   -2.141974
  H      0.788865    1.863911   -1.697421
  H     -3.873489    2.719238    2.287925
  H     -3.404760    2.980740    0.587270
  H     -5.888753    3.060418    0.861790
  H     -5.407096    1.702712   -0.165155
  H     -5.866036    1.414526    1.517984
  H     -3.159853   -2.349304    1.408028
  H     -3.243153   -2.005379   -0.341040
  H     -0.942730   -2.963496   -0.615669
  H     -0.920218   -3.379009    1.107965
  H     -2.086933   -4.152386    0.024352

 Total Charge           Charge          ....    0
 Multiplicity           Mult            ....    1
 Number of Electrons    NEL             ....  202
 Basis Dimension        Dim             ....  539

ORBITAL ENERGIES
----------------

  NO   OCC          E(Eh)            E(eV)
   0   2.0000     -88.575620     -2410.2651
   1   2.0000     -88.573245     -2410.2005
   2   2.0000     -88.521840     -2408.8017
   3   2.0000     -88.518862     -2408.7207
   4   2.0000     -76.915462     -2092.9761
   5   2.0000     -76.913360     -2092.9189
   6   2.0000     -18.997104      -516.9375
   7   2.0000     -18.993580      -516.8416
   8   2.0000     -18.993413      -516.8371
   9   2.0000     -18.991224      -516.7775
  10   2.0000     -10.102770      -274.9104
  11   2.0000     -10.101629      -274.8793
  12   2.0000     -10.101398      -274.8730
  13   2.0000     -10.100808      -274.8570
  14   2.0000     -10.100721      -274.8546
  15   2.0000     -10.037318      -273.1293
  16   2.0000     -10.035205      -273.0718
  17   2.0000     -10.031924      -272.9825
  18   2.0000     -10.026583      -272.8372
  19   2.0000      -7.869705      -214.1456
  20   2.0000      -7.867637      -214.0893
  21   2.0000      -7.816794      -212.7058
  22   2.0000      -7.813626      -212.6196
  23   2.0000      -6.593984      -179.4314
  24   2.0000      -6.592014      -179.3778
  25   2.0000      -5.816615      -158.2781
  26   2.0000      -5.814371      -158.2171
  27   2.0000      -5.813526      -158.1941
  28   2.0000      -5.811497      -158.1389
  29   2.0000      -5.806865      -158.0128
  30   2.0000      -5.804893      -157.9592
  31   2.0000      -5.764301      -156.8546
  32   2.0000      -5.761332      -156.7738
  33   2.0000      -5.757038      -156.6570
  34   2.0000      -5.756933      -156.6541
  35   2.0000      -5.753852      -156.5703
  36   2.0000      -5.753619      -156.5639
  37   2.0000      -4.739498      -128.9683
  38   2.0000      -4.738906      -128.9522
  39   2.0000      -4.737842      -128.9232
  40   2.0000      -4.737685      -128.9190
  41   2.0000      -4.737025      -128.9010
  42   2.0000      -4.735347      -128.8553
  43   2.0000      -1.054033       -28.6817
  44   2.0000      -1.051421       -28.6106
  45   2.0000      -1.012907       -27.5626
  46   2.0000      -1.011998       -27.5379
  47   2.0000      -0.801722       -21.8160
  48   2.0000      -0.761872       -20.7316
  49   2.0000      -0.753582       -20.5060
  50   2.0000      -0.738911       -20.1068
  51   2.0000      -0.733089       -19.9484
  52   2.0000      -0.710468       -19.3328
  53   2.0000      -0.684181       -18.6175
  54   2.0000      -0.668783       -18.1985
  55   2.0000      -0.628119       -17.0920
  56   2.0000      -0.621171       -16.9029
  57   2.0000      -0.607749       -16.5377
  58   2.0000      -0.604253       -16.4426
  59   2.0000      -0.593287       -16.1442
  60   2.0000      -0.539094       -14.6695
  61   2.0000      -0.528423       -14.3791
  62   2.0000      -0.502691       -13.6789
  63   2.0000      -0.500343       -13.6150
  64   2.0000      -0.473744       -12.8912
  65   2.0000      -0.465221       -12.6593
  66   2.0000      -0.461702       -12.5635
  67   2.0000      -0.454816       -12.3762
  68   2.0000      -0.448763       -12.2115
  69   2.0000      -0.431954       -11.7541
  70   2.0000      -0.424270       -11.5450
  71   2.0000      -0.413964       -11.2645
  72   2.0000      -0.409818       -11.1517
  73   2.0000      -0.402331       -10.9480
  74   2.0000      -0.398878       -10.8540
  75   2.0000      -0.391108       -10.6426
  76   2.0000      -0.381959       -10.3936
  77   2.0000      -0.377289       -10.2665
  78   2.0000      -0.373075       -10.1519
  79   2.0000      -0.369893       -10.0653
  80   2.0000      -0.363670        -9.8960
  81   2.0000      -0.360800        -9.8179
  82   2.0000      -0.359294        -9.7769
  83   2.0000      -0.356989        -9.7142
  84   2.0000      -0.350247        -9.5307
  85   2.0000      -0.335895        -9.1402
  86   2.0000      -0.327195        -8.9034
  87   2.0000      -0.319762        -8.7012
  88   2.0000      -0.313932        -8.5425
  89   2.0000      -0.309224        -8.4144
  90   2.0000      -0.307375        -8.3641
  91   2.0000      -0.296033        -8.0555
  92   2.0000      -0.287544        -7.8245
  93   2.0000      -0.280803        -7.6410
  94   2.0000      -0.272141        -7.4053
  95   2.0000      -0.247554        -6.7363
  96   2.0000      -0.233858        -6.3636
  97   2.0000      -0.224669        -6.1136
  98   2.0000      -0.216654        -5.8955
  99   2.0000      -0.215125        -5.8538
 100   2.0000      -0.212359        -5.7786
 101   0.0000      -0.045995        -1.2516
 102   0.0000      -0.024022        -0.6537
 103   0.0000      -0.003581        -0.0974
 104   0.0000       0.001804         0.0491
 105   0.0000       0.014167         0.3855

MULLIKEN ATOMIC CHARGES
-----------------------
   0 C :   -0.441056
   1 C :   -0.153655
   2 O :   -0.284541
   3 P :    0.662805
   4 S :   -0.445942
   5 O :   -0.261218
   6 C :   -0.100967
   7 C :   -0.477582
   8 S :   -0.186665
   9 C :   -0.232561
  10 S :   -0.113746
  11 P :    0.684882
  12 S :   -0.498537
  13 O :   -0.310406
  14 C :   -0.129976
  15 C :   -0.451154
  16 O :   -0.255546
  17 C :   -0.114866
  18 C :   -0.480585
  19 H :    0.148467
  20 H :    0.159607
  21 H :    0.150825
  22 H :    0.153167
  23 H :    0.171600
  24 H :    0.170940
  25 H :    0.158028
  26 H :    0.159765
  27 H :    0.144742
  28 H :    0.165524
  29 H :    0.212983
  30 H :    0.219602
  31 H :    0.151213
  32 H :    0.154093
  33 H :    0.145387
  34 H :    0.180820
  35 H :    0.150896
  36 H :    0.150113
  37 H :    0.171563
  38 H :    0.175501
  39 H :    0.148309
  40 H :    0.148173
Sum of atomic charges:   -0.0000000

LOEWDIN ATOMIC CHARGES
----------------------
   0 C :   -0.386133
   1 C :    0.020394
   2 O :   -0.675071
   3 P :    0.374651
   4 S :   -0.103105
   5 O :   -0.647712
   6 C :    0.018963
   7 C :   -0.391807
   8 S :    0.127814
   9 C :   -0.424407
  10 S :    0.184052
  11 P :    0.373494
  12 S :   -0.144418
  13 O :   -0.659131
  14 C :    0.023421
  15 C :   -0.400827
  16 O :   -0.664431
  17 C :    0.023427
  18 C :   -0.397733
  19 H :    0.161135
  20 H :    0.162042
  21 H :    0.158389
  22 H :    0.172768
  23 H :    0.181681
  24 H :    0.185515
  25 H :    0.177507
  26 H :    0.162827
  27 H :    0.158142
  28 H :    0.165139
  29 H :    0.193065
  30 H :    0.192517
  31 H :    0.179038
  32 H :    0.176364
  33 H :    0.158387
  34 H :    0.168736
  35 H :    0.158108
  36 H :    0.172402
  37 H :    0.183959
  38 H :    0.166166
  39 H :    0.154637
  40 H :    0.160034

  Mayer bond orders larger than 0.100000
B(  0-C ,  1-C ) :   0.9538 B(  0-C , 19-H ) :   0.9631 B(  0-C , 20-H ) :   0.9712
B(  0-C , 21-H ) :   0.9718 B(  1-C ,  2-O ) :   0.7872 B(  1-C , 22-H ) :   0.9419
B(  1-C , 23-H ) :   0.9497 B(  2-O ,  3-P ) :   1.0510 B(  3-P ,  4-S ) :   1.8396
B(  3-P ,  5-O ) :   1.1594 B(  3-P ,  8-S ) :   0.9800 B(  5-O ,  6-C ) :   0.7326
B(  6-C ,  7-C ) :   0.9340 B(  6-C , 24-H ) :   0.9550 B(  6-C , 25-H ) :   0.9641
B(  7-C , 26-H ) :   0.9728 B(  7-C , 27-H ) :   0.9661 B(  7-C , 28-H ) :   0.9691
B(  8-S ,  9-C ) :   0.9166 B(  9-C , 10-S ) :   0.9123 B(  9-C , 29-H ) :   0.9014
B(  9-C , 30-H ) :   0.9055 B( 10-S , 11-P ) :   1.1176 B( 11-P , 12-S ) :   1.7221
B( 11-P , 13-O ) :   1.0758 B( 11-P , 16-O ) :   1.1593 B( 13-O , 14-C ) :   0.7756
B( 14-C , 15-C ) :   0.9564 B( 14-C , 31-H ) :   0.9641 B( 14-C , 32-H ) :   0.9619
B( 15-C , 33-H ) :   0.9644 B( 15-C , 34-H ) :   0.9567 B( 15-C , 35-H ) :   0.9750
B( 16-O , 17-C ) :   0.7638 B( 17-C , 18-C ) :   0.9488 B( 17-C , 36-H ) :   0.9504
B( 17-C , 37-H ) :   0.9539 B( 18-C , 38-H ) :   0.9686 B( 18-C , 39-H ) :   0.9728
B( 18-C , 40-H ) :   0.9627

Dispersion correction           -0.020996384
FINAL SINGLE POINT ENERGY     -2932.464234374322

DIPOLE MOMENT
-------------

Method             : SCF
Type of density    : Electron Density
Multiplicity       :   1
Irrep              :   0
Energy             : -2932.4896853676373212 Eh
Relativity type    :
Basis              : AO
                                X                 Y                 Z
Electronic contribution:      0.611010599      17.713363259      -6.972419665
Nuclear contribution   :     -0.908428171     -19.269897654       7.624156329
                        -----------------------------------------
Total Dipole Moment    :     -0.297417572      -1.556534394       0.651736664
                        -----------------------------------------
Magnitude (a.u.)       :      1.713481022
Magnitude (Debye)      :      4.355322634

Rotational constants in cm-1:             0.013370             0.004546             0.004234
Rotational constants in MHz :           400.818185           136.297413           126.935961

                             ****ORCA TERMINATED NORMALLY****
TOTAL RUN TIME: 0 days 0 hours 1 minutes 18 seconds 495 msec
