                         Program Version 6.0.0  -   RELEASE  -
|  1> ! r2scan-3c def2/J RI DEFGRID2 scfconv6 printgap
|  2> %output
|  3>     printlevel normal
|  4> end
|  5> %cpcm
|  6>     smd true
|  7>     smdsolvent "water"
|  8> end
|  9> * xyz 0 1
| 10> C 5.1630169675 -2.4737733397 -1.2035864292
| 11> C 4.1069023294 -1.4229620222 -1.4786738516
| 12> O 3.3730945129 -1.2040870865 -0.2544745363
| 13> P 2.4002688235 0.0393267478 -0.095804798
| 14> S 3.1753316519 1.7939175829 -0.4687623584
| 15> O 1.9014592561 -0.0915183998 1.3892711986
| 16> C 1.3799333023 -1.3260247786 1.9424211175
| 17> C 2.4344605258 -2.0083520302 2.78812096
| 18> S 0.7561800105 -0.5066866812 -1.3508721675
| 19> C 0.0233083605 1.1413640258 -1.4138099094
| 20> S -0.6272153885 1.6745193318 0.1929960103
| 21> P -2.3697958877 0.4815426475 0.1425010698
| 22> S -3.2670578462 0.3615868614 -1.6008346701
| 23> O -3.2315330271 1.054491597 1.3493361909
| 24> C -3.9314092929 2.3140154471 1.2759910472
| 25> C -5.3702592273 2.1072521299 0.8438877881
| 26> O -1.8753201227 -0.8887797482 0.7532560629
| 27> C -2.5711350932 -2.1382575159 0.513471673
| 28> C -1.5572414999 -3.2302335029 0.2411607447
| 29> H 5.7248765763 -2.6583201706 -2.1132005102
| 30> H 5.8412185904 -2.1278934719 -0.4286275134
| 31> H 4.6937696351 -3.3973915454 -0.8777535371
| 32> H 3.4010463941 -1.7542272215 -2.2450575252
| 33> H 4.5535074216 -0.4730529154 -1.7893964489
| 34> H 0.5162737523 -1.0205458479 2.5372362034
| 35> H 1.052175605 -1.968563047 1.1211420452
| 36> H 2.7795889238 -1.334028377 3.5669955165
| 37> H 2.0071730092 -2.8955774062 3.2448099834
| 38> H 3.281872691 -2.293029945 2.1701895896
| 39> H -0.7881195403 1.107268262 -2.1419739853
| 40> H 0.7888653103 1.8639106972 -1.6974208564
| 41> H -3.8734891999 2.7192377273 2.2879251193
| 42> H -3.4047598125 2.980740352 0.5872697186
| 43> H -5.8887527066 3.0604180873 0.8617897607
| 44> H -5.4070960289 1.7027123593 -0.1651551286
| 45> H -5.8660360276 1.4145256666 1.5179844257
| 46> H -3.1598529797 -2.3493037552 1.4080277074
| 47> H -3.243153348 -2.0053786372 -0.3410398788
| 48> H -0.9427299456 -2.963496437 -0.6156688269
| 49> H -0.920218119 -3.3790088557 1.1079650796
| 50> H -2.0869325814 -4.1523856453 0.024352452
| 51> *
| 52>
| 53>                          ****END OF INPUT****

CARTESIAN COORDINATES (ANGSTROEM)
---------------------------------
  C      5.163017   -2.473773   -1.203586
  C      4.106902   -1.422962   -1.478674
  O      3.373095   -1.204087   -0.254475
  P      2.400269    0.039327   -0.095805
  S      3.175332    1.793918   -0.468762
  O      1.901459   -0.091518    1.389271
  C      1.379933   -1.326025    1.942421
  C      2.434461   -2.008352    2.788121
  S      0.756180   -0.506687   -1.350872
  C      0.023308    1.141364   -1.413810
  S     -0.627215    1.674519    0.192996
  P     -2.369796    0.481543    0.142501
  S     -3.267058    0.361587   -1.600835
  O     -3.231533    1.054492    1.349336
  C     -3.931409    2.314015    1.275991
  C     -5.370259    2.107252    0.843888
  O     -1.875320   -0.888780    0.753256
  C     -2.571135   -2.138258    0.513472
  C     -1.557241   -3.230234    0.241161
  H      5.724877   -2.658320   -2.113201
  H      5.841219   -2.127893   -0.428628
  H      4.693770   -3.397392   -0.877754
  H      3.401046   -1.754227   -2.245058
  H      4.553507   -0.473053   -1.789396
  H      0.516274   -1.020546    2.537236
  H      1.052176   -1.968563    1.121142
  H      2.779589   -1.334028    3.566996
  H      2.007173   -2.895577    3.244810
  H      3.281873   -2.293030    2.170190
  H     -0.788120    1.107268   -2.141974
  H      0.788865    1.863911   -1.697421
  H     -3.873489    2.719238    2.287925
  H     -3.404760    2.980740    0.587270
  H     -5.888753    3.060418    0.861790
  H     -5.407096    1.702712   -0.165155
  H     -5.866036    1.414526    1.517984
  H     -3.159853   -2.349304    1.408028
  H     -3.243153   -2.005379   -0.341040
  H     -0.942730   -2.963496   -0.615669
  H     -0.920218   -3.379009    1.107965
  H     -2.086933   -4.152386    0.024352

 Total Charge           Charge          ....    0
 Multiplicity           Mult            ....    1
 Number of Electrons    NEL             ....  202
 Basis Dimension        Dim             ....  539

ORBITAL ENERGIES
----------------

  NO   OCC          E(Eh)            E(eV)
   0   2.0000     -88.581415     -2410.4229
   1   2.0000     -88.577527     -2410.3171
   2   2.0000     -88.530812     -2409.0459
   3   2.0000     -88.528543     -2408.9841
   4   2.0000     -76.920603     -2093.1160
   5   2.0000     -76.920286     -2093.1074
   6   2.0000     -18.997833      -516.9573
   7   2.0000     -18.996494      -516.9209
   8   2.0000     -18.995879      -516.9041
   9   2.0000     -18.994159      -516.8574
  10   2.0000     -10.103624      -274.9336
  11   2.0000     -10.092370      -274.6274
  12   2.0000     -10.091923      -274.6152
  13   2.0000     -10.091805      -274.6120
  14   2.0000     -10.089060      -274.5373
  15   2.0000     -10.020328      -272.6670
  16   2.0000     -10.019040      -272.6319
  17   2.0000     -10.018049      -272.6050
  18   2.0000     -10.016832      -272.5719
  19   2.0000      -7.875619      -214.3065
  20   2.0000      -7.871865      -214.2043
  21   2.0000      -7.825952      -212.9550
  22   2.0000      -7.823753      -212.8952
  23   2.0000      -6.599287      -179.5757
  24   2.0000      -6.598810      -179.5628
  25   2.0000      -5.822483      -158.4378
  26   2.0000      -5.819419      -158.3544
  27   2.0000      -5.818616      -158.3326
  28   2.0000      -5.815747      -158.2545
  29   2.0000      -5.812844      -158.1755
  30   2.0000      -5.809086      -158.0733
  31   2.0000      -5.773526      -157.1056
  32   2.0000      -5.771217      -157.0428
  33   2.0000      -5.766149      -156.9049
  34   2.0000      -5.766033      -156.9017
  35   2.0000      -5.763999      -156.8464
  36   2.0000      -5.763886      -156.8433
  37   2.0000      -4.745045      -129.1192
  38   2.0000      -4.744259      -129.0978
  39   2.0000      -4.744254      -129.0977
  40   2.0000      -4.743733      -129.0835
  41   2.0000      -4.742776      -129.0575
  42   2.0000      -4.742609      -129.0530
  43   2.0000      -1.056665       -28.7533
  44   2.0000      -1.052678       -28.6448
  45   2.0000      -1.015064       -27.6213
  46   2.0000      -1.012406       -27.5490
  47   2.0000      -0.805548       -21.9201
  48   2.0000      -0.757946       -20.6248
  49   2.0000      -0.746542       -20.3144
  50   2.0000      -0.728245       -19.8165
  51   2.0000      -0.722698       -19.6656
  52   2.0000      -0.710088       -19.3225
  53   2.0000      -0.688480       -18.7345
  54   2.0000      -0.675504       -18.3814
  55   2.0000      -0.624594       -16.9961
  56   2.0000      -0.616159       -16.7665
  57   2.0000      -0.601911       -16.3788
  58   2.0000      -0.595890       -16.2150
  59   2.0000      -0.589989       -16.0544
  60   2.0000      -0.535310       -14.5665
  61   2.0000      -0.524152       -14.2629
  62   2.0000      -0.499306       -13.5868
  63   2.0000      -0.496234       -13.5032
  64   2.0000      -0.475179       -12.9303
  65   2.0000      -0.460183       -12.5222
  66   2.0000      -0.456233       -12.4147
  67   2.0000      -0.448698       -12.2097
  68   2.0000      -0.440606       -11.9895
  69   2.0000      -0.430334       -11.7100
  70   2.0000      -0.422498       -11.4967
  71   2.0000      -0.412229       -11.2173
  72   2.0000      -0.406212       -11.0536
  73   2.0000      -0.397452       -10.8152
  74   2.0000      -0.392376       -10.6771
  75   2.0000      -0.388966       -10.5843
  76   2.0000      -0.378251       -10.2927
  77   2.0000      -0.367470        -9.9994
  78   2.0000      -0.363470        -9.8905
  79   2.0000      -0.360557        -9.8112
  80   2.0000      -0.356135        -9.6909
  81   2.0000      -0.353583        -9.6215
  82   2.0000      -0.349781        -9.5180
  83   2.0000      -0.347584        -9.4582
  84   2.0000      -0.344646        -9.3783
  85   2.0000      -0.332057        -9.0357
  86   2.0000      -0.323915        -8.8142
  87   2.0000      -0.316146        -8.6028
  88   2.0000      -0.307999        -8.3811
  89   2.0000      -0.305208        -8.3051
  90   2.0000      -0.304082        -8.2745
  91   2.0000      -0.293615        -7.9897
  92   2.0000      -0.284914        -7.7529
  93   2.0000      -0.281439        -7.6583
  94   2.0000      -0.274059        -7.4575
  95   2.0000      -0.252634        -6.8745
  96   2.0000      -0.241891        -6.5822
  97   2.0000      -0.234825        -6.3899
  98   2.0000      -0.225059        -6.1242
  99   2.0000      -0.224629        -6.1125
 100   2.0000      -0.221479        -6.0268
 101   0.0000      -0.052303        -1.4232
 102   0.0000      -0.031246        -0.8502
 103   0.0000      -0.008089        -0.2201
 104   0.0000      -0.003460        -0.0942
 105   0.0000       0.013087         0.3561

MULLIKEN ATOMIC CHARGES
-----------------------
   0 C :   -0.481055
   1 C :   -0.140035
   2 O :   -0.300392
   3 P :    0.673569
   4 S :   -0.503133
   5 O :   -0.290850
   6 C :   -0.091939
   7 C :   -0.522456
   8 S :   -0.180103
   9 C :   -0.240009
  10 S :   -0.139807
  11 P :    0.712239
  12 S :   -0.537082
  13 O :   -0.336288
  14 C :   -0.123923
  15 C :   -0.490317
  16 O :   -0.279358
  17 C :   -0.111110
  18 C :   -0.507706
  19 H :    0.169970
  20 H :    0.167076
  21 H :    0.166544
  22 H :    0.170261
  23 H :    0.173235
  24 H :    0.183959
  25 H :    0.177764
  26 H :    0.168819
  27 H :    0.172126
  28 H :    0.169950
  29 H :    0.230226
  30 H :    0.235280
  31 H :    0.177091
  32 H :    0.164537
  33 H :    0.169740
  34 H :    0.171088
  35 H :    0.167264
  36 H :    0.173889
  37 H :    0.169540
  38 H :    0.170990
  39 H :    0.171067
  40 H :    0.169338
Sum of atomic charges:   -0.0000000

LOEWDIN ATOMIC CHARGES
----------------------
   0 C :   -0.388677
   1 C :    0.026018
   2 O :   -0.679115
   3 P :    0.376290
   4 S :   -0.148081
   5 O :   -0.670631
   6 C :    0.024939
   7 C :   -0.393278
   8 S :    0.136669
   9 C :   -0.420824
  10 S :    0.167405
  11 P :    0.377873
  12 S :   -0.169332
  13 O :   -0.671191
  14 C :    0.028379
  15 C :   -0.405036
  16 O :   -0.674615
  17 C :    0.029386
  18 C :   -0.399063
  19 H :    0.169502
  20 H :    0.163565
  21 H :    0.163485
  22 H :    0.180065
  23 H :    0.182057
  24 H :    0.190984
  25 H :    0.185300
  26 H :    0.164445
  27 H :    0.169457
  28 H :    0.165229
  29 H :    0.198009
  30 H :    0.196700
  31 H :    0.190089
  32 H :    0.180240
  33 H :    0.167556
  34 H :    0.162735
  35 H :    0.162591
  36 H :    0.182695
  37 H :    0.183477
  38 H :    0.163865
  39 H :    0.162911
  40 H :    0.167925

  Mayer bond orders larger than 0.100000
B(  0-C ,  1-C ) :   0.9535 B(  0-C , 19-H ) :   0.9575 B(  0-C , 20-H ) :   0.9690
B(  0-C , 21-H ) :   0.9681 B(  1-C ,  2-O ) :   0.7780 B(  1-C , 22-H ) :   0.9326
B(  1-C , 23-H ) :   0.9469 B(  2-O ,  3-P ) :   1.0657 B(  3-P ,  4-S ) :   1.8127
B(  3-P ,  5-O ) :   1.1652 B(  3-P ,  8-S ) :   0.9945 B(  5-O ,  6-C ) :   0.7175
B(  6-C ,  7-C ) :   0.9329 B(  6-C , 24-H ) :   0.9460 B(  6-C , 25-H ) :   0.9520
B(  7-C , 26-H ) :   0.9717 B(  7-C , 27-H ) :   0.9587 B(  7-C , 28-H ) :   0.9681
B(  8-S ,  9-C ) :   0.9075 B(  9-C , 10-S ) :   0.9008 B(  9-C , 29-H ) :   0.8987
B(  9-C , 30-H ) :   0.9012 B( 10-S , 11-P ) :   1.1197 B( 11-P , 12-S ) :   1.6967
B( 11-P , 13-O ) :   1.0813 B( 11-P , 16-O ) :   1.1708 B( 13-O , 14-C ) :   0.7628
B( 14-C , 15-C ) :   0.9458 B( 14-C , 31-H ) :   0.9538 B( 14-C , 32-H ) :   0.9555
B( 15-C , 33-H ) :   0.9592 B( 15-C , 34-H ) :   0.9611 B( 15-C , 35-H ) :   0.9723
B( 16-O , 17-C ) :   0.7529 B( 17-C , 18-C ) :   0.9487 B( 17-C , 36-H ) :   0.9405
B( 17-C , 37-H ) :   0.9527 B( 18-C , 38-H ) :   0.9672 B( 18-C , 39-H ) :   0.9668
B( 18-C , 40-H ) :   0.9579

Dispersion correction           -0.020996384
FINAL SINGLE POINT ENERGY     -2932.473915015151

DIPOLE MOMENT
-------------

Method             : SCF
Type of density    : Electron Density
Multiplicity       :   1
Irrep              :   0
Energy             : -2932.4993660084664953 Eh
Relativity type    :
Basis              : AO
                                X                 Y                 Z
Electronic contribution:      0.379875878      17.067622104      -6.898742353
Nuclear contribution   :     -0.908428171     -19.269897654       7.624156329
                        -----------------------------------------
Total Dipole Moment    :     -0.528552292      -2.202275550       0.725413976
                        -----------------------------------------
Magnitude (a.u.)       :      2.378152762
Magnitude (Debye)      :      6.044783935

Rotational constants in cm-1:             0.013370             0.004546             0.004234
Rotational constants in MHz :           400.818185           136.297413           126.935961

                             ****ORCA TERMINATED NORMALLY****
TOTAL RUN TIME: 0 days 0 hours 1 minutes 52 seconds 88 msec
