                         Program Version 6.0.0  -   RELEASE  -
|  1> ! pbe def2-sv(p) def2/J RI DEFGRID1 loosescf d4 GCP(DFT/SV(P)) printgap
|  2> %output
|  3>     printlevel normal
|  4> end
|  5> * xyz 0 1
|  6> C 3.3443432874 0.3588286379 -2.7200731121
|  7> C 1.9735925748 0.7416735732 -2.2060137908
|  8> O 1.4263824406 -0.2785418665 -1.3531851561
|  9> P 2.0078591743 -0.5773369219 0.0913206227
| 10> S 2.7182138661 0.98593518 1.0486084067
| 11> O 3.0416591741 -1.7324815494 -0.2664419283
| 12> C 3.5807958225 -2.7054944115 0.647342606
| 13> C 4.1857967939 -2.0861610154 1.8900005244
| 14> S 0.4529545295 -1.6436387896 1.0210610271
| 15> C -0.2787253184 -0.3373057011 2.0645801956
| 16> S -2.0247717517 -0.0646824774 1.7083702941
| 17> P -1.7948574356 0.790549929 -0.2270821194
| 18> S -0.4728507265 2.2376273757 -0.2745930316
| 19> O -3.2768317221 1.2043534626 -0.6100138148
| 20> C -3.9409752468 2.2971248832 0.0591808372
| 21> C -5.1492562332 2.6824798159 -0.7694678565
| 22> O -1.4710163964 -0.3380608788 -1.2732498918
| 23> C -2.4069293978 -1.306923763 -1.8146064692
| 24> C -2.9744926785 -2.23079133 -0.7580967862
| 25> H 4.0416378012 0.2944887632 -1.8853353996
| 26> H 3.3016814135 -0.6060853832 -3.218128349
| 27> H 3.6917796997 1.1157947828 -3.4161169887
| 28> H 1.2407370411 0.8333193875 -3.0092984151
| 29> H 2.0120772792 1.6827553 -1.6459254381
| 30> H 2.7799892006 -3.4013071243 0.9125571324
| 31> H 4.3363802018 -3.2209957121 0.0516388105
| 32> H 4.6479999615 -2.8636606651 2.4896049435
| 33> H 4.9349555822 -1.3453823007 1.6207353097
| 34> H 3.4148493816 -1.592718677 2.4800114638
| 35> H 0.2870076689 0.5872152809 1.9150054054
| 36> H -0.2294530629 -0.6651434738 3.0996766721
| 37> H -4.2297512843 1.9582499958 1.0573887239
| 38> H -3.2342600481 3.1280333339 0.1535964598
| 39> H -4.837040175 3.0011829962 -1.760082316
| 40> H -5.8205599388 1.834305748 -0.8656255866
| 41> H -5.6694075824 3.4986177078 -0.2790970709
| 42> H -3.1991984226 -0.7596019975 -2.327780185
| 43> H -1.7978661294 -1.8521800084 -2.5375310371
| 44> H -3.617818478 -1.6812599913 -0.0744456801
| 45> H -3.5587347271 -3.00367392 -1.247958512
| 46> H -2.1720383843 -2.6968441687 -0.1901210495
| 47> *
| 48>
| 49>                          ****END OF INPUT****

CARTESIAN COORDINATES (ANGSTROEM)
---------------------------------
  C      3.344343    0.358829   -2.720073
  C      1.973593    0.741674   -2.206014
  O      1.426382   -0.278542   -1.353185
  P      2.007859   -0.577337    0.091321
  S      2.718214    0.985935    1.048608
  O      3.041659   -1.732482   -0.266442
  C      3.580796   -2.705494    0.647343
  C      4.185797   -2.086161    1.890001
  S      0.452955   -1.643639    1.021061
  C     -0.278725   -0.337306    2.064580
  S     -2.024772   -0.064682    1.708370
  P     -1.794857    0.790550   -0.227082
  S     -0.472851    2.237627   -0.274593
  O     -3.276832    1.204353   -0.610014
  C     -3.940975    2.297125    0.059181
  C     -5.149256    2.682480   -0.769468
  O     -1.471016   -0.338061   -1.273250
  C     -2.406929   -1.306924   -1.814606
  C     -2.974493   -2.230791   -0.758097
  H      4.041638    0.294489   -1.885335
  H      3.301681   -0.606085   -3.218128
  H      3.691780    1.115795   -3.416117
  H      1.240737    0.833319   -3.009298
  H      2.012077    1.682755   -1.645925
  H      2.779989   -3.401307    0.912557
  H      4.336380   -3.220996    0.051639
  H      4.648000   -2.863661    2.489605
  H      4.934956   -1.345382    1.620735
  H      3.414849   -1.592719    2.480011
  H      0.287008    0.587215    1.915005
  H     -0.229453   -0.665143    3.099677
  H     -4.229751    1.958250    1.057389
  H     -3.234260    3.128033    0.153596
  H     -4.837040    3.001183   -1.760082
  H     -5.820560    1.834306   -0.865626
  H     -5.669408    3.498618   -0.279097
  H     -3.199198   -0.759602   -2.327780
  H     -1.797866   -1.852180   -2.537531
  H     -3.617818   -1.681260   -0.074446
  H     -3.558735   -3.003674   -1.247959
  H     -2.172038   -2.696844   -0.190121

 Total Charge           Charge          ....    0
 Multiplicity           Mult            ....    1
 Number of Electrons    NEL             ....  202
 Basis Dimension        Dim             ....  334

ORBITAL ENERGIES
----------------

  NO   OCC          E(Eh)            E(eV)
   0   2.0000     -88.041933     -2395.7428
   1   2.0000     -88.041227     -2395.7236
   2   2.0000     -87.977045     -2393.9771
   3   2.0000     -87.976757     -2393.9693
   4   2.0000     -76.423586     -2079.5915
   5   2.0000     -76.419356     -2079.4764
   6   2.0000     -18.797935      -511.5178
   7   2.0000     -18.788862      -511.2709
   8   2.0000     -18.786702      -511.2121
   9   2.0000     -18.774002      -510.8666
  10   2.0000      -9.956438      -270.9284
  11   2.0000      -9.955709      -270.9086
  12   2.0000      -9.953673      -270.8532
  13   2.0000      -9.952997      -270.8348
  14   2.0000      -9.933442      -270.3027
  15   2.0000      -9.891743      -269.1680
  16   2.0000      -9.885612      -269.0012
  17   2.0000      -9.879203      -268.8268
  18   2.0000      -9.871380      -268.6139
  19   2.0000      -7.687006      -209.1741
  20   2.0000      -7.686476      -209.1596
  21   2.0000      -7.621991      -207.4049
  22   2.0000      -7.621713      -207.3974
  23   2.0000      -6.420984      -174.7239
  24   2.0000      -6.416566      -174.6036
  25   2.0000      -5.714786      -155.5072
  26   2.0000      -5.714269      -155.4932
  27   2.0000      -5.711450      -155.4165
  28   2.0000      -5.710951      -155.4029
  29   2.0000      -5.704076      -155.2158
  30   2.0000      -5.703552      -155.2015
  31   2.0000      -5.650942      -153.7699
  32   2.0000      -5.650728      -153.7641
  33   2.0000      -5.642872      -153.5504
  34   2.0000      -5.642427      -153.5383
  35   2.0000      -5.641866      -153.5230
  36   2.0000      -5.641659      -153.5173
  37   2.0000      -4.644074      -126.3717
  38   2.0000      -4.642688      -126.3340
  39   2.0000      -4.641001      -126.2881
  40   2.0000      -4.638951      -126.2323
  41   2.0000      -4.638400      -126.2173
  42   2.0000      -4.637196      -126.1845
  43   2.0000      -0.989632       -26.9293
  44   2.0000      -0.977014       -26.5859
  45   2.0000      -0.945167       -25.7193
  46   2.0000      -0.933545       -25.4030
  47   2.0000      -0.761608       -20.7244
  48   2.0000      -0.719826       -19.5875
  49   2.0000      -0.706366       -19.2212
  50   2.0000      -0.694070       -18.8866
  51   2.0000      -0.681534       -18.5455
  52   2.0000      -0.670102       -18.2344
  53   2.0000      -0.646306       -17.5869
  54   2.0000      -0.630136       -17.1469
  55   2.0000      -0.593660       -16.1543
  56   2.0000      -0.587296       -15.9811
  57   2.0000      -0.575040       -15.6476
  58   2.0000      -0.567843       -15.4518
  59   2.0000      -0.558133       -15.1876
  60   2.0000      -0.508112       -13.8264
  61   2.0000      -0.486880       -13.2487
  62   2.0000      -0.474074       -12.9002
  63   2.0000      -0.459332       -12.4991
  64   2.0000      -0.449675       -12.2363
  65   2.0000      -0.448280       -12.1983
  66   2.0000      -0.444048       -12.0832
  67   2.0000      -0.431788       -11.7496
  68   2.0000      -0.424904       -11.5622
  69   2.0000      -0.414485       -11.2787
  70   2.0000      -0.407453       -11.0874
  71   2.0000      -0.401141       -10.9156
  72   2.0000      -0.394427       -10.7329
  73   2.0000      -0.380218       -10.3463
  74   2.0000      -0.377908       -10.2834
  75   2.0000      -0.367439        -9.9985
  76   2.0000      -0.364968        -9.9313
  77   2.0000      -0.355507        -9.6738
  78   2.0000      -0.350191        -9.5292
  79   2.0000      -0.344078        -9.3628
  80   2.0000      -0.342754        -9.3268
  81   2.0000      -0.341723        -9.2988
  82   2.0000      -0.337841        -9.1931
  83   2.0000      -0.333908        -9.0861
  84   2.0000      -0.329073        -8.9545
  85   2.0000      -0.321123        -8.7382
  86   2.0000      -0.308224        -8.3872
  87   2.0000      -0.303716        -8.2645
  88   2.0000      -0.294287        -8.0080
  89   2.0000      -0.290263        -7.8985
  90   2.0000      -0.275740        -7.5033
  91   2.0000      -0.271695        -7.3932
  92   2.0000      -0.263246        -7.1633
  93   2.0000      -0.256732        -6.9860
  94   2.0000      -0.253586        -6.9004
  95   2.0000      -0.233151        -6.3444
  96   2.0000      -0.220304        -5.9948
  97   2.0000      -0.208253        -5.6669
  98   2.0000      -0.198046        -5.3891
  99   2.0000      -0.187617        -5.1053
 100   2.0000      -0.180174        -4.9028
 101   0.0000      -0.041393        -1.1264
 102   0.0000      -0.030279        -0.8239
 103   0.0000      -0.006097        -0.1659
 104   0.0000       0.012542         0.3413
 105   0.0000       0.021130         0.5750

MULLIKEN ATOMIC CHARGES
-----------------------
   0 C :   -0.294858
   1 C :   -0.006430
   2 O :   -0.351406
   3 P :    0.612747
   4 S :   -0.316890
   5 O :   -0.377751
   6 C :   -0.006154
   7 C :   -0.306515
   8 S :   -0.109763
   9 C :   -0.353778
  10 S :   -0.116139
  11 P :    0.604074
  12 S :   -0.301239
  13 O :   -0.388523
  14 C :   -0.013004
  15 C :   -0.280606
  16 O :   -0.345484
  17 C :    0.008651
  18 C :   -0.321428
  19 H :    0.119086
  20 H :    0.108147
  21 H :    0.106510
  22 H :    0.097940
  23 H :    0.123368
  24 H :    0.108453
  25 H :    0.106166
  26 H :    0.107834
  27 H :    0.125359
  28 H :    0.120368
  29 H :    0.214855
  30 H :    0.181554
  31 H :    0.106172
  32 H :    0.109095
  33 H :    0.122123
  34 H :    0.113741
  35 H :    0.114488
  36 H :    0.108220
  37 H :    0.110215
  38 H :    0.120252
  39 H :    0.110755
  40 H :    0.129794
Sum of atomic charges:    0.0000000

LOEWDIN ATOMIC CHARGES
----------------------
   0 C :   -0.364729
   1 C :   -0.122061
   2 O :   -0.231900
   3 P :    0.570639
   4 S :   -0.307427
   5 O :   -0.246827
   6 C :   -0.115176
   7 C :   -0.369733
   8 S :    0.077438
   9 C :   -0.477647
  10 S :    0.066540
  11 P :    0.562601
  12 S :   -0.294428
  13 O :   -0.251680
  14 C :   -0.119623
  15 C :   -0.350294
  16 O :   -0.226540
  17 C :   -0.105515
  18 C :   -0.371238
  19 H :    0.121002
  20 H :    0.122341
  21 H :    0.127763
  22 H :    0.116073
  23 H :    0.107912
  24 H :    0.106918
  25 H :    0.119936
  26 H :    0.128070
  27 H :    0.129115
  28 H :    0.119507
  29 H :    0.127146
  30 H :    0.136546
  31 H :    0.109569
  32 H :    0.111545
  33 H :    0.129728
  34 H :    0.125386
  35 H :    0.132293
  36 H :    0.113758
  37 H :    0.123057
  38 H :    0.116540
  39 H :    0.129863
  40 H :    0.123534

  Mayer bond orders larger than 0.100000
B(  0-C ,  1-C ) :   1.1568 B(  0-C , 19-H ) :   0.9364 B(  0-C , 20-H ) :   0.9457
B(  0-C , 21-H ) :   0.9402 B(  1-C ,  2-O ) :   0.9045 B(  1-C , 22-H ) :   0.9351
B(  1-C , 23-H ) :   0.9097 B(  2-O ,  3-P ) :   1.1451 B(  3-P ,  4-S ) :   1.6033
B(  3-P ,  5-O ) :   1.0951 B(  3-P ,  8-S ) :   0.9541 B(  4-S ,  8-S ) :   0.1150
B(  5-O ,  6-C ) :   0.9184 B(  6-C ,  7-C ) :   1.1644 B(  6-C , 24-H ) :   0.9272
B(  6-C , 25-H ) :   0.9344 B(  7-C , 26-H ) :   0.9348 B(  7-C , 27-H ) :   0.9431
B(  7-C , 28-H ) :   0.9340 B(  8-S ,  9-C ) :   0.9931 B(  9-C , 10-S ) :   1.0116
B(  9-C , 29-H ) :   0.8428 B(  9-C , 30-H ) :   0.9118 B( 10-S , 11-P ) :   0.9338
B( 10-S , 12-S ) :   0.1065 B( 11-P , 12-S ) :   1.6629 B( 11-P , 13-O ) :   1.0726
B( 11-P , 16-O ) :   1.1498 B( 13-O , 14-C ) :   0.9012 B( 14-C , 15-C ) :   1.1601
B( 14-C , 31-H ) :   0.9294 B( 14-C , 32-H ) :   0.9091 B( 15-C , 33-H ) :   0.9507
B( 15-C , 34-H ) :   0.9512 B( 15-C , 35-H ) :   0.9416 B( 16-O , 17-C ) :   0.8952
B( 17-C , 18-C ) :   1.1702 B( 17-C , 36-H ) :   0.9290 B( 17-C , 37-H ) :   0.9338
B( 18-C , 38-H ) :   0.9396 B( 18-C , 39-H ) :   0.9350 B( 18-C , 40-H ) :   0.9378

Dispersion correction           -0.067476508
FINAL SINGLE POINT ENERGY     -2929.513818634141

DIPOLE MOMENT
-------------

Method             : SCF
Type of density    : Electron Density
Multiplicity       :   1
Irrep              :   0
Energy             : -2929.6319077108278179 Eh
Relativity type    :
Basis              : AO
                                X                 Y                 Z
Electronic contribution:      2.548434516       4.479551236       7.830145864
Nuclear contribution   :     -3.663648184      -5.650398345      -8.172723505
                        -----------------------------------------
Total Dipole Moment    :     -1.115213668      -1.170847108      -0.342577641
                        -----------------------------------------
Magnitude (a.u.)       :      1.652859315
Magnitude (Debye)      :      4.201234502

Rotational constants in cm-1:             0.013366             0.005163             0.004866
Rotational constants in MHz :           400.697411           154.775722           145.891022

                             ****ORCA TERMINATED NORMALLY****
TOTAL RUN TIME: 0 days 0 hours 0 minutes 21 seconds 942 msec
