                         Program Version 6.0.0  -   RELEASE  -
|  1> ! r2scan-3c def2/J RI DEFGRID2 scfconv6 printgap
|  2> %output
|  3>     printlevel normal
|  4> end
|  5> * xyz 0 1
|  6> C 3.8871541057 -1.2937974564 -2.5296686127
|  7> C 4.1719278798 -1.6056538757 -1.0745834911
|  8> O 2.9719801994 -1.6444250332 -0.2823597298
|  9> P 2.1130201812 -0.3446417963 0.0320315023
| 10> S 3.1525884961 1.2817438573 0.3921568039
| 11> O 1.1875601455 -0.8676362334 1.205951375
| 12> C 1.479581693 -0.6102889998 2.5919551516
| 13> C 2.6715879326 -1.4138171211 3.0680577902
| 14> S 0.7078592095 -0.2622254584 -1.5408836993
| 15> C 0.1633968609 1.4422245017 -1.255441402
| 16> S -0.6209655355 1.6908886432 0.3640387063
| 17> P -2.2515742518 0.3913739345 0.058797573
| 18> S -2.9828634527 0.2341616903 -1.7563054039
| 19> O -3.3261708962 0.8269529624 1.1502394441
| 20> C -4.3516496385 1.7985851793 0.8786880132
| 21> C -3.783901103 3.1925452244 0.7059740082
| 22> O -1.6765902087 -0.9240198523 0.7262871375
| 23> C -2.2524292075 -2.2304584328 0.4989662175
| 24> C -1.4017029508 -3.0144872752 -0.4806791742
| 25> H 3.1322517375 -1.9711700798 -2.9210886489
| 26> H 3.5241130479 -0.271674191 -2.6284254458
| 27> H 4.8011878401 -1.3996599774 -3.1051915536
| 28> H 4.8442762521 -0.8555912809 -0.6458042247
| 29> H 4.5986529698 -2.6020036268 -0.9516867919
| 30> H 1.6587406264 0.4630697986 2.7163053694
| 31> H 0.561364705 -0.8906906343 3.1102727372
| 32> H 2.8070904902 -1.2612630329 4.1341759503
| 33> H 2.5173529635 -2.4708723872 2.8682137866
| 34> H 3.5691326683 -1.0839567147 2.5458664679
| 35> H -0.548501578 1.6712366391 -2.0474207581
| 36> H 1.0210764916 2.1135040195 -1.2824478773
| 37> H -4.8901267726 1.488288133 -0.0225976691
| 38> H -5.0094385629 1.7345512436 1.7464138696
| 39> H -3.1592189162 3.4547584731 1.5562271822
| 40> H -3.1799030246 3.2390184841 -0.199305405
| 41> H -4.5986199888 3.9045955044 0.6224148907
| 42> H -2.2709440584 -2.7038583346 1.4819519296
| 43> H -3.2744784717 -2.1160949546 0.1263352262
| 44> H -1.4319203175 -2.5473156784 -1.4630576522
| 45> H -0.3692747 -3.0370521755 -0.13967928
| 46> H -1.7813725922 -4.0283647886 -0.5554783628
| 47> *
| 48>
| 49>                          ****END OF INPUT****

CARTESIAN COORDINATES (ANGSTROEM)
---------------------------------
  C      3.887154   -1.293797   -2.529669
  C      4.171928   -1.605654   -1.074583
  O      2.971980   -1.644425   -0.282360
  P      2.113020   -0.344642    0.032032
  S      3.152588    1.281744    0.392157
  O      1.187560   -0.867636    1.205951
  C      1.479582   -0.610289    2.591955
  C      2.671588   -1.413817    3.068058
  S      0.707859   -0.262225   -1.540884
  C      0.163397    1.442225   -1.255441
  S     -0.620966    1.690889    0.364039
  P     -2.251574    0.391374    0.058798
  S     -2.982863    0.234162   -1.756305
  O     -3.326171    0.826953    1.150239
  C     -4.351650    1.798585    0.878688
  C     -3.783901    3.192545    0.705974
  O     -1.676590   -0.924020    0.726287
  C     -2.252429   -2.230458    0.498966
  C     -1.401703   -3.014487   -0.480679
  H      3.132252   -1.971170   -2.921089
  H      3.524113   -0.271674   -2.628425
  H      4.801188   -1.399660   -3.105192
  H      4.844276   -0.855591   -0.645804
  H      4.598653   -2.602004   -0.951687
  H      1.658741    0.463070    2.716305
  H      0.561365   -0.890691    3.110273
  H      2.807090   -1.261263    4.134176
  H      2.517353   -2.470872    2.868214
  H      3.569133   -1.083957    2.545866
  H     -0.548502    1.671237   -2.047421
  H      1.021076    2.113504   -1.282448
  H     -4.890127    1.488288   -0.022598
  H     -5.009439    1.734551    1.746414
  H     -3.159219    3.454758    1.556227
  H     -3.179903    3.239018   -0.199305
  H     -4.598620    3.904596    0.622415
  H     -2.270944   -2.703858    1.481952
  H     -3.274478   -2.116095    0.126335
  H     -1.431920   -2.547316   -1.463058
  H     -0.369275   -3.037052   -0.139679
  H     -1.781373   -4.028365   -0.555478

 Total Charge           Charge          ....    0
 Multiplicity           Mult            ....    1
 Number of Electrons    NEL             ....  202
 Basis Dimension        Dim             ....  539

ORBITAL ENERGIES
----------------

  NO   OCC          E(Eh)            E(eV)
   0   2.0000     -88.574730     -2410.2409
   1   2.0000     -88.573306     -2410.2022
   2   2.0000     -88.521501     -2408.7925
   3   2.0000     -88.520501     -2408.7653
   4   2.0000     -76.912600     -2092.8982
   5   2.0000     -76.912124     -2092.8853
   6   2.0000     -18.993177      -516.8306
   7   2.0000     -18.990220      -516.7502
   8   2.0000     -18.984579      -516.5967
   9   2.0000     -18.983383      -516.5641
  10   2.0000     -10.105862      -274.9945
  11   2.0000     -10.099245      -274.8144
  12   2.0000     -10.096365      -274.7361
  13   2.0000     -10.095268      -274.7062
  14   2.0000     -10.093263      -274.6516
  15   2.0000     -10.028914      -272.9006
  16   2.0000     -10.027341      -272.8578
  17   2.0000     -10.026593      -272.8375
  18   2.0000     -10.020519      -272.6722
  19   2.0000      -7.869108      -214.1293
  20   2.0000      -7.867797      -214.0936
  21   2.0000      -7.816262      -212.6913
  22   2.0000      -7.815319      -212.6656
  23   2.0000      -6.591223      -179.3563
  24   2.0000      -6.590630      -179.3402
  25   2.0000      -5.816021      -158.2620
  26   2.0000      -5.814697      -158.2259
  27   2.0000      -5.813049      -158.1811
  28   2.0000      -5.811714      -158.1448
  29   2.0000      -5.806084      -157.9916
  30   2.0000      -5.804782      -157.9562
  31   2.0000      -5.763833      -156.8419
  32   2.0000      -5.762914      -156.8169
  33   2.0000      -5.756549      -156.6437
  34   2.0000      -5.756339      -156.6379
  35   2.0000      -5.755737      -156.6216
  36   2.0000      -5.755237      -156.6079
  37   2.0000      -4.736561      -128.8884
  38   2.0000      -4.736089      -128.8755
  39   2.0000      -4.736043      -128.8743
  40   2.0000      -4.735479      -128.8589
  41   2.0000      -4.735151      -128.8500
  42   2.0000      -4.734535      -128.8332
  43   2.0000      -1.048662       -28.5355
  44   2.0000      -1.045859       -28.4593
  45   2.0000      -1.009330       -27.4653
  46   2.0000      -1.005751       -27.3679
  47   2.0000      -0.802198       -21.8289
  48   2.0000      -0.756528       -20.5862
  49   2.0000      -0.746226       -20.3058
  50   2.0000      -0.729859       -19.8605
  51   2.0000      -0.726972       -19.7819
  52   2.0000      -0.709627       -19.3099
  53   2.0000      -0.685898       -18.6642
  54   2.0000      -0.669281       -18.2121
  55   2.0000      -0.634314       -17.2606
  56   2.0000      -0.623412       -16.9639
  57   2.0000      -0.604235       -16.4421
  58   2.0000      -0.603215       -16.4143
  59   2.0000      -0.587647       -15.9907
  60   2.0000      -0.523506       -14.2453
  61   2.0000      -0.516767       -14.0620
  62   2.0000      -0.491623       -13.3777
  63   2.0000      -0.487045       -13.2532
  64   2.0000      -0.474297       -12.9063
  65   2.0000      -0.457776       -12.4567
  66   2.0000      -0.457016       -12.4360
  67   2.0000      -0.454825       -12.3764
  68   2.0000      -0.443318       -12.0633
  69   2.0000      -0.432410       -11.7665
  70   2.0000      -0.424723       -11.5573
  71   2.0000      -0.410408       -11.1678
  72   2.0000      -0.408226       -11.1084
  73   2.0000      -0.403235       -10.9726
  74   2.0000      -0.395141       -10.7523
  75   2.0000      -0.390420       -10.6239
  76   2.0000      -0.383046       -10.4232
  77   2.0000      -0.372559       -10.1378
  78   2.0000      -0.367397        -9.9974
  79   2.0000      -0.364572        -9.9205
  80   2.0000      -0.362043        -9.8517
  81   2.0000      -0.359170        -9.7735
  82   2.0000      -0.354910        -9.6576
  83   2.0000      -0.351768        -9.5721
  84   2.0000      -0.346841        -9.4380
  85   2.0000      -0.332264        -9.0414
  86   2.0000      -0.315993        -8.5986
  87   2.0000      -0.309634        -8.4256
  88   2.0000      -0.309056        -8.4098
  89   2.0000      -0.302493        -8.2313
  90   2.0000      -0.294608        -8.0167
  91   2.0000      -0.290878        -7.9152
  92   2.0000      -0.279390        -7.6026
  93   2.0000      -0.277265        -7.5448
  94   2.0000      -0.276348        -7.5198
  95   2.0000      -0.243185        -6.6174
  96   2.0000      -0.228655        -6.2220
  97   2.0000      -0.227928        -6.2022
  98   2.0000      -0.220824        -6.0089
  99   2.0000      -0.215140        -5.8543
 100   2.0000      -0.212089        -5.7712
 101   0.0000      -0.046844        -1.2747
 102   0.0000      -0.024903        -0.6776
 103   0.0000      -0.000060        -0.0016
 104   0.0000       0.001899         0.0517
 105   0.0000       0.011414         0.3106

MULLIKEN ATOMIC CHARGES
-----------------------
   0 C :   -0.450623
   1 C :   -0.153918
   2 O :   -0.304881
   3 P :    0.693069
   4 S :   -0.488359
   5 O :   -0.257980
   6 C :   -0.161784
   7 C :   -0.441578
   8 S :   -0.107784
   9 C :   -0.252629
  10 S :   -0.117369
  11 P :    0.682543
  12 S :   -0.481609
  13 O :   -0.298669
  14 C :   -0.155297
  15 C :   -0.446009
  16 O :   -0.262103
  17 C :   -0.121902
  18 C :   -0.471674
  19 H :    0.156076
  20 H :    0.176879
  21 H :    0.148259
  22 H :    0.172007
  23 H :    0.148474
  24 H :    0.173505
  25 H :    0.157479
  26 H :    0.146525
  27 H :    0.153740
  28 H :    0.166169
  29 H :    0.209150
  30 H :    0.209485
  31 H :    0.172886
  32 H :    0.147295
  33 H :    0.155461
  34 H :    0.173516
  35 H :    0.147585
  36 H :    0.146656
  37 H :    0.155168
  38 H :    0.177560
  39 H :    0.163887
  40 H :    0.140792
Sum of atomic charges:   -0.0000000

LOEWDIN ATOMIC CHARGES
----------------------
   0 C :   -0.407094
   1 C :    0.019666
   2 O :   -0.660428
   3 P :    0.378369
   4 S :   -0.132050
   5 O :   -0.672440
   6 C :    0.018097
   7 C :   -0.399391
   8 S :    0.181178
   9 C :   -0.418374
  10 S :    0.185174
  11 P :    0.380018
  12 S :   -0.131614
  13 O :   -0.660761
  14 C :    0.018147
  15 C :   -0.406923
  16 O :   -0.666709
  17 C :    0.027343
  18 C :   -0.403027
  19 H :    0.160591
  20 H :    0.165492
  21 H :    0.159313
  22 H :    0.179487
  23 H :    0.179518
  24 H :    0.181371
  25 H :    0.181705
  26 H :    0.159019
  27 H :    0.159574
  28 H :    0.164025
  29 H :    0.189877
  30 H :    0.189754
  31 H :    0.179617
  32 H :    0.179006
  33 H :    0.160325
  34 H :    0.164527
  35 H :    0.158956
  36 H :    0.176548
  37 H :    0.176325
  38 H :    0.166649
  39 H :    0.163633
  40 H :    0.155509

  Mayer bond orders larger than 0.100000
B(  0-C ,  1-C ) :   0.9226 B(  0-C , 19-H ) :   0.9683 B(  0-C , 20-H ) :   0.9628
B(  0-C , 21-H ) :   0.9586 B(  1-C ,  2-O ) :   0.8139 B(  1-C , 22-H ) :   0.9677
B(  1-C , 23-H ) :   0.9582 B(  2-O ,  3-P ) :   1.0621 B(  3-P ,  4-S ) :   1.7427
B(  3-P ,  5-O ) :   1.1402 B(  3-P ,  8-S ) :   1.0891 B(  5-O ,  6-C ) :   0.7875
B(  6-C ,  7-C ) :   0.9201 B(  6-C , 24-H ) :   0.9638 B(  6-C , 25-H ) :   0.9637
B(  7-C , 26-H ) :   0.9634 B(  7-C , 27-H ) :   0.9729 B(  7-C , 28-H ) :   0.9613
B(  8-S ,  9-C ) :   0.9007 B(  9-C , 10-S ) :   0.9009 B(  9-C , 29-H ) :   0.9113
B(  9-C , 30-H ) :   0.9098 B( 10-S , 11-P ) :   1.0969 B( 11-P , 12-S ) :   1.7415
B( 11-P , 13-O ) :   1.0650 B( 11-P , 16-O ) :   1.1641 B( 13-O , 14-C ) :   0.8185
B( 14-C , 15-C ) :   0.9225 B( 14-C , 31-H ) :   0.9676 B( 14-C , 32-H ) :   0.9587
B( 15-C , 33-H ) :   0.9682 B( 15-C , 34-H ) :   0.9632 B( 15-C , 35-H ) :   0.9595
B( 16-O , 17-C ) :   0.7614 B( 17-C , 18-C ) :   0.9456 B( 17-C , 36-H ) :   0.9615
B( 17-C , 37-H ) :   0.9647 B( 18-C , 38-H ) :   0.9631 B( 18-C , 39-H ) :   0.9689
B( 18-C , 40-H ) :   0.9636

Dispersion correction           -0.022154300
FINAL SINGLE POINT ENERGY     -2932.464319124555

DIPOLE MOMENT
-------------

Method             : SCF
Type of density    : Electron Density
Multiplicity       :   1
Irrep              :   0
Energy             : -2932.4885645729887074 Eh
Relativity type    :
Basis              : AO
                                X                 Y                 Z
Electronic contribution:     -2.519021762       8.098619668      -4.073406367
Nuclear contribution   :      2.469426756      -8.769181457       4.674060651
                        -----------------------------------------
Total Dipole Moment    :     -0.049595007      -0.670561789       0.600654284
                        -----------------------------------------
Magnitude (a.u.)       :      0.901608755
Magnitude (Debye)      :      2.291707329

Rotational constants in cm-1:             0.012825             0.005134             0.005015
Rotational constants in MHz :           384.478605           153.915242           150.343002

                             ****ORCA TERMINATED NORMALLY****
TOTAL RUN TIME: 0 days 0 hours 1 minutes 20 seconds 755 msec
