                         Program Version 6.0.0  -   RELEASE  -
|  1> ! r2scan-3c def2/J RI DEFGRID2 scfconv6 printgap
|  2> %output
|  3>     printlevel normal
|  4> end
|  5> %cpcm
|  6>     smd true
|  7>     smdsolvent "water"
|  8> end
|  9> * xyz 0 1
| 10> C 3.8871541057 -1.2937974564 -2.5296686127
| 11> C 4.1719278798 -1.6056538757 -1.0745834911
| 12> O 2.9719801994 -1.6444250332 -0.2823597298
| 13> P 2.1130201812 -0.3446417963 0.0320315023
| 14> S 3.1525884961 1.2817438573 0.3921568039
| 15> O 1.1875601455 -0.8676362334 1.205951375
| 16> C 1.479581693 -0.6102889998 2.5919551516
| 17> C 2.6715879326 -1.4138171211 3.0680577902
| 18> S 0.7078592095 -0.2622254584 -1.5408836993
| 19> C 0.1633968609 1.4422245017 -1.255441402
| 20> S -0.6209655355 1.6908886432 0.3640387063
| 21> P -2.2515742518 0.3913739345 0.058797573
| 22> S -2.9828634527 0.2341616903 -1.7563054039
| 23> O -3.3261708962 0.8269529624 1.1502394441
| 24> C -4.3516496385 1.7985851793 0.8786880132
| 25> C -3.783901103 3.1925452244 0.7059740082
| 26> O -1.6765902087 -0.9240198523 0.7262871375
| 27> C -2.2524292075 -2.2304584328 0.4989662175
| 28> C -1.4017029508 -3.0144872752 -0.4806791742
| 29> H 3.1322517375 -1.9711700798 -2.9210886489
| 30> H 3.5241130479 -0.271674191 -2.6284254458
| 31> H 4.8011878401 -1.3996599774 -3.1051915536
| 32> H 4.8442762521 -0.8555912809 -0.6458042247
| 33> H 4.5986529698 -2.6020036268 -0.9516867919
| 34> H 1.6587406264 0.4630697986 2.7163053694
| 35> H 0.561364705 -0.8906906343 3.1102727372
| 36> H 2.8070904902 -1.2612630329 4.1341759503
| 37> H 2.5173529635 -2.4708723872 2.8682137866
| 38> H 3.5691326683 -1.0839567147 2.5458664679
| 39> H -0.548501578 1.6712366391 -2.0474207581
| 40> H 1.0210764916 2.1135040195 -1.2824478773
| 41> H -4.8901267726 1.488288133 -0.0225976691
| 42> H -5.0094385629 1.7345512436 1.7464138696
| 43> H -3.1592189162 3.4547584731 1.5562271822
| 44> H -3.1799030246 3.2390184841 -0.199305405
| 45> H -4.5986199888 3.9045955044 0.6224148907
| 46> H -2.2709440584 -2.7038583346 1.4819519296
| 47> H -3.2744784717 -2.1160949546 0.1263352262
| 48> H -1.4319203175 -2.5473156784 -1.4630576522
| 49> H -0.3692747 -3.0370521755 -0.13967928
| 50> H -1.7813725922 -4.0283647886 -0.5554783628
| 51> *
| 52>
| 53>                          ****END OF INPUT****

CARTESIAN COORDINATES (ANGSTROEM)
---------------------------------
  C      3.887154   -1.293797   -2.529669
  C      4.171928   -1.605654   -1.074583
  O      2.971980   -1.644425   -0.282360
  P      2.113020   -0.344642    0.032032
  S      3.152588    1.281744    0.392157
  O      1.187560   -0.867636    1.205951
  C      1.479582   -0.610289    2.591955
  C      2.671588   -1.413817    3.068058
  S      0.707859   -0.262225   -1.540884
  C      0.163397    1.442225   -1.255441
  S     -0.620966    1.690889    0.364039
  P     -2.251574    0.391374    0.058798
  S     -2.982863    0.234162   -1.756305
  O     -3.326171    0.826953    1.150239
  C     -4.351650    1.798585    0.878688
  C     -3.783901    3.192545    0.705974
  O     -1.676590   -0.924020    0.726287
  C     -2.252429   -2.230458    0.498966
  C     -1.401703   -3.014487   -0.480679
  H      3.132252   -1.971170   -2.921089
  H      3.524113   -0.271674   -2.628425
  H      4.801188   -1.399660   -3.105192
  H      4.844276   -0.855591   -0.645804
  H      4.598653   -2.602004   -0.951687
  H      1.658741    0.463070    2.716305
  H      0.561365   -0.890691    3.110273
  H      2.807090   -1.261263    4.134176
  H      2.517353   -2.470872    2.868214
  H      3.569133   -1.083957    2.545866
  H     -0.548502    1.671237   -2.047421
  H      1.021076    2.113504   -1.282448
  H     -4.890127    1.488288   -0.022598
  H     -5.009439    1.734551    1.746414
  H     -3.159219    3.454758    1.556227
  H     -3.179903    3.239018   -0.199305
  H     -4.598620    3.904596    0.622415
  H     -2.270944   -2.703858    1.481952
  H     -3.274478   -2.116095    0.126335
  H     -1.431920   -2.547316   -1.463058
  H     -0.369275   -3.037052   -0.139679
  H     -1.781373   -4.028365   -0.555478

 Total Charge           Charge          ....    0
 Multiplicity           Mult            ....    1
 Number of Electrons    NEL             ....  202
 Basis Dimension        Dim             ....  539

ORBITAL ENERGIES
----------------

  NO   OCC          E(Eh)            E(eV)
   0   2.0000     -88.578656     -2410.3478
   1   2.0000     -88.576666     -2410.2936
   2   2.0000     -88.528108     -2408.9723
   3   2.0000     -88.527536     -2408.9567
   4   2.0000     -76.917810     -2093.0400
   5   2.0000     -76.917676     -2093.0364
   6   2.0000     -18.995371      -516.8903
   7   2.0000     -18.993715      -516.8453
   8   2.0000     -18.989282      -516.7246
   9   2.0000     -18.988302      -516.6980
  10   2.0000     -10.105126      -274.9745
  11   2.0000     -10.089640      -274.5530
  12   2.0000     -10.088918      -274.5334
  13   2.0000     -10.088365      -274.5184
  14   2.0000     -10.087984      -274.5080
  15   2.0000     -10.018446      -272.6158
  16   2.0000     -10.018042      -272.6048
  17   2.0000     -10.018036      -272.6046
  18   2.0000     -10.015334      -272.5311
  19   2.0000      -7.873074      -214.2372
  20   2.0000      -7.871178      -214.1856
  21   2.0000      -7.823145      -212.8786
  22   2.0000      -7.822616      -212.8642
  23   2.0000      -6.596353      -179.4959
  24   2.0000      -6.596338      -179.4955
  25   2.0000      -5.819982      -158.3698
  26   2.0000      -5.818070      -158.3177
  27   2.0000      -5.817001      -158.2887
  28   2.0000      -5.815090      -158.2366
  29   2.0000      -5.810076      -158.1002
  30   2.0000      -5.808182      -158.0487
  31   2.0000      -5.770670      -157.0279
  32   2.0000      -5.770170      -157.0143
  33   2.0000      -5.763413      -156.8304
  34   2.0000      -5.763235      -156.8256
  35   2.0000      -5.763022      -156.8198
  36   2.0000      -5.762540      -156.8067
  37   2.0000      -4.741729      -129.0290
  38   2.0000      -4.741646      -129.0267
  39   2.0000      -4.741219      -129.0151
  40   2.0000      -4.741216      -129.0151
  41   2.0000      -4.740305      -128.9902
  42   2.0000      -4.740299      -128.9901
  43   2.0000      -1.051747       -28.6195
  44   2.0000      -1.049609       -28.5613
  45   2.0000      -1.012080       -27.5401
  46   2.0000      -1.009061       -27.4579
  47   2.0000      -0.804278       -21.8855
  48   2.0000      -0.755083       -20.5468
  49   2.0000      -0.741809       -20.1857
  50   2.0000      -0.722646       -19.6642
  51   2.0000      -0.720936       -19.6177
  52   2.0000      -0.709489       -19.3062
  53   2.0000      -0.689553       -18.7637
  54   2.0000      -0.674954       -18.3664
  55   2.0000      -0.633951       -17.2507
  56   2.0000      -0.621094       -16.9008
  57   2.0000      -0.599945       -16.3253
  58   2.0000      -0.598154       -16.2766
  59   2.0000      -0.586460       -15.9584
  60   2.0000      -0.521154       -14.1813
  61   2.0000      -0.514197       -13.9920
  62   2.0000      -0.489634       -13.3236
  63   2.0000      -0.485393       -13.2082
  64   2.0000      -0.475159       -12.9297
  65   2.0000      -0.455895       -12.4055
  66   2.0000      -0.453641       -12.3442
  67   2.0000      -0.453004       -12.3269
  68   2.0000      -0.440206       -11.9786
  69   2.0000      -0.429389       -11.6843
  70   2.0000      -0.421607       -11.4725
  71   2.0000      -0.410645       -11.1742
  72   2.0000      -0.405621       -11.0375
  73   2.0000      -0.402786       -10.9604
  74   2.0000      -0.394225       -10.7274
  75   2.0000      -0.388372       -10.5681
  76   2.0000      -0.381397       -10.3783
  77   2.0000      -0.368742       -10.0340
  78   2.0000      -0.364040        -9.9060
  79   2.0000      -0.361479        -9.8363
  80   2.0000      -0.354544        -9.6476
  81   2.0000      -0.352690        -9.5972
  82   2.0000      -0.348256        -9.4765
  83   2.0000      -0.347060        -9.4440
  84   2.0000      -0.344860        -9.3841
  85   2.0000      -0.330866        -9.0033
  86   2.0000      -0.315365        -8.5815
  87   2.0000      -0.305310        -8.3079
  88   2.0000      -0.304491        -8.2856
  89   2.0000      -0.302785        -8.2392
  90   2.0000      -0.295329        -8.0363
  91   2.0000      -0.291103        -7.9213
  92   2.0000      -0.279539        -7.6066
  93   2.0000      -0.279077        -7.5941
  94   2.0000      -0.277947        -7.5633
  95   2.0000      -0.247020        -6.7218
  96   2.0000      -0.235608        -6.4112
  97   2.0000      -0.233954        -6.3662
  98   2.0000      -0.227651        -6.1947
  99   2.0000      -0.222193        -6.0462
 100   2.0000      -0.218245        -5.9387
 101   0.0000      -0.051650        -1.4055
 102   0.0000      -0.030892        -0.8406
 103   0.0000      -0.004069        -0.1107
 104   0.0000      -0.002675        -0.0728
 105   0.0000       0.010284         0.2798

MULLIKEN ATOMIC CHARGES
-----------------------
   0 C :   -0.486786
   1 C :   -0.154098
   2 O :   -0.332647
   3 P :    0.730673
   4 S :   -0.531748
   5 O :   -0.289427
   6 C :   -0.154441
   7 C :   -0.484186
   8 S :   -0.117896
   9 C :   -0.265064
  10 S :   -0.130210
  11 P :    0.716288
  12 S :   -0.523306
  13 O :   -0.327137
  14 C :   -0.154831
  15 C :   -0.482652
  16 O :   -0.290817
  17 C :   -0.129067
  18 C :   -0.495312
  19 H :    0.169192
  20 H :    0.173093
  21 H :    0.172911
  22 H :    0.178124
  23 H :    0.175348
  24 H :    0.176191
  25 H :    0.178530
  26 H :    0.171452
  27 H :    0.169010
  28 H :    0.166980
  29 H :    0.231760
  30 H :    0.231540
  31 H :    0.177373
  32 H :    0.174016
  33 H :    0.168400
  34 H :    0.171197
  35 H :    0.172260
  36 H :    0.174233
  37 H :    0.168883
  38 H :    0.170612
  39 H :    0.164961
  40 H :    0.166598
Sum of atomic charges:    0.0000000

LOEWDIN ATOMIC CHARGES
----------------------
   0 C :   -0.410257
   1 C :    0.025377
   2 O :   -0.672276
   3 P :    0.383507
   4 S :   -0.158163
   5 O :   -0.689867
   6 C :    0.021135
   7 C :   -0.402396
   8 S :    0.176808
   9 C :   -0.411349
  10 S :    0.178445
  11 P :    0.384939
  12 S :   -0.156851
  13 O :   -0.673715
  14 C :    0.023365
  15 C :   -0.410114
  16 O :   -0.683296
  17 C :    0.031229
  18 C :   -0.405471
  19 H :    0.163634
  20 H :    0.161574
  21 H :    0.168318
  22 H :    0.181498
  23 H :    0.190936
  24 H :    0.182050
  25 H :    0.190220
  26 H :    0.168349
  27 H :    0.163703
  28 H :    0.162142
  29 H :    0.197095
  30 H :    0.196667
  31 H :    0.181109
  32 H :    0.190257
  33 H :    0.163388
  34 H :    0.161197
  35 H :    0.167983
  36 H :    0.187921
  37 H :    0.180964
  38 H :    0.162225
  39 H :    0.162847
  40 H :    0.164874

  Mayer bond orders larger than 0.100000
B(  0-C ,  1-C ) :   0.9097 B(  0-C , 19-H ) :   0.9656 B(  0-C , 20-H ) :   0.9638
B(  0-C , 21-H ) :   0.9533 B(  1-C ,  2-O ) :   0.8018 B(  1-C , 22-H ) :   0.9661
B(  1-C , 23-H ) :   0.9484 B(  2-O ,  3-P ) :   1.0695 B(  3-P ,  4-S ) :   1.7044
B(  3-P ,  5-O ) :   1.1433 B(  3-P ,  8-S ) :   1.0997 B(  5-O ,  6-C ) :   0.7752
B(  6-C ,  7-C ) :   0.9132 B(  6-C , 24-H ) :   0.9591 B(  6-C , 25-H ) :   0.9534
B(  7-C , 26-H ) :   0.9573 B(  7-C , 27-H ) :   0.9714 B(  7-C , 28-H ) :   0.9606
B(  8-S ,  9-C ) :   0.8924 B(  9-C , 10-S ) :   0.8919 B(  9-C , 29-H ) :   0.9055
B(  9-C , 30-H ) :   0.9041 B( 10-S , 11-P ) :   1.1081 B( 11-P , 12-S ) :   1.7063
B( 11-P , 13-O ) :   1.0719 B( 11-P , 16-O ) :   1.1673 B( 13-O , 14-C ) :   0.8067
B( 14-C , 15-C ) :   0.9109 B( 14-C , 31-H ) :   0.9655 B( 14-C , 32-H ) :   0.9491
B( 15-C , 33-H ) :   0.9657 B( 15-C , 34-H ) :   0.9638 B( 15-C , 35-H ) :   0.9540
B( 16-O , 17-C ) :   0.7482 B( 17-C , 18-C ) :   0.9359 B( 17-C , 36-H ) :   0.9510
B( 17-C , 37-H ) :   0.9610 B( 18-C , 38-H ) :   0.9655 B( 18-C , 39-H ) :   0.9671
B( 18-C , 40-H ) :   0.9594

Dispersion correction           -0.022154300
FINAL SINGLE POINT ENERGY     -2932.471339538980

DIPOLE MOMENT
-------------

Method             : SCF
Type of density    : Electron Density
Multiplicity       :   1
Irrep              :   0
Energy             : -2932.4955849874140767 Eh
Relativity type    :
Basis              : AO
                                X                 Y                 Z
Electronic contribution:     -2.575213866       7.950134689      -3.941141111
Nuclear contribution   :      2.469426756      -8.769181457       4.674060651
                        -----------------------------------------
Total Dipole Moment    :     -0.105787110      -0.819046768       0.732919540
                        -----------------------------------------
Magnitude (a.u.)       :      1.104173706
Magnitude (Debye)      :      2.806586518

Rotational constants in cm-1:             0.012825             0.005134             0.005015
Rotational constants in MHz :           384.478605           153.915242           150.343002

                             ****ORCA TERMINATED NORMALLY****
TOTAL RUN TIME: 0 days 0 hours 1 minutes 58 seconds 731 msec
