                         Program Version 6.0.1  -  RELEASE   -
|  1> ! pbe def2-sv(p) def2/J RI DEFGRID1 loosescf d4 GCP(DFT/SV(P)) printgap
|  2> %output
|  3>     printlevel normal
|  4> end
|  5> * xyz 0 1
|  6> C 5.4212774203 -1.2724825907 -0.4635731193
|  7> C 4.7176261972 -1.8764528013 -1.6682101271
|  8> O 3.3642733452 -2.2297541169 -1.323900207
|  9> C 2.3983077601 -1.3772937187 -1.5952401184
| 10> O 2.5387729991 -0.3338553361 -2.1961327345
| 11> C 1.0556245578 -1.8940050813 -1.1071109755
| 12> C 0.278225833 -0.7306100946 -0.5101558493
| 13> H 0.1575165058 0.0632734399 -1.2622841676
| 14> C 1.0356152968 -0.1011687942 0.6433967371
| 15> O 2.235443004 -0.1857347169 0.7679499206
| 16> O 0.2320732928 0.5472304434 1.4604083333
| 17> C 0.811694834 1.2992815519 2.5464273586
| 18> C 1.1813376641 2.7001428736 2.0911241813
| 19> S -1.3886998639 -1.2409496201 0.0102844663
| 20> P -2.268198194 0.694185551 0.1832921871
| 21> S -1.4329970069 2.1409812222 -0.8377579123
| 22> O -3.785207301 0.3905693436 -0.2346823273
| 23> C -4.1352272662 0.0723645656 -1.5852856517
| 24> O -2.4692323917 1.0311687332 1.7119121206
| 25> C -3.1589908679 0.135004891 2.6064460112
| 26> H 4.8793234823 -0.3913037616 -0.1262914566
| 27> H 5.4525252125 -1.9910505967 0.3502703308
| 28> H 6.4322304057 -0.9895153707 -0.7370996087
| 29> H 5.1841237627 -2.8126280161 -1.9769160046
| 30> H 4.6910102105 -1.1685787109 -2.5015936314
| 31> H 1.2216339512 -2.6810647571 -0.3728485985
| 32> H 0.5075888117 -2.3016162328 -1.957677758
| 33> H 0.0314712409 1.3222214653 3.3070419658
| 34> H 1.6906222883 0.7565580124 2.9049044491
| 35> H 0.3110373616 3.1949499415 1.6656892446
| 36> H 1.5420185294 3.2720232539 2.9393062154
| 37> H 1.959992699 2.6568180543 1.3322541894
| 38> H -3.7917081083 -0.9325893215 -1.8301150391
| 39> H -3.6901937501 0.7961642589 -2.2700321
| 40> H -5.2199353587 0.1279781786 -1.6280620351
| 41> H -3.0875023993 0.5999494293 3.5862560507
| 42> H -2.6729847455 -0.8406603256 2.6031269329
| 43> H -4.1988563034 0.0343405805 2.3024991779
| 44> *
| 45>
| 46>                          ****END OF INPUT****

CARTESIAN COORDINATES (ANGSTROEM)
---------------------------------
  C      5.421277   -1.272483   -0.463573
  C      4.717626   -1.876453   -1.668210
  O      3.364273   -2.229754   -1.323900
  C      2.398308   -1.377294   -1.595240
  O      2.538773   -0.333855   -2.196133
  C      1.055625   -1.894005   -1.107111
  C      0.278226   -0.730610   -0.510156
  H      0.157517    0.063273   -1.262284
  C      1.035615   -0.101169    0.643397
  O      2.235443   -0.185735    0.767950
  O      0.232073    0.547230    1.460408
  C      0.811695    1.299282    2.546427
  C      1.181338    2.700143    2.091124
  S     -1.388700   -1.240950    0.010284
  P     -2.268198    0.694186    0.183292
  S     -1.432997    2.140981   -0.837758
  O     -3.785207    0.390569   -0.234682
  C     -4.135227    0.072365   -1.585286
  O     -2.469232    1.031169    1.711912
  C     -3.158991    0.135005    2.606446
  H      4.879323   -0.391304   -0.126291
  H      5.452525   -1.991051    0.350270
  H      6.432230   -0.989515   -0.737100
  H      5.184124   -2.812628   -1.976916
  H      4.691010   -1.168579   -2.501594
  H      1.221634   -2.681065   -0.372849
  H      0.507589   -2.301616   -1.957678
  H      0.031471    1.322221    3.307042
  H      1.690622    0.756558    2.904904
  H      0.311037    3.194950    1.665689
  H      1.542019    3.272023    2.939306
  H      1.959993    2.656818    1.332254
  H     -3.791708   -0.932589   -1.830115
  H     -3.690194    0.796164   -2.270032
  H     -5.219935    0.127978   -1.628062
  H     -3.087502    0.599949    3.586256
  H     -2.672985   -0.840660    2.603127
  H     -4.198856    0.034341    2.302499

 Total Charge           Charge          ....    0
 Multiplicity           Mult            ....    1
 Number of Electrons    NEL             ....  174
 Basis Dimension        Dim             ....  316

ORBITAL ENERGIES
----------------

  NO   OCC          E(Eh)            E(eV)
   0   2.0000     -88.044177     -2395.8038
   1   2.0000     -87.986105     -2394.2236
   2   2.0000     -76.428693     -2079.7305
   3   2.0000     -18.812502      -511.9142
   4   2.0000     -18.798423      -511.5311
   5   2.0000     -18.794886      -511.4348
   6   2.0000     -18.793308      -511.3919
   7   2.0000     -18.746275      -510.1121
   8   2.0000     -18.728598      -509.6311
   9   2.0000     -10.019062      -272.6326
  10   2.0000     -10.004775      -272.2438
  11   2.0000      -9.954928      -270.8874
  12   2.0000      -9.949799      -270.7478
  13   2.0000      -9.946697      -270.6634
  14   2.0000      -9.944416      -270.6013
  15   2.0000      -9.939006      -270.4541
  16   2.0000      -9.910260      -269.6719
  17   2.0000      -9.879971      -268.8477
  18   2.0000      -9.876322      -268.7484
  19   2.0000      -7.688815      -209.2233
  20   2.0000      -7.631160      -207.6544
  21   2.0000      -6.425717      -174.8526
  22   2.0000      -5.716512      -155.5542
  23   2.0000      -5.713468      -155.4714
  24   2.0000      -5.705932      -155.2663
  25   2.0000      -5.660318      -154.0251
  26   2.0000      -5.651690      -153.7903
  27   2.0000      -5.651137      -153.7753
  28   2.0000      -4.648494      -126.4920
  29   2.0000      -4.647573      -126.4669
  30   2.0000      -4.646006      -126.4242
  31   2.0000      -1.020306       -27.7639
  32   2.0000      -1.001270       -27.2460
  33   2.0000      -0.991231       -26.9728
  34   2.0000      -0.946361       -25.7518
  35   2.0000      -0.926958       -25.2238
  36   2.0000      -0.906336       -24.6627
  37   2.0000      -0.766524       -20.8582
  38   2.0000      -0.710188       -19.3252
  39   2.0000      -0.703292       -19.1375
  40   2.0000      -0.691658       -18.8210
  41   2.0000      -0.659162       -17.9367
  42   2.0000      -0.640571       -17.4308
  43   2.0000      -0.624352       -16.9895
  44   2.0000      -0.616418       -16.7736
  45   2.0000      -0.591404       -16.0929
  46   2.0000      -0.559839       -15.2340
  47   2.0000      -0.519148       -14.1267
  48   2.0000      -0.501536       -13.6475
  49   2.0000      -0.493653       -13.4330
  50   2.0000      -0.480157       -13.0657
  51   2.0000      -0.473640       -12.8884
  52   2.0000      -0.467137       -12.7114
  53   2.0000      -0.440685       -11.9917
  54   2.0000      -0.438146       -11.9226
  55   2.0000      -0.431639       -11.7455
  56   2.0000      -0.425794       -11.5865
  57   2.0000      -0.422202       -11.4887
  58   2.0000      -0.417128       -11.3506
  59   2.0000      -0.411720       -11.2035
  60   2.0000      -0.405191       -11.0258
  61   2.0000      -0.398189       -10.8353
  62   2.0000      -0.392620       -10.6837
  63   2.0000      -0.379173       -10.3178
  64   2.0000      -0.371527       -10.1098
  65   2.0000      -0.363079        -9.8799
  66   2.0000      -0.351978        -9.5778
  67   2.0000      -0.350082        -9.5262
  68   2.0000      -0.346676        -9.4335
  69   2.0000      -0.338507        -9.2112
  70   2.0000      -0.329721        -8.9722
  71   2.0000      -0.325165        -8.8482
  72   2.0000      -0.319843        -8.7034
  73   2.0000      -0.315318        -8.5802
  74   2.0000      -0.309740        -8.4284
  75   2.0000      -0.300945        -8.1891
  76   2.0000      -0.295182        -8.0323
  77   2.0000      -0.284713        -7.7474
  78   2.0000      -0.274192        -7.4611
  79   2.0000      -0.269679        -7.3383
  80   2.0000      -0.262563        -7.1447
  81   2.0000      -0.250949        -6.8287
  82   2.0000      -0.248212        -6.7542
  83   2.0000      -0.217756        -5.9254
  84   2.0000      -0.215204        -5.8560
  85   2.0000      -0.205332        -5.5874
  86   2.0000      -0.200879        -5.4662
  87   0.0000      -0.046429        -1.2634
  88   0.0000      -0.029190        -0.7943
  89   0.0000      -0.011688        -0.3180
  90   0.0000       0.009074         0.2469
  91   0.0000       0.015178         0.4130

MULLIKEN ATOMIC CHARGES
-----------------------
   0 C :   -0.296547
   1 C :   -0.021594
   2 O :   -0.229343
   3 C :    0.116891
   4 O :   -0.207401
   5 C :   -0.050838
   6 C :   -0.360325
   7 H :    0.180464
   8 C :    0.242452
   9 O :   -0.189269
  10 O :   -0.227619
  11 C :   -0.007382
  12 C :   -0.307280
  13 S :   -0.104728
  14 P :    0.626106
  15 S :   -0.304749
  16 O :   -0.391648
  17 C :   -0.100767
  18 O :   -0.364063
  19 C :   -0.109994
  20 H :    0.136806
  21 H :    0.109683
  22 H :    0.106631
  23 H :    0.099512
  24 H :    0.109917
  25 H :    0.104740
  26 H :    0.120789
  27 H :    0.101401
  28 H :    0.107939
  29 H :    0.132964
  30 H :    0.108601
  31 H :    0.127035
  32 H :    0.114745
  33 H :    0.120792
  34 H :    0.125691
  35 H :    0.131075
  36 H :    0.120523
  37 H :    0.128792
Sum of atomic charges:   -0.0000000

LOEWDIN ATOMIC CHARGES
----------------------
   0 C :   -0.354388
   1 C :   -0.111189
   2 O :   -0.056228
   3 C :    0.033036
   4 O :   -0.172205
   5 C :   -0.244917
   6 C :   -0.280485
   7 H :    0.148592
   8 C :    0.033268
   9 O :   -0.147233
  10 O :   -0.051414
  11 C :   -0.106582
  12 C :   -0.356856
  13 S :    0.087466
  14 P :    0.578650
  15 S :   -0.299487
  16 O :   -0.261526
  17 C :   -0.216587
  18 O :   -0.237446
  19 C :   -0.211130
  20 H :    0.135302
  21 H :    0.123633
  22 H :    0.126944
  23 H :    0.115248
  24 H :    0.119834
  25 H :    0.134787
  26 H :    0.147269
  27 H :    0.116761
  28 H :    0.119167
  29 H :    0.129892
  30 H :    0.128590
  31 H :    0.131705
  32 H :    0.108448
  33 H :    0.113083
  34 H :    0.122701
  35 H :    0.124885
  36 H :    0.110493
  37 H :    0.117920

  Mayer bond orders larger than 0.100000
B(  0-C ,  1-C ) :   1.1775 B(  0-C , 20-H ) :   0.9408 B(  0-C , 21-H ) :   0.9502
B(  0-C , 22-H ) :   0.9440 B(  1-C ,  2-O ) :   0.9142 B(  1-C , 23-H ) :   0.9377
B(  1-C , 24-H ) :   0.9087 B(  2-O ,  3-C ) :   1.2424 B(  3-C ,  4-O ) :   2.0378
B(  3-C ,  5-C ) :   1.0034 B(  5-C ,  6-C ) :   1.0626 B(  5-C , 25-H ) :   0.9054
B(  5-C , 26-H ) :   0.8816 B(  6-C ,  7-H ) :   0.8151 B(  6-C ,  8-C ) :   0.8905
B(  6-C , 13-S ) :   1.0243 B(  8-C ,  9-O ) :   2.0171 B(  8-C , 10-O ) :   1.2519
B( 10-O , 11-C ) :   0.8972 B( 11-C , 12-C ) :   1.1832 B( 11-C , 27-H ) :   0.9328
B( 11-C , 28-H ) :   0.9153 B( 12-C , 29-H ) :   0.9391 B( 12-C , 30-H ) :   0.9425
B( 12-C , 31-H ) :   0.9453 B( 13-S , 14-P ) :   0.9437 B( 13-S , 15-S ) :   0.1153
B( 14-P , 15-S ) :   1.6445 B( 14-P , 16-O ) :   1.0655 B( 14-P , 18-O ) :   1.1195
B( 16-O , 17-C ) :   0.9315 B( 17-C , 32-H ) :   0.9464 B( 17-C , 33-H ) :   0.9356
B( 17-C , 34-H ) :   0.9585 B( 18-O , 19-C ) :   0.9171 B( 19-C , 35-H ) :   0.9582
B( 19-C , 36-H ) :   0.9386 B( 19-C , 37-H ) :   0.9473

Dispersion correction           -0.051761704
FINAL SINGLE POINT ENERGY     -1979.023865607164

DIPOLE MOMENT
-------------

Method             : SCF
Type of density    : Electron Density
Multiplicity       :   1
Irrep              :   0
Energy             : -1979.1553492506600378 Eh
Relativity type    :
Basis              : AO
                                X                 Y                 Z
Electronic contribution:    -13.524902907       0.804288110      -4.783426184
Nuclear contribution   :     12.834746324      -1.863168808       5.800079641
                        -----------------------------------------
Total Dipole Moment    :     -0.690156583      -1.058880698       1.016653457
                        -----------------------------------------
Magnitude (a.u.)       :      1.622075428
Magnitude (Debye)      :      4.122988078

Rotational constants in cm-1:             0.016561             0.005920             0.005216
Rotational constants in MHz :           496.493269           177.469655           156.361446

                             ****ORCA TERMINATED NORMALLY****
TOTAL RUN TIME: 0 days 0 hours 0 minutes 28 seconds 160 msec
