                         Program Version 6.0.0  -   RELEASE  -
|  1> ! pbe def2-sv(p) def2/J RI DEFGRID1 loosescf d4 GCP(DFT/SV(P)) printgap
|  2> %output
|  3>     printlevel normal
|  4> end
|  5> * xyz 0 1
|  6> C 4.7187607106 -1.266433633 -0.6782447794
|  7> C 4.603669302 0.193862775 -0.292296412
|  8> O 3.4249778458 0.4551358398 0.4874317261
|  9> P 1.9600494094 0.3922713186 -0.1327330976
| 10> S 1.8756146104 1.0270500644 -1.9925020925
| 11> O 1.1411121435 1.1210500397 1.012536464
| 12> C 1.4823525959 2.4166294098 1.5541959079
| 13> C 1.306112233 3.5274743569 0.5395404745
| 14> S 1.3203361558 -1.5959767181 0.1837454559
| 15> C 0.286991444 -1.844382667 -1.2930683602
| 16> S -1.425015372 -2.2877053156 -0.8932759391
| 17> P -2.0446053606 -0.5117030233 0.0371101913
| 18> S -1.5232645382 1.1907045207 -0.7960369235
| 19> O -1.5516669556 -0.753798142 1.5178111789
| 20> C -1.6830783193 0.2575617515 2.5429167072
| 21> C -0.7095217036 -0.0805839141 3.6524812925
| 22> O -3.614964191 -0.7178184073 0.1921140335
| 23> C -4.5357162827 -0.4650622286 -0.8901690368
| 24> C -5.2217931764 0.8734347602 -0.6975899828
| 25> H 4.6249467789 -1.898679538 0.200895857
| 26> H 3.9310072249 -1.5257690908 -1.3839037921
| 27> H 5.6820804246 -1.438206769 -1.1474172358
| 28> H 4.5733460214 0.8253282121 -1.186059582
| 29> H 5.4222162374 0.5055520165 0.3578991819
| 30> H 0.7921266553 2.5324279889 2.391952783
| 31> H 2.5102471913 2.3764130062 1.9218605228
| 32> H 2.0332407268 3.4270563179 -0.2647077406
| 33> H 0.3096398022 3.4815310411 0.1034177537
| 34> H 1.4433204418 4.4880752589 1.0255636278
| 35> H 0.6811900341 -2.6903153494 -1.8504689915
| 36> H 0.3120688056 -0.9308723966 -1.8954142667
| 37> H -1.4687944327 1.2334935089 2.0940080697
| 38> H -2.7171624726 0.2435884644 2.8949866215
| 39> H -0.9267103353 -1.0702767135 4.0434484907
| 40> H 0.3077575979 -0.0732507188 3.2695910211
| 41> H -0.8039133053 0.6516683262 4.4479401833
| 42> H -3.9947754175 -0.4921476241 -1.8399503922
| 43> H -5.2480052206 -1.2909298752 -0.8525142951
| 44> H -4.4893319902 1.6768883137 -0.7406151008
| 45> H -5.9520552332 1.0176207306 -1.4871906137
| 46> H -5.7217756778 0.9024782524 0.2662933695
| 47> *
| 48>
| 49>                          ****END OF INPUT****

CARTESIAN COORDINATES (ANGSTROEM)
---------------------------------
  C      4.718761   -1.266434   -0.678245
  C      4.603669    0.193863   -0.292296
  O      3.424978    0.455136    0.487432
  P      1.960049    0.392271   -0.132733
  S      1.875615    1.027050   -1.992502
  O      1.141112    1.121050    1.012536
  C      1.482353    2.416629    1.554196
  C      1.306112    3.527474    0.539540
  S      1.320336   -1.595977    0.183745
  C      0.286991   -1.844383   -1.293068
  S     -1.425015   -2.287705   -0.893276
  P     -2.044605   -0.511703    0.037110
  S     -1.523265    1.190705   -0.796037
  O     -1.551667   -0.753798    1.517811
  C     -1.683078    0.257562    2.542917
  C     -0.709522   -0.080584    3.652481
  O     -3.614964   -0.717818    0.192114
  C     -4.535716   -0.465062   -0.890169
  C     -5.221793    0.873435   -0.697590
  H      4.624947   -1.898680    0.200896
  H      3.931007   -1.525769   -1.383904
  H      5.682080   -1.438207   -1.147417
  H      4.573346    0.825328   -1.186060
  H      5.422216    0.505552    0.357899
  H      0.792127    2.532428    2.391953
  H      2.510247    2.376413    1.921861
  H      2.033241    3.427056   -0.264708
  H      0.309640    3.481531    0.103418
  H      1.443320    4.488075    1.025564
  H      0.681190   -2.690315   -1.850469
  H      0.312069   -0.930872   -1.895414
  H     -1.468794    1.233494    2.094008
  H     -2.717162    0.243588    2.894987
  H     -0.926710   -1.070277    4.043448
  H      0.307758   -0.073251    3.269591
  H     -0.803913    0.651668    4.447940
  H     -3.994775   -0.492148   -1.839950
  H     -5.248005   -1.290930   -0.852514
  H     -4.489332    1.676888   -0.740615
  H     -5.952055    1.017621   -1.487191
  H     -5.721776    0.902478    0.266293

 Total Charge           Charge          ....    0
 Multiplicity           Mult            ....    1
 Number of Electrons    NEL             ....  202
 Basis Dimension        Dim             ....  334

ORBITAL ENERGIES
----------------

  NO   OCC          E(Eh)            E(eV)
   0   2.0000     -88.040775     -2395.7113
   1   2.0000     -88.040352     -2395.6998
   2   2.0000     -87.984138     -2394.1701
   3   2.0000     -87.979146     -2394.0343
   4   2.0000     -76.425371     -2079.6401
   5   2.0000     -76.420965     -2079.5202
   6   2.0000     -18.793384      -511.3940
   7   2.0000     -18.788364      -511.2574
   8   2.0000     -18.788103      -511.2503
   9   2.0000     -18.784254      -511.1455
  10   2.0000      -9.952658      -270.8256
  11   2.0000      -9.952514      -270.8217
  12   2.0000      -9.951129      -270.7840
  13   2.0000      -9.950885      -270.7773
  14   2.0000      -9.947678      -270.6901
  15   2.0000      -9.882673      -268.9212
  16   2.0000      -9.881425      -268.8872
  17   2.0000      -9.879565      -268.8366
  18   2.0000      -9.876586      -268.7556
  19   2.0000      -7.686610      -209.1633
  20   2.0000      -7.685422      -209.1310
  21   2.0000      -7.629039      -207.5967
  22   2.0000      -7.623978      -207.4590
  23   2.0000      -6.422567      -174.7669
  24   2.0000      -6.418669      -174.6609
  25   2.0000      -5.714614      -155.5025
  26   2.0000      -5.713318      -155.4673
  27   2.0000      -5.710902      -155.4015
  28   2.0000      -5.710016      -155.3774
  29   2.0000      -5.703562      -155.2018
  30   2.0000      -5.702243      -155.1659
  31   2.0000      -5.657929      -153.9601
  32   2.0000      -5.652695      -153.8177
  33   2.0000      -5.649881      -153.7411
  34   2.0000      -5.648996      -153.7170
  35   2.0000      -5.644651      -153.5988
  36   2.0000      -5.644264      -153.5882
  37   2.0000      -4.645315      -126.4054
  38   2.0000      -4.644076      -126.3717
  39   2.0000      -4.643139      -126.3462
  40   2.0000      -4.641251      -126.2949
  41   2.0000      -4.640427      -126.2724
  42   2.0000      -4.639097      -126.2363
  43   2.0000      -0.986838       -26.8532
  44   2.0000      -0.981760       -26.7151
  45   2.0000      -0.942160       -25.6375
  46   2.0000      -0.939517       -25.5655
  47   2.0000      -0.761308       -20.7162
  48   2.0000      -0.719883       -19.5890
  49   2.0000      -0.706432       -19.2230
  50   2.0000      -0.685806       -18.6617
  51   2.0000      -0.683723       -18.6051
  52   2.0000      -0.672588       -18.3021
  53   2.0000      -0.648416       -17.6443
  54   2.0000      -0.631221       -17.1764
  55   2.0000      -0.597040       -16.2463
  56   2.0000      -0.585137       -15.9224
  57   2.0000      -0.575268       -15.6538
  58   2.0000      -0.569064       -15.4850
  59   2.0000      -0.554428       -15.0868
  60   2.0000      -0.502689       -13.6789
  61   2.0000      -0.495082       -13.4719
  62   2.0000      -0.477461       -12.9924
  63   2.0000      -0.467785       -12.7291
  64   2.0000      -0.453840       -12.3496
  65   2.0000      -0.438122       -11.9219
  66   2.0000      -0.437170       -11.8960
  67   2.0000      -0.431747       -11.7484
  68   2.0000      -0.425287       -11.5726
  69   2.0000      -0.415616       -11.3095
  70   2.0000      -0.407058       -11.0766
  71   2.0000      -0.405158       -11.0249
  72   2.0000      -0.389725       -10.6049
  73   2.0000      -0.385630       -10.4935
  74   2.0000      -0.376779       -10.2527
  75   2.0000      -0.368797       -10.0355
  76   2.0000      -0.364196        -9.9103
  77   2.0000      -0.353435        -9.6174
  78   2.0000      -0.351229        -9.5574
  79   2.0000      -0.347478        -9.4554
  80   2.0000      -0.343421        -9.3450
  81   2.0000      -0.340412        -9.2631
  82   2.0000      -0.332512        -9.0481
  83   2.0000      -0.332208        -9.0398
  84   2.0000      -0.329866        -8.9761
  85   2.0000      -0.313232        -8.5235
  86   2.0000      -0.311431        -8.4745
  87   2.0000      -0.295561        -8.0426
  88   2.0000      -0.294718        -8.0197
  89   2.0000      -0.287954        -7.8356
  90   2.0000      -0.286836        -7.8052
  91   2.0000      -0.273626        -7.4457
  92   2.0000      -0.268451        -7.3049
  93   2.0000      -0.260960        -7.1011
  94   2.0000      -0.258467        -7.0333
  95   2.0000      -0.234213        -6.3733
  96   2.0000      -0.219796        -5.9809
  97   2.0000      -0.213613        -5.8127
  98   2.0000      -0.199900        -5.4395
  99   2.0000      -0.191925        -5.2225
 100   2.0000      -0.183439        -4.9916
 101   0.0000      -0.038764        -1.0548
 102   0.0000      -0.032692        -0.8896
 103   0.0000      -0.009068        -0.2468
 104   0.0000       0.013025         0.3544
 105   0.0000       0.018916         0.5147

MULLIKEN ATOMIC CHARGES
-----------------------
   0 C :   -0.307425
   1 C :   -0.004585
   2 O :   -0.382930
   3 P :    0.629051
   4 S :   -0.308199
   5 O :   -0.361965
   6 C :   -0.008840
   7 C :   -0.315038
   8 S :   -0.080485
   9 C :   -0.365603
  10 S :   -0.083822
  11 P :    0.604435
  12 S :   -0.316940
  13 O :   -0.360105
  14 C :   -0.005584
  15 C :   -0.289266
  16 O :   -0.382951
  17 C :   -0.006462
  18 C :   -0.287775
  19 H :    0.116953
  20 H :    0.119302
  21 H :    0.111680
  22 H :    0.110433
  23 H :    0.101733
  24 H :    0.104860
  25 H :    0.107310
  26 H :    0.124802
  27 H :    0.136797
  28 H :    0.105366
  29 H :    0.180869
  30 H :    0.210464
  31 H :    0.105373
  32 H :    0.100500
  33 H :    0.115862
  34 H :    0.129115
  35 H :    0.103367
  36 H :    0.103329
  37 H :    0.105554
  38 H :    0.123992
  39 H :    0.107292
  40 H :    0.109537
Sum of atomic charges:   -0.0000000

LOEWDIN ATOMIC CHARGES
----------------------
   0 C :   -0.368045
   1 C :   -0.121705
   2 O :   -0.247728
   3 P :    0.573314
   4 S :   -0.296231
   5 O :   -0.235568
   6 C :   -0.110896
   7 C :   -0.368407
   8 S :    0.092243
   9 C :   -0.480995
  10 S :    0.082882
  11 P :    0.558346
  12 S :   -0.307745
  13 O :   -0.238248
  14 C :   -0.113530
  15 C :   -0.354107
  16 O :   -0.253637
  17 C :   -0.116363
  18 C :   -0.360583
  19 H :    0.124331
  20 H :    0.119397
  21 H :    0.130139
  22 H :    0.109069
  23 H :    0.116690
  24 H :    0.114911
  25 H :    0.111106
  26 H :    0.121101
  27 H :    0.130040
  28 H :    0.126982
  29 H :    0.135970
  30 H :    0.125987
  31 H :    0.105841
  32 H :    0.111334
  33 H :    0.127539
  34 H :    0.126751
  35 H :    0.126214
  36 H :    0.109007
  37 H :    0.117350
  38 H :    0.124959
  39 H :    0.128610
  40 H :    0.123673

  Mayer bond orders larger than 0.100000
B(  0-C ,  1-C ) :   1.1670 B(  0-C , 19-H ) :   0.9448 B(  0-C , 20-H ) :   0.9368
B(  0-C , 21-H ) :   0.9383 B(  1-C ,  2-O ) :   0.9117 B(  1-C , 22-H ) :   0.9120
B(  1-C , 23-H ) :   0.9330 B(  2-O ,  3-P ) :   1.0833 B(  3-P ,  4-S ) :   1.6003
B(  3-P ,  5-O ) :   1.1192 B(  3-P ,  8-S ) :   0.9681 B(  4-S ,  8-S ) :   0.1239
B(  5-O ,  6-C ) :   0.9039 B(  6-C ,  7-C ) :   1.1695 B(  6-C , 24-H ) :   0.9269
B(  6-C , 25-H ) :   0.9285 B(  7-C , 26-H ) :   0.9351 B(  7-C , 27-H ) :   0.9399
B(  7-C , 28-H ) :   0.9368 B(  8-S ,  9-C ) :   1.0028 B(  9-C , 10-S ) :   0.9977
B(  9-C , 29-H ) :   0.9112 B(  9-C , 30-H ) :   0.8460 B( 10-S , 11-P ) :   0.9698
B( 10-S , 12-S ) :   0.1129 B( 11-P , 12-S ) :   1.6285 B( 11-P , 13-O ) :   1.1393
B( 11-P , 16-O ) :   1.0965 B( 13-O , 14-C ) :   0.8973 B( 14-C , 15-C ) :   1.1661
B( 14-C , 31-H ) :   0.9058 B( 14-C , 32-H ) :   0.9305 B( 15-C , 33-H ) :   0.9482
B( 15-C , 34-H ) :   0.9419 B( 15-C , 35-H ) :   0.9407 B( 16-O , 17-C ) :   0.9017
B( 17-C , 18-C ) :   1.1671 B( 17-C , 36-H ) :   0.9136 B( 17-C , 37-H ) :   0.9354
B( 18-C , 38-H ) :   0.9356 B( 18-C , 39-H ) :   0.9402 B( 18-C , 40-H ) :   0.9481

Dispersion correction           -0.067585859
FINAL SINGLE POINT ENERGY     -2929.520116936470

DIPOLE MOMENT
-------------

Method             : SCF
Type of density    : Electron Density
Multiplicity       :   1
Irrep              :   0
Energy             : -2929.6379479754273234 Eh
Relativity type    :
Basis              : AO
                                X                 Y                 Z
Electronic contribution:     -1.091575247     -11.330201967      -9.071828583
Nuclear contribution   :      1.279733797      11.369208474       9.962718966
                        -----------------------------------------
Total Dipole Moment    :      0.188158550       0.039006507       0.890890383
                        -----------------------------------------
Magnitude (a.u.)       :      0.911378528
Magnitude (Debye)      :      2.316540121

Rotational constants in cm-1:             0.012299             0.005488             0.005115
Rotational constants in MHz :           368.712299           164.530704           153.353817

                             ****ORCA TERMINATED NORMALLY****
TOTAL RUN TIME: 0 days 0 hours 0 minutes 21 seconds 611 msec
