                         Program Version 6.0.0  -   RELEASE  -
|  1> ! pbe def2-sv(p) def2/J RI DEFGRID1 loosescf d4 GCP(DFT/SV(P)) printgap
|  2> %output
|  3>     printlevel normal
|  4> end
|  5> * xyz 0 1
|  6> C 4.6063880356 -0.0458727703 -1.7861596608
|  7> C 4.3916034951 1.044488876 -0.7571837164
|  8> O 3.469998507 0.6508881548 0.2751700865
|  9> P 1.9307225914 0.3790917608 -0.0052843453
| 10> S 1.0591253191 1.6056882307 -1.2636346391
| 11> O 1.3073123412 0.4949173192 1.4406310699
| 12> C 1.9537165878 0.113403347 2.6835849284
| 13> C 2.1199680989 -1.3858506871 2.8180290568
| 14> S 1.8632200249 -1.6719091341 -0.5693977598
| 15> C 0.1155122648 -1.756656012 -1.0054494467
| 16> S -0.9879778058 -1.497686383 0.4212483889
| 17> P -2.1517420558 0.1381778406 -0.2823586867
| 18> S -2.2021008559 0.409651556 -2.2172220043
| 19> O -1.6822042923 1.4037595643 0.5341468553
| 20> C -1.7704562749 1.462615288 1.9808487823
| 21> C -1.0677762389 2.7257948041 2.4305027371
| 22> O -3.571438094 -0.1350268396 0.3909948109
| 23> C -4.5964153467 -0.9214321081 -0.2428257852
| 24> C -4.2020700615 -2.3756761915 -0.3990371748
| 25> H 4.8657640209 -0.9824698882 -1.2993174472
| 26> H 3.6983588387 -0.1919457546 -2.3691631309
| 27> H 5.4083187066 0.2480440062 -2.4558073098
| 28> H 4.0077892725 1.9519647605 -1.2333553578
| 29> H 5.3087785483 1.2696419598 -0.2108693092
| 30> H 2.9165609959 0.6236456675 2.7382184768
| 31> H 1.2781069776 0.510110613 3.4434114778
| 32> H 2.8589910108 -1.754442736 2.1107991289
| 33> H 2.4528053046 -1.6113759516 3.8264120339
| 34> H 1.1742405387 -1.8906506223 2.6326321601
| 35> H -0.0498628118 -2.7616995837 -1.3850604459
| 36> H -0.1216508424 -1.0047331935 -1.7636451438
| 37> H -2.8272224265 1.4669370299 2.2550020767
| 38> H -1.2931814486 0.5661895245 2.3878988006
| 39> H -0.0316944596 2.7088344191 2.1018370298
| 40> H -1.5521073429 3.5953979871 1.9952551108
| 41> H -1.1071115428 2.7923757652 3.5129549042
| 42> H -5.4549770604 -0.8051645064 0.4201751244
| 43> H -4.8148559646 -0.4765501705 -1.2184079468
| 44> H -3.8664399015 -2.7832615256 0.5511526499
| 45> H -5.0592853143 -2.939518303 -0.7524857776
| 46> H -3.3983784602 -2.4650051983 -1.1283391548
| 47> *
| 48>
| 49>                          ****END OF INPUT****

CARTESIAN COORDINATES (ANGSTROEM)
---------------------------------
  C      4.606388   -0.045873   -1.786160
  C      4.391603    1.044489   -0.757184
  O      3.469999    0.650888    0.275170
  P      1.930723    0.379092   -0.005284
  S      1.059125    1.605688   -1.263635
  O      1.307312    0.494917    1.440631
  C      1.953717    0.113403    2.683585
  C      2.119968   -1.385851    2.818029
  S      1.863220   -1.671909   -0.569398
  C      0.115512   -1.756656   -1.005449
  S     -0.987978   -1.497686    0.421248
  P     -2.151742    0.138178   -0.282359
  S     -2.202101    0.409652   -2.217222
  O     -1.682204    1.403760    0.534147
  C     -1.770456    1.462615    1.980849
  C     -1.067776    2.725795    2.430503
  O     -3.571438   -0.135027    0.390995
  C     -4.596415   -0.921432   -0.242826
  C     -4.202070   -2.375676   -0.399037
  H      4.865764   -0.982470   -1.299317
  H      3.698359   -0.191946   -2.369163
  H      5.408319    0.248044   -2.455807
  H      4.007789    1.951965   -1.233355
  H      5.308779    1.269642   -0.210869
  H      2.916561    0.623646    2.738218
  H      1.278107    0.510111    3.443411
  H      2.858991   -1.754443    2.110799
  H      2.452805   -1.611376    3.826412
  H      1.174241   -1.890651    2.632632
  H     -0.049863   -2.761700   -1.385060
  H     -0.121651   -1.004733   -1.763645
  H     -2.827222    1.466937    2.255002
  H     -1.293181    0.566190    2.387899
  H     -0.031694    2.708834    2.101837
  H     -1.552107    3.595398    1.995255
  H     -1.107112    2.792376    3.512955
  H     -5.454977   -0.805165    0.420175
  H     -4.814856   -0.476550   -1.218408
  H     -3.866440   -2.783262    0.551153
  H     -5.059285   -2.939518   -0.752486
  H     -3.398378   -2.465005   -1.128339

 Total Charge           Charge          ....    0
 Multiplicity           Mult            ....    1
 Number of Electrons    NEL             ....  202
 Basis Dimension        Dim             ....  334

ORBITAL ENERGIES
----------------

  NO   OCC          E(Eh)            E(eV)
   0   2.0000     -88.041387     -2395.7279
   1   2.0000     -88.038064     -2395.6375
   2   2.0000     -87.979671     -2394.0486
   3   2.0000     -87.978008     -2394.0033
   4   2.0000     -76.424389     -2079.6134
   5   2.0000     -76.419376     -2079.4769
   6   2.0000     -18.796451      -511.4774
   7   2.0000     -18.790581      -511.3177
   8   2.0000     -18.786435      -511.2049
   9   2.0000     -18.780974      -511.0563
  10   2.0000      -9.958746      -270.9913
  11   2.0000      -9.955363      -270.8992
  12   2.0000      -9.951870      -270.8041
  13   2.0000      -9.948533      -270.7134
  14   2.0000      -9.947416      -270.6829
  15   2.0000      -9.887576      -269.0546
  16   2.0000      -9.885242      -268.9911
  17   2.0000      -9.880544      -268.8633
  18   2.0000      -9.878876      -268.8179
  19   2.0000      -7.686363      -209.1566
  20   2.0000      -7.682709      -209.0571
  21   2.0000      -7.624845      -207.4826
  22   2.0000      -7.622913      -207.4300
  23   2.0000      -6.421576      -174.7400
  24   2.0000      -6.416802      -174.6100
  25   2.0000      -5.714251      -155.4927
  26   2.0000      -5.710806      -155.3989
  27   2.0000      -5.710540      -155.3917
  28   2.0000      -5.707226      -155.3015
  29   2.0000      -5.703393      -155.1972
  30   2.0000      -5.699724      -155.0974
  31   2.0000      -5.653898      -153.8504
  32   2.0000      -5.651921      -153.7966
  33   2.0000      -5.645352      -153.6178
  34   2.0000      -5.644944      -153.6067
  35   2.0000      -5.643653      -153.5716
  36   2.0000      -5.642903      -153.5512
  37   2.0000      -4.644715      -126.3891
  38   2.0000      -4.643167      -126.3470
  39   2.0000      -4.641673      -126.3064
  40   2.0000      -4.639590      -126.2497
  41   2.0000      -4.638382      -126.2168
  42   2.0000      -4.637276      -126.1867
  43   2.0000      -0.989462       -26.9246
  44   2.0000      -0.980528       -26.6815
  45   2.0000      -0.945393       -25.7254
  46   2.0000      -0.935260       -25.4497
  47   2.0000      -0.759844       -20.6764
  48   2.0000      -0.717879       -19.5345
  49   2.0000      -0.708610       -19.2823
  50   2.0000      -0.692236       -18.8367
  51   2.0000      -0.683718       -18.6049
  52   2.0000      -0.675893       -18.3920
  53   2.0000      -0.647582       -17.6216
  54   2.0000      -0.629655       -17.1338
  55   2.0000      -0.596746       -16.2383
  56   2.0000      -0.585967       -15.9450
  57   2.0000      -0.581123       -15.8132
  58   2.0000      -0.563820       -15.3423
  59   2.0000      -0.557621       -15.1736
  60   2.0000      -0.500076       -13.6078
  61   2.0000      -0.497166       -13.5286
  62   2.0000      -0.472102       -12.8466
  63   2.0000      -0.467703       -12.7268
  64   2.0000      -0.452417       -12.3109
  65   2.0000      -0.447552       -12.1785
  66   2.0000      -0.444025       -12.0825
  67   2.0000      -0.432860       -11.7787
  68   2.0000      -0.430124       -11.7043
  69   2.0000      -0.419051       -11.4029
  70   2.0000      -0.412469       -11.2238
  71   2.0000      -0.401177       -10.9166
  72   2.0000      -0.385697       -10.4954
  73   2.0000      -0.383409       -10.4331
  74   2.0000      -0.377929       -10.2840
  75   2.0000      -0.367116        -9.9897
  76   2.0000      -0.358871        -9.7654
  77   2.0000      -0.356566        -9.7027
  78   2.0000      -0.353331        -9.6146
  79   2.0000      -0.349299        -9.5049
  80   2.0000      -0.347020        -9.4429
  81   2.0000      -0.345208        -9.3936
  82   2.0000      -0.337899        -9.1947
  83   2.0000      -0.333573        -9.0770
  84   2.0000      -0.330694        -8.9986
  85   2.0000      -0.318333        -8.6623
  86   2.0000      -0.309012        -8.4086
  87   2.0000      -0.299923        -8.1613
  88   2.0000      -0.294916        -8.0251
  89   2.0000      -0.294323        -8.0089
  90   2.0000      -0.289572        -7.8796
  91   2.0000      -0.272668        -7.4197
  92   2.0000      -0.261943        -7.1278
  93   2.0000      -0.260539        -7.0896
  94   2.0000      -0.254636        -6.9290
  95   2.0000      -0.230868        -6.2822
  96   2.0000      -0.216662        -5.8957
  97   2.0000      -0.211660        -5.7596
  98   2.0000      -0.198198        -5.3932
  99   2.0000      -0.188064        -5.1175
 100   2.0000      -0.182333        -4.9615
 101   0.0000      -0.040804        -1.1103
 102   0.0000      -0.030974        -0.8428
 103   0.0000      -0.007440        -0.2025
 104   0.0000       0.010295         0.2801
 105   0.0000       0.020722         0.5639

MULLIKEN ATOMIC CHARGES
-----------------------
   0 C :   -0.323123
   1 C :    0.001708
   2 O :   -0.387487
   3 P :    0.602024
   4 S :   -0.280413
   5 O :   -0.359327
   6 C :   -0.002272
   7 C :   -0.314047
   8 S :   -0.109489
   9 C :   -0.347761
  10 S :   -0.122755
  11 P :    0.614665
  12 S :   -0.288781
  13 O :   -0.348875
  14 C :   -0.015481
  15 C :   -0.285999
  16 O :   -0.391871
  17 C :    0.001859
  18 C :   -0.310013
  19 H :    0.116317
  20 H :    0.134658
  21 H :    0.115664
  22 H :    0.113846
  23 H :    0.103373
  24 H :    0.111886
  25 H :    0.106267
  26 H :    0.123492
  27 H :    0.110559
  28 H :    0.127175
  29 H :    0.179725
  30 H :    0.207311
  31 H :    0.105765
  32 H :    0.100256
  33 H :    0.133663
  34 H :    0.119418
  35 H :    0.100141
  36 H :    0.101119
  37 H :    0.111266
  38 H :    0.115279
  39 H :    0.110460
  40 H :    0.119796
Sum of atomic charges:   -0.0000000

LOEWDIN ATOMIC CHARGES
----------------------
   0 C :   -0.372216
   1 C :   -0.116249
   2 O :   -0.249348
   3 P :    0.562114
   4 S :   -0.288810
   5 O :   -0.235290
   6 C :   -0.108758
   7 C :   -0.370220
   8 S :    0.078331
   9 C :   -0.481386
  10 S :    0.065458
  11 P :    0.573822
  12 S :   -0.291807
  13 O :   -0.229042
  14 C :   -0.114938
  15 C :   -0.353160
  16 O :   -0.252984
  17 C :   -0.116920
  18 C :   -0.370888
  19 H :    0.122535
  20 H :    0.124160
  21 H :    0.132641
  22 H :    0.114034
  23 H :    0.117799
  24 H :    0.114777
  25 H :    0.116984
  26 H :    0.118344
  27 H :    0.129603
  28 H :    0.123760
  29 H :    0.135913
  30 H :    0.125285
  31 H :    0.111249
  32 H :    0.101559
  33 H :    0.129883
  34 H :    0.129771
  35 H :    0.124820
  36 H :    0.116786
  37 H :    0.111793
  38 H :    0.121980
  39 H :    0.129395
  40 H :    0.119222

  Mayer bond orders larger than 0.100000
B(  0-C ,  1-C ) :   1.1671 B(  0-C , 19-H ) :   0.9438 B(  0-C , 20-H ) :   0.9328
B(  0-C , 21-H ) :   0.9367 B(  1-C ,  2-O ) :   0.9036 B(  1-C , 22-H ) :   0.9167
B(  1-C , 23-H ) :   0.9342 B(  2-O ,  3-P ) :   1.0746 B(  3-P ,  4-S ) :   1.6716
B(  3-P ,  5-O ) :   1.1123 B(  3-P ,  8-S ) :   0.9349 B(  4-S ,  8-S ) :   0.1087
B(  5-O ,  6-C ) :   0.8969 B(  6-C ,  7-C ) :   1.1754 B(  6-C , 24-H ) :   0.9258
B(  6-C , 25-H ) :   0.9292 B(  7-C , 26-H ) :   0.9387 B(  7-C , 27-H ) :   0.9354
B(  7-C , 28-H ) :   0.9396 B(  8-S ,  9-C ) :   1.0038 B(  9-C , 10-S ) :   0.9979
B(  9-C , 29-H ) :   0.9109 B(  9-C , 30-H ) :   0.8447 B( 10-S , 11-P ) :   0.9473
B( 10-S , 12-S ) :   0.1132 B( 11-P , 12-S ) :   1.6330 B( 11-P , 13-O ) :   1.1401
B( 11-P , 16-O ) :   1.0691 B( 13-O , 14-C ) :   0.8973 B( 14-C , 15-C ) :   1.1676
B( 14-C , 31-H ) :   0.9261 B( 14-C , 32-H ) :   0.9125 B( 15-C , 33-H ) :   0.9398
B( 15-C , 34-H ) :   0.9486 B( 15-C , 35-H ) :   0.9401 B( 16-O , 17-C ) :   0.9142
B( 17-C , 18-C ) :   1.1666 B( 17-C , 36-H ) :   0.9346 B( 17-C , 37-H ) :   0.9178
B( 18-C , 38-H ) :   0.9427 B( 18-C , 39-H ) :   0.9372 B( 18-C , 40-H ) :   0.9367

Dispersion correction           -0.068748831
FINAL SINGLE POINT ENERGY     -2929.513865876466

DIPOLE MOMENT
-------------

Method             : SCF
Type of density    : Electron Density
Multiplicity       :   1
Irrep              :   0
Energy             : -2929.6320694926425858 Eh
Relativity type    :
Basis              : AO
                                X                 Y                 Z
Electronic contribution:     -3.692701330       3.231862851     -12.066207062
Nuclear contribution   :      4.319516343      -4.083474424      13.685027230
                        -----------------------------------------
Total Dipole Moment    :      0.626815013      -0.851611573       1.618820168
                        -----------------------------------------
Magnitude (a.u.)       :      1.933576497
Magnitude (Debye)      :      4.914760873

Rotational constants in cm-1:             0.012407             0.005546             0.005279
Rotational constants in MHz :           371.940470           166.255483           158.255016

                             ****ORCA TERMINATED NORMALLY****
TOTAL RUN TIME: 0 days 0 hours 0 minutes 22 seconds 279 msec
