                         Program Version 6.0.1  -  RELEASE   -
|  1> ! pbe def2-sv(p) def2/J RI DEFGRID1 loosescf d4 GCP(DFT/SV(P)) printgap
|  2> %output
|  3>     printlevel normal
|  4> end
|  5> * xyz 0 1
|  6> C 1.3851419234 -3.7241887285 -2.0898109364
|  7> C 2.620919609 -2.8443578302 -2.1909185655
|  8> O 2.4325189597 -1.6321644844 -1.4381427023
|  9> C 2.854796662 -1.5920044755 -0.1888823769
| 10> O 3.4644151888 -2.4801349301 0.3617244819
| 11> C 2.5118271117 -0.2727046861 0.4804094553
| 12> C 1.090390851 0.1652419045 0.1518264334
| 13> H 0.9653024064 0.2577300293 -0.933208296
| 14> C 0.7168955849 1.4974599632 0.7676860044
| 15> O -0.3728739075 1.6886069696 1.2734432406
| 16> O 1.6654969009 2.3826032045 0.6671977981
| 17> C 1.3905356963 3.7362537173 1.0941164659
| 18> C 0.7382660586 4.5216794205 -0.0314141702
| 19> S -0.1232755655 -1.0778655272 0.7376598185
| 20> P -1.90971168 -0.0645719654 0.1986425796
| 21> S -1.8379567977 1.1914546493 -1.3136156278
| 22> O -2.8319698834 -1.3354243483 -0.1310136642
| 23> C -2.5696537509 -2.1668336811 -1.2629343467
| 24> O -2.7460544486 0.3258716854 1.4867895969
| 25> C -3.0749702285 1.6543219598 1.8976633551
| 26> H 1.2113107026 -4.0026339443 -1.0525133247
| 27> H 0.5149362411 -3.1903597759 -2.4628891215
| 28> H 1.5324919333 -4.6230408207 -2.6789932823
| 29> H 2.7912177346 -2.5148008625 -3.216235715
| 30> H 3.5023274181 -3.3627883993 -1.8036823302
| 31> H 3.2048258938 0.4903552907 0.1199770171
| 32> H 2.6447652299 -0.3991064193 1.5549571204
| 33> H 0.7436596705 3.7019231439 1.9742004152
| 34> H 2.3687074237 4.1412859804 1.3517165949
| 35> H 1.3888240908 4.5443180187 -0.9009575329
| 36> H -0.2057071359 4.0601580433 -0.3163501147
| 37> H 0.5476678833 5.5365378574 0.3008713705
| 38> H -3.4552185705 -2.7854628061 -1.3841868419
| 39> H -1.6932762725 -2.7887810331 -1.076916672
| 40> H -2.4119227472 -1.552491498 -2.1521023884
| 41> H -2.4089955518 1.9532128196 2.7046754817
| 42> H -4.1075121337 1.6168774078 2.2384414358
| 43> H -2.9758460156 2.3488310912 1.0618862032
| 44> *
| 45>
| 46>                          ****END OF INPUT****

CARTESIAN COORDINATES (ANGSTROEM)
---------------------------------
  C      1.385142   -3.724189   -2.089811
  C      2.620920   -2.844358   -2.190919
  O      2.432519   -1.632164   -1.438143
  C      2.854797   -1.592004   -0.188882
  O      3.464415   -2.480135    0.361724
  C      2.511827   -0.272705    0.480409
  C      1.090391    0.165242    0.151826
  H      0.965302    0.257730   -0.933208
  C      0.716896    1.497460    0.767686
  O     -0.372874    1.688607    1.273443
  O      1.665497    2.382603    0.667198
  C      1.390536    3.736254    1.094116
  C      0.738266    4.521679   -0.031414
  S     -0.123276   -1.077866    0.737660
  P     -1.909712   -0.064572    0.198643
  S     -1.837957    1.191455   -1.313616
  O     -2.831970   -1.335424   -0.131014
  C     -2.569654   -2.166834   -1.262934
  O     -2.746054    0.325872    1.486790
  C     -3.074970    1.654322    1.897663
  H      1.211311   -4.002634   -1.052513
  H      0.514936   -3.190360   -2.462889
  H      1.532492   -4.623041   -2.678993
  H      2.791218   -2.514801   -3.216236
  H      3.502327   -3.362788   -1.803682
  H      3.204826    0.490355    0.119977
  H      2.644765   -0.399106    1.554957
  H      0.743660    3.701923    1.974200
  H      2.368707    4.141286    1.351717
  H      1.388824    4.544318   -0.900958
  H     -0.205707    4.060158   -0.316350
  H      0.547668    5.536538    0.300871
  H     -3.455219   -2.785463   -1.384187
  H     -1.693276   -2.788781   -1.076917
  H     -2.411923   -1.552491   -2.152102
  H     -2.408996    1.953213    2.704675
  H     -4.107512    1.616877    2.238441
  H     -2.975846    2.348831    1.061886

 Total Charge           Charge          ....    0
 Multiplicity           Mult            ....    1
 Number of Electrons    NEL             ....  174
 Basis Dimension        Dim             ....  316

ORBITAL ENERGIES
----------------

  NO   OCC          E(Eh)            E(eV)
   0   2.0000     -88.037301     -2395.6168
   1   2.0000     -87.976238     -2393.9551
   2   2.0000     -76.421550     -2079.5361
   3   2.0000     -18.828581      -512.3517
   4   2.0000     -18.807782      -511.7858
   5   2.0000     -18.781435      -511.0688
   6   2.0000     -18.775262      -510.9009
   7   2.0000     -18.761080      -510.5149
   8   2.0000     -18.741863      -509.9920
   9   2.0000     -10.031831      -272.9800
  10   2.0000     -10.015914      -272.5469
  11   2.0000      -9.963655      -271.1248
  12   2.0000      -9.951016      -270.7809
  13   2.0000      -9.950810      -270.7753
  14   2.0000      -9.933963      -270.3169
  15   2.0000      -9.933772      -270.3117
  16   2.0000      -9.919824      -269.9321
  17   2.0000      -9.894543      -269.2442
  18   2.0000      -9.889356      -269.1031
  19   2.0000      -7.682150      -209.0419
  20   2.0000      -7.621379      -207.3883
  21   2.0000      -6.417138      -174.6192
  22   2.0000      -5.710039      -155.3781
  23   2.0000      -5.706860      -155.2916
  24   2.0000      -5.698994      -155.0775
  25   2.0000      -5.650385      -153.7548
  26   2.0000      -5.642233      -153.5330
  27   2.0000      -5.641173      -153.5041
  28   2.0000      -4.639494      -126.2470
  29   2.0000      -4.639308      -126.2420
  30   2.0000      -4.637777      -126.2003
  31   2.0000      -1.037793       -28.2398
  32   2.0000      -1.015635       -27.6368
  33   2.0000      -0.974415       -26.5152
  34   2.0000      -0.941176       -25.6107
  35   2.0000      -0.928338       -25.2614
  36   2.0000      -0.919798       -25.0290
  37   2.0000      -0.771029       -20.9808
  38   2.0000      -0.719353       -19.5746
  39   2.0000      -0.711836       -19.3700
  40   2.0000      -0.690014       -18.7762
  41   2.0000      -0.656439       -17.8626
  42   2.0000      -0.631450       -17.1826
  43   2.0000      -0.623747       -16.9730
  44   2.0000      -0.612968       -16.6797
  45   2.0000      -0.598214       -16.2782
  46   2.0000      -0.573215       -15.5980
  47   2.0000      -0.515326       -14.0227
  48   2.0000      -0.506588       -13.7850
  49   2.0000      -0.504041       -13.7157
  50   2.0000      -0.483117       -13.1463
  51   2.0000      -0.469140       -12.7659
  52   2.0000      -0.464048       -12.6274
  53   2.0000      -0.454199       -12.3594
  54   2.0000      -0.447065       -12.1653
  55   2.0000      -0.437508       -11.9052
  56   2.0000      -0.423159       -11.5147
  57   2.0000      -0.418001       -11.3744
  58   2.0000      -0.413695       -11.2572
  59   2.0000      -0.409895       -11.1538
  60   2.0000      -0.402431       -10.9507
  61   2.0000      -0.399355       -10.8670
  62   2.0000      -0.390647       -10.6300
  63   2.0000      -0.384400       -10.4601
  64   2.0000      -0.379843       -10.3361
  65   2.0000      -0.373374       -10.1600
  66   2.0000      -0.363694        -9.8966
  67   2.0000      -0.361131        -9.8269
  68   2.0000      -0.353785        -9.6270
  69   2.0000      -0.342454        -9.3186
  70   2.0000      -0.340754        -9.2724
  71   2.0000      -0.334123        -9.0919
  72   2.0000      -0.332403        -9.0452
  73   2.0000      -0.313170        -8.5218
  74   2.0000      -0.309303        -8.4166
  75   2.0000      -0.298603        -8.1254
  76   2.0000      -0.294113        -8.0032
  77   2.0000      -0.285916        -7.7802
  78   2.0000      -0.279968        -7.6183
  79   2.0000      -0.264633        -7.2010
  80   2.0000      -0.262642        -7.1469
  81   2.0000      -0.249989        -6.8025
  82   2.0000      -0.246416        -6.7053
  83   2.0000      -0.224538        -6.1100
  84   2.0000      -0.219555        -5.9744
  85   2.0000      -0.197859        -5.3840
  86   2.0000      -0.190592        -5.1863
  87   0.0000      -0.051043        -1.3890
  88   0.0000      -0.040598        -1.1047
  89   0.0000      -0.018630        -0.5070
  90   0.0000       0.005644         0.1536
  91   0.0000       0.028444         0.7740

MULLIKEN ATOMIC CHARGES
-----------------------
   0 C :   -0.309871
   1 C :   -0.017586
   2 O :   -0.235982
   3 C :    0.125943
   4 O :   -0.186851
   5 C :   -0.100773
   6 C :   -0.318476
   7 H :    0.163369
   8 C :    0.240985
   9 O :   -0.193961
  10 O :   -0.219293
  11 C :   -0.014576
  12 C :   -0.311909
  13 S :   -0.098661
  14 P :    0.629425
  15 S :   -0.356306
  16 O :   -0.372608
  17 C :   -0.112364
  18 O :   -0.365155
  19 C :   -0.085298
  20 H :    0.129261
  21 H :    0.124320
  22 H :    0.113025
  23 H :    0.105119
  24 H :    0.113395
  25 H :    0.136050
  26 H :    0.113183
  27 H :    0.113992
  28 H :    0.110127
  29 H :    0.118175
  30 H :    0.141562
  31 H :    0.116672
  32 H :    0.121937
  33 H :    0.120586
  34 H :    0.110891
  35 H :    0.116818
  36 H :    0.119257
  37 H :    0.115578
Sum of atomic charges:   -0.0000000

LOEWDIN ATOMIC CHARGES
----------------------
   0 C :   -0.355707
   1 C :   -0.110701
   2 O :   -0.058801
   3 C :    0.024790
   4 O :   -0.157445
   5 C :   -0.245768
   6 C :   -0.270161
   7 H :    0.147388
   8 C :    0.027650
   9 O :   -0.156260
  10 O :   -0.034067
  11 C :   -0.105797
  12 C :   -0.357140
  13 S :    0.100026
  14 P :    0.590080
  15 S :   -0.346700
  16 O :   -0.257561
  17 C :   -0.223217
  18 O :   -0.235332
  19 C :   -0.207351
  20 H :    0.130869
  21 H :    0.125193
  22 H :    0.130709
  23 H :    0.118821
  24 H :    0.121339
  25 H :    0.153575
  26 H :    0.141691
  27 H :    0.122393
  28 H :    0.121372
  29 H :    0.127620
  30 H :    0.134290
  31 H :    0.132983
  32 H :    0.121144
  33 H :    0.104861
  34 H :    0.106298
  35 H :    0.113206
  36 H :    0.117304
  37 H :    0.108404

  Mayer bond orders larger than 0.100000
B(  0-C ,  1-C ) :   1.1769 B(  0-C , 20-H ) :   0.9449 B(  0-C , 21-H ) :   0.9416
B(  0-C , 22-H ) :   0.9416 B(  1-C ,  2-O ) :   0.9129 B(  1-C , 23-H ) :   0.9359
B(  1-C , 24-H ) :   0.9100 B(  2-O ,  3-C ) :   1.2126 B(  3-C ,  4-O ) :   2.0812
B(  3-C ,  5-C ) :   1.0144 B(  5-C ,  6-C ) :   1.0827 B(  5-C , 25-H ) :   0.8705
B(  5-C , 26-H ) :   0.9085 B(  6-C ,  7-H ) :   0.8294 B(  6-C ,  8-C ) :   0.9148
B(  6-C , 13-S ) :   1.0240 B(  8-C ,  9-O ) :   1.9427 B(  8-C , 10-O ) :   1.2824
B(  9-O , 14-P ) :   0.1075 B( 10-O , 11-C ) :   0.8948 B( 11-C , 12-C ) :   1.1783
B( 11-C , 27-H ) :   0.9145 B( 11-C , 28-H ) :   0.9359 B( 12-C , 29-H ) :   0.9479
B( 12-C , 30-H ) :   0.9356 B( 12-C , 31-H ) :   0.9417 B( 13-S , 14-P ) :   0.9295
B( 13-S , 15-S ) :   0.1145 B( 14-P , 15-S ) :   1.5628 B( 14-P , 16-O ) :   1.0859
B( 14-P , 18-O ) :   1.1423 B( 16-O , 17-C ) :   0.9459 B( 17-C , 32-H ) :   0.9572
B( 17-C , 33-H ) :   0.9394 B( 17-C , 34-H ) :   0.9333 B( 18-O , 19-C ) :   0.9263
B( 19-C , 35-H ) :   0.9540 B( 19-C , 36-H ) :   0.9538 B( 19-C , 37-H ) :   0.9354

Dispersion correction           -0.051460595
FINAL SINGLE POINT ENERGY     -1979.017659894784

DIPOLE MOMENT
-------------

Method             : SCF
Type of density    : Electron Density
Multiplicity       :   1
Irrep              :   0
Energy             : -1979.1484253189141782 Eh
Relativity type    :
Basis              : AO
                                X                 Y                 Z
Electronic contribution:     -5.016859166      -2.419570067       6.111011330
Nuclear contribution   :      5.687483666       3.258429839      -6.386768491
                        -----------------------------------------
Total Dipole Moment    :      0.670624500       0.838859772      -0.275757161
                        -----------------------------------------
Magnitude (a.u.)       :      1.108812405
Magnitude (Debye)      :      2.818377153

Rotational constants in cm-1:             0.011367             0.008066             0.005658
Rotational constants in MHz :           340.785901           241.823524           169.610358

                             ****ORCA TERMINATED NORMALLY****
TOTAL RUN TIME: 0 days 0 hours 0 minutes 28 seconds 183 msec
