                         Program Version 6.0.0  -   RELEASE  -
|  1> ! pbe def2-sv(p) def2/J RI DEFGRID1 loosescf d4 GCP(DFT/SV(P)) printgap
|  2> %output
|  3>     printlevel normal
|  4> end
|  5> * xyz 0 1
|  6> C 0.6259674428 1.6951635692 -0.0752545021
|  7> C 1.3918789673 0.3839887465 -0.2657323683
|  8> H 1.593445822 0.2241838422 -1.337080641
|  9> C 0.526787545 -0.7845003071 0.2299726241
| 10> H 0.3252496032 -0.65643978 1.3005380962
| 11> C -0.8087795578 -0.7363687708 -0.531077015
| 12> H -0.5997024814 -0.7758286462 -1.6098780395
| 13> C -1.4718901442 0.622569863 -0.2467702564
| 14> H -2.3872315832 0.7037985416 -0.8487297581
| 15> O -0.6457220536 1.6694640991 -0.7040755024
| 16> O -1.7397755251 0.7193682416 1.1113429211
| 17> O -1.7000207439 -1.7542808199 -0.1572905212
| 18> O 1.2387597324 -1.9801989841 -0.0112540473
| 19> O 2.5976141664 0.4786525616 0.447598568
| 20> H 1.1665499534 2.5229007519 -0.5318741226
| 21> H 0.519798374 1.876551119 1.0006283916
| 22> H -2.3405587502 1.4599609468 1.2841239932
| 23> H -1.3963031841 -2.5948841748 -0.53081008
| 24> H 0.8927956906 -2.6832806209 0.5550477893
| 25> H 3.0352497879 -0.3863462091 0.4158067617
| 26> *
| 27>
| 28>                          ****END OF INPUT****

CARTESIAN COORDINATES (ANGSTROEM)
---------------------------------
  C      0.625967    1.695164   -0.075255
  C      1.391879    0.383989   -0.265732
  H      1.593446    0.224184   -1.337081
  C      0.526788   -0.784500    0.229973
  H      0.325250   -0.656440    1.300538
  C     -0.808780   -0.736369   -0.531077
  H     -0.599702   -0.775829   -1.609878
  C     -1.471890    0.622570   -0.246770
  H     -2.387232    0.703799   -0.848730
  O     -0.645722    1.669464   -0.704076
  O     -1.739776    0.719368    1.111343
  O     -1.700021   -1.754281   -0.157291
  O      1.238760   -1.980199   -0.011254
  O      2.597614    0.478653    0.447599
  H      1.166550    2.522901   -0.531874
  H      0.519798    1.876551    1.000628
  H     -2.340559    1.459961    1.284124
  H     -1.396303   -2.594884   -0.530810
  H      0.892796   -2.683281    0.555048
  H      3.035250   -0.386346    0.415807

 Total Charge           Charge          ....    0
 Multiplicity           Mult            ....    1
 Number of Electrons    NEL             ....   80
 Basis Dimension        Dim             ....  160

ORBITAL ENERGIES
----------------

  NO   OCC          E(Eh)            E(eV)
   0   2.0000     -18.764900      -510.6189
   1   2.0000     -18.762607      -510.5565
   2   2.0000     -18.762378      -510.5503
   3   2.0000     -18.754989      -510.3492
   4   2.0000     -18.742734      -510.0157
   5   2.0000      -9.983010      -271.6515
   6   2.0000      -9.938807      -270.4487
   7   2.0000      -9.935486      -270.3583
   8   2.0000      -9.935245      -270.3518
   9   2.0000      -9.926414      -270.1115
  10   2.0000      -0.978229       -26.6190
  11   2.0000      -0.946509       -25.7558
  12   2.0000      -0.928713       -25.2716
  13   2.0000      -0.914780       -24.8924
  14   2.0000      -0.908107       -24.7109
  15   2.0000      -0.700827       -19.0705
  16   2.0000      -0.676403       -18.4059
  17   2.0000      -0.585560       -15.9339
  18   2.0000      -0.565136       -15.3781
  19   2.0000      -0.527525       -14.3547
  20   2.0000      -0.491243       -13.3674
  21   2.0000      -0.482413       -13.1271
  22   2.0000      -0.474803       -12.9201
  23   2.0000      -0.447947       -12.1892
  24   2.0000      -0.430240       -11.7074
  25   2.0000      -0.416792       -11.3415
  26   2.0000      -0.397474       -10.8158
  27   2.0000      -0.370007       -10.0684
  28   2.0000      -0.362518        -9.8646
  29   2.0000      -0.350601        -9.5403
  30   2.0000      -0.323979        -8.8159
  31   2.0000      -0.310986        -8.4624
  32   2.0000      -0.302008        -8.2181
  33   2.0000      -0.273297        -7.4368
  34   2.0000      -0.264014        -7.1842
  35   2.0000      -0.252599        -6.8736
  36   2.0000      -0.245188        -6.6719
  37   2.0000      -0.228603        -6.2206
  38   2.0000      -0.219325        -5.9682
  39   2.0000      -0.201049        -5.4708
  40   0.0000       0.001167         0.0317
  41   0.0000       0.023996         0.6530
  42   0.0000       0.045940         1.2501
  43   0.0000       0.053099         1.4449
  44   0.0000       0.072045         1.9604

MULLIKEN ATOMIC CHARGES
-----------------------
   0 C :    0.098118
   1 C :    0.003364
   2 H :    0.057942
   3 C :    0.002334
   4 H :    0.075410
   5 C :    0.077309
   6 H :    0.063803
   7 C :    0.141211
   8 H :    0.067430
   9 O :   -0.316437
  10 O :   -0.387740
  11 O :   -0.410493
  12 O :   -0.424499
  13 O :   -0.421565
  14 H :    0.099407
  15 H :    0.066760
  16 H :    0.309246
  17 H :    0.293402
  18 H :    0.302110
  19 H :    0.302890
Sum of atomic charges:    0.0000000

LOEWDIN ATOMIC CHARGES
----------------------
   0 C :   -0.114947
   1 C :   -0.075811
   2 H :    0.100995
   3 C :   -0.090885
   4 H :    0.112603
   5 C :   -0.089114
   6 H :    0.106913
   7 C :    0.000569
   8 H :    0.100004
   9 O :   -0.160041
  10 O :   -0.297107
  11 O :   -0.315929
  12 O :   -0.326586
  13 O :   -0.323127
  14 H :    0.120373
  15 H :    0.105309
  16 H :    0.293560
  17 H :    0.281699
  18 H :    0.286962
  19 H :    0.284560

  Mayer bond orders larger than 0.100000
B(  0-C ,  1-C ) :   1.0709 B(  0-C ,  9-O ) :   1.0045 B(  0-C , 14-H ) :   0.9267
B(  0-C , 15-H ) :   0.8893 B(  1-C ,  2-H ) :   0.8752 B(  1-C ,  3-C ) :   1.0227
B(  1-C , 13-O ) :   1.0756 B(  3-C ,  4-H ) :   0.8856 B(  3-C ,  5-C ) :   0.9578
B(  3-C , 12-O ) :   1.0769 B(  5-C ,  6-H ) :   0.8867 B(  5-C ,  7-C ) :   0.9828
B(  5-C , 11-O ) :   1.0822 B(  7-C ,  8-H ) :   0.9009 B(  7-C ,  9-O ) :   1.0588
B(  7-C , 10-O ) :   1.1247 B( 10-O , 16-H ) :   0.8410 B( 11-O , 17-H ) :   0.8447
B( 12-O , 18-H ) :   0.8440 B( 13-O , 19-H ) :   0.8378

Dispersion correction           -0.019140020
FINAL SINGLE POINT ENERGY      -571.415792096324

DIPOLE MOMENT
-------------

Method             : SCF
Type of density    : Electron Density
Multiplicity       :   1
Irrep              :   0
Energy             :  -571.5235081945097591 Eh
Relativity type    :
Basis              : AO
                                X                 Y                 Z
Electronic contribution:     -1.042352218      -0.387631089       0.262196214
Nuclear contribution   :      0.755563779      -0.303099127      -0.273373409
                        -----------------------------------------
Total Dipole Moment    :     -0.286788438      -0.690730216      -0.011177195
                        -----------------------------------------
Magnitude (a.u.)       :      0.747984471
Magnitude (Debye)      :      1.901225433

Rotational constants in cm-1:             0.056444             0.045007             0.029145
Rotational constants in MHz :          1692.135064          1349.280470           873.746668

                             ****ORCA TERMINATED NORMALLY****
TOTAL RUN TIME: 0 days 0 hours 0 minutes 12 seconds 527 msec
