                         Program Version 6.0.1  -  RELEASE   -
|  1> ! pbe def2-sv(p) def2/J RI DEFGRID1 loosescf d4 GCP(DFT/SV(P)) printgap
|  2> %output
|  3>     printlevel normal
|  4> end
|  5> * xyz 0 1
|  6> C 4.0132278237 -3.6829292349 0.3520772871
|  7> C 2.9722665463 -2.6265238327 0.6636216998
|  8> O 2.9332215501 -1.7029742414 -0.445390525
|  9> C 1.9206552009 -0.8872053389 -0.5457045762
| 10> O 1.0069738294 -0.8472678791 0.2684088691
| 11> C 1.975797186 -0.0062430129 -1.7631065964
| 12> C 0.8283370346 0.9887531477 -1.744801805
| 13> H 0.8073855271 1.5860410025 -2.6591637535
| 14> C 0.8719311491 1.9274158392 -0.5496827262
| 15> O 1.7284587573 1.878102959 0.3069722727
| 16> O -0.1055511128 2.7996045749 -0.5987371433
| 17> C -0.2566813563 3.7612907238 0.4639181996
| 18> C -1.7342828421 3.9050393174 0.7773292845
| 19> S -0.8169964543 0.161700648 -1.7994654093
| 20> P -1.3332465496 -0.4986757225 0.1439661081
| 21> S -1.3369523624 -2.3801214754 0.7301490129
| 22> O -0.9929696563 0.5852103161 1.2797750354
| 23> C -0.1780843288 0.345147033 2.4240702293
| 24> O -2.850256463 -0.04310599 -0.1765780785
| 25> C -3.9536384778 -0.3994234967 0.6558987986
| 26> H 4.0742961718 -4.3781745198 1.1824879175
| 27> H 3.7382556344 -4.2252693575 -0.5474432073
| 28> H 4.9814771782 -3.2158194594 0.2009171316
| 29> H 3.2270325137 -2.0603229297 1.5643761331
| 30> H 1.9740871138 -3.0571325504 0.7947336787
| 31> H 1.9158448154 -0.6328348181 -2.6543478517
| 32> H 2.9359029632 0.5131196964 -1.766795267
| 33> H 0.3143317726 3.4173381081 1.3309439724
| 34> H 0.1653985566 4.702062012 0.100601402
| 35> H -2.1410159631 2.9474408147 1.0932123326
| 36> H -1.8653401397 4.6312816399 1.5725357769
| 37> H -2.2709744022 4.2338349734 -0.1074322398
| 38> H -0.6471414148 0.8798585318 3.2475331235
| 39> H 0.8271462232 0.7237738266 2.2383110307
| 40> H -0.1347028545 -0.7242939993 2.6363184406
| 41> H -3.9776151641 0.2382886291 1.5395897
| 42> H -3.873504635 -1.4459131913 0.95963986
| 43> H -4.8431358189 -0.2474886368 0.0496325919
| 44> *
| 45>
| 46>                          ****END OF INPUT****

CARTESIAN COORDINATES (ANGSTROEM)
---------------------------------
  C      4.013228   -3.682929    0.352077
  C      2.972267   -2.626524    0.663622
  O      2.933222   -1.702974   -0.445391
  C      1.920655   -0.887205   -0.545705
  O      1.006974   -0.847268    0.268409
  C      1.975797   -0.006243   -1.763107
  C      0.828337    0.988753   -1.744802
  H      0.807386    1.586041   -2.659164
  C      0.871931    1.927416   -0.549683
  O      1.728459    1.878103    0.306972
  O     -0.105551    2.799605   -0.598737
  C     -0.256681    3.761291    0.463918
  C     -1.734283    3.905039    0.777329
  S     -0.816996    0.161701   -1.799465
  P     -1.333247   -0.498676    0.143966
  S     -1.336952   -2.380121    0.730149
  O     -0.992970    0.585210    1.279775
  C     -0.178084    0.345147    2.424070
  O     -2.850256   -0.043106   -0.176578
  C     -3.953638   -0.399423    0.655899
  H      4.074296   -4.378175    1.182488
  H      3.738256   -4.225269   -0.547443
  H      4.981477   -3.215819    0.200917
  H      3.227033   -2.060323    1.564376
  H      1.974087   -3.057133    0.794734
  H      1.915845   -0.632835   -2.654348
  H      2.935903    0.513120   -1.766795
  H      0.314332    3.417338    1.330944
  H      0.165399    4.702062    0.100601
  H     -2.141016    2.947441    1.093212
  H     -1.865340    4.631282    1.572536
  H     -2.270974    4.233835   -0.107432
  H     -0.647141    0.879859    3.247533
  H      0.827146    0.723774    2.238311
  H     -0.134703   -0.724294    2.636318
  H     -3.977615    0.238289    1.539590
  H     -3.873505   -1.445913    0.959640
  H     -4.843136   -0.247489    0.049633

 Total Charge           Charge          ....    0
 Multiplicity           Mult            ....    1
 Number of Electrons    NEL             ....  174
 Basis Dimension        Dim             ....  316

ORBITAL ENERGIES
----------------

  NO   OCC          E(Eh)            E(eV)
   0   2.0000     -88.031481     -2395.4584
   1   2.0000     -87.961600     -2393.5568
   2   2.0000     -76.415260     -2079.3649
   3   2.0000     -18.816755      -512.0299
   4   2.0000     -18.807777      -511.7856
   5   2.0000     -18.782841      -511.1071
   6   2.0000     -18.765070      -510.6235
   7   2.0000     -18.759656      -510.4762
   8   2.0000     -18.744722      -510.0698
   9   2.0000     -10.026508      -272.8352
  10   2.0000     -10.021726      -272.7050
  11   2.0000      -9.952931      -270.8330
  12   2.0000      -9.952571      -270.8232
  13   2.0000      -9.949030      -270.7269
  14   2.0000      -9.926571      -270.1157
  15   2.0000      -9.924245      -270.0524
  16   2.0000      -9.920593      -269.9531
  17   2.0000      -9.892604      -269.1914
  18   2.0000      -9.882974      -268.9294
  19   2.0000      -7.676277      -208.8821
  20   2.0000      -7.606930      -206.9951
  21   2.0000      -6.410489      -174.4383
  22   2.0000      -5.705044      -155.2421
  23   2.0000      -5.700719      -155.1245
  24   2.0000      -5.692422      -154.8987
  25   2.0000      -5.636201      -153.3688
  26   2.0000      -5.627630      -153.1356
  27   2.0000      -5.626573      -153.1068
  28   2.0000      -4.633524      -126.0846
  29   2.0000      -4.632528      -126.0575
  30   2.0000      -4.630785      -126.0101
  31   2.0000      -1.028170       -27.9779
  32   2.0000      -1.017132       -27.6776
  33   2.0000      -0.965477       -26.2720
  34   2.0000      -0.934330       -25.4244
  35   2.0000      -0.922540       -25.1036
  36   2.0000      -0.921140       -25.0655
  37   2.0000      -0.765445       -20.8288
  38   2.0000      -0.723032       -19.6747
  39   2.0000      -0.704503       -19.1705
  40   2.0000      -0.690621       -18.7927
  41   2.0000      -0.652948       -17.7676
  42   2.0000      -0.620401       -16.8820
  43   2.0000      -0.612020       -16.6539
  44   2.0000      -0.605936       -16.4884
  45   2.0000      -0.596001       -16.2180
  46   2.0000      -0.559744       -15.2314
  47   2.0000      -0.519181       -14.1276
  48   2.0000      -0.509952       -13.8765
  49   2.0000      -0.498993       -13.5783
  50   2.0000      -0.487459       -13.2644
  51   2.0000      -0.469977       -12.7887
  52   2.0000      -0.461712       -12.5638
  53   2.0000      -0.455560       -12.3964
  54   2.0000      -0.448315       -12.1993
  55   2.0000      -0.429331       -11.6827
  56   2.0000      -0.421861       -11.4794
  57   2.0000      -0.410647       -11.1743
  58   2.0000      -0.409347       -11.1389
  59   2.0000      -0.408106       -11.1051
  60   2.0000      -0.399235       -10.8637
  61   2.0000      -0.391138       -10.6434
  62   2.0000      -0.388253       -10.5649
  63   2.0000      -0.381493       -10.3809
  64   2.0000      -0.366268        -9.9667
  65   2.0000      -0.363970        -9.9041
  66   2.0000      -0.361582        -9.8392
  67   2.0000      -0.356868        -9.7109
  68   2.0000      -0.351144        -9.5551
  69   2.0000      -0.348932        -9.4949
  70   2.0000      -0.332673        -9.0525
  71   2.0000      -0.324164        -8.8210
  72   2.0000      -0.320794        -8.7293
  73   2.0000      -0.313132        -8.5207
  74   2.0000      -0.305726        -8.3192
  75   2.0000      -0.297939        -8.1073
  76   2.0000      -0.288807        -7.8588
  77   2.0000      -0.275635        -7.5004
  78   2.0000      -0.268897        -7.3171
  79   2.0000      -0.263573        -7.1722
  80   2.0000      -0.257808        -7.0153
  81   2.0000      -0.249945        -6.8013
  82   2.0000      -0.240373        -6.5409
  83   2.0000      -0.231930        -6.3111
  84   2.0000      -0.208727        -5.6798
  85   2.0000      -0.181663        -4.9433
  86   2.0000      -0.174158        -4.7391
  87   0.0000      -0.047573        -1.2945
  88   0.0000      -0.044300        -1.2055
  89   0.0000      -0.022570        -0.6142
  90   0.0000       0.001521         0.0414
  91   0.0000       0.035146         0.9564

MULLIKEN ATOMIC CHARGES
-----------------------
   0 C :   -0.276553
   1 C :   -0.043460
   2 O :   -0.218278
   3 C :    0.160287
   4 O :   -0.224866
   5 C :   -0.042454
   6 C :   -0.323317
   7 H :    0.149394
   8 C :    0.194951
   9 O :   -0.195885
  10 O :   -0.217492
  11 C :   -0.024483
  12 C :   -0.294770
  13 S :   -0.064460
  14 P :    0.664472
  15 S :   -0.345725
  16 O :   -0.400860
  17 C :   -0.110351
  18 O :   -0.398752
  19 C :   -0.099853
  20 H :    0.116251
  21 H :    0.119294
  22 H :    0.115303
  23 H :    0.109460
  24 H :    0.134068
  25 H :    0.127563
  26 H :    0.127438
  27 H :    0.115083
  28 H :    0.103273
  29 H :    0.135514
  30 H :    0.105976
  31 H :    0.114526
  32 H :    0.108368
  33 H :    0.134079
  34 H :    0.115816
  35 H :    0.101614
  36 H :    0.113200
  37 H :    0.115631
Sum of atomic charges:    0.0000000

LOEWDIN ATOMIC CHARGES
----------------------
   0 C :   -0.349990
   1 C :   -0.106089
   2 O :   -0.041313
   3 C :    0.058088
   4 O :   -0.159299
   5 C :   -0.250509
   6 C :   -0.264894
   7 H :    0.151719
   8 C :    0.011623
   9 O :   -0.160130
  10 O :   -0.046342
  11 C :   -0.105402
  12 C :   -0.354653
  13 S :    0.125186
  14 P :    0.590833
  15 S :   -0.343468
  16 O :   -0.249224
  17 C :   -0.225905
  18 O :   -0.274510
  19 C :   -0.221029
  20 H :    0.133476
  21 H :    0.128806
  22 H :    0.126564
  23 H :    0.119463
  24 H :    0.126074
  25 H :    0.149645
  26 H :    0.151181
  27 H :    0.119452
  28 H :    0.116136
  29 H :    0.130584
  30 H :    0.127389
  31 H :    0.126869
  32 H :    0.112010
  33 H :    0.112800
  34 H :    0.107628
  35 H :    0.105617
  36 H :    0.104318
  37 H :    0.117298

  Mayer bond orders larger than 0.100000
B(  0-C ,  1-C ) :   1.1567 B(  0-C , 20-H ) :   0.9432 B(  0-C , 21-H ) :   0.9510
B(  0-C , 22-H ) :   0.9485 B(  1-C ,  2-O ) :   0.8873 B(  1-C , 23-H ) :   0.9335
B(  1-C , 24-H ) :   0.9192 B(  2-O ,  3-C ) :   1.2832 B(  3-C ,  4-O ) :   1.8378
B(  3-C ,  5-C ) :   1.0257 B(  4-O , 14-P ) :   0.1536 B(  5-C ,  6-C ) :   1.0202
B(  5-C , 25-H ) :   0.8817 B(  5-C , 26-H ) :   0.8763 B(  6-C ,  7-H ) :   0.8760
B(  6-C ,  8-C ) :   0.8938 B(  6-C , 13-S ) :   1.0188 B(  8-C ,  9-O ) :   2.0335
B(  8-C , 10-O ) :   1.2617 B(  9-O , 10-O ) :   0.1013 B( 10-O , 11-C ) :   0.9006
B( 11-C , 12-C ) :   1.1678 B( 11-C , 27-H ) :   0.9130 B( 11-C , 28-H ) :   0.9360
B( 12-C , 29-H ) :   0.9382 B( 12-C , 30-H ) :   0.9429 B( 12-C , 31-H ) :   0.9474
B( 13-S , 14-P ) :   0.9499 B( 14-P , 15-S ) :   1.5751 B( 14-P , 16-O ) :   1.0389
B( 14-P , 18-O ) :   1.0428 B( 16-O , 17-C ) :   0.9266 B( 17-C , 32-H ) :   0.9527
B( 17-C , 33-H ) :   0.9340 B( 17-C , 34-H ) :   0.9279 B( 18-O , 19-C ) :   0.9482
B( 19-C , 35-H ) :   0.9513 B( 19-C , 36-H ) :   0.9261 B( 19-C , 37-H ) :   0.9600

Dispersion correction           -0.054813260
FINAL SINGLE POINT ENERGY     -1979.004958555808

DIPOLE MOMENT
-------------

Method             : SCF
Type of density    : Electron Density
Multiplicity       :   1
Irrep              :   0
Energy             : -1979.1369898078883125 Eh
Relativity type    :
Basis              : AO
                                X                 Y                 Z
Electronic contribution:     -5.128791806      -3.331632619      -9.893097779
Nuclear contribution   :      6.164831286       4.194863753      10.021123517
                        -----------------------------------------
Total Dipole Moment    :      1.036039479       0.863231134       0.128025738
                        -----------------------------------------
Magnitude (a.u.)       :      1.354598237
Magnitude (Debye)      :      3.443115090

Rotational constants in cm-1:             0.013004             0.008558             0.006607
Rotational constants in MHz :           389.843734           256.575334           198.070425

                             ****ORCA TERMINATED NORMALLY****
TOTAL RUN TIME: 0 days 0 hours 0 minutes 45 seconds 397 msec
