                         Program Version 6.0.0  -   RELEASE  -
|  1> ! r2scan-3c def2/J RI DEFGRID2 scfconv6 printgap
|  2> %output
|  3>     printlevel normal
|  4> end
|  5> * xyz 0 1
|  6> C 0.605474829 1.6981171979 -0.0077728819
|  7> C 1.4026998207 0.4140806919 -0.2591236493
|  8> H 1.6120610917 0.3308423404 -1.3401872523
|  9> C 0.5555346196 -0.7909864927 0.1742208519
| 10> H 0.3986750246 -0.7432830901 1.2576070681
| 11> C -0.8055172156 -0.7454348735 -0.5325557307
| 12> H -0.6568931306 -0.8560736153 -1.6189975367
| 13> C -1.4718292379 0.6239528891 -0.2791020611
| 14> H -2.3694969833 0.715567924 -0.9102114912
| 15> O -0.6437221708 1.6699477009 -0.6831375947
| 16> O -1.8075441721 0.7661348803 1.0711164323
| 17> O -1.6810945522 -1.7330145487 -0.0507766173
| 18> O 1.2180846255 -2.0130950544 -0.0554226934
| 19> O 2.6074682222 0.4892237192 0.4600226908
| 20> H 1.1362852357 2.5623634093 -0.4043151969
| 21> H 0.4545355744 1.824022507 1.0695041663
| 22> H -2.3084262067 -0.0219626747 1.3368845779
| 23> H -1.1906391507 -2.5641128036 0.0533507345
| 24> H 1.411972136 -2.1090853445 -1.0003671943
| 25> H 2.9696512749 -0.4058544186 0.5581796106
| 26> *
| 27>
| 28>                          ****END OF INPUT****

CARTESIAN COORDINATES (ANGSTROEM)
---------------------------------
  C      0.605475    1.698117   -0.007773
  C      1.402700    0.414081   -0.259124
  H      1.612061    0.330842   -1.340187
  C      0.555535   -0.790986    0.174221
  H      0.398675   -0.743283    1.257607
  C     -0.805517   -0.745435   -0.532556
  H     -0.656893   -0.856074   -1.618998
  C     -1.471829    0.623953   -0.279102
  H     -2.369497    0.715568   -0.910211
  O     -0.643722    1.669948   -0.683138
  O     -1.807544    0.766135    1.071116
  O     -1.681095   -1.733015   -0.050777
  O      1.218085   -2.013095   -0.055423
  O      2.607468    0.489224    0.460023
  H      1.136285    2.562363   -0.404315
  H      0.454536    1.824023    1.069504
  H     -2.308426   -0.021963    1.336885
  H     -1.190639   -2.564113    0.053351
  H      1.411972   -2.109085   -1.000367
  H      2.969651   -0.405854    0.558180

 Total Charge           Charge          ....    0
 Multiplicity           Mult            ....    1
 Number of Electrons    NEL             ....   80
 Basis Dimension        Dim             ....  265

ORBITAL ENERGIES
----------------

  NO   OCC          E(Eh)            E(eV)
   0   2.0000     -18.983317      -516.5623
   1   2.0000     -18.973232      -516.2879
   2   2.0000     -18.971669      -516.2454
   3   2.0000     -18.960563      -515.9432
   4   2.0000     -18.959265      -515.9078
   5   2.0000     -10.138912      -275.8938
   6   2.0000     -10.098196      -274.7859
   7   2.0000     -10.097957      -274.7794
   8   2.0000     -10.095267      -274.7062
   9   2.0000     -10.082025      -274.3458
  10   2.0000      -1.049850       -28.5679
  11   2.0000      -1.027172       -27.9508
  12   2.0000      -1.008742       -27.4493
  13   2.0000      -0.994057       -27.0497
  14   2.0000      -0.976761       -26.5790
  15   2.0000      -0.753611       -20.5068
  16   2.0000      -0.725976       -19.7548
  17   2.0000      -0.631209       -17.1761
  18   2.0000      -0.613571       -16.6961
  19   2.0000      -0.563399       -15.3309
  20   2.0000      -0.527044       -14.3416
  21   2.0000      -0.501004       -13.6330
  22   2.0000      -0.493382       -13.4256
  23   2.0000      -0.490758       -13.3542
  24   2.0000      -0.460266       -12.5245
  25   2.0000      -0.444283       -12.0896
  26   2.0000      -0.434066       -11.8115
  27   2.0000      -0.407665       -11.0931
  28   2.0000      -0.392194       -10.6722
  29   2.0000      -0.377437       -10.2706
  30   2.0000      -0.355325        -9.6689
  31   2.0000      -0.335389        -9.1264
  32   2.0000      -0.329872        -8.9763
  33   2.0000      -0.322751        -8.7825
  34   2.0000      -0.304916        -8.2972
  35   2.0000      -0.283953        -7.7268
  36   2.0000      -0.268451        -7.3049
  37   2.0000      -0.253109        -6.8875
  38   2.0000      -0.241134        -6.5616
  39   2.0000      -0.236037        -6.4229
  40   0.0000       0.020216         0.5501
  41   0.0000       0.054343         1.4787
  42   0.0000       0.060231         1.6390
  43   0.0000       0.075019         2.0414
  44   0.0000       0.091184         2.4812

MULLIKEN ATOMIC CHARGES
-----------------------
   0 C :   -0.254327
   1 C :    0.010248
   2 H :    0.154156
   3 C :   -0.076632
   4 H :    0.183555
   5 C :   -0.019834
   6 H :    0.163554
   7 C :    0.029445
   8 H :    0.141873
   9 O :   -0.210440
  10 O :   -0.411088
  11 O :   -0.447144
  12 O :   -0.436016
  13 O :   -0.414839
  14 H :    0.153220
  15 H :    0.179371
  16 H :    0.321192
  17 H :    0.316606
  18 H :    0.304034
  19 H :    0.313064
Sum of atomic charges:   -0.0000000

LOEWDIN ATOMIC CHARGES
----------------------
   0 C :    0.062900
   1 C :    0.096214
   2 H :    0.170697
   3 C :    0.091027
   4 H :    0.207267
   5 C :    0.104650
   6 H :    0.178978
   7 C :    0.297632
   8 H :    0.196724
   9 O :   -0.654667
  10 O :   -0.518716
  11 O :   -0.579566
  12 O :   -0.583409
  13 O :   -0.577373
  14 H :    0.190945
  15 H :    0.189841
  16 H :    0.289274
  17 H :    0.283668
  18 H :    0.273244
  19 H :    0.280670

  Mayer bond orders larger than 0.100000
B(  0-C ,  1-C ) :   0.9008 B(  0-C ,  9-O ) :   0.9086 B(  0-C , 14-H ) :   0.9368
B(  0-C , 15-H ) :   0.9779 B(  1-C ,  2-H ) :   0.9621 B(  1-C ,  3-C ) :   0.9291
B(  1-C , 13-O ) :   0.8926 B(  3-C ,  4-H ) :   0.9456 B(  3-C ,  5-C ) :   0.9261
B(  3-C , 12-O ) :   1.0490 B(  5-C ,  6-H ) :   0.9563 B(  5-C ,  7-C ) :   0.8933
B(  5-C , 11-O ) :   0.8774 B(  7-C ,  8-H ) :   0.9515 B(  7-C ,  9-O ) :   1.0379
B(  7-C , 10-O ) :   0.9780 B( 10-O , 16-H ) :   0.8632 B( 11-O , 17-H ) :   0.8727
B( 12-O , 18-H ) :   0.8840 B( 13-O , 19-H ) :   0.8735

Dispersion correction           -0.006319845
FINAL SINGLE POINT ENERGY      -572.562335281229

DIPOLE MOMENT
-------------

Method             : SCF
Type of density    : Electron Density
Multiplicity       :   1
Irrep              :   0
Energy             :  -572.5724870789315446 Eh
Relativity type    :
Basis              : AO
                                X                 Y                 Z
Electronic contribution:     -1.114939993       0.118919933       0.375862179
Nuclear contribution   :      1.363048704      -1.201361489      -0.925822708
                        -----------------------------------------
Total Dipole Moment    :      0.248108712      -1.082441557      -0.549960529
                        -----------------------------------------
Magnitude (a.u.)       :      1.239231310
Magnitude (Debye)      :      3.149875665

Rotational constants in cm-1:             0.057031             0.044792             0.029076
Rotational constants in MHz :          1709.745266          1342.816404           871.675969

                             ****ORCA TERMINATED NORMALLY****
TOTAL RUN TIME: 0 days 0 hours 0 minutes 36 seconds 272 msec
