                         Program Version 6.0.0  -   RELEASE  -
|  1> ! r2scan-3c def2/J RI DEFGRID2 scfconv6 printgap
|  2> %output
|  3>     printlevel normal
|  4> end
|  5> %cpcm
|  6>     smd true
|  7>     smdsolvent "water"
|  8> end
|  9> * xyz 0 1
| 10> C 0.605474829 1.6981171979 -0.0077728819
| 11> C 1.4026998207 0.4140806919 -0.2591236493
| 12> H 1.6120610917 0.3308423404 -1.3401872523
| 13> C 0.5555346196 -0.7909864927 0.1742208519
| 14> H 0.3986750246 -0.7432830901 1.2576070681
| 15> C -0.8055172156 -0.7454348735 -0.5325557307
| 16> H -0.6568931306 -0.8560736153 -1.6189975367
| 17> C -1.4718292379 0.6239528891 -0.2791020611
| 18> H -2.3694969833 0.715567924 -0.9102114912
| 19> O -0.6437221708 1.6699477009 -0.6831375947
| 20> O -1.8075441721 0.7661348803 1.0711164323
| 21> O -1.6810945522 -1.7330145487 -0.0507766173
| 22> O 1.2180846255 -2.0130950544 -0.0554226934
| 23> O 2.6074682222 0.4892237192 0.4600226908
| 24> H 1.1362852357 2.5623634093 -0.4043151969
| 25> H 0.4545355744 1.824022507 1.0695041663
| 26> H -2.3084262067 -0.0219626747 1.3368845779
| 27> H -1.1906391507 -2.5641128036 0.0533507345
| 28> H 1.411972136 -2.1090853445 -1.0003671943
| 29> H 2.9696512749 -0.4058544186 0.5581796106
| 30> *
| 31>
| 32>                          ****END OF INPUT****

CARTESIAN COORDINATES (ANGSTROEM)
---------------------------------
  C      0.605475    1.698117   -0.007773
  C      1.402700    0.414081   -0.259124
  H      1.612061    0.330842   -1.340187
  C      0.555535   -0.790986    0.174221
  H      0.398675   -0.743283    1.257607
  C     -0.805517   -0.745435   -0.532556
  H     -0.656893   -0.856074   -1.618998
  C     -1.471829    0.623953   -0.279102
  H     -2.369497    0.715568   -0.910211
  O     -0.643722    1.669948   -0.683138
  O     -1.807544    0.766135    1.071116
  O     -1.681095   -1.733015   -0.050777
  O      1.218085   -2.013095   -0.055423
  O      2.607468    0.489224    0.460023
  H      1.136285    2.562363   -0.404315
  H      0.454536    1.824023    1.069504
  H     -2.308426   -0.021963    1.336885
  H     -1.190639   -2.564113    0.053351
  H      1.411972   -2.109085   -1.000367
  H      2.969651   -0.405854    0.558180

 Total Charge           Charge          ....    0
 Multiplicity           Mult            ....    1
 Number of Electrons    NEL             ....   80
 Basis Dimension        Dim             ....  265

ORBITAL ENERGIES
----------------

  NO   OCC          E(Eh)            E(eV)
   0   2.0000     -18.977621      -516.4073
   1   2.0000     -18.964251      -516.0435
   2   2.0000     -18.963154      -516.0137
   3   2.0000     -18.961867      -515.9786
   4   2.0000     -18.959743      -515.9208
   5   2.0000     -10.135606      -275.8039
   6   2.0000     -10.085780      -274.4480
   7   2.0000     -10.085688      -274.4455
   8   2.0000     -10.085390      -274.4374
   9   2.0000     -10.078994      -274.2634
  10   2.0000      -1.051499       -28.6127
  11   2.0000      -1.013747       -27.5855
  12   2.0000      -1.002041       -27.2669
  13   2.0000      -0.985696       -26.8222
  14   2.0000      -0.978367       -26.6227
  15   2.0000      -0.743921       -20.2431
  16   2.0000      -0.721548       -19.6343
  17   2.0000      -0.620101       -16.8738
  18   2.0000      -0.608174       -16.5493
  19   2.0000      -0.557024       -15.1574
  20   2.0000      -0.517497       -14.0818
  21   2.0000      -0.492541       -13.4027
  22   2.0000      -0.487260       -13.2590
  23   2.0000      -0.483257       -13.1501
  24   2.0000      -0.454991       -12.3809
  25   2.0000      -0.437292       -11.8993
  26   2.0000      -0.427951       -11.6451
  27   2.0000      -0.400816       -10.9067
  28   2.0000      -0.386854       -10.5268
  29   2.0000      -0.374187       -10.1821
  30   2.0000      -0.352213        -9.5842
  31   2.0000      -0.336741        -9.1632
  32   2.0000      -0.324125        -8.8199
  33   2.0000      -0.319575        -8.6961
  34   2.0000      -0.304468        -8.2850
  35   2.0000      -0.275813        -7.5053
  36   2.0000      -0.264417        -7.1951
  37   2.0000      -0.253368        -6.8945
  38   2.0000      -0.240290        -6.5386
  39   2.0000      -0.230453        -6.2710
  40   0.0000       0.038090         1.0365
  41   0.0000       0.070556         1.9199
  42   0.0000       0.084698         2.3048
  43   0.0000       0.091317         2.4849
  44   0.0000       0.102870         2.7992

MULLIKEN ATOMIC CHARGES
-----------------------
   0 C :   -0.267362
   1 C :    0.019706
   2 H :    0.177282
   3 C :   -0.053922
   4 H :    0.193815
   5 C :   -0.034633
   6 H :    0.189769
   7 C :    0.039497
   8 H :    0.160919
   9 O :   -0.265617
  10 O :   -0.466613
  11 O :   -0.500357
  12 O :   -0.483888
  13 O :   -0.489512
  14 H :    0.174525
  15 H :    0.182541
  16 H :    0.358571
  17 H :    0.354897
  18 H :    0.356028
  19 H :    0.354354
Sum of atomic charges:   -0.0000000

LOEWDIN ATOMIC CHARGES
----------------------
   0 C :    0.057023
   1 C :    0.100135
   2 H :    0.184243
   3 C :    0.094907
   4 H :    0.207748
   5 C :    0.112347
   6 H :    0.192676
   7 C :    0.294191
   8 H :    0.205252
   9 O :   -0.684856
  10 O :   -0.544653
  11 O :   -0.594642
  12 O :   -0.590800
  13 O :   -0.607140
  14 H :    0.197324
  15 H :    0.188941
  16 H :    0.302225
  17 H :    0.297044
  18 H :    0.293133
  19 H :    0.294901

  Mayer bond orders larger than 0.100000
B(  0-C ,  1-C ) :   0.8906 B(  0-C ,  9-O ) :   0.9039 B(  0-C , 14-H ) :   0.9311
B(  0-C , 15-H ) :   0.9759 B(  1-C ,  2-H ) :   0.9618 B(  1-C ,  3-C ) :   0.9090
B(  1-C , 13-O ) :   0.8864 B(  3-C ,  4-H ) :   0.9541 B(  3-C ,  5-C ) :   0.9082
B(  3-C , 12-O ) :   1.0359 B(  5-C ,  6-H ) :   0.9581 B(  5-C ,  7-C ) :   0.9044
B(  5-C , 11-O ) :   0.8829 B(  7-C ,  8-H ) :   0.9391 B(  7-C ,  9-O ) :   1.0240
B(  7-C , 10-O ) :   0.9665 B( 10-O , 16-H ) :   0.8460 B( 11-O , 17-H ) :   0.8544
B( 12-O , 18-H ) :   0.8592 B( 13-O , 19-H ) :   0.8539

Dispersion correction           -0.006319845
FINAL SINGLE POINT ENERGY      -572.589103913773

DIPOLE MOMENT
-------------

Method             : SCF
Type of density    : Electron Density
Multiplicity       :   1
Irrep              :   0
Energy             :  -572.5992557114764168 Eh
Relativity type    :
Basis              : AO
                                X                 Y                 Z
Electronic contribution:     -0.988039366      -0.375330252       0.018149772
Nuclear contribution   :      1.363048704      -1.201361489      -0.925822708
                        -----------------------------------------
Total Dipole Moment    :      0.375009338      -1.576691742      -0.907672935
                        -----------------------------------------
Magnitude (a.u.)       :      1.857541119
Magnitude (Debye)      :      4.721494302

Rotational constants in cm-1:             0.057031             0.044792             0.029076
Rotational constants in MHz :          1709.745266          1342.816404           871.675969

                             ****ORCA TERMINATED NORMALLY****
TOTAL RUN TIME: 0 days 0 hours 0 minutes 46 seconds 304 msec
