                         Program Version 6.0.0  -   RELEASE  -
|  1> ! pbe def2-sv(p) def2/J RI DEFGRID1 loosescf d4 GCP(DFT/SV(P)) printgap
|  2> %output
|  3>     printlevel normal
|  4> end
|  5> * xyz 0 1
|  6> C 2.784311875 0.2407306353 -2.486307746
|  7> C 1.8425749923 1.2168605383 -1.816329412
|  8> O 1.2511538711 0.6549784193 -0.6289400721
|  9> P 2.0808788617 0.4553184912 0.7028380246
| 10> S 3.3967117036 1.8412275306 1.1247062693
| 11> O 2.6821949095 -1.0106292007 0.5100383214
| 12> C 3.6813247966 -1.536538564 1.4052749294
| 13> C 4.3975565967 -2.6678218669 0.6960014507
| 14> S 0.5243074891 0.2029604585 2.0869413555
| 15> C -0.3182192443 -1.2614865793 1.3579932719
| 16> S -2.0787079371 -0.9791269678 1.1318117575
| 17> P -1.9882931352 -0.0781828476 -0.8015494371
| 18> S -0.8865539046 -1.0673470159 -2.0827523429
| 19> O -1.470045793 1.4096232839 -0.6769020711
| 20> C -2.2205665787 2.541611846 -0.1760184799
| 21> C -2.5797169316 2.4135420936 1.2901038374
| 22> O -3.5178587125 0.15155368 -1.1610055855
| 23> C -4.5573677476 -0.8360563217 -1.0269923512
| 24> C -4.2633450309 -2.1078268633 -1.7939306009
| 25> H 3.6386095108 0.04669532 -1.8400380503
| 26> H 2.2648053045 -0.6941367882 -2.6843061218
| 27> H 3.1339306205 0.6648590987 -3.4221870739
| 28> H 0.9832742777 1.4456479378 -2.4492109524
| 29> H 2.3616929117 2.1398038799 -1.5379134886
| 30> H 4.3696056626 -0.7273995861 1.6723446993
| 31> H 3.1793232669 -1.8878742301 2.3111753906
| 32> H 5.1259297408 -3.1044583315 1.3712863129
| 33> H 3.6834434726 -3.4282987668 0.3936207599
| 34> H 4.9074282959 -2.2949258565 -0.1877780605
| 35> H -0.2216452082 -2.0828420419 2.0625342765
| 36> H 0.1366585324 -1.4948675859 0.3939782342
| 37> H -1.5436713761 3.3809473353 -0.3462859431
| 38> H -3.1150844496 2.65515386 -0.791075831
| 39> H -3.3012825752 1.6139784143 1.4425485887
| 40> H -1.6919564909 2.2054864246 1.8844382893
| 41> H -3.0160146799 3.3493142721 1.6258617174
| 42> H -4.6905345454 -1.0493373418 0.0370087317
| 43> H -5.441396045 -0.329614759 -1.418718612
| 44> H -3.3908682271 -2.6067540183 -1.3754352191
| 45> H -5.117932089 -2.7732133827 -1.7268214081
| 46> H -4.0621487227 -1.8839310018 -2.8388918917
| 47> *
| 48>
| 49>                          ****END OF INPUT****

CARTESIAN COORDINATES (ANGSTROEM)
---------------------------------
  C      2.784312    0.240731   -2.486308
  C      1.842575    1.216861   -1.816329
  O      1.251154    0.654978   -0.628940
  P      2.080879    0.455318    0.702838
  S      3.396712    1.841228    1.124706
  O      2.682195   -1.010629    0.510038
  C      3.681325   -1.536539    1.405275
  C      4.397557   -2.667822    0.696001
  S      0.524307    0.202960    2.086941
  C     -0.318219   -1.261487    1.357993
  S     -2.078708   -0.979127    1.131812
  P     -1.988293   -0.078183   -0.801549
  S     -0.886554   -1.067347   -2.082752
  O     -1.470046    1.409623   -0.676902
  C     -2.220567    2.541612   -0.176018
  C     -2.579717    2.413542    1.290104
  O     -3.517859    0.151554   -1.161006
  C     -4.557368   -0.836056   -1.026992
  C     -4.263345   -2.107827   -1.793931
  H      3.638610    0.046695   -1.840038
  H      2.264805   -0.694137   -2.684306
  H      3.133931    0.664859   -3.422187
  H      0.983274    1.445648   -2.449211
  H      2.361693    2.139804   -1.537913
  H      4.369606   -0.727400    1.672345
  H      3.179323   -1.887874    2.311175
  H      5.125930   -3.104458    1.371286
  H      3.683443   -3.428299    0.393621
  H      4.907428   -2.294926   -0.187778
  H     -0.221645   -2.082842    2.062534
  H      0.136659   -1.494868    0.393978
  H     -1.543671    3.380947   -0.346286
  H     -3.115084    2.655154   -0.791076
  H     -3.301283    1.613978    1.442549
  H     -1.691956    2.205486    1.884438
  H     -3.016015    3.349314    1.625862
  H     -4.690535   -1.049337    0.037009
  H     -5.441396   -0.329615   -1.418719
  H     -3.390868   -2.606754   -1.375435
  H     -5.117932   -2.773213   -1.726821
  H     -4.062149   -1.883931   -2.838892

 Total Charge           Charge          ....    0
 Multiplicity           Mult            ....    1
 Number of Electrons    NEL             ....  202
 Basis Dimension        Dim             ....  334

ORBITAL ENERGIES
----------------

  NO   OCC          E(Eh)            E(eV)
   0   2.0000     -88.049040     -2395.9362
   1   2.0000     -88.039714     -2395.6824
   2   2.0000     -87.982844     -2394.1349
   3   2.0000     -87.982301     -2394.1201
   4   2.0000     -76.429890     -2079.7630
   5   2.0000     -76.419727     -2079.4865
   6   2.0000     -18.802491      -511.6418
   7   2.0000     -18.790060      -511.3035
   8   2.0000     -18.788685      -511.2661
   9   2.0000     -18.778914      -511.0002
  10   2.0000      -9.965276      -271.1689
  11   2.0000      -9.959472      -271.0110
  12   2.0000      -9.954102      -270.8649
  13   2.0000      -9.950406      -270.7643
  14   2.0000      -9.937728      -270.4193
  15   2.0000      -9.887114      -269.0421
  16   2.0000      -9.887035      -269.0399
  17   2.0000      -9.883576      -268.9458
  18   2.0000      -9.872008      -268.6310
  19   2.0000      -7.694001      -209.3644
  20   2.0000      -7.685102      -209.1222
  21   2.0000      -7.627933      -207.5666
  22   2.0000      -7.627522      -207.5554
  23   2.0000      -6.426825      -174.8828
  24   2.0000      -6.417873      -174.6392
  25   2.0000      -5.721749      -155.6967
  26   2.0000      -5.718486      -155.6079
  27   2.0000      -5.713379      -155.4690
  28   2.0000      -5.711139      -155.4080
  29   2.0000      -5.709264      -155.3570
  30   2.0000      -5.701956      -155.1581
  31   2.0000      -5.657015      -153.9352
  32   2.0000      -5.656486      -153.9208
  33   2.0000      -5.648534      -153.7044
  34   2.0000      -5.648099      -153.6926
  35   2.0000      -5.647885      -153.6868
  36   2.0000      -5.647674      -153.6810
  37   2.0000      -4.649894      -126.5301
  38   2.0000      -4.648772      -126.4995
  39   2.0000      -4.646738      -126.4442
  40   2.0000      -4.640173      -126.2655
  41   2.0000      -4.639858      -126.2569
  42   2.0000      -4.638308      -126.2148
  43   2.0000      -0.992216       -26.9996
  44   2.0000      -0.980325       -26.6760
  45   2.0000      -0.946122       -25.7453
  46   2.0000      -0.938931       -25.5496
  47   2.0000      -0.764369       -20.7995
  48   2.0000      -0.722494       -19.6601
  49   2.0000      -0.710143       -19.3240
  50   2.0000      -0.693567       -18.8729
  51   2.0000      -0.683881       -18.6093
  52   2.0000      -0.671935       -18.2843
  53   2.0000      -0.650840       -17.7103
  54   2.0000      -0.636575       -17.3221
  55   2.0000      -0.594045       -16.1648
  56   2.0000      -0.589361       -16.0373
  57   2.0000      -0.583020       -15.8648
  58   2.0000      -0.566817       -15.4239
  59   2.0000      -0.557556       -15.1719
  60   2.0000      -0.501806       -13.6548
  61   2.0000      -0.500120       -13.6090
  62   2.0000      -0.473287       -12.8788
  63   2.0000      -0.469013       -12.7625
  64   2.0000      -0.460277       -12.5248
  65   2.0000      -0.446893       -12.1606
  66   2.0000      -0.437790       -11.9129
  67   2.0000      -0.435702       -11.8561
  68   2.0000      -0.430697       -11.7199
  69   2.0000      -0.417754       -11.3677
  70   2.0000      -0.412223       -11.2172
  71   2.0000      -0.408110       -11.1052
  72   2.0000      -0.392052       -10.6683
  73   2.0000      -0.389275       -10.5927
  74   2.0000      -0.376399       -10.2423
  75   2.0000      -0.367276        -9.9941
  76   2.0000      -0.357215        -9.7203
  77   2.0000      -0.356026        -9.6880
  78   2.0000      -0.354188        -9.6379
  79   2.0000      -0.348097        -9.4722
  80   2.0000      -0.345788        -9.4094
  81   2.0000      -0.342393        -9.3170
  82   2.0000      -0.341051        -9.2805
  83   2.0000      -0.334586        -9.1046
  84   2.0000      -0.329100        -8.9553
  85   2.0000      -0.326651        -8.8886
  86   2.0000      -0.312636        -8.5073
  87   2.0000      -0.302587        -8.2338
  88   2.0000      -0.295223        -8.0334
  89   2.0000      -0.291571        -7.9340
  90   2.0000      -0.279824        -7.6144
  91   2.0000      -0.275384        -7.4936
  92   2.0000      -0.265169        -7.2156
  93   2.0000      -0.261456        -7.1146
  94   2.0000      -0.259523        -7.0620
  95   2.0000      -0.237467        -6.4618
  96   2.0000      -0.219836        -5.9820
  97   2.0000      -0.205424        -5.5899
  98   2.0000      -0.202613        -5.5134
  99   2.0000      -0.198136        -5.3916
 100   2.0000      -0.191587        -5.2134
 101   0.0000      -0.044528        -1.2117
 102   0.0000      -0.027164        -0.7392
 103   0.0000      -0.017885        -0.4867
 104   0.0000       0.004010         0.1091
 105   0.0000       0.015314         0.4167

MULLIKEN ATOMIC CHARGES
-----------------------
   0 C :   -0.310365
   1 C :    0.004737
   2 O :   -0.355684
   3 P :    0.606618
   4 S :   -0.329776
   5 O :   -0.383159
   6 C :   -0.012084
   7 C :   -0.282407
   8 S :   -0.079905
   9 C :   -0.356188
  10 S :   -0.119113
  11 P :    0.623935
  12 S :   -0.307232
  13 O :   -0.351327
  14 C :    0.004488
  15 C :   -0.326116
  16 O :   -0.382972
  17 C :   -0.016878
  18 C :   -0.307008
  19 H :    0.115520
  20 H :    0.123264
  21 H :    0.106518
  22 H :    0.104819
  23 H :    0.105549
  24 H :    0.108563
  25 H :    0.094455
  26 H :    0.111386
  27 H :    0.116536
  28 H :    0.122830
  29 H :    0.184431
  30 H :    0.207892
  31 H :    0.111617
  32 H :    0.106898
  33 H :    0.115431
  34 H :    0.138968
  35 H :    0.111253
  36 H :    0.116297
  37 H :    0.111211
  38 H :    0.127336
  39 H :    0.112107
  40 H :    0.127554
Sum of atomic charges:   -0.0000000

LOEWDIN ATOMIC CHARGES
----------------------
   0 C :   -0.364357
   1 C :   -0.119306
   2 O :   -0.230935
   3 P :    0.561585
   4 S :   -0.324724
   5 O :   -0.250610
   6 C :   -0.121874
   7 C :   -0.350569
   8 S :    0.076100
   9 C :   -0.475275
  10 S :    0.074767
  11 P :    0.580829
  12 S :   -0.299900
  13 O :   -0.228487
  14 C :   -0.108903
  15 C :   -0.372955
  16 O :   -0.244416
  17 C :   -0.114709
  18 C :   -0.369233
  19 H :    0.118307
  20 H :    0.126606
  21 H :    0.128099
  22 H :    0.116280
  23 H :    0.107041
  24 H :    0.108250
  25 H :    0.107139
  26 H :    0.130492
  27 H :    0.126780
  28 H :    0.128634
  29 H :    0.136213
  30 H :    0.129010
  31 H :    0.123380
  32 H :    0.112644
  33 H :    0.114127
  34 H :    0.125011
  35 H :    0.130535
  36 H :    0.108104
  37 H :    0.122095
  38 H :    0.122337
  39 H :    0.130636
  40 H :    0.131253

  Mayer bond orders larger than 0.100000
B(  0-C ,  1-C ) :   1.1688 B(  0-C , 19-H ) :   0.9376 B(  0-C , 20-H ) :   0.9440
B(  0-C , 21-H ) :   0.9393 B(  1-C ,  2-O ) :   0.8977 B(  1-C , 22-H ) :   0.9220
B(  1-C , 23-H ) :   0.9172 B(  2-O ,  3-P ) :   1.1401 B(  3-P ,  4-S ) :   1.6441
B(  3-P ,  5-O ) :   1.0553 B(  3-P ,  8-S ) :   0.9899 B(  5-O ,  6-C ) :   0.9078
B(  6-C ,  7-C ) :   1.1599 B(  6-C , 24-H ) :   0.9071 B(  6-C , 25-H ) :   0.9282
B(  7-C , 26-H ) :   0.9418 B(  7-C , 27-H ) :   0.9504 B(  7-C , 28-H ) :   0.9510
B(  8-S ,  9-C ) :   0.9574 B(  9-C , 10-S ) :   1.0184 B(  9-C , 29-H ) :   0.9117
B(  9-C , 30-H ) :   0.8542 B( 10-S , 11-P ) :   0.9281 B( 10-S , 12-S ) :   0.1083
B( 11-P , 12-S ) :   1.6411 B( 11-P , 13-O ) :   1.1395 B( 11-P , 16-O ) :   1.0805
B( 13-O , 14-C ) :   0.8988 B( 14-C , 15-C ) :   1.1710 B( 14-C , 31-H ) :   0.9333
B( 14-C , 32-H ) :   0.9281 B( 15-C , 33-H ) :   0.9410 B( 15-C , 34-H ) :   0.9326
B( 15-C , 35-H ) :   0.9350 B( 16-O , 17-C ) :   0.9107 B( 17-C , 18-C ) :   1.1674
B( 17-C , 36-H ) :   0.9253 B( 17-C , 37-H ) :   0.9332 B( 18-C , 38-H ) :   0.9316
B( 18-C , 39-H ) :   0.9344 B( 18-C , 40-H ) :   0.9431

Dispersion correction           -0.066274995
FINAL SINGLE POINT ENERGY     -2929.513779545929

DIPOLE MOMENT
-------------

Method             : SCF
Type of density    : Electron Density
Multiplicity       :   1
Irrep              :   0
Energy             : -2929.6347718870792960 Eh
Relativity type    :
Basis              : AO
                                X                 Y                 Z
Electronic contribution:      0.542011038       6.128982923       7.087190733
Nuclear contribution   :     -1.822068369      -6.750939703      -6.971084088
                        -----------------------------------------
Total Dipole Moment    :     -1.280057330      -0.621956780       0.116106646
                        -----------------------------------------
Magnitude (a.u.)       :      1.427885765
Magnitude (Debye)      :      3.629397183

Rotational constants in cm-1:             0.012513             0.005137             0.004931
Rotational constants in MHz :           375.129600           153.989766           147.842350

                             ****ORCA TERMINATED NORMALLY****
TOTAL RUN TIME: 0 days 0 hours 0 minutes 21 seconds 862 msec
