                         Program Version 6.0.0  -   RELEASE  -
|  1> ! r2scan-3c def2/J RI DEFGRID2 scfconv6 printgap
|  2> %output
|  3>     printlevel normal
|  4> end
|  5> * xyz 0 1
|  6> C 2.018896696 -1.2970681637 3.2533026766
|  7> C 1.175253345 -1.1602643519 2.0010498646
|  8> O 1.5956472166 0.0057383026 1.2727470607
|  9> P 2.1950472363 -0.0023994684 -0.2022439205
| 10> S 2.8283560888 -1.7585800185 -0.8096635845
| 11> O 3.2049125356 1.2168251142 -0.1562182414
| 12> C 4.214484016 1.3804285736 0.8634462342
| 13> C 5.3629310512 0.4068027629 0.6890070551
| 14> S 0.8182054316 0.9679981427 -1.4806674788
| 15> C -0.0362847641 -0.5223753637 -2.0641820952
| 16> S -0.8769689178 -1.4227385618 -0.7334263424
| 17> P -2.1713264344 0.1479060043 -0.1538141952
| 18> S -2.9107186947 1.2776536183 -1.5780535709
| 19> O -1.2551341642 0.8610906304 0.9258418104
| 20> C -1.3985117634 2.2557769211 1.2575423063
| 21> C -2.6804534234 2.5174772347 2.0195228416
| 22> O -3.2428649677 -0.5589901815 0.7804211453
| 23> C -4.4751168046 -1.1019535242 0.2737376934
| 24> C -4.2465566455 -2.3242859585 -0.5916402028
| 25> H 1.9486530791 -0.3955562411 3.8556186144
| 26> H 1.6591678683 -2.1425978452 3.8303437912
| 27> H 3.0594573906 -1.4675695441 2.9861860971
| 28> H 0.1194390314 -1.0105416749 2.2379125269
| 29> H 1.2816829767 -2.0414275636 1.3590850058
| 30> H 4.5444377948 2.4124793669 0.7326410305
| 31> H 3.7442942656 1.2636519367 1.8429992132
| 32> H 5.791098726 0.5052124906 -0.3053055667
| 33> H 6.12682574 0.6149122083 1.4315783465
| 34> H 5.0150364236 -0.6175601364 0.8117240392
| 35> H 0.683855497 -1.216101404 -2.4974355362
| 36> H -0.7654545527 -0.1911381837 -2.8024517951
| 37> H -0.5130738521 2.475504472 1.8561050328
| 38> H -1.3687038431 2.8377129639 0.3303167149
| 39> H -2.7117482039 3.5582459312 2.3261844163
| 40> H -3.5369807431 2.3111709442 1.3785480133
| 41> H -2.7351122165 1.8776044065 2.8962548551
| 42> H -5.0430708303 -1.3444564383 1.1728591977
| 43> H -4.9891468243 -0.3199218325 -0.2941507438
| 44> H -3.7319047228 -2.0411629114 -1.5088820068
| 45> H -3.6391076455 -3.0543464956 -0.0627062033
| 46> H -5.2035503546 -2.7674340566 -0.8478013991
| 47> *
| 48>
| 49>                          ****END OF INPUT****

CARTESIAN COORDINATES (ANGSTROEM)
---------------------------------
  C      2.018897   -1.297068    3.253303
  C      1.175253   -1.160264    2.001050
  O      1.595647    0.005738    1.272747
  P      2.195047   -0.002399   -0.202244
  S      2.828356   -1.758580   -0.809664
  O      3.204913    1.216825   -0.156218
  C      4.214484    1.380429    0.863446
  C      5.362931    0.406803    0.689007
  S      0.818205    0.967998   -1.480667
  C     -0.036285   -0.522375   -2.064182
  S     -0.876969   -1.422739   -0.733426
  P     -2.171326    0.147906   -0.153814
  S     -2.910719    1.277654   -1.578054
  O     -1.255134    0.861091    0.925842
  C     -1.398512    2.255777    1.257542
  C     -2.680453    2.517477    2.019523
  O     -3.242865   -0.558990    0.780421
  C     -4.475117   -1.101954    0.273738
  C     -4.246557   -2.324286   -0.591640
  H      1.948653   -0.395556    3.855619
  H      1.659168   -2.142598    3.830344
  H      3.059457   -1.467570    2.986186
  H      0.119439   -1.010542    2.237913
  H      1.281683   -2.041428    1.359085
  H      4.544438    2.412479    0.732641
  H      3.744294    1.263652    1.842999
  H      5.791099    0.505212   -0.305306
  H      6.126826    0.614912    1.431578
  H      5.015036   -0.617560    0.811724
  H      0.683855   -1.216101   -2.497436
  H     -0.765455   -0.191138   -2.802452
  H     -0.513074    2.475504    1.856105
  H     -1.368704    2.837713    0.330317
  H     -2.711748    3.558246    2.326184
  H     -3.536981    2.311171    1.378548
  H     -2.735112    1.877604    2.896255
  H     -5.043071   -1.344456    1.172859
  H     -4.989147   -0.319922   -0.294151
  H     -3.731905   -2.041163   -1.508882
  H     -3.639108   -3.054346   -0.062706
  H     -5.203550   -2.767434   -0.847801

 Total Charge           Charge          ....    0
 Multiplicity           Mult            ....    1
 Number of Electrons    NEL             ....  202
 Basis Dimension        Dim             ....  539

ORBITAL ENERGIES
----------------

  NO   OCC          E(Eh)            E(eV)
   0   2.0000     -88.574897     -2410.2455
   1   2.0000     -88.570515     -2410.1262
   2   2.0000     -88.523327     -2408.8422
   3   2.0000     -88.518534     -2408.7118
   4   2.0000     -76.914736     -2092.9564
   5   2.0000     -76.912833     -2092.9046
   6   2.0000     -18.995262      -516.8874
   7   2.0000     -18.991181      -516.7763
   8   2.0000     -18.989632      -516.7342
   9   2.0000     -18.987771      -516.6835
  10   2.0000     -10.103263      -274.9238
  11   2.0000     -10.102639      -274.9068
  12   2.0000     -10.101048      -274.8635
  13   2.0000     -10.095708      -274.7182
  14   2.0000     -10.091331      -274.5991
  15   2.0000     -10.030993      -272.9572
  16   2.0000     -10.030490      -272.9435
  17   2.0000     -10.028624      -272.8927
  18   2.0000     -10.028394      -272.8865
  19   2.0000      -7.869367      -214.1364
  20   2.0000      -7.864673      -214.0086
  21   2.0000      -7.818038      -212.7396
  22   2.0000      -7.813410      -212.6137
  23   2.0000      -6.593349      -179.4141
  24   2.0000      -6.590943      -179.3487
  25   2.0000      -5.816208      -158.2671
  26   2.0000      -5.813270      -158.1871
  27   2.0000      -5.811691      -158.1441
  28   2.0000      -5.808571      -158.0593
  29   2.0000      -5.806452      -158.0016
  30   2.0000      -5.801630      -157.8704
  31   2.0000      -5.765634      -156.8909
  32   2.0000      -5.761041      -156.7659
  33   2.0000      -5.758331      -156.6921
  34   2.0000      -5.758095      -156.6857
  35   2.0000      -5.753826      -156.5696
  36   2.0000      -5.753282      -156.5548
  37   2.0000      -4.738700      -128.9466
  38   2.0000      -4.738232      -128.9338
  39   2.0000      -4.737244      -128.9070
  40   2.0000      -4.736723      -128.8928
  41   2.0000      -4.735645      -128.8634
  42   2.0000      -4.734688      -128.8374
  43   2.0000      -1.051292       -28.6071
  44   2.0000      -1.048610       -28.5341
  45   2.0000      -1.011801       -27.5325
  46   2.0000      -1.007503       -27.4156
  47   2.0000      -0.801152       -21.8004
  48   2.0000      -0.759654       -20.6712
  49   2.0000      -0.748515       -20.3681
  50   2.0000      -0.732281       -19.9264
  51   2.0000      -0.731701       -19.9106
  52   2.0000      -0.708835       -19.2884
  53   2.0000      -0.686796       -18.6887
  54   2.0000      -0.668721       -18.1968
  55   2.0000      -0.634178       -17.2568
  56   2.0000      -0.622903       -16.9500
  57   2.0000      -0.608129       -16.5480
  58   2.0000      -0.605708       -16.4821
  59   2.0000      -0.590227       -16.0609
  60   2.0000      -0.526510       -14.3271
  61   2.0000      -0.517161       -14.0727
  62   2.0000      -0.495212       -13.4754
  63   2.0000      -0.492553       -13.4030
  64   2.0000      -0.475331       -12.9344
  65   2.0000      -0.463461       -12.6114
  66   2.0000      -0.460096       -12.5199
  67   2.0000      -0.451135       -12.2760
  68   2.0000      -0.445422       -12.1206
  69   2.0000      -0.430824       -11.7233
  70   2.0000      -0.427524       -11.6335
  71   2.0000      -0.411092       -11.1864
  72   2.0000      -0.406823       -11.0702
  73   2.0000      -0.404899       -11.0179
  74   2.0000      -0.393622       -10.7110
  75   2.0000      -0.390033       -10.6133
  76   2.0000      -0.386608       -10.5201
  77   2.0000      -0.374878       -10.2010
  78   2.0000      -0.369363       -10.0509
  79   2.0000      -0.367098        -9.9893
  80   2.0000      -0.363457        -9.8902
  81   2.0000      -0.363143        -9.8816
  82   2.0000      -0.356328        -9.6962
  83   2.0000      -0.353768        -9.6265
  84   2.0000      -0.348578        -9.4853
  85   2.0000      -0.338103        -9.2003
  86   2.0000      -0.321949        -8.7607
  87   2.0000      -0.311627        -8.4798
  88   2.0000      -0.308104        -8.3839
  89   2.0000      -0.305090        -8.3019
  90   2.0000      -0.298518        -8.1231
  91   2.0000      -0.292990        -7.9727
  92   2.0000      -0.288543        -7.8516
  93   2.0000      -0.281025        -7.6471
  94   2.0000      -0.271539        -7.3890
  95   2.0000      -0.245183        -6.6718
  96   2.0000      -0.228451        -6.2165
  97   2.0000      -0.227191        -6.1822
  98   2.0000      -0.221742        -6.0339
  99   2.0000      -0.212577        -5.7845
 100   2.0000      -0.209191        -5.6924
 101   0.0000      -0.046749        -1.2721
 102   0.0000      -0.025428        -0.6919
 103   0.0000       0.000756         0.0206
 104   0.0000       0.003235         0.0880
 105   0.0000       0.012370         0.3366

MULLIKEN ATOMIC CHARGES
-----------------------
   0 C :   -0.500599
   1 C :   -0.105440
   2 O :   -0.279518
   3 P :    0.703090
   4 S :   -0.475604
   5 O :   -0.308700
   6 C :   -0.164713
   7 C :   -0.427703
   8 S :   -0.122238
   9 C :   -0.235763
  10 S :   -0.130131
  11 P :    0.680169
  12 S :   -0.476144
  13 O :   -0.256870
  14 C :   -0.161032
  15 C :   -0.444141
  16 O :   -0.302838
  17 C :   -0.153097
  18 C :   -0.449075
  19 H :    0.154210
  20 H :    0.148659
  21 H :    0.158778
  22 H :    0.166492
  23 H :    0.179513
  24 H :    0.149989
  25 H :    0.159784
  26 H :    0.159626
  27 H :    0.145337
  28 H :    0.166504
  29 H :    0.208831
  30 H :    0.208571
  31 H :    0.156753
  32 H :    0.176430
  33 H :    0.147251
  34 H :    0.167786
  35 H :    0.153623
  36 H :    0.148602
  37 H :    0.172360
  38 H :    0.177065
  39 H :    0.155502
  40 H :    0.148680
Sum of atomic charges:    0.0000000

LOEWDIN ATOMIC CHARGES
----------------------
   0 C :   -0.394194
   1 C :    0.003208
   2 O :   -0.668703
   3 P :    0.388082
   4 S :   -0.132467
   5 O :   -0.666429
   6 C :    0.030342
   7 C :   -0.402323
   8 S :    0.192241
   9 C :   -0.418754
  10 S :    0.169863
  11 P :    0.379807
  12 S :   -0.124827
  13 O :   -0.683475
  14 C :    0.017289
  15 C :   -0.399443
  16 O :   -0.661030
  17 C :    0.020085
  18 C :   -0.406543
  19 H :    0.157071
  20 H :    0.160583
  21 H :    0.158920
  22 H :    0.180899
  23 H :    0.184709
  24 H :    0.181061
  25 H :    0.175265
  26 H :    0.163867
  27 H :    0.157483
  28 H :    0.165448
  29 H :    0.190792
  30 H :    0.188801
  31 H :    0.181621
  32 H :    0.182306
  33 H :    0.159399
  34 H :    0.164626
  35 H :    0.159449
  36 H :    0.179572
  37 H :    0.179739
  38 H :    0.165683
  39 H :    0.160373
  40 H :    0.159604

  Mayer bond orders larger than 0.100000
B(  0-C ,  1-C ) :   0.9284 B(  0-C , 19-H ) :   0.9806 B(  0-C , 20-H ) :   0.9648
B(  0-C , 21-H ) :   0.9744 B(  1-C ,  2-O ) :   0.7306 B(  1-C , 22-H ) :   0.9553
B(  1-C , 23-H ) :   0.9459 B(  2-O ,  3-P ) :   1.0517 B(  3-P ,  4-S ) :   1.7647
B(  3-P ,  5-O ) :   1.1512 B(  3-P ,  8-S ) :   1.0774 B(  5-O ,  6-C ) :   0.7955
B(  6-C ,  7-C ) :   0.9453 B(  6-C , 24-H ) :   0.9602 B(  6-C , 25-H ) :   0.9678
B(  7-C , 26-H ) :   0.9683 B(  7-C , 27-H ) :   0.9661 B(  7-C , 28-H ) :   0.9529
B(  8-S ,  9-C ) :   0.9011 B(  9-C , 10-S ) :   0.8910 B(  9-C , 29-H ) :   0.9084
B(  9-C , 30-H ) :   0.9108 B( 10-S , 11-P ) :   1.0808 B( 11-P , 12-S ) :   1.7562
B( 11-P , 13-O ) :   1.1328 B( 11-P , 16-O ) :   1.0673 B( 13-O , 14-C ) :   0.7879
B( 14-C , 15-C ) :   0.9193 B( 14-C , 31-H ) :   0.9632 B( 14-C , 32-H ) :   0.9621
B( 15-C , 33-H ) :   0.9631 B( 15-C , 34-H ) :   0.9605 B( 15-C , 35-H ) :   0.9731
B( 16-O , 17-C ) :   0.8127 B( 17-C , 18-C ) :   0.9232 B( 17-C , 36-H ) :   0.9582
B( 17-C , 37-H ) :   0.9674 B( 18-C , 38-H ) :   0.9625 B( 18-C , 39-H ) :   0.9683
B( 18-C , 40-H ) :   0.9587

Dispersion correction           -0.022067961
FINAL SINGLE POINT ENERGY     -2932.464076317111

DIPOLE MOMENT
-------------

Method             : SCF
Type of density    : Electron Density
Multiplicity       :   1
Irrep              :   0
Energy             : -2932.4885726101060754 Eh
Relativity type    :
Basis              : AO
                                X                 Y                 Z
Electronic contribution:     -0.012199346       0.928155528     -18.292265416
Nuclear contribution   :     -0.260216750      -0.787088519      19.941103943
                        -----------------------------------------
Total Dipole Moment    :     -0.272416096       0.141067008       1.648838527
                        -----------------------------------------
Magnitude (a.u.)       :      1.677134138
Magnitude (Debye)      :      4.262936198

Rotational constants in cm-1:             0.013165             0.005030             0.004888
Rotational constants in MHz :           394.667464           150.803683           146.534257

                             ****ORCA TERMINATED NORMALLY****
TOTAL RUN TIME: 0 days 0 hours 1 minutes 27 seconds 24 msec
