                         Program Version 6.0.0  -   RELEASE  -
|  1> ! r2scan-3c def2/J RI DEFGRID2 scfconv6 printgap
|  2> %output
|  3>     printlevel normal
|  4> end
|  5> %cpcm
|  6>     smd true
|  7>     smdsolvent "water"
|  8> end
|  9> * xyz 0 1
| 10> C 2.018896696 -1.2970681637 3.2533026766
| 11> C 1.175253345 -1.1602643519 2.0010498646
| 12> O 1.5956472166 0.0057383026 1.2727470607
| 13> P 2.1950472363 -0.0023994684 -0.2022439205
| 14> S 2.8283560888 -1.7585800185 -0.8096635845
| 15> O 3.2049125356 1.2168251142 -0.1562182414
| 16> C 4.214484016 1.3804285736 0.8634462342
| 17> C 5.3629310512 0.4068027629 0.6890070551
| 18> S 0.8182054316 0.9679981427 -1.4806674788
| 19> C -0.0362847641 -0.5223753637 -2.0641820952
| 20> S -0.8769689178 -1.4227385618 -0.7334263424
| 21> P -2.1713264344 0.1479060043 -0.1538141952
| 22> S -2.9107186947 1.2776536183 -1.5780535709
| 23> O -1.2551341642 0.8610906304 0.9258418104
| 24> C -1.3985117634 2.2557769211 1.2575423063
| 25> C -2.6804534234 2.5174772347 2.0195228416
| 26> O -3.2428649677 -0.5589901815 0.7804211453
| 27> C -4.4751168046 -1.1019535242 0.2737376934
| 28> C -4.2465566455 -2.3242859585 -0.5916402028
| 29> H 1.9486530791 -0.3955562411 3.8556186144
| 30> H 1.6591678683 -2.1425978452 3.8303437912
| 31> H 3.0594573906 -1.4675695441 2.9861860971
| 32> H 0.1194390314 -1.0105416749 2.2379125269
| 33> H 1.2816829767 -2.0414275636 1.3590850058
| 34> H 4.5444377948 2.4124793669 0.7326410305
| 35> H 3.7442942656 1.2636519367 1.8429992132
| 36> H 5.791098726 0.5052124906 -0.3053055667
| 37> H 6.12682574 0.6149122083 1.4315783465
| 38> H 5.0150364236 -0.6175601364 0.8117240392
| 39> H 0.683855497 -1.216101404 -2.4974355362
| 40> H -0.7654545527 -0.1911381837 -2.8024517951
| 41> H -0.5130738521 2.475504472 1.8561050328
| 42> H -1.3687038431 2.8377129639 0.3303167149
| 43> H -2.7117482039 3.5582459312 2.3261844163
| 44> H -3.5369807431 2.3111709442 1.3785480133
| 45> H -2.7351122165 1.8776044065 2.8962548551
| 46> H -5.0430708303 -1.3444564383 1.1728591977
| 47> H -4.9891468243 -0.3199218325 -0.2941507438
| 48> H -3.7319047228 -2.0411629114 -1.5088820068
| 49> H -3.6391076455 -3.0543464956 -0.0627062033
| 50> H -5.2035503546 -2.7674340566 -0.8478013991
| 51> *
| 52>
| 53>                          ****END OF INPUT****

CARTESIAN COORDINATES (ANGSTROEM)
---------------------------------
  C      2.018897   -1.297068    3.253303
  C      1.175253   -1.160264    2.001050
  O      1.595647    0.005738    1.272747
  P      2.195047   -0.002399   -0.202244
  S      2.828356   -1.758580   -0.809664
  O      3.204913    1.216825   -0.156218
  C      4.214484    1.380429    0.863446
  C      5.362931    0.406803    0.689007
  S      0.818205    0.967998   -1.480667
  C     -0.036285   -0.522375   -2.064182
  S     -0.876969   -1.422739   -0.733426
  P     -2.171326    0.147906   -0.153814
  S     -2.910719    1.277654   -1.578054
  O     -1.255134    0.861091    0.925842
  C     -1.398512    2.255777    1.257542
  C     -2.680453    2.517477    2.019523
  O     -3.242865   -0.558990    0.780421
  C     -4.475117   -1.101954    0.273738
  C     -4.246557   -2.324286   -0.591640
  H      1.948653   -0.395556    3.855619
  H      1.659168   -2.142598    3.830344
  H      3.059457   -1.467570    2.986186
  H      0.119439   -1.010542    2.237913
  H      1.281683   -2.041428    1.359085
  H      4.544438    2.412479    0.732641
  H      3.744294    1.263652    1.842999
  H      5.791099    0.505212   -0.305306
  H      6.126826    0.614912    1.431578
  H      5.015036   -0.617560    0.811724
  H      0.683855   -1.216101   -2.497436
  H     -0.765455   -0.191138   -2.802452
  H     -0.513074    2.475504    1.856105
  H     -1.368704    2.837713    0.330317
  H     -2.711748    3.558246    2.326184
  H     -3.536981    2.311171    1.378548
  H     -2.735112    1.877604    2.896255
  H     -5.043071   -1.344456    1.172859
  H     -4.989147   -0.319922   -0.294151
  H     -3.731905   -2.041163   -1.508882
  H     -3.639108   -3.054346   -0.062706
  H     -5.203550   -2.767434   -0.847801

 Total Charge           Charge          ....    0
 Multiplicity           Mult            ....    1
 Number of Electrons    NEL             ....  202
 Basis Dimension        Dim             ....  539

ORBITAL ENERGIES
----------------

  NO   OCC          E(Eh)            E(eV)
   0   2.0000     -88.578024     -2410.3306
   1   2.0000     -88.577396     -2410.3135
   2   2.0000     -88.529180     -2409.0015
   3   2.0000     -88.527387     -2408.9527
   4   2.0000     -76.919426     -2093.0840
   5   2.0000     -76.918642     -2093.0627
   6   2.0000     -18.995974      -516.9067
   7   2.0000     -18.994527      -516.8674
   8   2.0000     -18.993165      -516.8303
   9   2.0000     -18.990133      -516.7478
  10   2.0000     -10.103970      -274.9430
  11   2.0000     -10.090939      -274.5884
  12   2.0000     -10.090006      -274.5630
  13   2.0000     -10.088387      -274.5190
  14   2.0000     -10.085740      -274.4469
  15   2.0000     -10.018744      -272.6239
  16   2.0000     -10.018239      -272.6102
  17   2.0000     -10.017576      -272.5921
  18   2.0000     -10.017435      -272.5883
  19   2.0000      -7.872511      -214.2219
  20   2.0000      -7.871645      -214.1984
  21   2.0000      -7.824173      -212.9066
  22   2.0000      -7.822557      -212.8626
  23   2.0000      -6.597558      -179.5287
  24   2.0000      -6.597283      -179.5212
  25   2.0000      -5.819349      -158.3525
  26   2.0000      -5.818589      -158.3318
  27   2.0000      -5.816428      -158.2731
  28   2.0000      -5.815484      -158.2474
  29   2.0000      -5.809587      -158.0869
  30   2.0000      -5.808740      -158.0639
  31   2.0000      -5.771716      -157.0564
  32   2.0000      -5.770125      -157.0131
  33   2.0000      -5.764450      -156.8586
  34   2.0000      -5.764249      -156.8532
  35   2.0000      -5.762886      -156.8161
  36   2.0000      -5.762524      -156.8063
  37   2.0000      -4.743284      -129.0713
  38   2.0000      -4.742589      -129.0524
  39   2.0000      -4.742261      -129.0435
  40   2.0000      -4.742172      -129.0411
  41   2.0000      -4.741390      -129.0198
  42   2.0000      -4.741245      -129.0158
  43   2.0000      -1.052664       -28.6444
  44   2.0000      -1.051297       -28.6072
  45   2.0000      -1.012592       -27.5540
  46   2.0000      -1.009894       -27.4806
  47   2.0000      -0.804303       -21.8862
  48   2.0000      -0.756876       -20.5956
  49   2.0000      -0.742384       -20.2013
  50   2.0000      -0.723408       -19.6849
  51   2.0000      -0.722861       -19.6700
  52   2.0000      -0.707976       -19.2650
  53   2.0000      -0.689933       -18.7740
  54   2.0000      -0.675147       -18.3717
  55   2.0000      -0.632498       -17.2111
  56   2.0000      -0.619610       -16.8604
  57   2.0000      -0.601595       -16.3702
  58   2.0000      -0.598561       -16.2877
  59   2.0000      -0.589115       -16.0306
  60   2.0000      -0.523564       -14.2469
  61   2.0000      -0.513067       -13.9612
  62   2.0000      -0.491665       -13.3789
  63   2.0000      -0.488591       -13.2952
  64   2.0000      -0.474759       -12.9188
  65   2.0000      -0.460099       -12.5199
  66   2.0000      -0.454760       -12.3747
  67   2.0000      -0.446423       -12.1478
  68   2.0000      -0.442906       -12.0521
  69   2.0000      -0.428474       -11.6594
  70   2.0000      -0.423920       -11.5355
  71   2.0000      -0.407259       -11.0821
  72   2.0000      -0.405283       -11.0283
  73   2.0000      -0.399851       -10.8805
  74   2.0000      -0.390502       -10.6261
  75   2.0000      -0.389415       -10.5965
  76   2.0000      -0.384428       -10.4608
  77   2.0000      -0.369779       -10.0622
  78   2.0000      -0.364362        -9.9148
  79   2.0000      -0.358672        -9.7600
  80   2.0000      -0.355193        -9.6653
  81   2.0000      -0.353406        -9.6167
  82   2.0000      -0.348404        -9.4806
  83   2.0000      -0.346805        -9.4370
  84   2.0000      -0.344407        -9.3718
  85   2.0000      -0.335295        -9.1238
  86   2.0000      -0.319628        -8.6975
  87   2.0000      -0.305926        -8.3247
  88   2.0000      -0.304987        -8.2991
  89   2.0000      -0.301171        -8.1953
  90   2.0000      -0.296736        -8.0746
  91   2.0000      -0.291300        -7.9267
  92   2.0000      -0.289430        -7.8758
  93   2.0000      -0.279935        -7.6174
  94   2.0000      -0.273877        -7.4526
  95   2.0000      -0.249298        -6.7837
  96   2.0000      -0.235518        -6.4088
  97   2.0000      -0.234616        -6.3842
  98   2.0000      -0.228598        -6.2205
  99   2.0000      -0.221054        -6.0152
 100   2.0000      -0.216809        -5.8997
 101   0.0000      -0.052606        -1.4315
 102   0.0000      -0.032210        -0.8765
 103   0.0000      -0.003840        -0.1045
 104   0.0000      -0.001345        -0.0366
 105   0.0000       0.011151         0.3034

MULLIKEN ATOMIC CHARGES
-----------------------
   0 C :   -0.531446
   1 C :   -0.089577
   2 O :   -0.303664
   3 P :    0.724503
   4 S :   -0.518432
   5 O :   -0.341867
   6 C :   -0.144537
   7 C :   -0.479824
   8 S :   -0.149836
   9 C :   -0.248970
  10 S :   -0.135369
  11 P :    0.722932
  12 S :   -0.522761
  13 O :   -0.284022
  14 C :   -0.152525
  15 C :   -0.486745
  16 O :   -0.329676
  17 C :   -0.153376
  18 C :   -0.485795
  19 H :    0.168886
  20 H :    0.169592
  21 H :    0.167699
  22 H :    0.176607
  23 H :    0.174975
  24 H :    0.174293
  25 H :    0.176324
  26 H :    0.168974
  27 H :    0.170960
  28 H :    0.165896
  29 H :    0.229172
  30 H :    0.232062
  31 H :    0.179392
  32 H :    0.177299
  33 H :    0.171818
  34 H :    0.167746
  35 H :    0.169562
  36 H :    0.175744
  37 H :    0.178456
  38 H :    0.172771
  39 H :    0.169612
  40 H :    0.173149
Sum of atomic charges:    0.0000000

LOEWDIN ATOMIC CHARGES
----------------------
   0 C :   -0.395752
   1 C :    0.008287
   2 O :   -0.676429
   3 P :    0.389174
   4 S :   -0.161621
   5 O :   -0.683224
   6 C :    0.037895
   7 C :   -0.406344
   8 S :    0.174230
   9 C :   -0.413170
  10 S :    0.169427
  11 P :    0.385983
  12 S :   -0.152993
  13 O :   -0.695903
  14 C :    0.020952
  15 C :   -0.402441
  16 O :   -0.671154
  17 C :    0.025933
  18 C :   -0.409770
  19 H :    0.162929
  20 H :    0.168045
  21 H :    0.161859
  22 H :    0.184957
  23 H :    0.183563
  24 H :    0.191313
  25 H :    0.183580
  26 H :    0.163193
  27 H :    0.167922
  28 H :    0.162407
  29 H :    0.196771
  30 H :    0.196082
  31 H :    0.190686
  32 H :    0.182257
  33 H :    0.168516
  34 H :    0.162390
  35 H :    0.163882
  36 H :    0.191139
  37 H :    0.181649
  38 H :    0.161530
  39 H :    0.163728
  40 H :    0.168522

  Mayer bond orders larger than 0.100000
B(  0-C ,  1-C ) :   0.9340 B(  0-C , 19-H ) :   0.9747 B(  0-C , 20-H ) :   0.9598
B(  0-C , 21-H ) :   0.9699 B(  1-C ,  2-O ) :   0.7206 B(  1-C , 22-H ) :   0.9472
B(  1-C , 23-H ) :   0.9444 B(  2-O ,  3-P ) :   1.0582 B(  3-P ,  4-S ) :   1.7378
B(  3-P ,  5-O ) :   1.1594 B(  3-P ,  8-S ) :   1.0874 B(  5-O ,  6-C ) :   0.7888
B(  6-C ,  7-C ) :   0.9261 B(  6-C , 24-H ) :   0.9524 B(  6-C , 25-H ) :   0.9584
B(  7-C , 26-H ) :   0.9709 B(  7-C , 27-H ) :   0.9589 B(  7-C , 28-H ) :   0.9565
B(  8-S ,  9-C ) :   0.8904 B(  9-C , 10-S ) :   0.8848 B(  9-C , 29-H ) :   0.9038
B(  9-C , 30-H ) :   0.9039 B( 10-S , 11-P ) :   1.0891 B( 11-P , 12-S ) :   1.7129
B( 11-P , 13-O ) :   1.1404 B( 11-P , 16-O ) :   1.0761 B( 13-O , 14-C ) :   0.7753
B( 14-C , 15-C ) :   0.9121 B( 14-C , 31-H ) :   0.9529 B( 14-C , 32-H ) :   0.9578
B( 15-C , 33-H ) :   0.9571 B( 15-C , 34-H ) :   0.9602 B( 15-C , 35-H ) :   0.9714
B( 16-O , 17-C ) :   0.8006 B( 17-C , 18-C ) :   0.9098 B( 17-C , 36-H ) :   0.9483
B( 17-C , 37-H ) :   0.9661 B( 18-C , 38-H ) :   0.9636 B( 18-C , 39-H ) :   0.9655
B( 18-C , 40-H ) :   0.9534

Dispersion correction           -0.022067961
FINAL SINGLE POINT ENERGY     -2932.472064685346

DIPOLE MOMENT
-------------

Method             : SCF
Type of density    : Electron Density
Multiplicity       :   1
Irrep              :   0
Energy             : -2932.4965609783403124 Eh
Relativity type    :
Basis              : AO
                                X                 Y                 Z
Electronic contribution:     -0.152684044       0.907135063     -17.682067251
Nuclear contribution   :     -0.260216750      -0.787088519      19.941103943
                        -----------------------------------------
Total Dipole Moment    :     -0.412900793       0.120046544       2.259036692
                        -----------------------------------------
Magnitude (a.u.)       :      2.299596707
Magnitude (Debye)      :      5.845110311

Rotational constants in cm-1:             0.013165             0.005030             0.004888
Rotational constants in MHz :           394.667464           150.803683           146.534257

                             ****ORCA TERMINATED NORMALLY****
TOTAL RUN TIME: 0 days 0 hours 1 minutes 58 seconds 632 msec
