                         Program Version 6.0.0  -   RELEASE  -
|  1> ! pbe def2-sv(p) def2/J RI DEFGRID1 loosescf d4 GCP(DFT/SV(P)) printgap
|  2> %output
|  3>     printlevel normal
|  4> end
|  5> * xyz 0 1
|  6> C 5.7970289439 -0.7561423488 -0.3838356919
|  7> C 4.9191295925 -0.0871641012 -1.4206785185
|  8> O 3.5609774044 -0.5727484184 -1.3758929587
|  9> P 2.5905516778 -0.2661978404 -0.1624044798
| 10> S 2.789042405 1.5123048346 0.6476416395
| 11> O 2.8851962146 -1.4850740958 0.815686342
| 12> C 2.4822909328 -1.4807881083 2.1950317506
| 13> C 0.9924684501 -1.7097391965 2.3488255242
| 14> S 0.7665577181 -0.7505049567 -1.1219872933
| 15> C 0.1041159181 0.9347545403 -1.2815154839
| 16> S -0.7610902007 1.5044545257 0.2069775325
| 17> P -2.4646859759 0.2813905107 -0.0423191706
| 18> S -3.1103874013 0.0143716507 -1.8788393179
| 19> O -3.5337977956 0.8707919996 0.9739428445
| 20> C -4.4753623094 1.8913476315 0.5997229873
| 21> C -3.7995833431 3.2194120276 0.3254917419
| 22> O -1.9729542673 -1.0165037445 0.7193550396
| 23> C -2.5650488149 -2.3114012451 0.4919220809
| 24> C -3.9930702146 -2.3731643513 0.9916708035
| 25> H 5.4822129367 -0.4601591866 0.6157619601
| 26> H 5.7230033746 -1.8369151794 -0.4708313667
| 27> H 6.8275658132 -0.4498852023 -0.5342652496
| 28> H 5.2432365778 -0.3180336201 -2.4362474966
| 29> H 4.9030137909 0.9971057286 -1.2706424058
| 30> H 3.0594553909 -2.2915768188 2.642029143
| 31> H 2.7746568342 -0.5240305347 2.6407603767
| 32> H 0.7505381228 -1.8224319406 3.4007632316
| 33> H 0.4339618875 -0.8631110936 1.9506492639
| 34> H 0.6957255626 -2.6064662958 1.8103363342
| 35> H -0.5968352715 0.9154695325 -2.1160661831
| 36> H 0.915691129 1.6370930891 -1.45769597
| 37> H -5.022188703 1.549589454 -0.2850704331
| 38> H -5.1500036909 1.9513114872 1.4547644968
| 39> H -3.165815445 3.5011940935 1.1627482338
| 40> H -3.1828008907 3.146270957 -0.5694291947
| 41> H -4.5550954954 3.9830092108 0.1706050454
| 42> H -2.516616256 -2.5298852582 -0.5796373892
| 43> H -1.9149471962 -2.9957070629 1.0380955082
| 44> H -4.6218639155 -1.7112181405 0.397350119
| 45> H -4.3642205872 -3.3889832983 0.8987352431
| 46> H -4.0397324463 -2.0620186708 2.0319151371
| 47> *
| 48>
| 49>                          ****END OF INPUT****

CARTESIAN COORDINATES (ANGSTROEM)
---------------------------------
  C      5.797029   -0.756142   -0.383836
  C      4.919130   -0.087164   -1.420679
  O      3.560977   -0.572748   -1.375893
  P      2.590552   -0.266198   -0.162404
  S      2.789042    1.512305    0.647642
  O      2.885196   -1.485074    0.815686
  C      2.482291   -1.480788    2.195032
  C      0.992468   -1.709739    2.348826
  S      0.766558   -0.750505   -1.121987
  C      0.104116    0.934755   -1.281515
  S     -0.761090    1.504455    0.206978
  P     -2.464686    0.281391   -0.042319
  S     -3.110387    0.014372   -1.878839
  O     -3.533798    0.870792    0.973943
  C     -4.475362    1.891348    0.599723
  C     -3.799583    3.219412    0.325492
  O     -1.972954   -1.016504    0.719355
  C     -2.565049   -2.311401    0.491922
  C     -3.993070   -2.373164    0.991671
  H      5.482213   -0.460159    0.615762
  H      5.723003   -1.836915   -0.470831
  H      6.827566   -0.449885   -0.534265
  H      5.243237   -0.318034   -2.436247
  H      4.903014    0.997106   -1.270642
  H      3.059455   -2.291577    2.642029
  H      2.774657   -0.524031    2.640760
  H      0.750538   -1.822432    3.400763
  H      0.433962   -0.863111    1.950649
  H      0.695726   -2.606466    1.810336
  H     -0.596835    0.915470   -2.116066
  H      0.915691    1.637093   -1.457696
  H     -5.022189    1.549589   -0.285070
  H     -5.150004    1.951311    1.454764
  H     -3.165815    3.501194    1.162748
  H     -3.182801    3.146271   -0.569429
  H     -4.555095    3.983009    0.170605
  H     -2.516616   -2.529885   -0.579637
  H     -1.914947   -2.995707    1.038096
  H     -4.621864   -1.711218    0.397350
  H     -4.364221   -3.388983    0.898735
  H     -4.039732   -2.062019    2.031915

 Total Charge           Charge          ....    0
 Multiplicity           Mult            ....    1
 Number of Electrons    NEL             ....  202
 Basis Dimension        Dim             ....  334

ORBITAL ENERGIES
----------------

  NO   OCC          E(Eh)            E(eV)
   0   2.0000     -88.041378     -2395.7277
   1   2.0000     -88.039346     -2395.6724
   2   2.0000     -87.991852     -2394.3800
   3   2.0000     -87.990686     -2394.3483
   4   2.0000     -76.426456     -2079.6696
   5   2.0000     -76.426091     -2079.6597
   6   2.0000     -18.795580      -511.4537
   7   2.0000     -18.793090      -511.3860
   8   2.0000     -18.790629      -511.3190
   9   2.0000     -18.788620      -511.2643
  10   2.0000      -9.954285      -270.8699
  11   2.0000      -9.952763      -270.8285
  12   2.0000      -9.951307      -270.7888
  13   2.0000      -9.951146      -270.7844
  14   2.0000      -9.950342      -270.7626
  15   2.0000      -9.884631      -268.9745
  16   2.0000      -9.884309      -268.9657
  17   2.0000      -9.883953      -268.9560
  18   2.0000      -9.878689      -268.8128
  19   2.0000      -7.686187      -209.1518
  20   2.0000      -7.684617      -209.1091
  21   2.0000      -7.636698      -207.8051
  22   2.0000      -7.635558      -207.7741
  23   2.0000      -6.424284      -174.8137
  24   2.0000      -6.423948      -174.8045
  25   2.0000      -5.713990      -155.4856
  26   2.0000      -5.712474      -155.4443
  27   2.0000      -5.710859      -155.4004
  28   2.0000      -5.709333      -155.3588
  29   2.0000      -5.703084      -155.1888
  30   2.0000      -5.701337      -155.1413
  31   2.0000      -5.665440      -154.1645
  32   2.0000      -5.664246      -154.1320
  33   2.0000      -5.657408      -153.9459
  34   2.0000      -5.656992      -153.9346
  35   2.0000      -5.656219      -153.9135
  36   2.0000      -5.655946      -153.9061
  37   2.0000      -4.646712      -126.4435
  38   2.0000      -4.646240      -126.4306
  39   2.0000      -4.645974      -126.4234
  40   2.0000      -4.645675      -126.4153
  41   2.0000      -4.644875      -126.3935
  42   2.0000      -4.644652      -126.3874
  43   2.0000      -0.988591       -26.9009
  44   2.0000      -0.986203       -26.8360
  45   2.0000      -0.947770       -25.7901
  46   2.0000      -0.945346       -25.7242
  47   2.0000      -0.762663       -20.7531
  48   2.0000      -0.721646       -19.6370
  49   2.0000      -0.707009       -19.2387
  50   2.0000      -0.687969       -18.7206
  51   2.0000      -0.685506       -18.6536
  52   2.0000      -0.673857       -18.3366
  53   2.0000      -0.652420       -17.7533
  54   2.0000      -0.639912       -17.4129
  55   2.0000      -0.605411       -16.4741
  56   2.0000      -0.596469       -16.2307
  57   2.0000      -0.573512       -15.6060
  58   2.0000      -0.570760       -15.5312
  59   2.0000      -0.557418       -15.1681
  60   2.0000      -0.495453       -13.4820
  61   2.0000      -0.491596       -13.3770
  62   2.0000      -0.475601       -12.9417
  63   2.0000      -0.472375       -12.8540
  64   2.0000      -0.457653       -12.4534
  65   2.0000      -0.442588       -12.0434
  66   2.0000      -0.441118       -12.0034
  67   2.0000      -0.437779       -11.9126
  68   2.0000      -0.429652       -11.6914
  69   2.0000      -0.414865       -11.2891
  70   2.0000      -0.405423       -11.0321
  71   2.0000      -0.395030       -10.7493
  72   2.0000      -0.392845       -10.6899
  73   2.0000      -0.390002       -10.6125
  74   2.0000      -0.384365       -10.4591
  75   2.0000      -0.378921       -10.3110
  76   2.0000      -0.368575       -10.0294
  77   2.0000      -0.356358        -9.6970
  78   2.0000      -0.353490        -9.6190
  79   2.0000      -0.350210        -9.5297
  80   2.0000      -0.348485        -9.4828
  81   2.0000      -0.346077        -9.4172
  82   2.0000      -0.341674        -9.2974
  83   2.0000      -0.338562        -9.2127
  84   2.0000      -0.332794        -9.0558
  85   2.0000      -0.319167        -8.6850
  86   2.0000      -0.310405        -8.4466
  87   2.0000      -0.297808        -8.1038
  88   2.0000      -0.294064        -8.0019
  89   2.0000      -0.284232        -7.7343
  90   2.0000      -0.283587        -7.7168
  91   2.0000      -0.275409        -7.4943
  92   2.0000      -0.272433        -7.4133
  93   2.0000      -0.265725        -7.2307
  94   2.0000      -0.262443        -7.1415
  95   2.0000      -0.231854        -6.3091
  96   2.0000      -0.218739        -5.9522
  97   2.0000      -0.213884        -5.8201
  98   2.0000      -0.208160        -5.6643
  99   2.0000      -0.205753        -5.5988
 100   2.0000      -0.201779        -5.4907
 101   0.0000      -0.042217        -1.1488
 102   0.0000      -0.028363        -0.7718
 103   0.0000      -0.003668        -0.0998
 104   0.0000       0.006593         0.1794
 105   0.0000       0.015016         0.4086

MULLIKEN ATOMIC CHARGES
-----------------------
   0 C :   -0.307416
   1 C :   -0.003685
   2 O :   -0.364684
   3 P :    0.610413
   4 S :   -0.334966
   5 O :   -0.371373
   6 C :   -0.004899
   7 C :   -0.336359
   8 S :   -0.068310
   9 C :   -0.366534
  10 S :   -0.053415
  11 P :    0.606816
  12 S :   -0.339985
  13 O :   -0.371171
  14 C :   -0.004606
  15 C :   -0.316445
  16 O :   -0.354193
  17 C :   -0.005991
  18 C :   -0.307959
  19 H :    0.122207
  20 H :    0.118497
  21 H :    0.111787
  22 H :    0.106803
  23 H :    0.109862
  24 H :    0.102292
  25 H :    0.110593
  26 H :    0.108138
  27 H :    0.152109
  28 H :    0.116015
  29 H :    0.194100
  30 H :    0.189075
  31 H :    0.111189
  32 H :    0.106475
  33 H :    0.120963
  34 H :    0.127223
  35 H :    0.114072
  36 H :    0.112581
  37 H :    0.108905
  38 H :    0.122377
  39 H :    0.112274
  40 H :    0.117224
Sum of atomic charges:    0.0000000

LOEWDIN ATOMIC CHARGES
----------------------
   0 C :   -0.364508
   1 C :   -0.116704
   2 O :   -0.244606
   3 P :    0.573024
   4 S :   -0.318445
   5 O :   -0.242678
   6 C :   -0.119971
   7 C :   -0.370437
   8 S :    0.093743
   9 C :   -0.482699
  10 S :    0.106847
  11 P :    0.571760
  12 S :   -0.326229
  13 O :   -0.242554
  14 C :   -0.118534
  15 C :   -0.369534
  16 O :   -0.233990
  17 C :   -0.116545
  18 C :   -0.365099
  19 H :    0.122776
  20 H :    0.127228
  21 H :    0.130171
  22 H :    0.119717
  23 H :    0.110155
  24 H :    0.117026
  25 H :    0.109085
  26 H :    0.129187
  27 H :    0.122474
  28 H :    0.122181
  29 H :    0.128676
  30 H :    0.130906
  31 H :    0.110797
  32 H :    0.119328
  33 H :    0.125739
  34 H :    0.121525
  35 H :    0.131601
  36 H :    0.111318
  37 H :    0.117982
  38 H :    0.122157
  39 H :    0.130478
  40 H :    0.126650

  Mayer bond orders larger than 0.100000
B(  0-C ,  1-C ) :   1.1630 B(  0-C , 19-H ) :   0.9386 B(  0-C , 20-H ) :   0.9462
B(  0-C , 21-H ) :   0.9386 B(  1-C ,  2-O ) :   0.9115 B(  1-C , 22-H ) :   0.9352
B(  1-C , 23-H ) :   0.9176 B(  2-O ,  3-P ) :   1.1330 B(  3-P ,  4-S ) :   1.5891
B(  3-P ,  5-O ) :   1.1089 B(  3-P ,  8-S ) :   0.9664 B(  4-S ,  8-S ) :   0.1142
B(  5-O ,  6-C ) :   0.9091 B(  6-C ,  7-C ) :   1.1623 B(  6-C , 24-H ) :   0.9330
B(  6-C , 25-H ) :   0.9132 B(  7-C , 26-H ) :   0.9381 B(  7-C , 27-H ) :   0.9258
B(  7-C , 28-H ) :   0.9419 B(  8-S ,  9-C ) :   1.0006 B(  9-C , 10-S ) :   1.0074
B(  9-C , 29-H ) :   0.8718 B(  9-C , 30-H ) :   0.8869 B( 10-S , 11-P ) :   0.9662
B( 10-S , 12-S ) :   0.1084 B( 11-P , 12-S ) :   1.5807 B( 11-P , 13-O ) :   1.1107
B( 11-P , 16-O ) :   1.1307 B( 13-O , 14-C ) :   0.9074 B( 14-C , 15-C ) :   1.1664
B( 14-C , 31-H ) :   0.9166 B( 14-C , 32-H ) :   0.9339 B( 15-C , 33-H ) :   0.9443
B( 15-C , 34-H ) :   0.9354 B( 15-C , 35-H ) :   0.9376 B( 16-O , 17-C ) :   0.9078
B( 17-C , 18-C ) :   1.1632 B( 17-C , 36-H ) :   0.9179 B( 17-C , 37-H ) :   0.9304
B( 18-C , 38-H ) :   0.9362 B( 18-C , 39-H ) :   0.9390 B( 18-C , 40-H ) :   0.9458

Dispersion correction           -0.065039317
FINAL SINGLE POINT ENERGY     -2929.526780100854

DIPOLE MOMENT
-------------

Method             : SCF
Type of density    : Electron Density
Multiplicity       :   1
Irrep              :   0
Energy             : -2929.6464227352180387 Eh
Relativity type    :
Basis              : AO
                                X                 Y                 Z
Electronic contribution:      2.257481998       5.434061988      -9.433359762
Nuclear contribution   :     -2.266956508      -5.909546198      10.107594194
                        -----------------------------------------
Total Dipole Moment    :     -0.009474510      -0.475484210       0.674234431
                        -----------------------------------------
Magnitude (a.u.)       :      0.825086097
Magnitude (Debye)      :      2.097202192

Rotational constants in cm-1:             0.014451             0.004340             0.004062
Rotational constants in MHz :           433.234917           130.096806           121.779750

                             ****ORCA TERMINATED NORMALLY****
TOTAL RUN TIME: 0 days 0 hours 0 minutes 21 seconds 2 msec
