                         Program Version 6.0.1  -  RELEASE   -
|  1> ! pbe def2-sv(p) def2/J RI DEFGRID1 loosescf d4 GCP(DFT/SV(P)) printgap
|  2> %output
|  3>     printlevel normal
|  4> end
|  5> * xyz 0 1
|  6> C 3.2418669224 -1.3346876924 1.8086046556
|  7> C 2.9354569531 -2.0272328342 0.4922091453
|  8> O 2.6808243323 -1.0401911969 -0.526663847
|  9> C 1.5166187341 -1.0004360769 -1.1331465781
| 10> O 0.5889798388 -1.7570549133 -0.9128668721
| 11> C 1.4530514808 0.1209634001 -2.1489528694
| 12> C 0.2755726784 1.0497521242 -1.8412273846
| 13> H 0.2127826788 1.8270573407 -2.6075085312
| 14> C 0.3991780254 1.7058013135 -0.4805962673
| 15> O -0.5351589575 1.7490322728 0.3021592902
| 16> O 1.5844354634 2.1803488616 -0.2465560179
| 17> C 1.8478900271 2.7554959264 1.0546642684
| 18> C 3.3468095327 2.9330779722 1.1812015629
| 19> S -1.344731477 0.2045531652 -1.8930040073
| 20> P -1.6424519757 -0.4467351937 0.1038189117
| 21> S -0.4717886077 -0.7615129336 1.6625098263
| 22> O -2.9856815517 0.3146534641 0.5528021123
| 23> C -3.069214148 1.3661979792 1.5108176913
| 24> O -2.3159246167 -1.802298744 -0.4217469848
| 25> C -2.8437191992 -2.7818002077 0.4729961287
| 26> H 2.3613790536 -0.8021953132 2.1627083795
| 27> H 3.5151875594 -2.0807368036 2.5470133114
| 28> H 4.0634701191 -0.6362654144 1.6812639391
| 29> H 2.0584052108 -2.6738665911 0.5829890662
| 30> H 3.7929709789 -2.6034347681 0.1383563563
| 31> H 1.2961680485 -0.3184682352 -3.1344972083
| 32> H 2.3867723465 0.6815428588 -2.1236911107
| 33> H 1.3160725048 3.7087171153 1.1179861361
| 34> H 1.4452536986 2.0793314401 1.8154101653
| 35> H 3.7096943537 3.6016844161 0.4069880567
| 36> H 3.5744325213 3.3524363554 2.1552109948
| 37> H 3.8440708359 1.9730697455 1.0809364022
| 38> H -4.069963106 1.3049836554 1.9322785527
| 39> H -2.9112723657 2.3241591042 1.0190261464
| 40> H -2.3151470971 1.2253196129 2.2873485701
| 41> H -2.9766965604 -3.68211583 -0.1215734673
| 42> H -3.7968681537 -2.4411274787 0.8782694904
| 43> H -2.1400146733 -2.9657898625 1.288201953
| 44> *
| 45>
| 46>                          ****END OF INPUT****

CARTESIAN COORDINATES (ANGSTROEM)
---------------------------------
  C      3.241867   -1.334688    1.808605
  C      2.935457   -2.027233    0.492209
  O      2.680824   -1.040191   -0.526664
  C      1.516619   -1.000436   -1.133147
  O      0.588980   -1.757055   -0.912867
  C      1.453051    0.120963   -2.148953
  C      0.275573    1.049752   -1.841227
  H      0.212783    1.827057   -2.607509
  C      0.399178    1.705801   -0.480596
  O     -0.535159    1.749032    0.302159
  O      1.584435    2.180349   -0.246556
  C      1.847890    2.755496    1.054664
  C      3.346810    2.933078    1.181202
  S     -1.344731    0.204553   -1.893004
  P     -1.642452   -0.446735    0.103819
  S     -0.471789   -0.761513    1.662510
  O     -2.985682    0.314653    0.552802
  C     -3.069214    1.366198    1.510818
  O     -2.315925   -1.802299   -0.421747
  C     -2.843719   -2.781800    0.472996
  H      2.361379   -0.802195    2.162708
  H      3.515188   -2.080737    2.547013
  H      4.063470   -0.636265    1.681264
  H      2.058405   -2.673867    0.582989
  H      3.792971   -2.603435    0.138356
  H      1.296168   -0.318468   -3.134497
  H      2.386772    0.681543   -2.123691
  H      1.316073    3.708717    1.117986
  H      1.445254    2.079331    1.815410
  H      3.709694    3.601684    0.406988
  H      3.574433    3.352436    2.155211
  H      3.844071    1.973070    1.080936
  H     -4.069963    1.304984    1.932279
  H     -2.911272    2.324159    1.019026
  H     -2.315147    1.225320    2.287349
  H     -2.976697   -3.682116   -0.121573
  H     -3.796868   -2.441127    0.878269
  H     -2.140015   -2.965790    1.288202

 Total Charge           Charge          ....    0
 Multiplicity           Mult            ....    1
 Number of Electrons    NEL             ....  174
 Basis Dimension        Dim             ....  316

ORBITAL ENERGIES
----------------

  NO   OCC          E(Eh)            E(eV)
   0   2.0000     -88.024096     -2395.2574
   1   2.0000     -87.964137     -2393.6259
   2   2.0000     -76.411325     -2079.2579
   3   2.0000     -18.827121      -512.3120
   4   2.0000     -18.802419      -511.6398
   5   2.0000     -18.764353      -510.6040
   6   2.0000     -18.764162      -510.5988
   7   2.0000     -18.760575      -510.5012
   8   2.0000     -18.732845      -509.7466
   9   2.0000     -10.031736      -272.9774
  10   2.0000     -10.007722      -272.3240
  11   2.0000      -9.961125      -271.0560
  12   2.0000      -9.954760      -270.8828
  13   2.0000      -9.941533      -270.5229
  14   2.0000      -9.921034      -269.9651
  15   2.0000      -9.920816      -269.9591
  16   2.0000      -9.913512      -269.7604
  17   2.0000      -9.898543      -269.3530
  18   2.0000      -9.881968      -268.9020
  19   2.0000      -7.669455      -208.6965
  20   2.0000      -7.609108      -207.0544
  21   2.0000      -6.406071      -174.3180
  22   2.0000      -5.697976      -155.0498
  23   2.0000      -5.694456      -154.9540
  24   2.0000      -5.685161      -154.7011
  25   2.0000      -5.638334      -153.4269
  26   2.0000      -5.629812      -153.1950
  27   2.0000      -5.628790      -153.1672
  28   2.0000      -4.628767      -125.9551
  29   2.0000      -4.628313      -125.9428
  30   2.0000      -4.626610      -125.8965
  31   2.0000      -1.038307       -28.2538
  32   2.0000      -1.007957       -27.4279
  33   2.0000      -0.957258       -26.0483
  34   2.0000      -0.941025       -25.6066
  35   2.0000      -0.913341       -24.8533
  36   2.0000      -0.910870       -24.7860
  37   2.0000      -0.766544       -20.8587
  38   2.0000      -0.720053       -19.5936
  39   2.0000      -0.708263       -19.2728
  40   2.0000      -0.682105       -18.5610
  41   2.0000      -0.647081       -17.6080
  42   2.0000      -0.621412       -16.9095
  43   2.0000      -0.610654       -16.6167
  44   2.0000      -0.607720       -16.5369
  45   2.0000      -0.590122       -16.0580
  46   2.0000      -0.563149       -15.3241
  47   2.0000      -0.524258       -14.2658
  48   2.0000      -0.502291       -13.6680
  49   2.0000      -0.495151       -13.4738
  50   2.0000      -0.486801       -13.2465
  51   2.0000      -0.464969       -12.6525
  52   2.0000      -0.457084       -12.4379
  53   2.0000      -0.450821       -12.2675
  54   2.0000      -0.440617       -11.9898
  55   2.0000      -0.429187       -11.6788
  56   2.0000      -0.416493       -11.3333
  57   2.0000      -0.410747       -11.1770
  58   2.0000      -0.405727       -11.0404
  59   2.0000      -0.402553       -10.9540
  60   2.0000      -0.389307       -10.5936
  61   2.0000      -0.383841       -10.4448
  62   2.0000      -0.381192       -10.3728
  63   2.0000      -0.377059       -10.2603
  64   2.0000      -0.374115       -10.1802
  65   2.0000      -0.372201       -10.1281
  66   2.0000      -0.367800       -10.0083
  67   2.0000      -0.358222        -9.7477
  68   2.0000      -0.349741        -9.5169
  69   2.0000      -0.338332        -9.2065
  70   2.0000      -0.335290        -9.1237
  71   2.0000      -0.328791        -8.9468
  72   2.0000      -0.322319        -8.7708
  73   2.0000      -0.318832        -8.6759
  74   2.0000      -0.295141        -8.0312
  75   2.0000      -0.290721        -7.9109
  76   2.0000      -0.283247        -7.7075
  77   2.0000      -0.280771        -7.6402
  78   2.0000      -0.267617        -7.2822
  79   2.0000      -0.254837        -6.9345
  80   2.0000      -0.252766        -6.8781
  81   2.0000      -0.246764        -6.7148
  82   2.0000      -0.240607        -6.5472
  83   2.0000      -0.223624        -6.0851
  84   2.0000      -0.192050        -5.2259
  85   2.0000      -0.180549        -4.9130
  86   2.0000      -0.173032        -4.7085
  87   0.0000      -0.051405        -1.3988
  88   0.0000      -0.043637        -1.1874
  89   0.0000      -0.025610        -0.6969
  90   0.0000       0.011597         0.3156
  91   0.0000       0.025202         0.6858

MULLIKEN ATOMIC CHARGES
-----------------------
   0 C :   -0.317304
   1 C :   -0.020086
   2 O :   -0.227958
   3 C :    0.085909
   4 O :   -0.181910
   5 C :   -0.021185
   6 C :   -0.332687
   7 H :    0.155382
   8 C :    0.218935
   9 O :   -0.197086
  10 O :   -0.214516
  11 C :   -0.038026
  12 C :   -0.288242
  13 S :   -0.052287
  14 P :    0.662686
  15 S :   -0.363445
  16 O :   -0.393285
  17 C :   -0.083108
  18 O :   -0.385060
  19 C :   -0.091267
  20 H :    0.136229
  21 H :    0.109123
  22 H :    0.114771
  23 H :    0.125773
  24 H :    0.099805
  25 H :    0.125397
  26 H :    0.111478
  27 H :    0.109464
  28 H :    0.133632
  29 H :    0.115556
  30 H :    0.116870
  31 H :    0.131475
  32 H :    0.109124
  33 H :    0.105460
  34 H :    0.107926
  35 H :    0.116638
  36 H :    0.103655
  37 H :    0.112165
Sum of atomic charges:   -0.0000000

LOEWDIN ATOMIC CHARGES
----------------------
   0 C :   -0.359098
   1 C :   -0.110639
   2 O :   -0.052286
   3 C :    0.019913
   4 O :   -0.161706
   5 C :   -0.249676
   6 C :   -0.263447
   7 H :    0.152324
   8 C :    0.018491
   9 O :   -0.150198
  10 O :   -0.032898
  11 C :   -0.103280
  12 C :   -0.351295
  13 S :    0.128706
  14 P :    0.605511
  15 S :   -0.329877
  16 O :   -0.262627
  17 C :   -0.215248
  18 O :   -0.257983
  19 C :   -0.214627
  20 H :    0.123146
  21 H :    0.130406
  22 H :    0.118843
  23 H :    0.125412
  24 H :    0.115304
  25 H :    0.147754
  26 H :    0.136225
  27 H :    0.119465
  28 H :    0.126505
  29 H :    0.127287
  30 H :    0.134260
  31 H :    0.129913
  32 H :    0.112605
  33 H :    0.107586
  34 H :    0.103344
  35 H :    0.118041
  36 H :    0.107430
  37 H :    0.106413

  Mayer bond orders larger than 0.100000
B(  0-C ,  1-C ) :   1.1777 B(  0-C , 20-H ) :   0.9324 B(  0-C , 21-H ) :   0.9410
B(  0-C , 22-H ) :   0.9414 B(  1-C ,  2-O ) :   0.9028 B(  1-C , 23-H ) :   0.9019
B(  1-C , 24-H ) :   0.9347 B(  2-O ,  3-C ) :   1.2423 B(  3-C ,  4-O ) :   2.0066
B(  3-C ,  5-C ) :   0.9946 B(  5-C ,  6-C ) :   1.0123 B(  5-C , 25-H ) :   0.8884
B(  5-C , 26-H ) :   0.8859 B(  6-C ,  7-H ) :   0.8732 B(  6-C ,  8-C ) :   0.9087
B(  6-C , 13-S ) :   1.0653 B(  8-C ,  9-O ) :   1.9141 B(  8-C , 10-O ) :   1.2879
B(  9-O , 14-P ) :   0.1246 B( 10-O , 11-C ) :   0.8820 B( 11-C , 12-C ) :   1.1581
B( 11-C , 27-H ) :   0.9334 B( 11-C , 28-H ) :   0.9181 B( 12-C , 29-H ) :   0.9474
B( 12-C , 30-H ) :   0.9417 B( 12-C , 31-H ) :   0.9428 B( 13-S , 14-P ) :   0.9121
B( 13-S , 15-S ) :   0.1164 B( 14-P , 15-S ) :   1.4912 B( 14-P , 16-O ) :   1.0802
B( 14-P , 18-O ) :   1.0871 B( 16-O , 17-C ) :   0.9433 B( 17-C , 32-H ) :   0.9566
B( 17-C , 33-H ) :   0.9519 B( 17-C , 34-H ) :   0.9302 B( 18-O , 19-C ) :   0.9437
B( 19-C , 35-H ) :   0.9602 B( 19-C , 36-H ) :   0.9513 B( 19-C , 37-H ) :   0.9314

Dispersion correction           -0.055820988
FINAL SINGLE POINT ENERGY     -1978.995425343358

DIPOLE MOMENT
-------------

Method             : SCF
Type of density    : Electron Density
Multiplicity       :   1
Irrep              :   0
Energy             : -1979.1237352516377541 Eh
Relativity type    :
Basis              : AO
                                X                 Y                 Z
Electronic contribution:    -14.563539942      -2.994925015     -12.094884048
Nuclear contribution   :     15.922171581       4.044777443      12.191700638
                        -----------------------------------------
Total Dipole Moment    :      1.358631639       1.049852429       0.096816590
                        -----------------------------------------
Magnitude (a.u.)       :      1.719721926
Magnitude (Debye)      :      4.371185752

Rotational constants in cm-1:             0.013240             0.008697             0.007661
Rotational constants in MHz :           396.910507           260.739234           229.669915

                             ****ORCA TERMINATED NORMALLY****
TOTAL RUN TIME: 0 days 0 hours 0 minutes 45 seconds 81 msec
