                         Program Version 6.0.0  -   RELEASE  -
|  1> ! r2scan-3c def2/J RI DEFGRID2 scfconv6 printgap
|  2> %output
|  3>     printlevel normal
|  4> end
|  5> * xyz 0 1
|  6> C 4.1390109127 -0.716931327 -2.2122729365
|  7> C 4.3816603821 -0.775143187 -0.7175996952
|  8> O 3.1537766088 -0.7231818956 0.0270474888
|  9> P 2.2850573256 0.6151405539 0.1066576249
| 10> S 3.3532849913 2.2562288922 0.188945384
| 11> O 1.3492067624 0.3407866383 1.3553603693
| 12> C 1.8781270489 0.2537881889 2.6991225519
| 13> C 2.1034668044 -1.1927252784 3.0894482032
| 14> S 0.8305870675 0.4814979087 -1.4148907434
| 15> C 0.2890988425 -1.2369409621 -1.1369999766
| 16> S -0.8388715991 -1.4476825404 0.2611598803
| 17> P -2.3348985795 -0.0947626549 -0.4122073662
| 18> S -2.6428919728 -0.0222747469 -2.3404533811
| 19> O -1.9160595124 1.312094899 0.1758384528
| 20> C -1.7078062053 1.5610387838 1.5851208437
| 21> C -2.9448516938 2.1656627553 2.2160760713
| 22> O -3.6000808616 -0.47099167 0.4764650286
| 23> C -4.5533376201 -1.4737304514 0.0763103219
| 24> C -3.9539480754 -2.8644999093 0.0494247115
| 25> H 3.4796926489 -1.521155372 -2.5285965806
| 26> H 3.6813049173 0.2370073664 -2.4749399397
| 27> H 5.0865357536 -0.8052988356 -2.7339480691
| 28> H 5.0128010739 0.0613531586 -0.4012766417
| 29> H 4.8363359908 -1.7202632911 -0.4178872602
| 30> H 2.8019801376 0.838644708 2.7532969673
| 31> H 1.1170032418 0.7207886562 3.3272233638
| 32> H 1.1840180994 -1.7568604804 2.956125036
| 33> H 2.8787040322 -1.636586238 2.4709553625
| 34> H 2.4075117583 -1.2365190111 4.1304445182
| 35> H 1.1504697638 -1.8704867166 -0.942148964
| 36> H -0.2227689831 -1.5221842635 -2.0552524694
| 37> H -1.4309336075 0.6218222636 2.0729682347
| 38> H -0.8628705914 2.2535190794 1.6178224009
| 39> H -2.7303919894 2.413907496 3.2508954712
| 40> H -3.2295865414 3.0683102811 1.6821970009
| 41> H -3.7697196252 1.4594589882 2.1777287889
| 42> H -5.3448214277 -1.3906234395 0.8224783041
| 43> H -4.9414214456 -1.2027657617 -0.9101370638
| 44> H -4.7438395521 -3.5888671137 -0.1214112707
| 45> H -3.2264726417 -2.9409736497 -0.7567546861
| 46> H -3.4598662453 -3.083628897 0.9925357179
| 47> *
| 48>
| 49>                          ****END OF INPUT****

CARTESIAN COORDINATES (ANGSTROEM)
---------------------------------
  C      4.139011   -0.716931   -2.212273
  C      4.381660   -0.775143   -0.717600
  O      3.153777   -0.723182    0.027047
  P      2.285057    0.615141    0.106658
  S      3.353285    2.256229    0.188945
  O      1.349207    0.340787    1.355360
  C      1.878127    0.253788    2.699123
  C      2.103467   -1.192725    3.089448
  S      0.830587    0.481498   -1.414891
  C      0.289099   -1.236941   -1.137000
  S     -0.838872   -1.447683    0.261160
  P     -2.334899   -0.094763   -0.412207
  S     -2.642892   -0.022275   -2.340453
  O     -1.916060    1.312095    0.175838
  C     -1.707806    1.561039    1.585121
  C     -2.944852    2.165663    2.216076
  O     -3.600081   -0.470992    0.476465
  C     -4.553338   -1.473730    0.076310
  C     -3.953948   -2.864500    0.049425
  H      3.479693   -1.521155   -2.528597
  H      3.681305    0.237007   -2.474940
  H      5.086536   -0.805299   -2.733948
  H      5.012801    0.061353   -0.401277
  H      4.836336   -1.720263   -0.417887
  H      2.801980    0.838645    2.753297
  H      1.117003    0.720789    3.327223
  H      1.184018   -1.756860    2.956125
  H      2.878704   -1.636586    2.470955
  H      2.407512   -1.236519    4.130445
  H      1.150470   -1.870487   -0.942149
  H     -0.222769   -1.522184   -2.055252
  H     -1.430934    0.621822    2.072968
  H     -0.862871    2.253519    1.617822
  H     -2.730392    2.413907    3.250895
  H     -3.229587    3.068310    1.682197
  H     -3.769720    1.459459    2.177729
  H     -5.344821   -1.390623    0.822478
  H     -4.941421   -1.202766   -0.910137
  H     -4.743840   -3.588867   -0.121411
  H     -3.226473   -2.940974   -0.756755
  H     -3.459866   -3.083629    0.992536

 Total Charge           Charge          ....    0
 Multiplicity           Mult            ....    1
 Number of Electrons    NEL             ....  202
 Basis Dimension        Dim             ....  539

ORBITAL ENERGIES
----------------

  NO   OCC          E(Eh)            E(eV)
   0   2.0000     -88.575687     -2410.2670
   1   2.0000     -88.574005     -2410.2212
   2   2.0000     -88.520779     -2408.7728
   3   2.0000     -88.519981     -2408.7511
   4   2.0000     -76.914686     -2092.9550
   5   2.0000     -76.914230     -2092.9426
   6   2.0000     -18.996221      -516.9135
   7   2.0000     -18.996125      -516.9108
   8   2.0000     -18.991073      -516.7734
   9   2.0000     -18.987238      -516.6690
  10   2.0000     -10.110117      -275.1103
  11   2.0000     -10.103285      -274.9244
  12   2.0000     -10.102151      -274.8935
  13   2.0000     -10.100917      -274.8599
  14   2.0000     -10.098107      -274.7835
  15   2.0000     -10.034241      -273.0456
  16   2.0000     -10.031432      -272.9691
  17   2.0000     -10.031381      -272.9678
  18   2.0000     -10.028697      -272.8947
  19   2.0000      -7.869514      -214.1404
  20   2.0000      -7.868776      -214.1203
  21   2.0000      -7.815497      -212.6705
  22   2.0000      -7.814567      -212.6452
  23   2.0000      -6.593002      -179.4047
  24   2.0000      -6.592681      -179.3960
  25   2.0000      -5.816912      -158.2862
  26   2.0000      -5.815659      -158.2521
  27   2.0000      -5.813072      -158.1817
  28   2.0000      -5.812620      -158.1694
  29   2.0000      -5.806466      -158.0020
  30   2.0000      -5.805804      -157.9840
  31   2.0000      -5.763227      -156.8254
  32   2.0000      -5.762216      -156.7979
  33   2.0000      -5.755718      -156.6210
  34   2.0000      -5.755482      -156.6146
  35   2.0000      -5.755006      -156.6017
  36   2.0000      -5.754436      -156.5862
  37   2.0000      -4.738849      -128.9506
  38   2.0000      -4.738261      -128.9346
  39   2.0000      -4.737906      -128.9250
  40   2.0000      -4.737770      -128.9213
  41   2.0000      -4.736483      -128.8863
  42   2.0000      -4.736170      -128.8777
  43   2.0000      -1.052757       -28.6470
  44   2.0000      -1.050818       -28.5942
  45   2.0000      -1.013661       -27.5831
  46   2.0000      -1.009612       -27.4729
  47   2.0000      -0.802250       -21.8303
  48   2.0000      -0.759870       -20.6771
  49   2.0000      -0.750463       -20.4211
  50   2.0000      -0.735999       -20.0275
  51   2.0000      -0.735186       -20.0054
  52   2.0000      -0.712378       -19.3848
  53   2.0000      -0.688533       -18.7359
  54   2.0000      -0.669343       -18.2138
  55   2.0000      -0.631980       -17.1970
  56   2.0000      -0.625008       -17.0073
  57   2.0000      -0.610757       -16.6195
  58   2.0000      -0.606661       -16.5081
  59   2.0000      -0.594353       -16.1732
  60   2.0000      -0.529087       -14.3972
  61   2.0000      -0.522776       -14.2255
  62   2.0000      -0.496776       -13.5180
  63   2.0000      -0.494414       -13.4537
  64   2.0000      -0.483019       -13.1436
  65   2.0000      -0.468271       -12.7423
  66   2.0000      -0.463472       -12.6117
  67   2.0000      -0.451022       -12.2729
  68   2.0000      -0.445845       -12.1321
  69   2.0000      -0.440800       -11.9948
  70   2.0000      -0.426367       -11.6020
  71   2.0000      -0.416126       -11.3234
  72   2.0000      -0.409881       -11.1534
  73   2.0000      -0.405897       -11.0450
  74   2.0000      -0.396376       -10.7859
  75   2.0000      -0.389855       -10.6085
  76   2.0000      -0.386559       -10.5188
  77   2.0000      -0.378315       -10.2945
  78   2.0000      -0.376387       -10.2420
  79   2.0000      -0.369116       -10.0442
  80   2.0000      -0.364159        -9.9093
  81   2.0000      -0.361525        -9.8376
  82   2.0000      -0.360337        -9.8053
  83   2.0000      -0.357801        -9.7363
  84   2.0000      -0.346109        -9.4181
  85   2.0000      -0.335339        -9.1251
  86   2.0000      -0.330149        -8.9838
  87   2.0000      -0.312528        -8.5043
  88   2.0000      -0.310763        -8.4563
  89   2.0000      -0.308021        -8.3817
  90   2.0000      -0.306693        -8.3456
  91   2.0000      -0.296230        -8.0608
  92   2.0000      -0.284831        -7.7506
  93   2.0000      -0.280010        -7.6195
  94   2.0000      -0.275036        -7.4841
  95   2.0000      -0.243384        -6.6228
  96   2.0000      -0.229856        -6.2547
  97   2.0000      -0.222289        -6.0488
  98   2.0000      -0.218997        -5.9592
  99   2.0000      -0.215036        -5.8514
 100   2.0000      -0.213189        -5.8012
 101   0.0000      -0.044466        -1.2100
 102   0.0000      -0.021367        -0.5814
 103   0.0000      -0.012076        -0.3286
 104   0.0000       0.002852         0.0776
 105   0.0000       0.004445         0.1210

MULLIKEN ATOMIC CHARGES
-----------------------
   0 C :   -0.431230
   1 C :   -0.159299
   2 O :   -0.300352
   3 P :    0.642558
   4 S :   -0.454080
   5 O :   -0.235241
   6 C :   -0.159204
   7 C :   -0.447694
   8 S :   -0.103704
   9 C :   -0.269081
  10 S :   -0.153820
  11 P :    0.658068
  12 S :   -0.435510
  13 O :   -0.257403
  14 C :   -0.114195
  15 C :   -0.483314
  16 O :   -0.290382
  17 C :   -0.169190
  18 C :   -0.443018
  19 H :    0.145744
  20 H :    0.178301
  21 H :    0.148495
  22 H :    0.173886
  23 H :    0.146350
  24 H :    0.171286
  25 H :    0.151450
  26 H :    0.158624
  27 H :    0.165295
  28 H :    0.147890
  29 H :    0.198544
  30 H :    0.216455
  31 H :    0.159356
  32 H :    0.170847
  33 H :    0.144137
  34 H :    0.161270
  35 H :    0.164325
  36 H :    0.147967
  37 H :    0.176819
  38 H :    0.148169
  39 H :    0.178792
  40 H :    0.152090
Sum of atomic charges:   -0.0000000

LOEWDIN ATOMIC CHARGES
----------------------
   0 C :   -0.402108
   1 C :    0.016099
   2 O :   -0.691135
   3 P :    0.365638
   4 S :   -0.115673
   5 O :   -0.695672
   6 C :    0.021822
   7 C :   -0.396032
   8 S :    0.200738
   9 C :   -0.414897
  10 S :    0.151522
  11 P :    0.377518
  12 S :   -0.094577
  13 O :   -0.650444
  14 C :    0.018803
  15 C :   -0.393448
  16 O :   -0.672988
  17 C :    0.021461
  18 C :   -0.409300
  19 H :    0.155818
  20 H :    0.168763
  21 H :    0.160463
  22 H :    0.181980
  23 H :    0.177511
  24 H :    0.181633
  25 H :    0.177581
  26 H :    0.161415
  27 H :    0.164755
  28 H :    0.158344
  29 H :    0.188937
  30 H :    0.191937
  31 H :    0.175495
  32 H :    0.186368
  33 H :    0.157831
  34 H :    0.163271
  35 H :    0.165408
  36 H :    0.179095
  37 H :    0.181193
  38 H :    0.159375
  39 H :    0.166016
  40 H :    0.159483

  Mayer bond orders larger than 0.100000
B(  0-C ,  1-C ) :   0.9322 B(  0-C , 19-H ) :   0.9699 B(  0-C , 20-H ) :   0.9587
B(  0-C , 21-H ) :   0.9600 B(  1-C ,  2-O ) :   0.8109 B(  1-C , 22-H ) :   0.9590
B(  1-C , 23-H ) :   0.9599 B(  2-O ,  3-P ) :   0.9980 B(  3-P ,  4-S ) :   1.8505
B(  3-P ,  5-O ) :   1.1074 B(  3-P ,  8-S ) :   1.0809 B(  5-O ,  6-C ) :   0.7504
B(  6-C ,  7-C ) :   0.9267 B(  6-C , 24-H ) :   0.9602 B(  6-C , 25-H ) :   0.9684
B(  7-C , 26-H ) :   0.9726 B(  7-C , 27-H ) :   0.9671 B(  7-C , 28-H ) :   0.9665
B(  8-S ,  9-C ) :   0.9018 B(  9-C , 10-S ) :   0.9198 B(  9-C , 29-H ) :   0.9143
B(  9-C , 30-H ) :   0.9164 B( 10-S , 11-P ) :   1.0065 B( 11-P , 12-S ) :   1.8331
B( 11-P , 13-O ) :   1.1487 B( 11-P , 16-O ) :   1.0350 B( 13-O , 14-C ) :   0.7350
B( 14-C , 15-C ) :   0.9291 B( 14-C , 31-H ) :   0.9688 B( 14-C , 32-H ) :   0.9555
B( 15-C , 33-H ) :   0.9658 B( 15-C , 34-H ) :   0.9739 B( 15-C , 35-H ) :   0.9703
B( 16-O , 17-C ) :   0.8176 B( 17-C , 18-C ) :   0.9158 B( 17-C , 36-H ) :   0.9613
B( 17-C , 37-H ) :   0.9694 B( 18-C , 38-H ) :   0.9563 B( 18-C , 39-H ) :   0.9647
B( 18-C , 40-H ) :   0.9671

Dispersion correction           -0.021816807
FINAL SINGLE POINT ENERGY     -2932.458877569007

DIPOLE MOMENT
-------------

Method             : SCF
Type of density    : Electron Density
Multiplicity       :   1
Irrep              :   0
Energy             : -2932.4835657139424256 Eh
Relativity type    :
Basis              : AO
                                X                 Y                 Z
Electronic contribution:      0.302492899      10.563151027     -12.858036810
Nuclear contribution   :     -0.296954203     -12.317144307      14.389138738
                        -----------------------------------------
Total Dipole Moment    :      0.005538697      -1.753993281       1.531101928
                        -----------------------------------------
Magnitude (a.u.)       :      2.328260342
Magnitude (Debye)      :      5.917967480

Rotational constants in cm-1:             0.012549             0.005001             0.004644
Rotational constants in MHz :           376.198520           149.931273           139.218615

                             ****ORCA TERMINATED NORMALLY****
TOTAL RUN TIME: 0 days 0 hours 1 minutes 20 seconds 819 msec
