                         Program Version 6.0.0  -   RELEASE  -
|  1> ! r2scan-3c def2/J RI DEFGRID2 scfconv6 printgap
|  2> %output
|  3>     printlevel normal
|  4> end
|  5> %cpcm
|  6>     smd true
|  7>     smdsolvent "water"
|  8> end
|  9> * xyz 0 1
| 10> C 4.1390109127 -0.716931327 -2.2122729365
| 11> C 4.3816603821 -0.775143187 -0.7175996952
| 12> O 3.1537766088 -0.7231818956 0.0270474888
| 13> P 2.2850573256 0.6151405539 0.1066576249
| 14> S 3.3532849913 2.2562288922 0.188945384
| 15> O 1.3492067624 0.3407866383 1.3553603693
| 16> C 1.8781270489 0.2537881889 2.6991225519
| 17> C 2.1034668044 -1.1927252784 3.0894482032
| 18> S 0.8305870675 0.4814979087 -1.4148907434
| 19> C 0.2890988425 -1.2369409621 -1.1369999766
| 20> S -0.8388715991 -1.4476825404 0.2611598803
| 21> P -2.3348985795 -0.0947626549 -0.4122073662
| 22> S -2.6428919728 -0.0222747469 -2.3404533811
| 23> O -1.9160595124 1.312094899 0.1758384528
| 24> C -1.7078062053 1.5610387838 1.5851208437
| 25> C -2.9448516938 2.1656627553 2.2160760713
| 26> O -3.6000808616 -0.47099167 0.4764650286
| 27> C -4.5533376201 -1.4737304514 0.0763103219
| 28> C -3.9539480754 -2.8644999093 0.0494247115
| 29> H 3.4796926489 -1.521155372 -2.5285965806
| 30> H 3.6813049173 0.2370073664 -2.4749399397
| 31> H 5.0865357536 -0.8052988356 -2.7339480691
| 32> H 5.0128010739 0.0613531586 -0.4012766417
| 33> H 4.8363359908 -1.7202632911 -0.4178872602
| 34> H 2.8019801376 0.838644708 2.7532969673
| 35> H 1.1170032418 0.7207886562 3.3272233638
| 36> H 1.1840180994 -1.7568604804 2.956125036
| 37> H 2.8787040322 -1.636586238 2.4709553625
| 38> H 2.4075117583 -1.2365190111 4.1304445182
| 39> H 1.1504697638 -1.8704867166 -0.942148964
| 40> H -0.2227689831 -1.5221842635 -2.0552524694
| 41> H -1.4309336075 0.6218222636 2.0729682347
| 42> H -0.8628705914 2.2535190794 1.6178224009
| 43> H -2.7303919894 2.413907496 3.2508954712
| 44> H -3.2295865414 3.0683102811 1.6821970009
| 45> H -3.7697196252 1.4594589882 2.1777287889
| 46> H -5.3448214277 -1.3906234395 0.8224783041
| 47> H -4.9414214456 -1.2027657617 -0.9101370638
| 48> H -4.7438395521 -3.5888671137 -0.1214112707
| 49> H -3.2264726417 -2.9409736497 -0.7567546861
| 50> H -3.4598662453 -3.083628897 0.9925357179
| 51> *
| 52>
| 53>                          ****END OF INPUT****

CARTESIAN COORDINATES (ANGSTROEM)
---------------------------------
  C      4.139011   -0.716931   -2.212273
  C      4.381660   -0.775143   -0.717600
  O      3.153777   -0.723182    0.027047
  P      2.285057    0.615141    0.106658
  S      3.353285    2.256229    0.188945
  O      1.349207    0.340787    1.355360
  C      1.878127    0.253788    2.699123
  C      2.103467   -1.192725    3.089448
  S      0.830587    0.481498   -1.414891
  C      0.289099   -1.236941   -1.137000
  S     -0.838872   -1.447683    0.261160
  P     -2.334899   -0.094763   -0.412207
  S     -2.642892   -0.022275   -2.340453
  O     -1.916060    1.312095    0.175838
  C     -1.707806    1.561039    1.585121
  C     -2.944852    2.165663    2.216076
  O     -3.600081   -0.470992    0.476465
  C     -4.553338   -1.473730    0.076310
  C     -3.953948   -2.864500    0.049425
  H      3.479693   -1.521155   -2.528597
  H      3.681305    0.237007   -2.474940
  H      5.086536   -0.805299   -2.733948
  H      5.012801    0.061353   -0.401277
  H      4.836336   -1.720263   -0.417887
  H      2.801980    0.838645    2.753297
  H      1.117003    0.720789    3.327223
  H      1.184018   -1.756860    2.956125
  H      2.878704   -1.636586    2.470955
  H      2.407512   -1.236519    4.130445
  H      1.150470   -1.870487   -0.942149
  H     -0.222769   -1.522184   -2.055252
  H     -1.430934    0.621822    2.072968
  H     -0.862871    2.253519    1.617822
  H     -2.730392    2.413907    3.250895
  H     -3.229587    3.068310    1.682197
  H     -3.769720    1.459459    2.177729
  H     -5.344821   -1.390623    0.822478
  H     -4.941421   -1.202766   -0.910137
  H     -4.743840   -3.588867   -0.121411
  H     -3.226473   -2.940974   -0.756755
  H     -3.459866   -3.083629    0.992536

 Total Charge           Charge          ....    0
 Multiplicity           Mult            ....    1
 Number of Electrons    NEL             ....  202
 Basis Dimension        Dim             ....  539

ORBITAL ENERGIES
----------------

  NO   OCC          E(Eh)            E(eV)
   0   2.0000     -88.579103     -2410.3599
   1   2.0000     -88.574159     -2410.2254
   2   2.0000     -88.529834     -2409.0193
   3   2.0000     -88.528003     -2408.9694
   4   2.0000     -76.919495     -2093.0859
   5   2.0000     -76.917730     -2093.0378
   6   2.0000     -18.995568      -516.8957
   7   2.0000     -18.993331      -516.8348
   8   2.0000     -18.992052      -516.8000
   9   2.0000     -18.989193      -516.7222
  10   2.0000     -10.105598      -274.9873
  11   2.0000     -10.090685      -274.5815
  12   2.0000     -10.090355      -274.5725
  13   2.0000     -10.089269      -274.5430
  14   2.0000     -10.088123      -274.5118
  15   2.0000     -10.018218      -272.6096
  16   2.0000     -10.018215      -272.6095
  17   2.0000     -10.017744      -272.5967
  18   2.0000     -10.017422      -272.5879
  19   2.0000      -7.873155      -214.2394
  20   2.0000      -7.868771      -214.1201
  21   2.0000      -7.824949      -212.9277
  22   2.0000      -7.823027      -212.8754
  23   2.0000      -6.597888      -179.5377
  24   2.0000      -6.596169      -179.4909
  25   2.0000      -5.820482      -158.3834
  26   2.0000      -5.816654      -158.2792
  27   2.0000      -5.815694      -158.2531
  28   2.0000      -5.812648      -158.1702
  29   2.0000      -5.810228      -158.1043
  30   2.0000      -5.805755      -157.9826
  31   2.0000      -5.772549      -157.0791
  32   2.0000      -5.770550      -157.0247
  33   2.0000      -5.765136      -156.8773
  34   2.0000      -5.765023      -156.8742
  35   2.0000      -5.763450      -156.8315
  36   2.0000      -5.762956      -156.8180
  37   2.0000      -4.743693      -129.0824
  38   2.0000      -4.742739      -129.0565
  39   2.0000      -4.741629      -129.0263
  40   2.0000      -4.741493      -129.0226
  41   2.0000      -4.741243      -129.0158
  42   2.0000      -4.739854      -128.9780
  43   2.0000      -1.052490       -28.6397
  44   2.0000      -1.049806       -28.5667
  45   2.0000      -1.011393       -27.5214
  46   2.0000      -1.009991       -27.4832
  47   2.0000      -0.801282       -21.8040
  48   2.0000      -0.754909       -20.5421
  49   2.0000      -0.743056       -20.2196
  50   2.0000      -0.725584       -19.7441
  51   2.0000      -0.723417       -19.6852
  52   2.0000      -0.708995       -19.2927
  53   2.0000      -0.690928       -18.8011
  54   2.0000      -0.674629       -18.3576
  55   2.0000      -0.628014       -17.0891
  56   2.0000      -0.618912       -16.8414
  57   2.0000      -0.602253       -16.3881
  58   2.0000      -0.599481       -16.3127
  59   2.0000      -0.589141       -16.0314
  60   2.0000      -0.523372       -14.2417
  61   2.0000      -0.516721       -14.0607
  62   2.0000      -0.490085       -13.3359
  63   2.0000      -0.488655       -13.2970
  64   2.0000      -0.479244       -13.0409
  65   2.0000      -0.463293       -12.6068
  66   2.0000      -0.455855       -12.4045
  67   2.0000      -0.443752       -12.0751
  68   2.0000      -0.437627       -11.9084
  69   2.0000      -0.432910       -11.7801
  70   2.0000      -0.421485       -11.4692
  71   2.0000      -0.409609       -11.1460
  72   2.0000      -0.405289       -11.0285
  73   2.0000      -0.397035       -10.8039
  74   2.0000      -0.393449       -10.7063
  75   2.0000      -0.385365       -10.4863
  76   2.0000      -0.381443       -10.3796
  77   2.0000      -0.371748       -10.1158
  78   2.0000      -0.364596        -9.9212
  79   2.0000      -0.362287        -9.8583
  80   2.0000      -0.353602        -9.6220
  81   2.0000      -0.352100        -9.5811
  82   2.0000      -0.350276        -9.5315
  83   2.0000      -0.347857        -9.4657
  84   2.0000      -0.342111        -9.3093
  85   2.0000      -0.330974        -9.0063
  86   2.0000      -0.325298        -8.8518
  87   2.0000      -0.307047        -8.3552
  88   2.0000      -0.303897        -8.2695
  89   2.0000      -0.302309        -8.2262
  90   2.0000      -0.299483        -8.1493
  91   2.0000      -0.290149        -7.8953
  92   2.0000      -0.282746        -7.6939
  93   2.0000      -0.277700        -7.5566
  94   2.0000      -0.275523        -7.4974
  95   2.0000      -0.246808        -6.7160
  96   2.0000      -0.236099        -6.4246
  97   2.0000      -0.231639        -6.3032
  98   2.0000      -0.229320        -6.2401
  99   2.0000      -0.222730        -6.0608
 100   2.0000      -0.218797        -5.9538
 101   0.0000      -0.046665        -1.2698
 102   0.0000      -0.026791        -0.7290
 103   0.0000      -0.015200        -0.4136
 104   0.0000       0.000268         0.0073
 105   0.0000       0.004698         0.1278

MULLIKEN ATOMIC CHARGES
-----------------------
   0 C :   -0.471399
   1 C :   -0.149902
   2 O :   -0.305855
   3 P :    0.676230
   4 S :   -0.525233
   5 O :   -0.255148
   6 C :   -0.147048
   7 C :   -0.485267
   8 S :   -0.152445
   9 C :   -0.269292
  10 S :   -0.140321
  11 P :    0.668900
  12 S :   -0.496364
  13 O :   -0.291360
  14 C :   -0.101058
  15 C :   -0.530240
  16 O :   -0.308689
  17 C :   -0.161644
  18 C :   -0.480292
  19 H :    0.169452
  20 H :    0.166386
  21 H :    0.170998
  22 H :    0.173857
  23 H :    0.174460
  24 H :    0.171015
  25 H :    0.180203
  26 H :    0.166737
  27 H :    0.170204
  28 H :    0.170074
  29 H :    0.238296
  30 H :    0.234725
  31 H :    0.178865
  32 H :    0.181122
  33 H :    0.170926
  34 H :    0.168726
  35 H :    0.170422
  36 H :    0.175719
  37 H :    0.180055
  38 H :    0.172262
  39 H :    0.174140
  40 H :    0.167784
Sum of atomic charges:   -0.0000000

LOEWDIN ATOMIC CHARGES
----------------------
   0 C :   -0.406362
   1 C :    0.023105
   2 O :   -0.686693
   3 P :    0.371406
   4 S :   -0.165139
   5 O :   -0.701304
   6 C :    0.028179
   7 C :   -0.397753
   8 S :    0.172080
   9 C :   -0.402892
  10 S :    0.166644
  11 P :    0.379345
  12 S :   -0.140869
  13 O :   -0.677640
  14 C :    0.024000
  15 C :   -0.396136
  16 O :   -0.677787
  17 C :    0.027086
  18 C :   -0.411657
  19 H :    0.162974
  20 H :    0.161741
  21 H :    0.168039
  22 H :    0.181380
  23 H :    0.189887
  24 H :    0.182652
  25 H :    0.189042
  26 H :    0.163242
  27 H :    0.164588
  28 H :    0.167103
  29 H :    0.203888
  30 H :    0.198471
  31 H :    0.183786
  32 H :    0.190570
  33 H :    0.168606
  34 H :    0.164038
  35 H :    0.165974
  36 H :    0.191015
  37 H :    0.181734
  38 H :    0.168182
  39 H :    0.161769
  40 H :    0.163705

  Mayer bond orders larger than 0.100000
B(  0-C ,  1-C ) :   0.9206 B(  0-C , 19-H ) :   0.9662 B(  0-C , 20-H ) :   0.9622
B(  0-C , 21-H ) :   0.9557 B(  1-C ,  2-O ) :   0.7981 B(  1-C , 22-H ) :   0.9593
B(  1-C , 23-H ) :   0.9499 B(  2-O ,  3-P ) :   1.0191 B(  3-P ,  4-S ) :   1.7948
B(  3-P ,  5-O ) :   1.1263 B(  3-P ,  8-S ) :   1.0898 B(  5-O ,  6-C ) :   0.7414
B(  6-C ,  7-C ) :   0.9212 B(  6-C , 24-H ) :   0.9546 B(  6-C , 25-H ) :   0.9577
B(  7-C , 26-H ) :   0.9715 B(  7-C , 27-H ) :   0.9664 B(  7-C , 28-H ) :   0.9606
B(  8-S ,  9-C ) :   0.8935 B(  9-C , 10-S ) :   0.9142 B(  9-C , 29-H ) :   0.9024
B(  9-C , 30-H ) :   0.9087 B( 10-S , 11-P ) :   1.0264 B( 11-P , 12-S ) :   1.8063
B( 11-P , 13-O ) :   1.1497 B( 11-P , 16-O ) :   1.0465 B( 13-O , 14-C ) :   0.7232
B( 14-C , 15-C ) :   0.9248 B( 14-C , 31-H ) :   0.9561 B( 14-C , 32-H ) :   0.9480
B( 15-C , 33-H ) :   0.9590 B( 15-C , 34-H ) :   0.9729 B( 15-C , 35-H ) :   0.9689
B( 16-O , 17-C ) :   0.8057 B( 17-C , 18-C ) :   0.9048 B( 17-C , 36-H ) :   0.9505
B( 17-C , 37-H ) :   0.9681 B( 18-C , 38-H ) :   0.9513 B( 18-C , 39-H ) :   0.9659
B( 18-C , 40-H ) :   0.9642

Dispersion correction           -0.021816807
FINAL SINGLE POINT ENERGY     -2932.470627024739

DIPOLE MOMENT
-------------

Method             : SCF
Type of density    : Electron Density
Multiplicity       :   1
Irrep              :   0
Energy             : -2932.4953151696745408 Eh
Relativity type    :
Basis              : AO
                                X                 Y                 Z
Electronic contribution:      0.408837187       9.592084324     -12.131851286
Nuclear contribution   :     -0.296954203     -12.317144307      14.389138738
                        -----------------------------------------
Total Dipole Moment    :      0.111882985      -2.725059983       2.257287453
                        -----------------------------------------
Magnitude (a.u.)       :      3.540313031
Magnitude (Debye)      :      8.998760581

Rotational constants in cm-1:             0.012549             0.005001             0.004644
Rotational constants in MHz :           376.198520           149.931273           139.218615

                             ****ORCA TERMINATED NORMALLY****
TOTAL RUN TIME: 0 days 0 hours 1 minutes 59 seconds 119 msec
