                         Program Version 6.0.0  -   RELEASE  -
|  1> ! pbe def2-sv(p) def2/J RI DEFGRID1 loosescf d4 GCP(DFT/SV(P)) printgap
|  2> %output
|  3>     printlevel normal
|  4> end
|  5> * xyz 0 1
|  6> C 5.1474965719 -0.0721462735 -2.4463050292
|  7> C 3.7232420423 -0.5120825746 -2.1730270659
|  8> O 3.4810849127 -0.3821119175 -0.757725799
|  9> P 2.0161282244 -0.2733764865 -0.1560848015
| 10> S 0.8840085307 1.0186296121 -1.1155739339
| 11> O 2.295035806 0.0094741387 1.3729498682
| 12> C 2.4547836299 1.339316291 1.9054818867
| 13> C 3.7033050739 2.0115639125 1.3776726594
| 14> S 1.4720932399 -2.3073099685 -0.0804153677
| 15> C -0.2290901585 -2.239586396 0.552876686
| 16> S -1.4187321227 -1.5588920593 -0.6430128853
| 17> P -2.0486712639 0.1423723186 0.4419033602
| 18> S -0.9957867275 0.70568855 1.9898276889
| 19> O -3.501835171 -0.4132653452 0.833903211
| 20> C -4.2478138134 0.1027452509 1.9513195758
| 21> C -4.7733977442 1.4996935585 1.6872614128
| 22> O -2.2850738482 1.3267148663 -0.5787272134
| 23> C -3.1683692977 1.2511325781 -1.7241477649
| 24> C -2.4196558598 0.8293246351 -2.972354718
| 25> H 5.3612138689 -0.1975879435 -3.5025806948
| 26> H 5.2773914547 0.9720112804 -2.1759318041
| 27> H 5.8379386967 -0.6752143726 -1.8640559412
| 28> H 3.5690831897 -1.5586254825 -2.4479194734
| 29> H 2.9989898392 0.1109038614 -2.7089955571
| 30> H 1.560606759 1.9217883243 1.6606141961
| 31> H 2.4953915492 1.1809548269 2.9839918581
| 32> H 4.5695906248 1.3781002939 1.5488577178
| 33> H 3.6010141947 2.1904120217 0.3079978717
| 34> H 3.8397637491 2.9619322856 1.8841201128
| 35> H -0.2536032652 -1.6362865447 1.4634871625
| 36> H -0.5030744276 -3.2724620457 0.7500422447
| 37> H -5.0562857727 -0.6176961782 2.0825525838
| 38> H -3.5982429866 0.0981980964 2.8324361582
| 39> H -3.9393425548 2.1865538344 1.5433430266
| 40> H -5.398574087 1.5108481709 0.7981339126
| 41> H -5.3570588953 1.8301206178 2.540781287
| 42> H -3.9854224892 0.5609883459 -1.4980155532
| 43> H -3.551231006 2.2686889504 -1.8214062108
| 44> H -3.060565156 0.9723770794 -3.8364577436
| 45> H -1.5215373 1.4325558515 -3.0831546296
| 46> H -2.1267073932 -0.2164542771 -2.9140347188
| 47> *
| 48>
| 49>                          ****END OF INPUT****

CARTESIAN COORDINATES (ANGSTROEM)
---------------------------------
  C      5.147497   -0.072146   -2.446305
  C      3.723242   -0.512083   -2.173027
  O      3.481085   -0.382112   -0.757726
  P      2.016128   -0.273376   -0.156085
  S      0.884009    1.018630   -1.115574
  O      2.295036    0.009474    1.372950
  C      2.454784    1.339316    1.905482
  C      3.703305    2.011564    1.377673
  S      1.472093   -2.307310   -0.080415
  C     -0.229090   -2.239586    0.552877
  S     -1.418732   -1.558892   -0.643013
  P     -2.048671    0.142372    0.441903
  S     -0.995787    0.705689    1.989828
  O     -3.501835   -0.413265    0.833903
  C     -4.247814    0.102745    1.951320
  C     -4.773398    1.499694    1.687261
  O     -2.285074    1.326715   -0.578727
  C     -3.168369    1.251133   -1.724148
  C     -2.419656    0.829325   -2.972355
  H      5.361214   -0.197588   -3.502581
  H      5.277391    0.972011   -2.175932
  H      5.837939   -0.675214   -1.864056
  H      3.569083   -1.558625   -2.447919
  H      2.998990    0.110904   -2.708996
  H      1.560607    1.921788    1.660614
  H      2.495392    1.180955    2.983992
  H      4.569591    1.378100    1.548858
  H      3.601014    2.190412    0.307998
  H      3.839764    2.961932    1.884120
  H     -0.253603   -1.636287    1.463487
  H     -0.503074   -3.272462    0.750042
  H     -5.056286   -0.617696    2.082553
  H     -3.598243    0.098198    2.832436
  H     -3.939343    2.186554    1.543343
  H     -5.398574    1.510848    0.798134
  H     -5.357059    1.830121    2.540781
  H     -3.985422    0.560988   -1.498016
  H     -3.551231    2.268689   -1.821406
  H     -3.060565    0.972377   -3.836458
  H     -1.521537    1.432556   -3.083155
  H     -2.126707   -0.216454   -2.914035

 Total Charge           Charge          ....    0
 Multiplicity           Mult            ....    1
 Number of Electrons    NEL             ....  202
 Basis Dimension        Dim             ....  334

ORBITAL ENERGIES
----------------

  NO   OCC          E(Eh)            E(eV)
   0   2.0000     -88.036212     -2395.5871
   1   2.0000     -88.036139     -2395.5851
   2   2.0000     -87.984287     -2394.1742
   3   2.0000     -87.977252     -2393.9827
   4   2.0000     -76.422711     -2079.5677
   5   2.0000     -76.417962     -2079.4385
   6   2.0000     -18.791454      -511.3415
   7   2.0000     -18.785123      -511.1692
   8   2.0000     -18.783110      -511.1144
   9   2.0000     -18.780927      -511.0550
  10   2.0000      -9.956259      -270.9236
  11   2.0000      -9.953208      -270.8406
  12   2.0000      -9.947780      -270.6929
  13   2.0000      -9.947514      -270.6856
  14   2.0000      -9.939337      -270.4631
  15   2.0000      -9.885055      -268.9860
  16   2.0000      -9.884354      -268.9669
  17   2.0000      -9.882083      -268.9052
  18   2.0000      -9.875538      -268.7270
  19   2.0000      -7.681899      -209.0351
  20   2.0000      -7.681565      -209.0260
  21   2.0000      -7.629349      -207.6051
  22   2.0000      -7.621798      -207.3997
  23   2.0000      -6.420416      -174.7084
  24   2.0000      -6.415583      -174.5769
  25   2.0000      -5.709691      -155.3686
  26   2.0000      -5.709552      -155.3648
  27   2.0000      -5.706436      -155.2800
  28   2.0000      -5.706352      -155.2777
  29   2.0000      -5.698816      -155.0727
  30   2.0000      -5.698064      -155.0522
  31   2.0000      -5.658287      -153.9698
  32   2.0000      -5.650598      -153.7606
  33   2.0000      -5.650270      -153.7517
  34   2.0000      -5.649063      -153.7188
  35   2.0000      -5.642457      -153.5391
  36   2.0000      -5.642096      -153.5292
  37   2.0000      -4.643328      -126.3514
  38   2.0000      -4.641741      -126.3082
  39   2.0000      -4.641025      -126.2887
  40   2.0000      -4.638073      -126.2084
  41   2.0000      -4.637406      -126.1902
  42   2.0000      -4.636045      -126.1532
  43   2.0000      -0.981363       -26.7042
  44   2.0000      -0.979156       -26.6442
  45   2.0000      -0.939145       -25.5554
  46   2.0000      -0.938208       -25.5299
  47   2.0000      -0.757781       -20.6203
  48   2.0000      -0.718369       -19.5478
  49   2.0000      -0.705779       -19.2052
  50   2.0000      -0.689349       -18.7581
  51   2.0000      -0.682173       -18.5629
  52   2.0000      -0.667887       -18.1741
  53   2.0000      -0.647358       -17.6155
  54   2.0000      -0.631361       -17.1802
  55   2.0000      -0.595109       -16.1937
  56   2.0000      -0.585660       -15.9366
  57   2.0000      -0.576487       -15.6870
  58   2.0000      -0.560690       -15.2572
  59   2.0000      -0.556902       -15.1541
  60   2.0000      -0.498807       -13.5732
  61   2.0000      -0.494266       -13.4497
  62   2.0000      -0.474778       -12.9194
  63   2.0000      -0.468658       -12.7528
  64   2.0000      -0.449897       -12.2423
  65   2.0000      -0.443937       -12.0801
  66   2.0000      -0.435614       -11.8536
  67   2.0000      -0.430931       -11.7262
  68   2.0000      -0.422984       -11.5100
  69   2.0000      -0.414897       -11.2899
  70   2.0000      -0.401311       -10.9202
  71   2.0000      -0.394938       -10.7468
  72   2.0000      -0.388366       -10.5680
  73   2.0000      -0.382105       -10.3976
  74   2.0000      -0.374089       -10.1795
  75   2.0000      -0.369697       -10.0600
  76   2.0000      -0.367390        -9.9972
  77   2.0000      -0.352855        -9.6017
  78   2.0000      -0.351318        -9.5599
  79   2.0000      -0.347891        -9.4666
  80   2.0000      -0.344730        -9.3806
  81   2.0000      -0.340665        -9.2700
  82   2.0000      -0.338413        -9.2087
  83   2.0000      -0.335030        -9.1166
  84   2.0000      -0.330183        -8.9847
  85   2.0000      -0.314167        -8.5489
  86   2.0000      -0.309059        -8.4099
  87   2.0000      -0.301198        -8.1960
  88   2.0000      -0.293994        -8.0000
  89   2.0000      -0.277646        -7.5551
  90   2.0000      -0.274246        -7.4626
  91   2.0000      -0.267724        -7.2852
  92   2.0000      -0.265588        -7.2270
  93   2.0000      -0.263874        -7.1804
  94   2.0000      -0.255084        -6.9412
  95   2.0000      -0.234198        -6.3729
  96   2.0000      -0.219069        -5.9612
  97   2.0000      -0.206457        -5.6180
  98   2.0000      -0.201386        -5.4800
  99   2.0000      -0.186929        -5.0866
 100   2.0000      -0.181962        -4.9514
 101   0.0000      -0.037791        -1.0283
 102   0.0000      -0.029837        -0.8119
 103   0.0000      -0.005920        -0.1611
 104   0.0000       0.007226         0.1966
 105   0.0000       0.024596         0.6693

MULLIKEN ATOMIC CHARGES
-----------------------
   0 C :   -0.284035
   1 C :   -0.009063
   2 O :   -0.379198
   3 P :    0.621917
   4 S :   -0.327492
   5 O :   -0.363141
   6 C :   -0.009664
   7 C :   -0.305539
   8 S :   -0.100299
   9 C :   -0.342892
  10 S :   -0.091943
  11 P :    0.636159
  12 S :   -0.310871
  13 O :   -0.387047
  14 C :   -0.004422
  15 C :   -0.318609
  16 O :   -0.359970
  17 C :   -0.035188
  18 C :   -0.296688
  19 H :    0.110358
  20 H :    0.120547
  21 H :    0.116742
  22 H :    0.101667
  23 H :    0.103241
  24 H :    0.128540
  25 H :    0.101797
  26 H :    0.113810
  27 H :    0.121495
  28 H :    0.109012
  29 H :    0.195793
  30 H :    0.182733
  31 H :    0.102310
  32 H :    0.109797
  33 H :    0.131041
  34 H :    0.112378
  35 H :    0.112792
  36 H :    0.107444
  37 H :    0.110083
  38 H :    0.107638
  39 H :    0.135512
  40 H :    0.133254
Sum of atomic charges:    0.0000000

LOEWDIN ATOMIC CHARGES
----------------------
   0 C :   -0.351014
   1 C :   -0.121355
   2 O :   -0.248191
   3 P :    0.564446
   4 S :   -0.315877
   5 O :   -0.235153
   6 C :   -0.119800
   7 C :   -0.366068
   8 S :    0.075477
   9 C :   -0.476786
  10 S :    0.084433
  11 P :    0.578613
  12 S :   -0.289469
  13 O :   -0.261928
  14 C :   -0.121813
  15 C :   -0.366469
  16 O :   -0.232239
  17 C :   -0.115679
  18 C :   -0.362866
  19 H :    0.130048
  20 H :    0.127884
  21 H :    0.126868
  22 H :    0.110159
  23 H :    0.106092
  24 H :    0.110690
  25 H :    0.118176
  26 H :    0.124594
  27 H :    0.120741
  28 H :    0.129190
  29 H :    0.124482
  30 H :    0.137988
  31 H :    0.117020
  32 H :    0.108037
  33 H :    0.126321
  34 H :    0.121814
  35 H :    0.130871
  36 H :    0.108120
  37 H :    0.121201
  38 H :    0.128727
  39 H :    0.132254
  40 H :    0.120462

  Mayer bond orders larger than 0.100000
B(  0-C ,  1-C ) :   1.1600 B(  0-C , 19-H ) :   0.9420 B(  0-C , 20-H ) :   0.9514
B(  0-C , 21-H ) :   0.9503 B(  1-C ,  2-O ) :   0.9067 B(  1-C , 22-H ) :   0.9305
B(  1-C , 23-H ) :   0.9045 B(  2-O ,  3-P ) :   1.0941 B(  3-P ,  4-S ) :   1.6151
B(  3-P ,  5-O ) :   1.1422 B(  3-P ,  8-S ) :   0.9693 B(  4-S ,  8-S ) :   0.1197
B(  5-O ,  6-C ) :   0.8984 B(  6-C ,  7-C ) :   1.1626 B(  6-C , 24-H ) :   0.9088
B(  6-C , 25-H ) :   0.9363 B(  7-C , 26-H ) :   0.9451 B(  7-C , 27-H ) :   0.9353
B(  7-C , 28-H ) :   0.9388 B(  8-S ,  9-C ) :   0.9950 B(  9-C , 10-S ) :   1.0045
B(  9-C , 29-H ) :   0.8547 B(  9-C , 30-H ) :   0.9119 B( 10-S , 11-P ) :   0.9563
B( 10-S , 12-S ) :   0.1093 B( 11-P , 12-S ) :   1.5982 B( 11-P , 13-O ) :   1.0673
B( 11-P , 16-O ) :   1.1227 B( 12-S , 29-H ) :   0.1045 B( 13-O , 14-C ) :   0.9193
B( 14-C , 15-C ) :   1.1597 B( 14-C , 31-H ) :   0.9347 B( 14-C , 32-H ) :   0.9121
B( 15-C , 33-H ) :   0.9365 B( 15-C , 34-H ) :   0.9465 B( 15-C , 35-H ) :   0.9396
B( 16-O , 17-C ) :   0.9037 B( 17-C , 18-C ) :   1.1706 B( 17-C , 36-H ) :   0.9156
B( 17-C , 37-H ) :   0.9343 B( 18-C , 38-H ) :   0.9375 B( 18-C , 39-H ) :   0.9399
B( 18-C , 40-H ) :   0.9345

Dispersion correction           -0.066749162
FINAL SINGLE POINT ENERGY     -2929.514578450186

DIPOLE MOMENT
-------------

Method             : SCF
Type of density    : Electron Density
Multiplicity       :   1
Irrep              :   0
Energy             : -2929.6323900422630686 Eh
Relativity type    :
Basis              : AO
                                X                 Y                 Z
Electronic contribution:     -1.267802024     -12.746368586       4.988224629
Nuclear contribution   :      0.742998604      12.760542910      -5.365703181
                        -----------------------------------------
Total Dipole Moment    :     -0.524803420       0.014174324      -0.377478552
                        -----------------------------------------
Magnitude (a.u.)       :      0.646613949
Magnitude (Debye)      :      1.643562041

Rotational constants in cm-1:             0.013127             0.005022             0.004748
Rotational constants in MHz :           393.543202           150.566579           142.342799

                             ****ORCA TERMINATED NORMALLY****
TOTAL RUN TIME: 0 days 0 hours 0 minutes 21 seconds 10 msec
