                         Program Version 6.0.0  -   RELEASE  -
|  1> ! r2scan-3c def2/J RI DEFGRID2 scfconv6 printgap
|  2> %output
|  3>     printlevel normal
|  4> end
|  5> * xyz 0 1
|  6> C 0.6089788797 1.6950948824 -0.0349114329
|  7> C 1.4173127189 0.4036801009 -0.2421573893
|  8> H 1.6750751138 0.2841364012 -1.3038327038
|  9> C 0.5669979212 -0.8053634278 0.1657310602
| 10> H 0.4383966558 -0.7779766133 1.2568081568
| 11> C -0.8135021384 -0.7520543811 -0.5109918916
| 12> H -0.6695680932 -0.9156425644 -1.5860375736
| 13> C -1.4721358247 0.6287598513 -0.2975068044
| 14> H -2.3642459539 0.7291123198 -0.9382415833
| 15> O -0.6322785064 1.6585832849 -0.7226991775
| 16> O -1.8313482495 0.7984882594 1.0436794364
| 17> O -1.6047930458 -1.7611880495 0.0729883231
| 18> O 1.2513795778 -1.9725415261 -0.2176447538
| 19> O 2.5712084723 0.4014852199 0.5616314603
| 20> H 1.1332780266 2.5573587364 -0.4461840318
| 21> H 0.4400062874 1.8415771603 1.0384357425
| 22> H -2.0396688696 -0.0772674122 1.413405536
| 23> H -2.3554765276 -1.9762220414 -0.4984890501
| 24> H 0.7582006912 -2.7410431542 0.1056218091
| 25> H 3.2200952159 1.0243393101 0.2057741951
| 26> *
| 27>
| 28>                          ****END OF INPUT****

CARTESIAN COORDINATES (ANGSTROEM)
---------------------------------
  C      0.608979    1.695095   -0.034911
  C      1.417313    0.403680   -0.242157
  H      1.675075    0.284136   -1.303833
  C      0.566998   -0.805363    0.165731
  H      0.438397   -0.777977    1.256808
  C     -0.813502   -0.752054   -0.510992
  H     -0.669568   -0.915643   -1.586038
  C     -1.472136    0.628760   -0.297507
  H     -2.364246    0.729112   -0.938242
  O     -0.632279    1.658583   -0.722699
  O     -1.831348    0.798488    1.043679
  O     -1.604793   -1.761188    0.072988
  O      1.251380   -1.972542   -0.217645
  O      2.571208    0.401485    0.561631
  H      1.133278    2.557359   -0.446184
  H      0.440006    1.841577    1.038436
  H     -2.039669   -0.077267    1.413406
  H     -2.355477   -1.976222   -0.498489
  H      0.758201   -2.741043    0.105622
  H      3.220095    1.024339    0.205774

 Total Charge           Charge          ....    0
 Multiplicity           Mult            ....    1
 Number of Electrons    NEL             ....   80
 Basis Dimension        Dim             ....  265

ORBITAL ENERGIES
----------------

  NO   OCC          E(Eh)            E(eV)
   0   2.0000     -18.985389      -516.6187
   1   2.0000     -18.967778      -516.1395
   2   2.0000     -18.957756      -515.8668
   3   2.0000     -18.957668      -515.8644
   4   2.0000     -18.951788      -515.7044
   5   2.0000     -10.135632      -275.8046
   6   2.0000     -10.097192      -274.7586
   7   2.0000     -10.090603      -274.5793
   8   2.0000     -10.090428      -274.5745
   9   2.0000     -10.078873      -274.2601
  10   2.0000      -1.047712       -28.5097
  11   2.0000      -1.020276       -27.7631
  12   2.0000      -1.003366       -27.3030
  13   2.0000      -0.983790       -26.7703
  14   2.0000      -0.974434       -26.5157
  15   2.0000      -0.749429       -20.3930
  16   2.0000      -0.721685       -19.6381
  17   2.0000      -0.627070       -17.0634
  18   2.0000      -0.608570       -16.5600
  19   2.0000      -0.546596       -14.8736
  20   2.0000      -0.522236       -14.2108
  21   2.0000      -0.504065       -13.7163
  22   2.0000      -0.497401       -13.5350
  23   2.0000      -0.482457       -13.1283
  24   2.0000      -0.474065       -12.9000
  25   2.0000      -0.446625       -12.1533
  26   2.0000      -0.408994       -11.1293
  27   2.0000      -0.397251       -10.8097
  28   2.0000      -0.386640       -10.5210
  29   2.0000      -0.368268       -10.0211
  30   2.0000      -0.353417        -9.6170
  31   2.0000      -0.334019        -9.0891
  32   2.0000      -0.328148        -8.9294
  33   2.0000      -0.309394        -8.4190
  34   2.0000      -0.287649        -7.8273
  35   2.0000      -0.286002        -7.7825
  36   2.0000      -0.268082        -7.2949
  37   2.0000      -0.254846        -6.9347
  38   2.0000      -0.242130        -6.5887
  39   2.0000      -0.219594        -5.9755
  40   0.0000       0.026863         0.7310
  41   0.0000       0.048128         1.3096
  42   0.0000       0.059985         1.6323
  43   0.0000       0.078475         2.1354
  44   0.0000       0.094830         2.5805

MULLIKEN ATOMIC CHARGES
-----------------------
   0 C :   -0.239076
   1 C :   -0.041540
   2 H :    0.147641
   3 C :   -0.021775
   4 H :    0.163195
   5 C :   -0.069528
   6 H :    0.160082
   7 C :    0.071813
   8 H :    0.136276
   9 O :   -0.203406
  10 O :   -0.406080
  11 O :   -0.453994
  12 O :   -0.407761
  13 O :   -0.395157
  14 H :    0.142127
  15 H :    0.183058
  16 H :    0.322356
  17 H :    0.307907
  18 H :    0.307327
  19 H :    0.296533
Sum of atomic charges:   -0.0000000

LOEWDIN ATOMIC CHARGES
----------------------
   0 C :    0.044308
   1 C :    0.110370
   2 H :    0.179394
   3 C :    0.118973
   4 H :    0.190237
   5 C :    0.110491
   6 H :    0.187855
   7 C :    0.281450
   8 H :    0.190957
   9 O :   -0.662684
  10 O :   -0.522116
  11 O :   -0.588338
  12 O :   -0.561078
  13 O :   -0.569718
  14 H :    0.184159
  15 H :    0.189437
  16 H :    0.288043
  17 H :    0.276982
  18 H :    0.278117
  19 H :    0.273161

  Mayer bond orders larger than 0.100000
B(  0-C ,  1-C ) :   0.8490 B(  0-C ,  9-O ) :   0.9076 B(  0-C , 14-H ) :   0.9413
B(  0-C , 15-H ) :   0.9851 B(  1-C ,  2-H ) :   0.9858 B(  1-C ,  3-C ) :   0.9651
B(  1-C , 13-O ) :   0.9407 B(  3-C ,  4-H ) :   0.9761 B(  3-C ,  5-C ) :   0.9001
B(  3-C , 12-O ) :   0.9451 B(  5-C ,  6-H ) :   0.9656 B(  5-C ,  7-C ) :   0.8815
B(  5-C , 11-O ) :   0.9274 B(  7-C ,  8-H ) :   0.9483 B(  7-C ,  9-O ) :   1.0270
B(  7-C , 10-O ) :   0.9657 B( 10-O , 16-H ) :   0.8508 B( 11-O , 17-H ) :   0.8950
B( 12-O , 18-H ) :   0.8829 B( 13-O , 19-H ) :   0.8977

Dispersion correction           -0.006273777
FINAL SINGLE POINT ENERGY      -572.557366862313

DIPOLE MOMENT
-------------

Method             : SCF
Type of density    : Electron Density
Multiplicity       :   1
Irrep              :   0
Energy             :  -572.5675017800919022 Eh
Relativity type    :
Basis              : AO
                                X                 Y                 Z
Electronic contribution:     -0.650660884      -0.358698572       0.180496475
Nuclear contribution   :      0.217853100      -0.061400953      -0.695265276
                        -----------------------------------------
Total Dipole Moment    :     -0.432807784      -0.420099525      -0.514768801
                        -----------------------------------------
Magnitude (a.u.)       :      0.792964758
Magnitude (Debye)      :      2.015556236

Rotational constants in cm-1:             0.056881             0.044697             0.029111
Rotational constants in MHz :          1705.258552          1339.973046           872.727249

                             ****ORCA TERMINATED NORMALLY****
TOTAL RUN TIME: 0 days 0 hours 0 minutes 36 seconds 124 msec
