                         Program Version 6.0.0  -   RELEASE  -
|  1> ! r2scan-3c def2/J RI DEFGRID2 scfconv6 printgap
|  2> %output
|  3>     printlevel normal
|  4> end
|  5> %cpcm
|  6>     smd true
|  7>     smdsolvent "water"
|  8> end
|  9> * xyz 0 1
| 10> C 0.6089788797 1.6950948824 -0.0349114329
| 11> C 1.4173127189 0.4036801009 -0.2421573893
| 12> H 1.6750751138 0.2841364012 -1.3038327038
| 13> C 0.5669979212 -0.8053634278 0.1657310602
| 14> H 0.4383966558 -0.7779766133 1.2568081568
| 15> C -0.8135021384 -0.7520543811 -0.5109918916
| 16> H -0.6695680932 -0.9156425644 -1.5860375736
| 17> C -1.4721358247 0.6287598513 -0.2975068044
| 18> H -2.3642459539 0.7291123198 -0.9382415833
| 19> O -0.6322785064 1.6585832849 -0.7226991775
| 20> O -1.8313482495 0.7984882594 1.0436794364
| 21> O -1.6047930458 -1.7611880495 0.0729883231
| 22> O 1.2513795778 -1.9725415261 -0.2176447538
| 23> O 2.5712084723 0.4014852199 0.5616314603
| 24> H 1.1332780266 2.5573587364 -0.4461840318
| 25> H 0.4400062874 1.8415771603 1.0384357425
| 26> H -2.0396688696 -0.0772674122 1.413405536
| 27> H -2.3554765276 -1.9762220414 -0.4984890501
| 28> H 0.7582006912 -2.7410431542 0.1056218091
| 29> H 3.2200952159 1.0243393101 0.2057741951
| 30> *
| 31>
| 32>                          ****END OF INPUT****

CARTESIAN COORDINATES (ANGSTROEM)
---------------------------------
  C      0.608979    1.695095   -0.034911
  C      1.417313    0.403680   -0.242157
  H      1.675075    0.284136   -1.303833
  C      0.566998   -0.805363    0.165731
  H      0.438397   -0.777977    1.256808
  C     -0.813502   -0.752054   -0.510992
  H     -0.669568   -0.915643   -1.586038
  C     -1.472136    0.628760   -0.297507
  H     -2.364246    0.729112   -0.938242
  O     -0.632279    1.658583   -0.722699
  O     -1.831348    0.798488    1.043679
  O     -1.604793   -1.761188    0.072988
  O      1.251380   -1.972542   -0.217645
  O      2.571208    0.401485    0.561631
  H      1.133278    2.557359   -0.446184
  H      0.440006    1.841577    1.038436
  H     -2.039669   -0.077267    1.413406
  H     -2.355477   -1.976222   -0.498489
  H      0.758201   -2.741043    0.105622
  H      3.220095    1.024339    0.205774

 Total Charge           Charge          ....    0
 Multiplicity           Mult            ....    1
 Number of Electrons    NEL             ....   80
 Basis Dimension        Dim             ....  265

ORBITAL ENERGIES
----------------

  NO   OCC          E(Eh)            E(eV)
   0   2.0000     -18.973835      -516.3043
   1   2.0000     -18.967172      -516.1230
   2   2.0000     -18.960366      -515.9378
   3   2.0000     -18.960348      -515.9373
   4   2.0000     -18.957990      -515.8731
   5   2.0000     -10.131423      -275.6900
   6   2.0000     -10.087272      -274.4886
   7   2.0000     -10.087045      -274.4825
   8   2.0000     -10.086735      -274.4740
   9   2.0000     -10.075888      -274.1789
  10   2.0000      -1.048624       -28.5345
  11   2.0000      -1.011302       -27.5189
  12   2.0000      -1.002701       -27.2849
  13   2.0000      -0.985810       -26.8253
  14   2.0000      -0.976040       -26.5594
  15   2.0000      -0.745576       -20.2882
  16   2.0000      -0.717367       -19.5206
  17   2.0000      -0.621740       -16.9184
  18   2.0000      -0.605629       -16.4800
  19   2.0000      -0.544111       -14.8060
  20   2.0000      -0.513915       -13.9843
  21   2.0000      -0.499382       -13.5889
  22   2.0000      -0.494188       -13.4475
  23   2.0000      -0.476468       -12.9653
  24   2.0000      -0.473009       -12.8712
  25   2.0000      -0.445801       -12.1309
  26   2.0000      -0.405332       -11.0296
  27   2.0000      -0.393140       -10.6979
  28   2.0000      -0.386897       -10.5280
  29   2.0000      -0.369988       -10.0679
  30   2.0000      -0.355607        -9.6766
  31   2.0000      -0.338793        -9.2190
  32   2.0000      -0.326156        -8.8752
  33   2.0000      -0.309583        -8.4242
  34   2.0000      -0.286531        -7.7969
  35   2.0000      -0.283610        -7.7174
  36   2.0000      -0.272559        -7.4167
  37   2.0000      -0.256788        -6.9876
  38   2.0000      -0.246406        -6.7050
  39   2.0000      -0.221706        -6.0329
  40   0.0000       0.044121         1.2006
  41   0.0000       0.066813         1.8181
  42   0.0000       0.076497         2.0816
  43   0.0000       0.092188         2.5086
  44   0.0000       0.105867         2.8808

MULLIKEN ATOMIC CHARGES
-----------------------
   0 C :   -0.260997
   1 C :   -0.010959
   2 H :    0.172111
   3 C :   -0.009699
   4 H :    0.176037
   5 C :   -0.061418
   6 H :    0.188683
   7 C :    0.062915
   8 H :    0.158873
   9 O :   -0.263831
  10 O :   -0.468761
  11 O :   -0.494297
  12 O :   -0.486918
  13 O :   -0.479169
  14 H :    0.174536
  15 H :    0.181538
  16 H :    0.360066
  17 H :    0.356093
  18 H :    0.352438
  19 H :    0.352760
Sum of atomic charges:   -0.0000000

LOEWDIN ATOMIC CHARGES
----------------------
   0 C :    0.046288
   1 C :    0.111613
   2 H :    0.188584
   3 C :    0.113203
   4 H :    0.195520
   5 C :    0.119923
   6 H :    0.197815
   7 C :    0.283596
   8 H :    0.203364
   9 O :   -0.694377
  10 O :   -0.548802
  11 O :   -0.589029
  12 O :   -0.596415
  13 O :   -0.600936
  14 H :    0.196632
  15 H :    0.188169
  16 H :    0.301168
  17 H :    0.296182
  18 H :    0.293806
  19 H :    0.293694

  Mayer bond orders larger than 0.100000
B(  0-C ,  1-C ) :   0.8587 B(  0-C ,  9-O ) :   0.9004 B(  0-C , 14-H ) :   0.9357
B(  0-C , 15-H ) :   0.9828 B(  1-C ,  2-H ) :   0.9738 B(  1-C ,  3-C ) :   0.9495
B(  1-C , 13-O ) :   0.9206 B(  3-C ,  4-H ) :   0.9581 B(  3-C ,  5-C ) :   0.9134
B(  3-C , 12-O ) :   0.9281 B(  5-C ,  6-H ) :   0.9619 B(  5-C ,  7-C ) :   0.9001
B(  5-C , 11-O ) :   0.9260 B(  7-C ,  8-H ) :   0.9402 B(  7-C ,  9-O ) :   1.0084
B(  7-C , 10-O ) :   0.9708 B( 10-O , 16-H ) :   0.8327 B( 11-O , 17-H ) :   0.8688
B( 12-O , 18-H ) :   0.8605 B( 13-O , 19-H ) :   0.8697

Dispersion correction           -0.006273777
FINAL SINGLE POINT ENERGY      -572.588918220968

DIPOLE MOMENT
-------------

Method             : SCF
Type of density    : Electron Density
Multiplicity       :   1
Irrep              :   0
Energy             :  -572.5990531387475357 Eh
Relativity type    :
Basis              : AO
                                X                 Y                 Z
Electronic contribution:     -0.901055076      -0.475266491      -0.083952334
Nuclear contribution   :      0.217853100      -0.061400953      -0.695265276
                        -----------------------------------------
Total Dipole Moment    :     -0.683201976      -0.536667444      -0.779217610
                        -----------------------------------------
Magnitude (a.u.)       :      1.167029121
Magnitude (Debye)      :      2.966352287

Rotational constants in cm-1:             0.056881             0.044697             0.029111
Rotational constants in MHz :          1705.258552          1339.973046           872.727249

                             ****ORCA TERMINATED NORMALLY****
TOTAL RUN TIME: 0 days 0 hours 0 minutes 47 seconds 464 msec
