                         Program Version 6.0.0  -   RELEASE  -
|  1> ! pbe def2-sv(p) def2/J RI DEFGRID1 loosescf d4 GCP(DFT/SV(P)) printgap
|  2> %output
|  3>     printlevel normal
|  4> end
|  5> * xyz 0 1
|  6> C 1.6760668366 0.8500715956 3.4478523789
|  7> C 0.9894613463 1.1327878858 2.1254708217
|  8> O 1.8513351743 0.7936713407 1.0270862829
|  9> P 1.8051739854 -0.5871032806 0.233311807
| 10> S 0.9473782634 -2.0735374276 1.1862903271
| 11> O 3.3286086747 -0.8188225225 -0.1463715266
| 12> C 4.2967982954 -1.3094974414 0.8028170679
| 13> C 5.0498789983 -0.1698033076 1.4591893686
| 14> S 1.1931104955 -0.1664542827 -1.7415872342
| 15> C -0.2108536985 -1.3170339016 -1.8929153333
| 16> S -1.800294804 -0.5177233688 -2.2702943464
| 17> P -2.1260114495 0.5610897508 -0.4711812837
| 18> S -3.8858406147 1.4013144192 -0.3211754244
| 19> O -0.8843403753 1.5500526319 -0.3566580435
| 20> C -0.782173786 2.6593724568 -1.2750217087
| 21> C 0.3218028588 3.5735584442 -0.7857050901
| 22> O -1.6917251076 -0.3925782767 0.7196143162
| 23> C -2.6567314596 -1.2099427417 1.409137882
| 24> C -3.0941804064 -2.3954369391 0.5733314018
| 25> H 1.894646665 -0.2127012355 3.5355657322
| 26> H 2.6022364548 1.4134407981 3.5230128997
| 27> H 1.0163820218 1.1407627452 4.2592656703
| 28> H 0.7757349294 2.1953261076 2.002771511
| 29> H 0.0588266545 0.5672743897 2.0457912942
| 30> H 3.7823582414 -1.9308210534 1.5440024206
| 31> H 4.9667195644 -1.9364331691 0.2111225392
| 32> H 5.8040729452 -0.5779348361 2.1248560272
| 33> H 5.5313404638 0.440229132 0.6999982664
| 34> H 4.3695253323 0.4563613969 2.0299423597
| 35> H -0.2914434829 -1.8902947968 -0.9662600569
| 36> H -0.0228405777 -1.9683699723 -2.742365597
| 37> H -0.55320768 2.2645759692 -2.2703447483
| 38> H -1.7487210083 3.1732615937 -1.3064374578
| 39> H 0.4525219323 4.3820610904 -1.4972554348
| 40> H 0.0645528811 3.9882732057 0.1848301954
| 41> H 1.2515802024 3.0160224778 -0.7021942202
| 42> H -2.1330224493 -1.5312747314 2.3111067161
| 43> H -3.5137933047 -0.5824843477 1.673102797
| 44> H -3.792746167 -2.9958154364 1.1471414333
| 45> H -3.5867670419 -2.0508658487 -0.3355167815
| 46> H -2.2358597243 -3.0083927083 0.3080750937
| 47> *
| 48>
| 49>                          ****END OF INPUT****

CARTESIAN COORDINATES (ANGSTROEM)
---------------------------------
  C      1.676067    0.850072    3.447852
  C      0.989461    1.132788    2.125471
  O      1.851335    0.793671    1.027086
  P      1.805174   -0.587103    0.233312
  S      0.947378   -2.073537    1.186290
  O      3.328609   -0.818823   -0.146372
  C      4.296798   -1.309497    0.802817
  C      5.049879   -0.169803    1.459189
  S      1.193110   -0.166454   -1.741587
  C     -0.210854   -1.317034   -1.892915
  S     -1.800295   -0.517723   -2.270294
  P     -2.126011    0.561090   -0.471181
  S     -3.885841    1.401314   -0.321175
  O     -0.884340    1.550053   -0.356658
  C     -0.782174    2.659372   -1.275022
  C      0.321803    3.573558   -0.785705
  O     -1.691725   -0.392578    0.719614
  C     -2.656731   -1.209943    1.409138
  C     -3.094180   -2.395437    0.573331
  H      1.894647   -0.212701    3.535566
  H      2.602236    1.413441    3.523013
  H      1.016382    1.140763    4.259266
  H      0.775735    2.195326    2.002772
  H      0.058827    0.567274    2.045791
  H      3.782358   -1.930821    1.544002
  H      4.966720   -1.936433    0.211123
  H      5.804073   -0.577935    2.124856
  H      5.531340    0.440229    0.699998
  H      4.369525    0.456361    2.029942
  H     -0.291443   -1.890295   -0.966260
  H     -0.022841   -1.968370   -2.742366
  H     -0.553208    2.264576   -2.270345
  H     -1.748721    3.173262   -1.306437
  H      0.452522    4.382061   -1.497255
  H      0.064553    3.988273    0.184830
  H      1.251580    3.016022   -0.702194
  H     -2.133022   -1.531275    2.311107
  H     -3.513793   -0.582484    1.673103
  H     -3.792746   -2.995815    1.147141
  H     -3.586767   -2.050866   -0.335517
  H     -2.235860   -3.008393    0.308075

 Total Charge           Charge          ....    0
 Multiplicity           Mult            ....    1
 Number of Electrons    NEL             ....  202
 Basis Dimension        Dim             ....  334

ORBITAL ENERGIES
----------------

  NO   OCC          E(Eh)            E(eV)
   0   2.0000     -88.045696     -2395.8452
   1   2.0000     -88.045139     -2395.8300
   2   2.0000     -87.995271     -2394.4731
   3   2.0000     -87.987191     -2394.2532
   4   2.0000     -76.430272     -2079.7734
   5   2.0000     -76.425942     -2079.6556
   6   2.0000     -18.794707      -511.4300
   7   2.0000     -18.794656      -511.4286
   8   2.0000     -18.792478      -511.3693
   9   2.0000     -18.790081      -511.3041
  10   2.0000      -9.958522      -270.9852
  11   2.0000      -9.954794      -270.8837
  12   2.0000      -9.950653      -270.7710
  13   2.0000      -9.949029      -270.7268
  14   2.0000      -9.948175      -270.7036
  15   2.0000      -9.888615      -269.0829
  16   2.0000      -9.885355      -268.9942
  17   2.0000      -9.885150      -268.9886
  18   2.0000      -9.882265      -268.9101
  19   2.0000      -7.690672      -209.2738
  20   2.0000      -7.690291      -209.2635
  21   2.0000      -7.640116      -207.8981
  22   2.0000      -7.632464      -207.6899
  23   2.0000      -6.428211      -174.9205
  24   2.0000      -6.423718      -174.7983
  25   2.0000      -5.718799      -155.6164
  26   2.0000      -5.718306      -155.6030
  27   2.0000      -5.715019      -155.5136
  28   2.0000      -5.714767      -155.5067
  29   2.0000      -5.707862      -155.3188
  30   2.0000      -5.706804      -155.2900
  31   2.0000      -5.668930      -154.2594
  32   2.0000      -5.661425      -154.0552
  33   2.0000      -5.661077      -154.0457
  34   2.0000      -5.659980      -154.0159
  35   2.0000      -5.653021      -153.8265
  36   2.0000      -5.652634      -153.8160
  37   2.0000      -4.650501      -126.5466
  38   2.0000      -4.649756      -126.5263
  39   2.0000      -4.649096      -126.5083
  40   2.0000      -4.646148      -126.4281
  41   2.0000      -4.645876      -126.4207
  42   2.0000      -4.643854      -126.3657
  43   2.0000      -0.990060       -26.9409
  44   2.0000      -0.987186       -26.8627
  45   2.0000      -0.946506       -25.7557
  46   2.0000      -0.945649       -25.7324
  47   2.0000      -0.763313       -20.7708
  48   2.0000      -0.724665       -19.7191
  49   2.0000      -0.711269       -19.3546
  50   2.0000      -0.688754       -18.7419
  51   2.0000      -0.683334       -18.5945
  52   2.0000      -0.678368       -18.4593
  53   2.0000      -0.654922       -17.8213
  54   2.0000      -0.641028       -17.4433
  55   2.0000      -0.603529       -16.4229
  56   2.0000      -0.595835       -16.2135
  57   2.0000      -0.571914       -15.5626
  58   2.0000      -0.564791       -15.3687
  59   2.0000      -0.559647       -15.2288
  60   2.0000      -0.506730       -13.7888
  61   2.0000      -0.499097       -13.5811
  62   2.0000      -0.481079       -13.0908
  63   2.0000      -0.470417       -12.8007
  64   2.0000      -0.456257       -12.4154
  65   2.0000      -0.448403       -12.2017
  66   2.0000      -0.440428       -11.9847
  67   2.0000      -0.436509       -11.8780
  68   2.0000      -0.432216       -11.7612
  69   2.0000      -0.419075       -11.4036
  70   2.0000      -0.401768       -10.9327
  71   2.0000      -0.398633       -10.8474
  72   2.0000      -0.395831       -10.7711
  73   2.0000      -0.394464       -10.7339
  74   2.0000      -0.379180       -10.3180
  75   2.0000      -0.377352       -10.2683
  76   2.0000      -0.369874       -10.0648
  77   2.0000      -0.361958        -9.8494
  78   2.0000      -0.355776        -9.6812
  79   2.0000      -0.350790        -9.5455
  80   2.0000      -0.346828        -9.4377
  81   2.0000      -0.344961        -9.3869
  82   2.0000      -0.342623        -9.3232
  83   2.0000      -0.338768        -9.2183
  84   2.0000      -0.332919        -9.0592
  85   2.0000      -0.319661        -8.6984
  86   2.0000      -0.316008        -8.5990
  87   2.0000      -0.304832        -8.2949
  88   2.0000      -0.297336        -8.0909
  89   2.0000      -0.291873        -7.9423
  90   2.0000      -0.286317        -7.7911
  91   2.0000      -0.279919        -7.6170
  92   2.0000      -0.270171        -7.3517
  93   2.0000      -0.265887        -7.2351
  94   2.0000      -0.259128        -7.0512
  95   2.0000      -0.234138        -6.3712
  96   2.0000      -0.220100        -5.9892
  97   2.0000      -0.216404        -5.8886
  98   2.0000      -0.208132        -5.6636
  99   2.0000      -0.203881        -5.5479
 100   2.0000      -0.203041        -5.5250
 101   0.0000      -0.044918        -1.2223
 102   0.0000      -0.028824        -0.7843
 103   0.0000      -0.022050        -0.6000
 104   0.0000      -0.002260        -0.0615
 105   0.0000       0.013177         0.3586

MULLIKEN ATOMIC CHARGES
-----------------------
   0 C :   -0.300196
   1 C :   -0.034545
   2 O :   -0.378733
   3 P :    0.642556
   4 S :   -0.331101
   5 O :   -0.372669
   6 C :   -0.007103
   7 C :   -0.304264
   8 S :   -0.082479
   9 C :   -0.370043
  10 S :   -0.092362
  11 P :    0.593372
  12 S :   -0.316479
  13 O :   -0.367368
  14 C :   -0.010149
  15 C :   -0.292837
  16 O :   -0.363119
  17 C :    0.001082
  18 C :   -0.326437
  19 H :    0.115403
  20 H :    0.122943
  21 H :    0.111237
  22 H :    0.105744
  23 H :    0.136808
  24 H :    0.102155
  25 H :    0.109345
  26 H :    0.110903
  27 H :    0.116810
  28 H :    0.125222
  29 H :    0.216262
  30 H :    0.185842
  31 H :    0.100500
  32 H :    0.106835
  33 H :    0.111306
  34 H :    0.120991
  35 H :    0.123922
  36 H :    0.107315
  37 H :    0.113475
  38 H :    0.113115
  39 H :    0.127493
  40 H :    0.129250
Sum of atomic charges:    0.0000000

LOEWDIN ATOMIC CHARGES
----------------------
   0 C :   -0.361858
   1 C :   -0.123394
   2 O :   -0.241684
   3 P :    0.579542
   4 S :   -0.302604
   5 O :   -0.248177
   6 C :   -0.117066
   7 C :   -0.360480
   8 S :    0.100771
   9 C :   -0.481381
  10 S :    0.077997
  11 P :    0.562062
  12 S :   -0.317839
  13 O :   -0.241374
  14 C :   -0.127251
  15 C :   -0.352341
  16 O :   -0.230496
  17 C :   -0.120295
  18 C :   -0.367572
  19 H :    0.121389
  20 H :    0.121799
  21 H :    0.130980
  22 H :    0.116226
  23 H :    0.113721
  24 H :    0.106098
  25 H :    0.120527
  26 H :    0.130081
  27 H :    0.127638
  28 H :    0.124316
  29 H :    0.122039
  30 H :    0.139981
  31 H :    0.101931
  32 H :    0.108875
  33 H :    0.130980
  34 H :    0.124557
  35 H :    0.125353
  36 H :    0.117563
  37 H :    0.110181
  38 H :    0.131959
  39 H :    0.121644
  40 H :    0.125604

  Mayer bond orders larger than 0.100000
B(  0-C ,  1-C ) :   1.1601 B(  0-C , 19-H ) :   0.9407 B(  0-C , 20-H ) :   0.9361
B(  0-C , 21-H ) :   0.9398 B(  1-C ,  2-O ) :   0.8931 B(  1-C , 22-H ) :   0.9282
B(  1-C , 23-H ) :   0.9039 B(  2-O ,  3-P ) :   1.1070 B(  3-P ,  4-S ) :   1.5948
B(  3-P ,  5-O ) :   1.1261 B(  3-P ,  8-S ) :   0.9593 B(  4-S ,  8-S ) :   0.1135
B(  5-O ,  6-C ) :   0.9078 B(  6-C ,  7-C ) :   1.1646 B(  6-C , 24-H ) :   0.9085
B(  6-C , 25-H ) :   0.9361 B(  7-C , 26-H ) :   0.9399 B(  7-C , 27-H ) :   0.9462
B(  7-C , 28-H ) :   0.9385 B(  8-S ,  9-C ) :   1.0129 B(  9-C , 10-S ) :   0.9789
B(  9-C , 29-H ) :   0.8464 B(  9-C , 30-H ) :   0.9100 B( 10-S , 11-P ) :   0.9675
B( 11-P , 12-S ) :   1.6693 B( 11-P , 13-O ) :   1.0927 B( 11-P , 16-O ) :   1.0893
B( 13-O , 14-C ) :   0.9030 B( 14-C , 15-C ) :   1.1684 B( 14-C , 31-H ) :   0.9143
B( 14-C , 32-H ) :   0.9130 B( 15-C , 33-H ) :   0.9401 B( 15-C , 34-H ) :   0.9443
B( 15-C , 35-H ) :   0.9434 B( 16-O , 17-C ) :   0.8965 B( 17-C , 18-C ) :   1.1687
B( 17-C , 36-H ) :   0.9256 B( 17-C , 37-H ) :   0.9150 B( 18-C , 38-H ) :   0.9385
B( 18-C , 39-H ) :   0.9365 B( 18-C , 40-H ) :   0.9387

Dispersion correction           -0.068555836
FINAL SINGLE POINT ENERGY     -2929.522676140693

DIPOLE MOMENT
-------------

Method             : SCF
Type of density    : Electron Density
Multiplicity       :   1
Irrep              :   0
Energy             : -2929.6429854866887581 Eh
Relativity type    :
Basis              : AO
                                X                 Y                 Z
Electronic contribution:    -12.939457501      -4.180676729     -16.439205468
Nuclear contribution   :     14.211581326       4.162389288      17.002939019
                        -----------------------------------------
Total Dipole Moment    :      1.272123825      -0.018287441       0.563733551
                        -----------------------------------------
Magnitude (a.u.)       :      1.391556314
Magnitude (Debye)      :      3.537055055

Rotational constants in cm-1:             0.011942             0.005697             0.005473
Rotational constants in MHz :           358.001695           170.800367           164.081179

                             ****ORCA TERMINATED NORMALLY****
TOTAL RUN TIME: 0 days 0 hours 0 minutes 22 seconds 607 msec
