                         Program Version 6.0.0  -   RELEASE  -
|  1> ! pbe def2-sv(p) def2/J RI DEFGRID1 loosescf d4 GCP(DFT/SV(P)) printgap
|  2> %output
|  3>     printlevel normal
|  4> end
|  5> * xyz 0 1
|  6> C 5.2226597937 -2.3239538563 -1.043189766
|  7> C 4.1647181804 -1.3116514321 -1.4336777385
|  8> O 3.1389825115 -1.327631744 -0.4203477783
|  9> P 2.1611492371 -0.0958532676 -0.1881468568
| 10> S 3.0562660405 1.6503373439 -0.1136622586
| 11> O 1.3919270393 -0.5578015807 1.1097412638
| 12> C 1.8133007012 -0.1916042705 2.445958894
| 13> C 0.6030523909 0.2694458709 3.2317044678
| 14> S 0.6951104648 -0.3482673515 -1.6827232506
| 15> C 0.0292185449 1.3375783599 -1.6167359427
| 16> S -0.7944517101 1.7235795015 -0.0543614541
| 17> P -2.2988438043 0.2343504877 -0.199948975
| 18> S -3.0005011129 -0.1203409232 -1.9869334517
| 19> O -3.4435138468 0.7094782873 0.7832269904
| 20> C -3.2753102891 0.8897428577 2.2121373353
| 21> C -2.9947537752 2.3401511498 2.5490903407
| 22> O -1.576485238 -0.9864127919 0.5392363993
| 23> C -1.6822031858 -2.3458540707 0.0849731221
| 24> C -2.9928578816 -2.9639315814 0.5278701342
| 25> H 4.7757032107 -3.3095694105 -0.951227903
| 26> H 5.9920482236 -2.3470510523 -1.8078915166
| 27> H 5.6700931836 -2.0490531691 -0.0921857204
| 28> H 3.7005560772 -1.5659902025 -2.3900429299
| 29> H 4.580377411 -0.3000492997 -1.4934134888
| 30> H 2.2645697793 -1.0826375553 2.8868750761
| 31> H 2.5646776944 0.6019576491 2.3757113754
| 32> H 0.9025114426 0.4889379843 4.2513229861
| 33> H 0.1844848571 1.1654459735 2.779920864
| 34> H -0.1517199391 -0.5119943602 3.2368004295
| 35> H -0.6858699253 1.4164019972 -2.4349861087
| 36> H 0.8423328059 2.0554393418 -1.7238076327
| 37> H -4.2278987363 0.5650739901 2.6343284219
| 38> H -2.4720011546 0.23721755 2.5598393571
| 39> H -3.786018736 2.9734797917 2.1577941993
| 40> H -2.9466173802 2.4500434538 3.6279394939
| 41> H -2.0492343465 2.6597422751 2.1153304595
| 42> H -1.5954773817 -2.362325328 -1.0062818212
| 43> H -0.8192179854 -2.8463387203 0.5275932957
| 44> H -3.0353530826 -3.9958113856 0.1941733465
| 45> H -3.0838089403 -2.9303857147 1.6102730409
| 46> H -3.8228130432 -2.4139923496 0.0849140044
| 47> *
| 48>
| 49>                          ****END OF INPUT****

CARTESIAN COORDINATES (ANGSTROEM)
---------------------------------
  C      5.222660   -2.323954   -1.043190
  C      4.164718   -1.311651   -1.433678
  O      3.138983   -1.327632   -0.420348
  P      2.161149   -0.095853   -0.188147
  S      3.056266    1.650337   -0.113662
  O      1.391927   -0.557802    1.109741
  C      1.813301   -0.191604    2.445959
  C      0.603052    0.269446    3.231704
  S      0.695110   -0.348267   -1.682723
  C      0.029219    1.337578   -1.616736
  S     -0.794452    1.723580   -0.054361
  P     -2.298844    0.234350   -0.199949
  S     -3.000501   -0.120341   -1.986933
  O     -3.443514    0.709478    0.783227
  C     -3.275310    0.889743    2.212137
  C     -2.994754    2.340151    2.549090
  O     -1.576485   -0.986413    0.539236
  C     -1.682203   -2.345854    0.084973
  C     -2.992858   -2.963932    0.527870
  H      4.775703   -3.309569   -0.951228
  H      5.992048   -2.347051   -1.807892
  H      5.670093   -2.049053   -0.092186
  H      3.700556   -1.565990   -2.390043
  H      4.580377   -0.300049   -1.493413
  H      2.264570   -1.082638    2.886875
  H      2.564678    0.601958    2.375711
  H      0.902511    0.488938    4.251323
  H      0.184485    1.165446    2.779921
  H     -0.151720   -0.511994    3.236800
  H     -0.685870    1.416402   -2.434986
  H      0.842333    2.055439   -1.723808
  H     -4.227899    0.565074    2.634328
  H     -2.472001    0.237218    2.559839
  H     -3.786019    2.973480    2.157794
  H     -2.946617    2.450043    3.627939
  H     -2.049234    2.659742    2.115330
  H     -1.595477   -2.362325   -1.006282
  H     -0.819218   -2.846339    0.527593
  H     -3.035353   -3.995811    0.194173
  H     -3.083809   -2.930386    1.610273
  H     -3.822813   -2.413992    0.084914

 Total Charge           Charge          ....    0
 Multiplicity           Mult            ....    1
 Number of Electrons    NEL             ....  202
 Basis Dimension        Dim             ....  334

ORBITAL ENERGIES
----------------

  NO   OCC          E(Eh)            E(eV)
   0   2.0000     -88.043507     -2395.7856
   1   2.0000     -88.040574     -2395.7058
   2   2.0000     -87.988349     -2394.2847
   3   2.0000     -87.985959     -2394.2197
   4   2.0000     -76.426299     -2079.6653
   5   2.0000     -76.425691     -2079.6488
   6   2.0000     -18.795662      -511.4560
   7   2.0000     -18.793252      -511.3904
   8   2.0000     -18.790536      -511.3165
   9   2.0000     -18.787178      -511.2251
  10   2.0000      -9.960939      -271.0509
  11   2.0000      -9.953610      -270.8515
  12   2.0000      -9.953460      -270.8474
  13   2.0000      -9.953053      -270.8363
  14   2.0000      -9.946406      -270.6555
  15   2.0000      -9.891928      -269.1730
  16   2.0000      -9.889282      -269.1010
  17   2.0000      -9.887302      -269.0472
  18   2.0000      -9.882505      -268.9166
  19   2.0000      -7.688531      -209.2156
  20   2.0000      -7.685564      -209.1348
  21   2.0000      -7.633362      -207.7143
  22   2.0000      -7.631236      -207.6565
  23   2.0000      -6.424136      -174.8096
  24   2.0000      -6.423303      -174.7870
  25   2.0000      -5.716393      -155.5510
  26   2.0000      -5.713376      -155.4689
  27   2.0000      -5.713077      -155.4607
  28   2.0000      -5.710244      -155.3836
  29   2.0000      -5.705465      -155.2536
  30   2.0000      -5.702402      -155.1703
  31   2.0000      -5.662062      -154.0725
  32   2.0000      -5.660274      -154.0239
  33   2.0000      -5.654048      -153.8545
  34   2.0000      -5.653672      -153.8442
  35   2.0000      -5.651771      -153.7925
  36   2.0000      -5.651302      -153.7797
  37   2.0000      -4.646544      -126.4389
  38   2.0000      -4.646203      -126.4296
  39   2.0000      -4.645902      -126.4214
  40   2.0000      -4.644659      -126.3876
  41   2.0000      -4.644658      -126.3876
  42   2.0000      -4.643888      -126.3666
  43   2.0000      -0.987129       -26.8611
  44   2.0000      -0.984923       -26.8011
  45   2.0000      -0.945528       -25.7291
  46   2.0000      -0.942907       -25.6578
  47   2.0000      -0.765811       -20.8388
  48   2.0000      -0.724309       -19.7094
  49   2.0000      -0.712696       -19.3934
  50   2.0000      -0.691286       -18.8109
  51   2.0000      -0.689602       -18.7650
  52   2.0000      -0.673607       -18.3298
  53   2.0000      -0.650253       -17.6943
  54   2.0000      -0.638858       -17.3842
  55   2.0000      -0.598520       -16.2866
  56   2.0000      -0.588212       -16.0061
  57   2.0000      -0.579550       -15.7704
  58   2.0000      -0.569900       -15.5078
  59   2.0000      -0.558757       -15.2045
  60   2.0000      -0.510181       -13.8827
  61   2.0000      -0.499420       -13.5899
  62   2.0000      -0.481617       -13.1055
  63   2.0000      -0.477999       -13.0070
  64   2.0000      -0.456271       -12.4158
  65   2.0000      -0.446984       -12.1630
  66   2.0000      -0.441739       -12.0203
  67   2.0000      -0.435489       -11.8503
  68   2.0000      -0.431189       -11.7333
  69   2.0000      -0.415174       -11.2975
  70   2.0000      -0.404946       -11.0192
  71   2.0000      -0.396558       -10.7909
  72   2.0000      -0.389991       -10.6122
  73   2.0000      -0.382948       -10.4205
  74   2.0000      -0.378703       -10.3050
  75   2.0000      -0.375568       -10.2197
  76   2.0000      -0.371771       -10.1164
  77   2.0000      -0.359916        -9.7938
  78   2.0000      -0.357788        -9.7359
  79   2.0000      -0.357700        -9.7335
  80   2.0000      -0.353061        -9.6073
  81   2.0000      -0.348910        -9.4943
  82   2.0000      -0.344261        -9.3678
  83   2.0000      -0.341145        -9.2830
  84   2.0000      -0.335015        -9.1162
  85   2.0000      -0.320343        -8.7170
  86   2.0000      -0.309496        -8.4218
  87   2.0000      -0.304892        -8.2965
  88   2.0000      -0.300634        -8.1807
  89   2.0000      -0.289375        -7.8743
  90   2.0000      -0.280813        -7.6413
  91   2.0000      -0.279547        -7.6069
  92   2.0000      -0.272181        -7.4064
  93   2.0000      -0.263867        -7.1802
  94   2.0000      -0.258966        -7.0468
  95   2.0000      -0.232168        -6.3176
  96   2.0000      -0.216384        -5.8881
  97   2.0000      -0.213815        -5.8182
  98   2.0000      -0.207324        -5.6416
  99   2.0000      -0.200153        -5.4464
 100   2.0000      -0.199801        -5.4369
 101   0.0000      -0.045215        -1.2304
 102   0.0000      -0.022545        -0.6135
 103   0.0000      -0.001784        -0.0485
 104   0.0000       0.003799         0.1034
 105   0.0000       0.006775         0.1844

MULLIKEN ATOMIC CHARGES
-----------------------
   0 C :   -0.281091
   1 C :   -0.010395
   2 O :   -0.379003
   3 P :    0.617136
   4 S :   -0.342508
   5 O :   -0.355990
   6 C :   -0.005616
   7 C :   -0.308010
   8 S :   -0.081678
   9 C :   -0.350886
  10 S :   -0.106936
  11 P :    0.629164
  12 S :   -0.315337
  13 O :   -0.365057
  14 C :   -0.039348
  15 C :   -0.307610
  16 O :   -0.380572
  17 C :   -0.006313
  18 C :   -0.300618
  19 H :    0.116317
  20 H :    0.112842
  21 H :    0.117509
  22 H :    0.102740
  23 H :    0.106696
  24 H :    0.102932
  25 H :    0.108422
  26 H :    0.106827
  27 H :    0.129451
  28 H :    0.128436
  29 H :    0.193791
  30 H :    0.193356
  31 H :    0.111731
  32 H :    0.121846
  33 H :    0.125578
  34 H :    0.112563
  35 H :    0.141814
  36 H :    0.114665
  37 H :    0.101564
  38 H :    0.110880
  39 H :    0.105915
  40 H :    0.124794
Sum of atomic charges:   -0.0000000

LOEWDIN ATOMIC CHARGES
----------------------
   0 C :   -0.350656
   1 C :   -0.120474
   2 O :   -0.252270
   3 P :    0.567110
   4 S :   -0.326736
   5 O :   -0.235282
   6 C :   -0.112967
   7 C :   -0.358012
   8 S :    0.094196
   9 C :   -0.480361
  10 S :    0.085215
  11 P :    0.573150
  12 S :   -0.308270
  13 O :   -0.242195
  14 C :   -0.116432
  15 C :   -0.361248
  16 O :   -0.246896
  17 C :   -0.123256
  18 C :   -0.363588
  19 H :    0.126610
  20 H :    0.131198
  21 H :    0.127692
  22 H :    0.110923
  23 H :    0.107863
  24 H :    0.114514
  25 H :    0.107747
  26 H :    0.128271
  27 H :    0.122855
  28 H :    0.123895
  29 H :    0.132075
  30 H :    0.130777
  31 H :    0.122463
  32 H :    0.111911
  33 H :    0.132001
  34 H :    0.131644
  35 H :    0.119160
  36 H :    0.106735
  37 H :    0.115699
  38 H :    0.130088
  39 H :    0.120222
  40 H :    0.124631

  Mayer bond orders larger than 0.100000
B(  0-C ,  1-C ) :   1.1611 B(  0-C , 19-H ) :   0.9509 B(  0-C , 20-H ) :   0.9420
B(  0-C , 21-H ) :   0.9511 B(  1-C ,  2-O ) :   0.9052 B(  1-C , 22-H ) :   0.9301
B(  1-C , 23-H ) :   0.9080 B(  2-O ,  3-P ) :   1.1122 B(  3-P ,  4-S ) :   1.6027
B(  3-P ,  5-O ) :   1.1434 B(  3-P ,  8-S ) :   0.9644 B(  4-S ,  8-S ) :   0.1069
B(  5-O ,  6-C ) :   0.8981 B(  6-C ,  7-C ) :   1.1670 B(  6-C , 24-H ) :   0.9337
B(  6-C , 25-H ) :   0.9027 B(  7-C , 26-H ) :   0.9370 B(  7-C , 27-H ) :   0.9404
B(  7-C , 28-H ) :   0.9378 B(  8-S ,  9-C ) :   1.0015 B(  9-C , 10-S ) :   1.0097
B(  9-C , 29-H ) :   0.8832 B(  9-C , 30-H ) :   0.8803 B( 10-S , 11-P ) :   0.9475
B( 10-S , 12-S ) :   0.1020 B( 11-P , 12-S ) :   1.6275 B( 11-P , 13-O ) :   1.1327
B( 11-P , 16-O ) :   1.0748 B( 13-O , 14-C ) :   0.8998 B( 14-C , 15-C ) :   1.1690
B( 14-C , 31-H ) :   0.9330 B( 14-C , 32-H ) :   0.9100 B( 15-C , 33-H ) :   0.9447
B( 15-C , 34-H ) :   0.9384 B( 15-C , 35-H ) :   0.9295 B( 16-O , 17-C ) :   0.9009
B( 17-C , 18-C ) :   1.1611 B( 17-C , 36-H ) :   0.9094 B( 17-C , 37-H ) :   0.9323
B( 18-C , 38-H ) :   0.9413 B( 18-C , 39-H ) :   0.9484 B( 18-C , 40-H ) :   0.9377

Dispersion correction           -0.066038397
FINAL SINGLE POINT ENERGY     -2929.523774797913

DIPOLE MOMENT
-------------

Method             : SCF
Type of density    : Electron Density
Multiplicity       :   1
Irrep              :   0
Energy             : -2929.6425291708401346 Eh
Relativity type    :
Basis              : AO
                                X                 Y                 Z
Electronic contribution:     -2.283768374       9.746977890     -17.067291564
Nuclear contribution   :      2.745171960     -10.654949089      18.447055174
                        -----------------------------------------
Total Dipole Moment    :      0.461403586      -0.907971200       1.379763610
                        -----------------------------------------
Magnitude (a.u.)       :      1.714949733
Magnitude (Debye)      :      4.359055802

Rotational constants in cm-1:             0.011874             0.005299             0.004920
Rotational constants in MHz :           355.972769           158.849721           147.495259

                             ****ORCA TERMINATED NORMALLY****
TOTAL RUN TIME: 0 days 0 hours 0 minutes 21 seconds 815 msec
