                         Program Version 6.0.1  -  RELEASE   -
|  1> ! pbe def2-sv(p) def2/J RI DEFGRID1 loosescf d4 GCP(DFT/SV(P)) printgap
|  2> %output
|  3>     printlevel normal
|  4> end
|  5> * xyz 0 1
|  6> C 4.8007652964 -1.4543600016 0.8201441425
|  7> C 4.367495581 -2.2643005696 -0.3910868048
|  8> O 2.9344426981 -2.2199832675 -0.5286055133
|  9> C 2.4044635042 -1.3209260455 -1.3296254284
| 10> O 3.0308839365 -0.5706922755 -2.0478432832
| 11> C 0.886731197 -1.3756500957 -1.297325657
| 12> C 0.3554756462 0.051918217 -1.3238797797
| 13> H 0.7549044627 0.5612906772 -2.2097674522
| 14> C 0.8530180022 0.8324052443 -0.1215914632
| 15> O 1.9019291192 0.577837205 0.4221474585
| 16> O 0.0537693202 1.8321144868 0.1973344662
| 17> C 0.4585901523 2.7048840502 1.2716472666
| 18> C 1.3278360783 3.8337035133 0.7456657504
| 19> S -1.4481104601 0.1396969344 -1.5133983605
| 20> P -2.0869104156 -0.0027125973 0.5116011616
| 21> S -0.8781559721 -0.8514449784 1.8000399696
| 22> O -2.5779749647 1.4215196034 0.9843536133
| 23> C -3.5193756168 2.2015202521 0.2177433726
| 24> O -3.4942733264 -0.7450908253 0.34319313
| 25> C -3.5700958162 -2.1248963222 -0.0328208656
| 26> H 4.4694530302 -0.4238245756 0.7098538312
| 27> H 4.3531514934 -1.8628130034 1.7218792569
| 28> H 5.8818515152 -1.4786291668 0.9071309368
| 29> H 4.6066034883 -3.3216274671 -0.2719460976
| 30> H 4.8164154733 -1.8695170459 -1.3071503477
| 31> H 0.573411821 -1.9034582847 -0.395646492
| 32> H 0.5369294392 -1.912271677 -2.1804241628
| 33> H -0.4782459826 3.0731594808 1.6905605456
| 34> H 0.9916134414 2.1058243644 2.0157999131
| 35> H 0.8007487331 4.3835025437 -0.0290992764
| 36> H 1.5698107956 4.5053158257 1.5625065967
| 37> H 2.2509766328 3.4327621164 0.3325680442
| 38> H -3.6279000152 3.1341641694 0.7649834532
| 39> H -4.4703750757 1.6769147049 0.1548084721
| 40> H -3.1230865129 2.3821064627 -0.7812604485
| 41> H -2.8978310065 -2.7205079524 0.5866099977
| 42> H -3.3082948081 -2.236528598 -1.0846711904
| 43> H -4.6026245993 -2.4181593964 0.1387023064
| 44> *
| 45>
| 46>                          ****END OF INPUT****

CARTESIAN COORDINATES (ANGSTROEM)
---------------------------------
  C      4.800765   -1.454360    0.820144
  C      4.367496   -2.264301   -0.391087
  O      2.934443   -2.219983   -0.528606
  C      2.404464   -1.320926   -1.329625
  O      3.030884   -0.570692   -2.047843
  C      0.886731   -1.375650   -1.297326
  C      0.355476    0.051918   -1.323880
  H      0.754904    0.561291   -2.209767
  C      0.853018    0.832405   -0.121591
  O      1.901929    0.577837    0.422147
  O      0.053769    1.832114    0.197334
  C      0.458590    2.704884    1.271647
  C      1.327836    3.833704    0.745666
  S     -1.448110    0.139697   -1.513398
  P     -2.086910   -0.002713    0.511601
  S     -0.878156   -0.851445    1.800040
  O     -2.577975    1.421520    0.984354
  C     -3.519376    2.201520    0.217743
  O     -3.494273   -0.745091    0.343193
  C     -3.570096   -2.124896   -0.032821
  H      4.469453   -0.423825    0.709854
  H      4.353151   -1.862813    1.721879
  H      5.881852   -1.478629    0.907131
  H      4.606603   -3.321627   -0.271946
  H      4.816415   -1.869517   -1.307150
  H      0.573412   -1.903458   -0.395646
  H      0.536929   -1.912272   -2.180424
  H     -0.478246    3.073159    1.690561
  H      0.991613    2.105824    2.015800
  H      0.800749    4.383503   -0.029099
  H      1.569811    4.505316    1.562507
  H      2.250977    3.432762    0.332568
  H     -3.627900    3.134164    0.764983
  H     -4.470375    1.676915    0.154808
  H     -3.123087    2.382106   -0.781260
  H     -2.897831   -2.720508    0.586610
  H     -3.308295   -2.236529   -1.084671
  H     -4.602625   -2.418159    0.138702

 Total Charge           Charge          ....    0
 Multiplicity           Mult            ....    1
 Number of Electrons    NEL             ....  174
 Basis Dimension        Dim             ....  316

ORBITAL ENERGIES
----------------

  NO   OCC          E(Eh)            E(eV)
   0   2.0000     -88.044960     -2395.8252
   1   2.0000     -87.988646     -2394.2928
   2   2.0000     -76.430988     -2079.7929
   3   2.0000     -18.810202      -511.8516
   4   2.0000     -18.799575      -511.5624
   5   2.0000     -18.797544      -511.5072
   6   2.0000     -18.788235      -511.2539
   7   2.0000     -18.741395      -509.9793
   8   2.0000     -18.724726      -509.5257
   9   2.0000     -10.019995      -272.6579
  10   2.0000      -9.999165      -272.0911
  11   2.0000      -9.954774      -270.8832
  12   2.0000      -9.949069      -270.7279
  13   2.0000      -9.949028      -270.7268
  14   2.0000      -9.945841      -270.6401
  15   2.0000      -9.934875      -270.3417
  16   2.0000      -9.899629      -269.3826
  17   2.0000      -9.887066      -269.0407
  18   2.0000      -9.872017      -268.6312
  19   2.0000      -7.689781      -209.2496
  20   2.0000      -7.633586      -207.7204
  21   2.0000      -6.427980      -174.9142
  22   2.0000      -5.717649      -155.5851
  23   2.0000      -5.714189      -155.4910
  24   2.0000      -5.706883      -155.2922
  25   2.0000      -5.662708      -154.0901
  26   2.0000      -5.653931      -153.8513
  27   2.0000      -5.653793      -153.8475
  28   2.0000      -4.650763      -126.5537
  29   2.0000      -4.649863      -126.5292
  30   2.0000      -4.648267      -126.4858
  31   2.0000      -1.017526       -27.6883
  32   2.0000      -0.996702       -27.1216
  33   2.0000      -0.992558       -27.0089
  34   2.0000      -0.948230       -25.8027
  35   2.0000      -0.923351       -25.1257
  36   2.0000      -0.902128       -24.5482
  37   2.0000      -0.766100       -20.8466
  38   2.0000      -0.706820       -19.2336
  39   2.0000      -0.703445       -19.1417
  40   2.0000      -0.690933       -18.8012
  41   2.0000      -0.656780       -17.8719
  42   2.0000      -0.642147       -17.4737
  43   2.0000      -0.627452       -17.0738
  44   2.0000      -0.616723       -16.7819
  45   2.0000      -0.589392       -16.0382
  46   2.0000      -0.559281       -15.2188
  47   2.0000      -0.520317       -14.1586
  48   2.0000      -0.501102       -13.6357
  49   2.0000      -0.488741       -13.2993
  50   2.0000      -0.482366       -13.1259
  51   2.0000      -0.480203       -13.0670
  52   2.0000      -0.456169       -12.4130
  53   2.0000      -0.440135       -11.9767
  54   2.0000      -0.438236       -11.9250
  55   2.0000      -0.429242       -11.6803
  56   2.0000      -0.422717       -11.5027
  57   2.0000      -0.420266       -11.4360
  58   2.0000      -0.419388       -11.4121
  59   2.0000      -0.408917       -11.1272
  60   2.0000      -0.406332       -11.0568
  61   2.0000      -0.396058       -10.7773
  62   2.0000      -0.386945       -10.5293
  63   2.0000      -0.382151       -10.3989
  64   2.0000      -0.368730       -10.0337
  65   2.0000      -0.365749        -9.9525
  66   2.0000      -0.351642        -9.5687
  67   2.0000      -0.347404        -9.4533
  68   2.0000      -0.344126        -9.3641
  69   2.0000      -0.336947        -9.1688
  70   2.0000      -0.327746        -8.9184
  71   2.0000      -0.326996        -8.8980
  72   2.0000      -0.316121        -8.6021
  73   2.0000      -0.313437        -8.5290
  74   2.0000      -0.309706        -8.4275
  75   2.0000      -0.302638        -8.2352
  76   2.0000      -0.298205        -8.1146
  77   2.0000      -0.280596        -7.6354
  78   2.0000      -0.276896        -7.5347
  79   2.0000      -0.267310        -7.2739
  80   2.0000      -0.263339        -7.1658
  81   2.0000      -0.245116        -6.6700
  82   2.0000      -0.241111        -6.5610
  83   2.0000      -0.221884        -6.0378
  84   2.0000      -0.210821        -5.7367
  85   2.0000      -0.206634        -5.6228
  86   2.0000      -0.203509        -5.5378
  87   0.0000      -0.042493        -1.1563
  88   0.0000      -0.032018        -0.8712
  89   0.0000      -0.005472        -0.1489
  90   0.0000       0.003888         0.1058
  91   0.0000       0.012414         0.3378

MULLIKEN ATOMIC CHARGES
-----------------------
   0 C :   -0.296170
   1 C :   -0.021294
   2 O :   -0.223715
   3 C :    0.112266
   4 O :   -0.219755
   5 C :   -0.039411
   6 C :   -0.291312
   7 H :    0.164759
   8 C :    0.171837
   9 O :   -0.173623
  10 O :   -0.230694
  11 C :   -0.012087
  12 C :   -0.303010
  13 S :   -0.095282
  14 P :    0.605071
  15 S :   -0.292330
  16 O :   -0.363043
  17 C :   -0.109162
  18 O :   -0.388047
  19 C :   -0.101077
  20 H :    0.135299
  21 H :    0.113238
  22 H :    0.104103
  23 H :    0.098478
  24 H :    0.106501
  25 H :    0.113563
  26 H :    0.110618
  27 H :    0.105771
  28 H :    0.117439
  29 H :    0.111402
  30 H :    0.114708
  31 H :    0.128638
  32 H :    0.130739
  33 H :    0.127342
  34 H :    0.123877
  35 H :    0.120543
  36 H :    0.116753
  37 H :    0.127065
Sum of atomic charges:    0.0000000

LOEWDIN ATOMIC CHARGES
----------------------
   0 C :   -0.354451
   1 C :   -0.111423
   2 O :   -0.052899
   3 C :    0.030793
   4 O :   -0.182687
   5 C :   -0.253467
   6 C :   -0.267089
   7 H :    0.158489
   8 C :    0.012456
   9 O :   -0.136681
  10 O :   -0.059736
  11 C :   -0.110355
  12 C :   -0.355394
  13 S :    0.097415
  14 P :    0.571578
  15 S :   -0.285043
  16 O :   -0.235791
  17 C :   -0.210836
  18 O :   -0.259791
  19 C :   -0.215616
  20 H :    0.134568
  21 H :    0.125370
  22 H :    0.125604
  23 H :    0.114831
  24 H :    0.118153
  25 H :    0.132231
  26 H :    0.141879
  27 H :    0.117249
  28 H :    0.123543
  29 H :    0.123641
  30 H :    0.131568
  31 H :    0.131317
  32 H :    0.125298
  33 H :    0.117557
  34 H :    0.111621
  35 H :    0.113061
  36 H :    0.109496
  37 H :    0.123542

  Mayer bond orders larger than 0.100000
B(  0-C ,  1-C ) :   1.1770 B(  0-C , 20-H ) :   0.9406 B(  0-C , 21-H ) :   0.9498
B(  0-C , 22-H ) :   0.9440 B(  1-C ,  2-O ) :   0.9159 B(  1-C , 23-H ) :   0.9377
B(  1-C , 24-H ) :   0.9089 B(  2-O ,  3-C ) :   1.2483 B(  3-C ,  4-O ) :   2.0263
B(  3-C ,  5-C ) :   0.9959 B(  5-C ,  6-C ) :   1.0405 B(  5-C , 25-H ) :   0.8865
B(  5-C , 26-H ) :   0.8814 B(  6-C ,  7-H ) :   0.8460 B(  6-C ,  8-C ) :   0.9185
B(  6-C , 13-S ) :   1.0017 B(  8-C ,  9-O ) :   2.0185 B(  8-C , 10-O ) :   1.2356
B( 10-O , 11-C ) :   0.8993 B( 11-C , 12-C ) :   1.1722 B( 11-C , 27-H ) :   0.9314
B( 11-C , 28-H ) :   0.9133 B( 12-C , 29-H ) :   0.9485 B( 12-C , 30-H ) :   0.9451
B( 12-C , 31-H ) :   0.9451 B( 13-S , 14-P ) :   0.9590 B( 13-S , 15-S ) :   0.1150
B( 14-P , 15-S ) :   1.6362 B( 14-P , 16-O ) :   1.1188 B( 14-P , 18-O ) :   1.0710
B( 16-O , 17-C ) :   0.9150 B( 17-C , 32-H ) :   0.9588 B( 17-C , 33-H ) :   0.9474
B( 17-C , 34-H ) :   0.9379 B( 18-O , 19-C ) :   0.9296 B( 19-C , 35-H ) :   0.9362
B( 19-C , 36-H ) :   0.9466 B( 19-C , 37-H ) :   0.9584

Dispersion correction           -0.053069626
FINAL SINGLE POINT ENERGY     -1979.022903265306

DIPOLE MOMENT
-------------

Method             : SCF
Type of density    : Electron Density
Multiplicity       :   1
Irrep              :   0
Energy             : -1979.1533628606248385 Eh
Relativity type    :
Basis              : AO
                                X                 Y                 Z
Electronic contribution:    -11.636316232      -4.370344595      -2.005902719
Nuclear contribution   :     10.494415935       4.819308082       1.706920569
                        -----------------------------------------
Total Dipole Moment    :     -1.141900297       0.448963487      -0.298982149
                        -----------------------------------------
Magnitude (a.u.)       :      1.262891455
Magnitude (Debye)      :      3.210014975

Rotational constants in cm-1:             0.014637             0.006832             0.005789
Rotational constants in MHz :           438.810039           204.814477           173.539731

                             ****ORCA TERMINATED NORMALLY****
TOTAL RUN TIME: 0 days 0 hours 0 minutes 45 seconds 522 msec
