                         Program Version 6.0.0  -   RELEASE  -
|  1> ! pbe def2-sv(p) def2/J RI DEFGRID1 loosescf d4 GCP(DFT/SV(P)) printgap
|  2> %output
|  3>     printlevel normal
|  4> end
|  5> * xyz 0 1
|  6> C 2.5695155674 -2.0900332101 -3.1534847739
|  7> C 1.8276792647 -1.3844596546 -2.0370979714
|  8> O 2.8100085728 -0.8374042098 -1.1349783421
|  9> P 2.408342628 0.128803699 0.0637518429
| 10> S 1.3066343741 1.6654424671 -0.437906309
| 11> O 3.8156702932 0.5615264175 0.6072464752
| 12> C 4.827277879 -0.3836709988 1.0539764451
| 13> C 4.980579589 -0.3066403586 2.5593488925
| 14> S 1.613035195 -1.2037471071 1.5429363413
| 15> C -0.0747576027 -0.5926721961 1.6480995862
| 16> S -1.0276141594 -0.9840323244 0.1446588314
| 17> P -2.4789328258 0.5697277397 0.3025148007
| 18> S -1.9597422579 2.1330349603 1.3582786907
| 19> O -3.7535405789 -0.1095876674 0.9290352838
| 20> C -4.3942065989 -1.2815955753 0.3620680117
| 21> C -5.5652516474 -0.8848474835 -0.5127810645
| 22> O -2.929024408 0.8261756365 -1.1972495178
| 23> C -2.0329489168 1.2999205534 -2.2239058033
| 24> C -1.7606107979 0.1843039209 -3.2147638978
| 25> H 3.2108315735 -1.3864740487 -3.676442626
| 26> H 3.1816483196 -2.8894417243 -2.7468136198
| 27> H 1.8495975948 -2.5068920531 -3.8497487545
| 28> H 1.1878837545 -2.0753123038 -1.4788048491
| 29> H 1.215561654 -0.5604736869 -2.4165378637
| 30> H 4.5469997633 -1.3877087661 0.731550608
| 31> H 5.7403503284 -0.0730825187 0.544127079
| 32> H 5.80208364 -0.9469999665 2.8642746873
| 33> H 5.1923611752 0.7158587725 2.8596857014
| 34> H 4.0698845669 -0.6373573092 3.0526349885
| 35> H -0.0786995047 0.4934693962 1.775258233
| 36> H -0.5254483862 -1.0920609653 2.5025765361
| 37> H -3.6507815012 -1.8527470526 -0.201448028
| 38> H -4.7229706568 -1.8560872627 1.229775722
| 39> H -5.2224095432 -0.2928753551 -1.3569060399
| 40> H -6.0560195453 -1.7819756004 -0.8769665759
| 41> H -6.2744830221 -0.2945416085 0.0608501409
| 42> H -2.5486811391 2.1375827069 -2.6970520021
| 43> H -1.1093086774 1.6665697965 -1.7655958691
| 44> H -1.2935281008 -0.6595210777 -2.7114937462
| 45> H -2.6905372061 -0.1461587729 -3.6681805862
| 46> H -1.0949401838 0.5536779527 -3.9880619297
| 47> *
| 48>
| 49>                          ****END OF INPUT****

CARTESIAN COORDINATES (ANGSTROEM)
---------------------------------
  C      2.569516   -2.090033   -3.153485
  C      1.827679   -1.384460   -2.037098
  O      2.810009   -0.837404   -1.134978
  P      2.408343    0.128804    0.063752
  S      1.306634    1.665442   -0.437906
  O      3.815670    0.561526    0.607246
  C      4.827278   -0.383671    1.053976
  C      4.980580   -0.306640    2.559349
  S      1.613035   -1.203747    1.542936
  C     -0.074758   -0.592672    1.648100
  S     -1.027614   -0.984032    0.144659
  P     -2.478933    0.569728    0.302515
  S     -1.959742    2.133035    1.358279
  O     -3.753541   -0.109588    0.929035
  C     -4.394207   -1.281596    0.362068
  C     -5.565252   -0.884847   -0.512781
  O     -2.929024    0.826176   -1.197250
  C     -2.032949    1.299921   -2.223906
  C     -1.760611    0.184304   -3.214764
  H      3.210832   -1.386474   -3.676443
  H      3.181648   -2.889442   -2.746814
  H      1.849598   -2.506892   -3.849749
  H      1.187884   -2.075312   -1.478805
  H      1.215562   -0.560474   -2.416538
  H      4.547000   -1.387709    0.731551
  H      5.740350   -0.073083    0.544127
  H      5.802084   -0.947000    2.864275
  H      5.192361    0.715859    2.859686
  H      4.069885   -0.637357    3.052635
  H     -0.078700    0.493469    1.775258
  H     -0.525448   -1.092061    2.502577
  H     -3.650782   -1.852747   -0.201448
  H     -4.722971   -1.856087    1.229776
  H     -5.222410   -0.292875   -1.356906
  H     -6.056020   -1.781976   -0.876967
  H     -6.274483   -0.294542    0.060850
  H     -2.548681    2.137583   -2.697052
  H     -1.109309    1.666570   -1.765596
  H     -1.293528   -0.659521   -2.711494
  H     -2.690537   -0.146159   -3.668181
  H     -1.094940    0.553678   -3.988062

 Total Charge           Charge          ....    0
 Multiplicity           Mult            ....    1
 Number of Electrons    NEL             ....  202
 Basis Dimension        Dim             ....  334

ORBITAL ENERGIES
----------------

  NO   OCC          E(Eh)            E(eV)
   0   2.0000     -88.046967     -2395.8798
   1   2.0000     -88.040527     -2395.7045
   2   2.0000     -87.983893     -2394.1634
   3   2.0000     -87.977435     -2393.9877
   4   2.0000     -76.426039     -2079.6583
   5   2.0000     -76.421769     -2079.5421
   6   2.0000     -18.794396      -511.4215
   7   2.0000     -18.792589      -511.3723
   8   2.0000     -18.790985      -511.3287
   9   2.0000     -18.787608      -511.2368
  10   2.0000      -9.961712      -271.0720
  11   2.0000      -9.955221      -270.8953
  12   2.0000      -9.953378      -270.8452
  13   2.0000      -9.952537      -270.8223
  14   2.0000      -9.951259      -270.7875
  15   2.0000      -9.890707      -269.1398
  16   2.0000      -9.889375      -269.1036
  17   2.0000      -9.889225      -269.0995
  18   2.0000      -9.885534      -268.9991
  19   2.0000      -7.691876      -209.3066
  20   2.0000      -7.685038      -209.1205
  21   2.0000      -7.628727      -207.5882
  22   2.0000      -7.622758      -207.4258
  23   2.0000      -6.423675      -174.7971
  24   2.0000      -6.419347      -174.6793
  25   2.0000      -5.719793      -155.6435
  26   2.0000      -5.716202      -155.5458
  27   2.0000      -5.712786      -155.4528
  28   2.0000      -5.709683      -155.3684
  29   2.0000      -5.709045      -155.3510
  30   2.0000      -5.702132      -155.1629
  31   2.0000      -5.657839      -153.9576
  32   2.0000      -5.651827      -153.7940
  33   2.0000      -5.649053      -153.7185
  34   2.0000      -5.648971      -153.7163
  35   2.0000      -5.643223      -153.5599
  36   2.0000      -5.642879      -153.5505
  37   2.0000      -4.646415      -126.4354
  38   2.0000      -4.645435      -126.4087
  39   2.0000      -4.643951      -126.3683
  40   2.0000      -4.642198      -126.3206
  41   2.0000      -4.641239      -126.2945
  42   2.0000      -4.639408      -126.2447
  43   2.0000      -0.989878       -26.9360
  44   2.0000      -0.986468       -26.8432
  45   2.0000      -0.945620       -25.7316
  46   2.0000      -0.943155       -25.6645
  47   2.0000      -0.761750       -20.7283
  48   2.0000      -0.722622       -19.6636
  49   2.0000      -0.714194       -19.4342
  50   2.0000      -0.694281       -18.8923
  51   2.0000      -0.691301       -18.8113
  52   2.0000      -0.676085       -18.3972
  53   2.0000      -0.647730       -17.6256
  54   2.0000      -0.632539       -17.2123
  55   2.0000      -0.592268       -16.1164
  56   2.0000      -0.585925       -15.9438
  57   2.0000      -0.575186       -15.6516
  58   2.0000      -0.572150       -15.5690
  59   2.0000      -0.564114       -15.3503
  60   2.0000      -0.513174       -13.9642
  61   2.0000      -0.501289       -13.6408
  62   2.0000      -0.482292       -13.1238
  63   2.0000      -0.479770       -13.0552
  64   2.0000      -0.453708       -12.3460
  65   2.0000      -0.449944       -12.2436
  66   2.0000      -0.440669       -11.9912
  67   2.0000      -0.439176       -11.9506
  68   2.0000      -0.435768       -11.8578
  69   2.0000      -0.418959       -11.4005
  70   2.0000      -0.409551       -11.1445
  71   2.0000      -0.394220       -10.7273
  72   2.0000      -0.389594       -10.6014
  73   2.0000      -0.386822       -10.5260
  74   2.0000      -0.384287       -10.4570
  75   2.0000      -0.369268       -10.0483
  76   2.0000      -0.364681        -9.9235
  77   2.0000      -0.357256        -9.7214
  78   2.0000      -0.356253        -9.6941
  79   2.0000      -0.354482        -9.6460
  80   2.0000      -0.353004        -9.6057
  81   2.0000      -0.350373        -9.5341
  82   2.0000      -0.346080        -9.4173
  83   2.0000      -0.341601        -9.2954
  84   2.0000      -0.335090        -9.1183
  85   2.0000      -0.318437        -8.6651
  86   2.0000      -0.311717        -8.4823
  87   2.0000      -0.304212        -8.2780
  88   2.0000      -0.299654        -8.1540
  89   2.0000      -0.292669        -7.9639
  90   2.0000      -0.288884        -7.8609
  91   2.0000      -0.277689        -7.5563
  92   2.0000      -0.274835        -7.4786
  93   2.0000      -0.262699        -7.1484
  94   2.0000      -0.257421        -7.0048
  95   2.0000      -0.238477        -6.4893
  96   2.0000      -0.220516        -6.0006
  97   2.0000      -0.208795        -5.6816
  98   2.0000      -0.196046        -5.3347
  99   2.0000      -0.194550        -5.2940
 100   2.0000      -0.187163        -5.0930
 101   0.0000      -0.046641        -1.2692
 102   0.0000      -0.032227        -0.8769
 103   0.0000      -0.013654        -0.3715
 104   0.0000       0.004871         0.1325
 105   0.0000       0.010337         0.2813

MULLIKEN ATOMIC CHARGES
-----------------------
   0 C :   -0.272660
   1 C :   -0.031614
   2 O :   -0.380653
   3 P :    0.596710
   4 S :   -0.290495
   5 O :   -0.352783
   6 C :   -0.022349
   7 C :   -0.286767
   8 S :   -0.132260
   9 C :   -0.326759
  10 S :   -0.143819
  11 P :    0.598177
  12 S :   -0.291688
  13 O :   -0.354811
  14 C :   -0.010653
  15 C :   -0.289545
  16 O :   -0.381777
  17 C :   -0.023647
  18 C :   -0.306051
  19 H :    0.119209
  20 H :    0.113735
  21 H :    0.110002
  22 H :    0.107065
  23 H :    0.113014
  24 H :    0.109297
  25 H :    0.115884
  26 H :    0.110644
  27 H :    0.124927
  28 H :    0.124122
  29 H :    0.212945
  30 H :    0.180767
  31 H :    0.096618
  32 H :    0.108699
  33 H :    0.122412
  34 H :    0.107368
  35 H :    0.120845
  36 H :    0.110380
  37 H :    0.140108
  38 H :    0.126529
  39 H :    0.113632
  40 H :    0.115239
Sum of atomic charges:    0.0000000

LOEWDIN ATOMIC CHARGES
----------------------
   0 C :   -0.349850
   1 C :   -0.124073
   2 O :   -0.252917
   3 P :    0.562604
   4 S :   -0.283773
   5 O :   -0.233785
   6 C :   -0.111782
   7 C :   -0.358965
   8 S :    0.062235
   9 C :   -0.478633
  10 S :    0.051508
  11 P :    0.563201
  12 S :   -0.291051
  13 O :   -0.238321
  14 C :   -0.115273
  15 C :   -0.359975
  16 O :   -0.244444
  17 C :   -0.118121
  18 C :   -0.360346
  19 H :    0.128531
  20 H :    0.125716
  21 H :    0.130044
  22 H :    0.101621
  23 H :    0.108409
  24 H :    0.108982
  25 H :    0.124157
  26 H :    0.130218
  27 H :    0.131769
  28 H :    0.122271
  29 H :    0.124929
  30 H :    0.135207
  31 H :    0.100565
  32 H :    0.120745
  33 H :    0.125577
  34 H :    0.128162
  35 H :    0.129467
  36 H :    0.121434
  37 H :    0.110325
  38 H :    0.117938
  39 H :    0.124190
  40 H :    0.131502

  Mayer bond orders larger than 0.100000
B(  0-C ,  1-C ) :   1.1576 B(  0-C , 19-H ) :   0.9502 B(  0-C , 20-H ) :   0.9508
B(  0-C , 21-H ) :   0.9423 B(  1-C ,  2-O ) :   0.9065 B(  1-C , 22-H ) :   0.9173
B(  1-C , 23-H ) :   0.9097 B(  2-O ,  3-P ) :   1.0816 B(  3-P ,  4-S ) :   1.6705
B(  3-P ,  5-O ) :   1.1562 B(  3-P ,  8-S ) :   0.9152 B(  4-S ,  8-S ) :   0.1149
B(  5-O ,  6-C ) :   0.8857 B(  6-C ,  7-C ) :   1.1639 B(  6-C , 24-H ) :   0.9192
B(  6-C , 25-H ) :   0.9343 B(  7-C , 26-H ) :   0.9393 B(  7-C , 27-H ) :   0.9459
B(  7-C , 28-H ) :   0.9396 B(  8-S ,  9-C ) :   1.0189 B(  9-C , 10-S ) :   0.9775
B(  9-C , 29-H ) :   0.8468 B(  9-C , 30-H ) :   0.9081 B( 10-S , 11-P ) :   0.9333
B( 10-S , 12-S ) :   0.1179 B( 11-P , 12-S ) :   1.6771 B( 11-P , 13-O ) :   1.1351
B( 11-P , 16-O ) :   1.0893 B( 13-O , 14-C ) :   0.8976 B( 14-C , 15-C ) :   1.1635
B( 14-C , 31-H ) :   0.9118 B( 14-C , 32-H ) :   0.9366 B( 15-C , 33-H ) :   0.9409
B( 15-C , 34-H ) :   0.9399 B( 15-C , 35-H ) :   0.9466 B( 16-O , 17-C ) :   0.8884
B( 17-C , 18-C ) :   1.1674 B( 17-C , 36-H ) :   0.9329 B( 17-C , 37-H ) :   0.8985
B( 18-C , 38-H ) :   0.9342 B( 18-C , 39-H ) :   0.9456 B( 18-C , 40-H ) :   0.9393

Dispersion correction           -0.063713931
FINAL SINGLE POINT ENERGY     -2929.514564742618

DIPOLE MOMENT
-------------

Method             : SCF
Type of density    : Electron Density
Multiplicity       :   1
Irrep              :   0
Energy             : -2929.6348411734811634 Eh
Relativity type    :
Basis              : AO
                                X                 Y                 Z
Electronic contribution:     -0.385905325      12.602695189      14.295723894
Nuclear contribution   :      0.748487333     -14.617248161     -15.250152529
                        -----------------------------------------
Total Dipole Moment    :      0.362582008      -2.014552972      -0.954428635
                        -----------------------------------------
Magnitude (a.u.)       :      2.258500257
Magnitude (Debye)      :      5.740651435

Rotational constants in cm-1:             0.012804             0.004668             0.004260
Rotational constants in MHz :           383.859582           139.930494           127.697023

                             ****ORCA TERMINATED NORMALLY****
TOTAL RUN TIME: 0 days 0 hours 0 minutes 20 seconds 783 msec
