                         Program Version 6.0.0  -   RELEASE  -
|  1> ! pbe def2-sv(p) def2/J RI DEFGRID1 loosescf d4 GCP(DFT/SV(P)) printgap
|  2> %output
|  3>     printlevel normal
|  4> end
|  5> * xyz 0 1
|  6> C 1.5586115696 -3.0842489444 0.3104107012
|  7> C 1.8724512972 -1.9865143967 1.3068148447
|  8> O 2.9450984402 -1.1352726995 0.8700168866
|  9> P 2.852072443 -0.0572570248 -0.2962264189
| 10> S 2.8168012205 -0.743213078 -2.1317110678
| 11> O 4.1636341286 0.7795486881 -0.0739418082
| 12> C 4.4093923292 1.7629798929 0.9625875088
| 13> C 4.1128422418 1.2549124515 2.3566029108
| 14> S 1.2319028071 1.2312297463 0.2423828451
| 15> C 0.0741368539 0.7827958788 -1.071114171
| 16> S -0.9821186463 -0.6230818221 -0.647262187
| 17> P -2.842458005 0.3772209446 -0.2944349778
| 18> S -2.8279758259 2.3030763665 -0.6558768436
| 19> O -3.3223940145 -0.0370637586 1.1656342418
| 20> C -2.9615570337 0.7019953085 2.3448075436
| 21> C -1.5179818368 0.4709357281 2.7421775311
| 22> O -3.8848943474 -0.3792158479 -1.2046491583
| 23> C -4.5002202288 -1.6535698416 -0.8939514734
| 24> C -3.4852019375 -2.7645549518 -0.7323164229
| 25> H 2.4612732443 -3.6369344178 0.0633482525
| 26> H 0.8276645217 -3.7609202282 0.7405220342
| 27> H 1.1490975417 -2.6611599658 -0.6050778908
| 28> H 2.239434643 -2.3993372946 2.2481980439
| 29> H 0.9877330543 -1.3699190814 1.4921066555
| 30> H 5.4681353702 1.9940095895 0.8348958489
| 31> H 3.8078707962 2.6465370277 0.7344716139
| 32> H 4.4330971286 2.0015430899 3.0769050814
| 33> H 3.0447994531 1.0853150913 2.4772062861
| 34> H 4.6457229903 0.3257554207 2.5400226396
| 35> H 0.6500643435 0.5067807617 -1.956506779
| 36> H -0.5587368005 1.6536468457 -1.2561940074
| 37> H -3.1485542677 1.7648218701 2.1615596631
| 38> H -3.6505311746 0.3304314829 3.1050015431
| 39> H -0.8492372108 0.9214386357 2.0099330804
| 40> H -1.3349513419 0.933565051 3.7065363429
| 41> H -1.3128574148 -0.5944508162 2.8098080295
| 42> H -5.0941046036 -1.5313027414 0.0137597862
| 43> H -5.1564925604 -1.8267422236 -1.7481165699
| 44> H -4.0081174519 -3.7014001724 -0.5670979625
| 45> H -2.8680645375 -2.851353376 -1.6229698193
| 46> H -2.8401515231 -2.5621789037 0.1208747953
| 47> *
| 48>
| 49>                          ****END OF INPUT****

CARTESIAN COORDINATES (ANGSTROEM)
---------------------------------
  C      1.558612   -3.084249    0.310411
  C      1.872451   -1.986514    1.306815
  O      2.945098   -1.135273    0.870017
  P      2.852072   -0.057257   -0.296226
  S      2.816801   -0.743213   -2.131711
  O      4.163634    0.779549   -0.073942
  C      4.409392    1.762980    0.962588
  C      4.112842    1.254912    2.356603
  S      1.231903    1.231230    0.242383
  C      0.074137    0.782796   -1.071114
  S     -0.982119   -0.623082   -0.647262
  P     -2.842458    0.377221   -0.294435
  S     -2.827976    2.303076   -0.655877
  O     -3.322394   -0.037064    1.165634
  C     -2.961557    0.701995    2.344808
  C     -1.517982    0.470936    2.742178
  O     -3.884894   -0.379216   -1.204649
  C     -4.500220   -1.653570   -0.893951
  C     -3.485202   -2.764555   -0.732316
  H      2.461273   -3.636934    0.063348
  H      0.827665   -3.760920    0.740522
  H      1.149098   -2.661160   -0.605078
  H      2.239435   -2.399337    2.248198
  H      0.987733   -1.369919    1.492107
  H      5.468135    1.994010    0.834896
  H      3.807871    2.646537    0.734472
  H      4.433097    2.001543    3.076905
  H      3.044799    1.085315    2.477206
  H      4.645723    0.325755    2.540023
  H      0.650064    0.506781   -1.956507
  H     -0.558737    1.653647   -1.256194
  H     -3.148554    1.764822    2.161560
  H     -3.650531    0.330431    3.105002
  H     -0.849237    0.921439    2.009933
  H     -1.334951    0.933565    3.706536
  H     -1.312857   -0.594451    2.809808
  H     -5.094105   -1.531303    0.013760
  H     -5.156493   -1.826742   -1.748117
  H     -4.008117   -3.701400   -0.567098
  H     -2.868065   -2.851353   -1.622970
  H     -2.840152   -2.562179    0.120875

 Total Charge           Charge          ....    0
 Multiplicity           Mult            ....    1
 Number of Electrons    NEL             ....  202
 Basis Dimension        Dim             ....  334

ORBITAL ENERGIES
----------------

  NO   OCC          E(Eh)            E(eV)
   0   2.0000     -88.047934     -2395.9061
   1   2.0000     -88.045821     -2395.8486
   2   2.0000     -87.992364     -2394.3940
   3   2.0000     -87.984087     -2394.1687
   4   2.0000     -76.431804     -2079.8151
   5   2.0000     -76.427315     -2079.6930
   6   2.0000     -18.799915      -511.5717
   7   2.0000     -18.794836      -511.4335
   8   2.0000     -18.792528      -511.3707
   9   2.0000     -18.791040      -511.3302
  10   2.0000      -9.962202      -271.0853
  11   2.0000      -9.961142      -271.0564
  12   2.0000      -9.959090      -271.0006
  13   2.0000      -9.954914      -270.8870
  14   2.0000      -9.948983      -270.7256
  15   2.0000      -9.895321      -269.2654
  16   2.0000      -9.893602      -269.2186
  17   2.0000      -9.889446      -269.1055
  18   2.0000      -9.880358      -268.8582
  19   2.0000      -7.692013      -209.3103
  20   2.0000      -7.690116      -209.2587
  21   2.0000      -7.637429      -207.8250
  22   2.0000      -7.629218      -207.6016
  23   2.0000      -6.429351      -174.9515
  24   2.0000      -6.424620      -174.8228
  25   2.0000      -5.719735      -155.6419
  26   2.0000      -5.717990      -155.5944
  27   2.0000      -5.716449      -155.5525
  28   2.0000      -5.714591      -155.5019
  29   2.0000      -5.709410      -155.3610
  30   2.0000      -5.707276      -155.3029
  31   2.0000      -5.666373      -154.1898
  32   2.0000      -5.658341      -153.9713
  33   2.0000      -5.657897      -153.9592
  34   2.0000      -5.657687      -153.9535
  35   2.0000      -5.649951      -153.7430
  36   2.0000      -5.649029      -153.7179
  37   2.0000      -4.652272      -126.5948
  38   2.0000      -4.650750      -126.5533
  39   2.0000      -4.649832      -126.5284
  40   2.0000      -4.647275      -126.4588
  41   2.0000      -4.646661      -126.4421
  42   2.0000      -4.644770      -126.3906
  43   2.0000      -0.994005       -27.0482
  44   2.0000      -0.987577       -26.8733
  45   2.0000      -0.949598       -25.8399
  46   2.0000      -0.945636       -25.7321
  47   2.0000      -0.762932       -20.7604
  48   2.0000      -0.725639       -19.7456
  49   2.0000      -0.716678       -19.5018
  50   2.0000      -0.697413       -18.9776
  51   2.0000      -0.692927       -18.8555
  52   2.0000      -0.681373       -18.5411
  53   2.0000      -0.653087       -17.7714
  54   2.0000      -0.639889       -17.4123
  55   2.0000      -0.604656       -16.4535
  56   2.0000      -0.594577       -16.1793
  57   2.0000      -0.585580       -15.9344
  58   2.0000      -0.577613       -15.7176
  59   2.0000      -0.562397       -15.3036
  60   2.0000      -0.503168       -13.6919
  61   2.0000      -0.495840       -13.4925
  62   2.0000      -0.477294       -12.9878
  63   2.0000      -0.476205       -12.9582
  64   2.0000      -0.461335       -12.5536
  65   2.0000      -0.454629       -12.3711
  66   2.0000      -0.448861       -12.2141
  67   2.0000      -0.439536       -11.9604
  68   2.0000      -0.433439       -11.7945
  69   2.0000      -0.428275       -11.6540
  70   2.0000      -0.406186       -11.0529
  71   2.0000      -0.404413       -11.0046
  72   2.0000      -0.403696       -10.9851
  73   2.0000      -0.400587       -10.9005
  74   2.0000      -0.383134       -10.4256
  75   2.0000      -0.377346       -10.2681
  76   2.0000      -0.363045        -9.8790
  77   2.0000      -0.360100        -9.7988
  78   2.0000      -0.358287        -9.7495
  79   2.0000      -0.355906        -9.6847
  80   2.0000      -0.355438        -9.6720
  81   2.0000      -0.348795        -9.4912
  82   2.0000      -0.347216        -9.4482
  83   2.0000      -0.345041        -9.3890
  84   2.0000      -0.336596        -9.1593
  85   2.0000      -0.321370        -8.7449
  86   2.0000      -0.313547        -8.5321
  87   2.0000      -0.303402        -8.2560
  88   2.0000      -0.301229        -8.1969
  89   2.0000      -0.295036        -8.0283
  90   2.0000      -0.288840        -7.8597
  91   2.0000      -0.279851        -7.6151
  92   2.0000      -0.278087        -7.5671
  93   2.0000      -0.264908        -7.2085
  94   2.0000      -0.262320        -7.1381
  95   2.0000      -0.235675        -6.4130
  96   2.0000      -0.223064        -6.0699
  97   2.0000      -0.213003        -5.7961
  98   2.0000      -0.207481        -5.6458
  99   2.0000      -0.203585        -5.5398
 100   2.0000      -0.195786        -5.3276
 101   0.0000      -0.047473        -1.2918
 102   0.0000      -0.037736        -1.0268
 103   0.0000      -0.017518        -0.4767
 104   0.0000       0.003523         0.0959
 105   0.0000       0.005152         0.1402

MULLIKEN ATOMIC CHARGES
-----------------------
   0 C :   -0.301747
   1 C :   -0.032670
   2 O :   -0.369045
   3 P :    0.600421
   4 S :   -0.301611
   5 O :   -0.358670
   6 C :   -0.003373
   7 C :   -0.318523
   8 S :   -0.133377
   9 C :   -0.335437
  10 S :   -0.119573
  11 P :    0.616053
  12 S :   -0.304841
  13 O :   -0.385810
  14 C :    0.001685
  15 C :   -0.334431
  16 O :   -0.361438
  17 C :    0.009202
  18 C :   -0.338754
  19 H :    0.119751
  20 H :    0.103789
  21 H :    0.132444
  22 H :    0.103240
  23 H :    0.120947
  24 H :    0.115152
  25 H :    0.116277
  26 H :    0.116911
  27 H :    0.123142
  28 H :    0.127910
  29 H :    0.198568
  30 H :    0.195256
  31 H :    0.114254
  32 H :    0.104030
  33 H :    0.139911
  34 H :    0.112251
  35 H :    0.120646
  36 H :    0.110527
  37 H :    0.114683
  38 H :    0.119218
  39 H :    0.135778
  40 H :    0.127252
Sum of atomic charges:    0.0000000

LOEWDIN ATOMIC CHARGES
----------------------
   0 C :   -0.367467
   1 C :   -0.121695
   2 O :   -0.241938
   3 P :    0.565573
   4 S :   -0.296218
   5 O :   -0.233518
   6 C :   -0.110902
   7 C :   -0.368094
   8 S :    0.075808
   9 C :   -0.492210
  10 S :    0.084643
  11 P :    0.572710
  12 S :   -0.295254
  13 O :   -0.248414
  14 C :   -0.116936
  15 C :   -0.371587
  16 O :   -0.238379
  17 C :   -0.107309
  18 C :   -0.372793
  19 H :    0.128943
  20 H :    0.127140
  21 H :    0.115707
  22 H :    0.118040
  23 H :    0.101590
  24 H :    0.125163
  25 H :    0.113219
  26 H :    0.132974
  27 H :    0.117495
  28 H :    0.131132
  29 H :    0.127382
  30 H :    0.126214
  31 H :    0.112285
  32 H :    0.118108
  33 H :    0.112516
  34 H :    0.131444
  35 H :    0.122877
  36 H :    0.115155
  37 H :    0.124841
  38 H :    0.134483
  39 H :    0.130724
  40 H :    0.116547

  Mayer bond orders larger than 0.100000
B(  0-C ,  1-C ) :   1.1662 B(  0-C , 19-H ) :   0.9443 B(  0-C , 20-H ) :   0.9374
B(  0-C , 21-H ) :   0.9271 B(  1-C ,  2-O ) :   0.9160 B(  1-C , 22-H ) :   0.9345
B(  1-C , 23-H ) :   0.9054 B(  2-O ,  3-P ) :   1.0863 B(  3-P ,  4-S ) :   1.6473
B(  3-P ,  5-O ) :   1.1503 B(  3-P ,  8-S ) :   0.9305 B(  4-S ,  8-S ) :   0.1122
B(  4-S , 29-H ) :   0.1079 B(  5-O ,  6-C ) :   0.9028 B(  6-C ,  7-C ) :   1.1670
B(  6-C , 24-H ) :   0.9347 B(  6-C , 25-H ) :   0.9255 B(  7-C , 26-H ) :   0.9344
B(  7-C , 27-H ) :   0.9395 B(  7-C , 28-H ) :   0.9417 B(  8-S ,  9-C ) :   1.0104
B(  9-C , 10-S ) :   1.0155 B(  9-C , 29-H ) :   0.8537 B(  9-C , 30-H ) :   0.8457
B( 10-S , 11-P ) :   0.9445 B( 10-S , 12-S ) :   0.1161 B( 11-P , 12-S ) :   1.6346
B( 11-P , 13-O ) :   1.0675 B( 11-P , 16-O ) :   1.1426 B( 12-S , 30-H ) :   0.1188
B( 13-O , 14-C ) :   0.9102 B( 14-C , 15-C ) :   1.1627 B( 14-C , 31-H ) :   0.9141
B( 14-C , 32-H ) :   0.9336 B( 15-C , 33-H ) :   0.9264 B( 15-C , 34-H ) :   0.9364
B( 15-C , 35-H ) :   0.9406 B( 16-O , 17-C ) :   0.9000 B( 17-C , 18-C ) :   1.1691
B( 17-C , 36-H ) :   0.9280 B( 17-C , 37-H ) :   0.9333 B( 18-C , 38-H ) :   0.9351
B( 18-C , 39-H ) :   0.9403 B( 18-C , 40-H ) :   0.9328

Dispersion correction           -0.064576234
FINAL SINGLE POINT ENERGY     -2929.513150915369

DIPOLE MOMENT
-------------

Method             : SCF
Type of density    : Electron Density
Multiplicity       :   1
Irrep              :   0
Energy             : -2929.6348248261247136 Eh
Relativity type    :
Basis              : AO
                                X                 Y                 Z
Electronic contribution:      0.579940358      11.508094164     -17.613094865
Nuclear contribution   :     -1.055425128     -12.304747614      19.750562712
                        -----------------------------------------
Total Dipole Moment    :     -0.475484770      -0.796653450       2.137467847
                        -----------------------------------------
Magnitude (a.u.)       :      2.330131173
Magnitude (Debye)      :      5.922722756

Rotational constants in cm-1:             0.012535             0.004519             0.004223
Rotational constants in MHz :           375.781901           135.481516           126.608502

                             ****ORCA TERMINATED NORMALLY****
TOTAL RUN TIME: 0 days 0 hours 0 minutes 21 seconds 194 msec
