                         Program Version 6.0.0  -   RELEASE  -
|  1> ! pbe def2-sv(p) def2/J RI DEFGRID1 loosescf d4 GCP(DFT/SV(P)) printgap
|  2> %output
|  3>     printlevel normal
|  4> end
|  5> * xyz 0 1
|  6> C 3.8487453169 -0.2678989757 -2.8033522904
|  7> C 4.3701069385 -0.8591809571 -1.5083313469
|  8> O 3.3164854467 -1.0608625146 -0.5504246989
|  9> P 2.6588811109 0.1581515696 0.2193445374
| 10> S 3.8288071168 1.6753584082 0.6178402242
| 11> O 2.1040982925 -0.7019824937 1.4308345421
| 12> C 1.4307169536 -0.0719394533 2.5381549062
| 13> C 2.3946520537 0.1750969335 3.681589221
| 14> S 0.9112180026 0.6774191074 -0.8927456674
| 15> C 0.1925025929 -0.9934304506 -0.9942913474
| 16> S -1.0397689771 -1.3129494625 0.2878917686
| 17> P -2.4992818484 0.0616892222 -0.4499335059
| 18> S -2.5781848212 0.2747897225 -2.3904119022
| 19> O -2.1801528545 1.4237621957 0.2807110578
| 20> C -2.1216301801 1.5751175987 1.7195482629
| 21> C -3.4468028025 2.0589921253 2.2715950055
| 22> O -3.845804626 -0.4068149988 0.2540680194
| 23> C -4.7226701791 -1.3870670807 -0.331877312
| 24> C -4.0791391194 -2.754686977 -0.4302807872
| 25> H 3.057377368 -0.888419248 -3.2164769527
| 26> H 3.4543360668 0.7320227841 -2.6232503739
| 27> H 4.6609605767 -0.2002343801 -3.519979514
| 28> H 5.1260596449 -0.2036150755 -1.0641581744
| 29> H 4.7858898128 -1.856557925 -1.6580582945
| 30> H 0.9787731505 0.8676653202 2.2013843808
| 31> H 0.6451212519 -0.7759661607 2.8215112153
| 32> H 2.8642152218 -0.7580791267 3.9784072589
| 33> H 3.169055235 0.874876504 3.3744996763
| 34> H 1.8528037717 0.5917352311 4.5244164911
| 35> H 0.97817205 -1.7362430022 -0.8778958923
| 36> H -0.2894343046 -1.0612226515 -1.9696450609
| 37> H -1.8348776052 0.6182003794 2.1654857674
| 38> H -1.3327027185 2.3129420813 1.8813308975
| 39> H -4.2190200512 1.3122375716 2.1093497652
| 40> H -3.3402375769 2.2404588686 3.3365676939
| 41> H -3.7405186903 2.981402214 1.7781805508
| 42> H -5.5854293064 -1.3953711033 0.335629541
| 43> H -5.0214614057 -1.0310602916 -1.3223662369
| 44> H -3.677028686 -3.056316857 0.5336212908
| 45> H -4.8228371338 -3.4761965594 -0.7530406199
| 46> H -3.2709681956 -2.734070815 -1.1597561791
| 47> *
| 48>
| 49>                          ****END OF INPUT****

CARTESIAN COORDINATES (ANGSTROEM)
---------------------------------
  C      3.848745   -0.267899   -2.803352
  C      4.370107   -0.859181   -1.508331
  O      3.316485   -1.060863   -0.550425
  P      2.658881    0.158152    0.219345
  S      3.828807    1.675358    0.617840
  O      2.104098   -0.701982    1.430835
  C      1.430717   -0.071939    2.538155
  C      2.394652    0.175097    3.681589
  S      0.911218    0.677419   -0.892746
  C      0.192503   -0.993430   -0.994291
  S     -1.039769   -1.312949    0.287892
  P     -2.499282    0.061689   -0.449934
  S     -2.578185    0.274790   -2.390412
  O     -2.180153    1.423762    0.280711
  C     -2.121630    1.575118    1.719548
  C     -3.446803    2.058992    2.271595
  O     -3.845805   -0.406815    0.254068
  C     -4.722670   -1.387067   -0.331877
  C     -4.079139   -2.754687   -0.430281
  H      3.057377   -0.888419   -3.216477
  H      3.454336    0.732023   -2.623250
  H      4.660961   -0.200234   -3.519980
  H      5.126060   -0.203615   -1.064158
  H      4.785890   -1.856558   -1.658058
  H      0.978773    0.867665    2.201384
  H      0.645121   -0.775966    2.821511
  H      2.864215   -0.758079    3.978407
  H      3.169055    0.874877    3.374500
  H      1.852804    0.591735    4.524416
  H      0.978172   -1.736243   -0.877896
  H     -0.289434   -1.061223   -1.969645
  H     -1.834878    0.618200    2.165486
  H     -1.332703    2.312942    1.881331
  H     -4.219020    1.312238    2.109350
  H     -3.340238    2.240459    3.336568
  H     -3.740519    2.981402    1.778181
  H     -5.585429   -1.395371    0.335630
  H     -5.021461   -1.031060   -1.322366
  H     -3.677029   -3.056317    0.533621
  H     -4.822837   -3.476197   -0.753041
  H     -3.270968   -2.734071   -1.159756

 Total Charge           Charge          ....    0
 Multiplicity           Mult            ....    1
 Number of Electrons    NEL             ....  202
 Basis Dimension        Dim             ....  334

ORBITAL ENERGIES
----------------

  NO   OCC          E(Eh)            E(eV)
   0   2.0000     -88.047303     -2395.8889
   1   2.0000     -88.041584     -2395.7333
   2   2.0000     -87.992661     -2394.4020
   3   2.0000     -87.989165     -2394.3069
   4   2.0000     -76.431926     -2079.8185
   5   2.0000     -76.427011     -2079.6847
   6   2.0000     -18.801841      -511.6241
   7   2.0000     -18.796130      -511.4687
   8   2.0000     -18.794413      -511.4220
   9   2.0000     -18.791667      -511.3473
  10   2.0000      -9.960441      -271.0374
  11   2.0000      -9.959739      -271.0183
  12   2.0000      -9.956014      -270.9169
  13   2.0000      -9.954714      -270.8816
  14   2.0000      -9.953534      -270.8494
  15   2.0000      -9.889698      -269.1124
  16   2.0000      -9.889464      -269.1060
  17   2.0000      -9.884060      -268.9589
  18   2.0000      -9.881452      -268.8880
  19   2.0000      -7.692037      -209.3110
  20   2.0000      -7.686162      -209.1511
  21   2.0000      -7.637913      -207.8382
  22   2.0000      -7.634318      -207.7404
  23   2.0000      -6.429476      -174.9549
  24   2.0000      -6.424533      -174.8204
  25   2.0000      -5.719697      -155.6409
  26   2.0000      -5.716647      -155.5579
  27   2.0000      -5.714244      -155.4925
  28   2.0000      -5.710542      -155.3917
  29   2.0000      -5.709164      -155.3542
  30   2.0000      -5.703196      -155.1919
  31   2.0000      -5.666882      -154.2037
  32   2.0000      -5.663263      -154.1052
  33   2.0000      -5.658391      -153.9726
  34   2.0000      -5.658135      -153.9657
  35   2.0000      -5.654964      -153.8794
  36   2.0000      -5.654443      -153.8652
  37   2.0000      -4.652377      -126.5976
  38   2.0000      -4.651121      -126.5634
  39   2.0000      -4.649751      -126.5262
  40   2.0000      -4.646886      -126.4482
  41   2.0000      -4.646792      -126.4456
  42   2.0000      -4.644728      -126.3895
  43   2.0000      -0.994214       -27.0539
  44   2.0000      -0.991757       -26.9871
  45   2.0000      -0.951386       -25.8885
  46   2.0000      -0.947880       -25.7931
  47   2.0000      -0.764461       -20.8021
  48   2.0000      -0.723659       -19.6918
  49   2.0000      -0.713465       -19.4144
  50   2.0000      -0.695895       -18.9363
  51   2.0000      -0.683838       -18.6082
  52   2.0000      -0.678873       -18.4731
  53   2.0000      -0.657334       -17.8870
  54   2.0000      -0.641573       -17.4581
  55   2.0000      -0.601057       -16.3556
  56   2.0000      -0.596697       -16.2370
  57   2.0000      -0.580577       -15.7983
  58   2.0000      -0.568542       -15.4708
  59   2.0000      -0.562913       -15.3176
  60   2.0000      -0.506015       -13.7694
  61   2.0000      -0.501957       -13.6589
  62   2.0000      -0.480630       -13.0786
  63   2.0000      -0.473935       -12.8964
  64   2.0000      -0.459854       -12.5133
  65   2.0000      -0.452938       -12.3251
  66   2.0000      -0.446864       -12.1598
  67   2.0000      -0.435782       -11.8582
  68   2.0000      -0.430749       -11.7213
  69   2.0000      -0.424104       -11.5405
  70   2.0000      -0.411473       -11.1968
  71   2.0000      -0.399995       -10.8844
  72   2.0000      -0.395691       -10.7673
  73   2.0000      -0.389992       -10.6122
  74   2.0000      -0.383937       -10.4474
  75   2.0000      -0.376368       -10.2415
  76   2.0000      -0.368871       -10.0375
  77   2.0000      -0.362313        -9.8590
  78   2.0000      -0.357563        -9.7298
  79   2.0000      -0.356251        -9.6941
  80   2.0000      -0.351482        -9.5643
  81   2.0000      -0.349118        -9.5000
  82   2.0000      -0.345970        -9.4143
  83   2.0000      -0.336714        -9.1625
  84   2.0000      -0.330485        -8.9929
  85   2.0000      -0.327605        -8.9146
  86   2.0000      -0.319851        -8.7036
  87   2.0000      -0.302806        -8.2398
  88   2.0000      -0.300883        -8.1874
  89   2.0000      -0.297707        -8.1010
  90   2.0000      -0.291825        -7.9410
  91   2.0000      -0.276667        -7.5285
  92   2.0000      -0.272037        -7.4025
  93   2.0000      -0.268104        -7.2955
  94   2.0000      -0.258243        -7.0272
  95   2.0000      -0.237481        -6.4622
  96   2.0000      -0.222046        -6.0422
  97   2.0000      -0.212766        -5.7897
  98   2.0000      -0.209412        -5.6984
  99   2.0000      -0.206937        -5.6310
 100   2.0000      -0.202252        -5.5036
 101   0.0000      -0.043858        -1.1934
 102   0.0000      -0.028966        -0.7882
 103   0.0000      -0.013289        -0.3616
 104   0.0000       0.002280         0.0620
 105   0.0000       0.004768         0.1297

MULLIKEN ATOMIC CHARGES
-----------------------
   0 C :   -0.312121
   1 C :   -0.006345
   2 O :   -0.364335
   3 P :    0.559912
   4 S :   -0.314984
   5 O :   -0.362453
   6 C :   -0.035695
   7 C :   -0.277141
   8 S :   -0.054980
   9 C :   -0.367380
  10 S :   -0.096917
  11 P :    0.599482
  12 S :   -0.304601
  13 O :   -0.347602
  14 C :   -0.031509
  15 C :   -0.282575
  16 O :   -0.382601
  17 C :   -0.001251
  18 C :   -0.317377
  19 H :    0.114436
  20 H :    0.131147
  21 H :    0.113612
  22 H :    0.115188
  23 H :    0.107069
  24 H :    0.109762
  25 H :    0.112750
  26 H :    0.113683
  27 H :    0.127626
  28 H :    0.103514
  29 H :    0.193652
  30 H :    0.195499
  31 H :    0.102806
  32 H :    0.123046
  33 H :    0.121553
  34 H :    0.109236
  35 H :    0.122253
  36 H :    0.106512
  37 H :    0.115690
  38 H :    0.117715
  39 H :    0.115837
  40 H :    0.127887
Sum of atomic charges:    0.0000000

LOEWDIN ATOMIC CHARGES
----------------------
   0 C :   -0.366384
   1 C :   -0.119305
   2 O :   -0.236979
   3 P :    0.563597
   4 S :   -0.316772
   5 O :   -0.240207
   6 C :   -0.124352
   7 C :   -0.361264
   8 S :    0.086521
   9 C :   -0.486346
  10 S :    0.081154
  11 P :    0.570910
  12 S :   -0.300503
  13 O :   -0.232093
  14 C :   -0.116253
  15 C :   -0.359136
  16 O :   -0.247486
  17 C :   -0.115904
  18 C :   -0.371081
  19 H :    0.124125
  20 H :    0.123991
  21 H :    0.131344
  22 H :    0.111542
  23 H :    0.119154
  24 H :    0.105662
  25 H :    0.112471
  26 H :    0.126256
  27 H :    0.125361
  28 H :    0.127085
  29 H :    0.134636
  30 H :    0.128923
  31 H :    0.102105
  32 H :    0.122460
  33 H :    0.125987
  34 H :    0.129590
  35 H :    0.130308
  36 H :    0.119140
  37 H :    0.114478
  38 H :    0.123280
  39 H :    0.132525
  40 H :    0.121459

  Mayer bond orders larger than 0.100000
B(  0-C ,  1-C ) :   1.1628 B(  0-C , 19-H ) :   0.9473 B(  0-C , 20-H ) :   0.9364
B(  0-C , 21-H ) :   0.9389 B(  1-C ,  2-O ) :   0.9065 B(  1-C , 22-H ) :   0.9133
B(  1-C , 23-H ) :   0.9342 B(  2-O ,  3-P ) :   1.0936 B(  3-P ,  4-S ) :   1.6448
B(  3-P ,  5-O ) :   1.1014 B(  3-P ,  8-S ) :   0.9825 B(  5-O ,  6-C ) :   0.9046
B(  6-C ,  7-C ) :   1.1613 B(  6-C , 24-H ) :   0.9061 B(  6-C , 25-H ) :   0.9281
B(  7-C , 26-H ) :   0.9469 B(  7-C , 27-H ) :   0.9328 B(  7-C , 28-H ) :   0.9400
B(  8-S ,  9-C ) :   0.9776 B(  9-C , 10-S ) :   1.0011 B(  9-C , 29-H ) :   0.8858
B(  9-C , 30-H ) :   0.8732 B( 10-S , 11-P ) :   0.9446 B( 10-S , 12-S ) :   0.1101
B( 11-P , 12-S ) :   1.6373 B( 11-P , 13-O ) :   1.1428 B( 11-P , 16-O ) :   1.0841
B( 13-O , 14-C ) :   0.8958 B( 14-C , 15-C ) :   1.1605 B( 14-C , 31-H ) :   0.9108
B( 14-C , 32-H ) :   0.9298 B( 15-C , 33-H ) :   0.9408 B( 15-C , 34-H ) :   0.9397
B( 15-C , 35-H ) :   0.9461 B( 16-O , 17-C ) :   0.9031 B( 17-C , 18-C ) :   1.1666
B( 17-C , 36-H ) :   0.9339 B( 17-C , 37-H ) :   0.9194 B( 18-C , 38-H ) :   0.9433
B( 18-C , 39-H ) :   0.9365 B( 18-C , 40-H ) :   0.9346

Dispersion correction           -0.064258190
FINAL SINGLE POINT ENERGY     -2929.522559952775

DIPOLE MOMENT
-------------

Method             : SCF
Type of density    : Electron Density
Multiplicity       :   1
Irrep              :   0
Energy             : -2929.6435046291044273 Eh
Relativity type    :
Basis              : AO
                                X                 Y                 Z
Electronic contribution:      4.588153724       5.318941530      -9.583171067
Nuclear contribution   :     -5.401927785      -6.476691220      10.499140350
                        -----------------------------------------
Total Dipole Moment    :     -0.813774061      -1.157749690       0.915969283
                        -----------------------------------------
Magnitude (a.u.)       :      1.685708247
Magnitude (Debye)      :      4.284729851

Rotational constants in cm-1:             0.012345             0.004676             0.004110
Rotational constants in MHz :           370.105861           140.173765           123.211046

                             ****ORCA TERMINATED NORMALLY****
TOTAL RUN TIME: 0 days 0 hours 0 minutes 21 seconds 211 msec
