                         Program Version 6.0.0  -   RELEASE  -
|  1> ! r2scan-3c def2/J RI DEFGRID2 scfconv6 printgap
|  2> %output
|  3>     printlevel normal
|  4> end
|  5> * xyz 0 1
|  6> C -2.492809543 0.7999557943 -0.0049065745
|  7> C -1.2012181002 0.0380908688 -0.0001281304
|  8> C -1.2314503023 -1.3473233244 -0.001164567
|  9> C -0.0565082598 -2.077043939 0.0020507357
| 10> C 1.1505595509 -1.411014007 0.0027381164
| 11> C 1.2133048316 -0.0191494995 0.0023577924
| 12> C 0.0269929804 0.7167168515 0.0049463957
| 13> C -0.0097559793 2.2180497077 0.0055285961
| 14> C 2.5924255009 0.5811385666 -0.0080833042
| 15> H -2.5865946688 1.4057082098 0.8955958397
| 16> H -2.5444520506 1.4689628764 -0.8623224305
| 17> H -3.3365066032 0.1162337611 -0.0479291023
| 18> H -2.1828727652 -1.8601589011 -0.0044818819
| 19> H -0.0848686946 -3.1568536212 0.002632145
| 20> H 2.0735643575 -1.9736466127 0.0022130874
| 21> H 0.975271739 2.6608823264 0.0914807221
| 22> H -0.4647495576 2.5797085182 -0.9161002618
| 23> H -0.6144918957 2.576675952 0.8367246781
| 24> H 3.1563753859 0.2156803916 0.8489172849
| 25> H 3.1178753072 0.2679345888 -0.9093189726
| 26> H 2.5922579606 1.6642005601 0.0227977884
| 27> *
| 28>
| 29>                          ****END OF INPUT****

CARTESIAN COORDINATES (ANGSTROEM)
---------------------------------
  C     -2.492810    0.799956   -0.004907
  C     -1.201218    0.038091   -0.000128
  C     -1.231450   -1.347323   -0.001165
  C     -0.056508   -2.077044    0.002051
  C      1.150560   -1.411014    0.002738
  C      1.213305   -0.019149    0.002358
  C      0.026993    0.716717    0.004946
  C     -0.009756    2.218050    0.005529
  C      2.592426    0.581139   -0.008083
  H     -2.586595    1.405708    0.895596
  H     -2.544452    1.468963   -0.862322
  H     -3.336507    0.116234   -0.047929
  H     -2.182873   -1.860159   -0.004482
  H     -0.084869   -3.156854    0.002632
  H      2.073564   -1.973647    0.002213
  H      0.975272    2.660882    0.091481
  H     -0.464750    2.579709   -0.916100
  H     -0.614492    2.576676    0.836725
  H      3.156375    0.215680    0.848917
  H      3.117875    0.267935   -0.909319
  H      2.592258    1.664201    0.022798

 Total Charge           Charge          ....    0
 Multiplicity           Mult            ....    1
 Number of Electrons    NEL             ....   66
 Basis Dimension        Dim             ....  231

ORBITAL ENERGIES
----------------

  NO   OCC          E(Eh)            E(eV)
   0   2.0000     -10.036575      -273.1091
   1   2.0000     -10.035863      -273.0897
   2   2.0000     -10.034533      -273.0535
   3   2.0000     -10.024642      -272.7844
   4   2.0000     -10.024132      -272.7705
   5   2.0000     -10.023691      -272.7585
   6   2.0000     -10.022276      -272.7200
   7   2.0000     -10.019956      -272.6569
   8   2.0000     -10.019538      -272.6455
   9   2.0000      -0.827614       -22.5205
  10   2.0000      -0.748848       -20.3772
  11   2.0000      -0.740315       -20.1450
  12   2.0000      -0.682565       -18.5735
  13   2.0000      -0.641586       -17.4584
  14   2.0000      -0.635523       -17.2935
  15   2.0000      -0.540429       -14.7058
  16   2.0000      -0.537582       -14.6284
  17   2.0000      -0.458908       -12.4875
  18   2.0000      -0.449375       -12.2281
  19   2.0000      -0.409940       -11.1550
  20   2.0000      -0.400880       -10.9085
  21   2.0000      -0.384937       -10.4747
  22   2.0000      -0.372680       -10.1412
  23   2.0000      -0.367253        -9.9935
  24   2.0000      -0.366181        -9.9643
  25   2.0000      -0.365484        -9.9453
  26   2.0000      -0.354712        -9.6522
  27   2.0000      -0.336686        -9.1617
  28   2.0000      -0.312825        -8.5124
  29   2.0000      -0.297531        -8.0962
  30   2.0000      -0.293411        -7.9841
  31   2.0000      -0.215229        -5.8567
  32   2.0000      -0.213371        -5.8061
  33   0.0000      -0.022098        -0.6013
  34   0.0000      -0.016646        -0.4530
  35   0.0000       0.084879         2.3097
  36   0.0000       0.089954         2.4478
  37   0.0000       0.102486         2.7888

MULLIKEN ATOMIC CHARGES
-----------------------
   0 C :   -0.551753
   1 C :    0.222308
   2 C :   -0.249239
   3 C :   -0.161139
   4 C :   -0.219894
   5 C :    0.210361
   6 C :    0.052503
   7 C :   -0.588824
   8 C :   -0.536045
   9 H :    0.164756
  10 H :    0.155996
  11 H :    0.149907
  12 H :    0.143783
  13 H :    0.142211
  14 H :    0.143889
  15 H :    0.136102
  16 H :    0.169647
  17 H :    0.155831
  18 H :    0.161240
  19 H :    0.163138
  20 H :    0.135222
Sum of atomic charges:    0.0000000

LOEWDIN ATOMIC CHARGES
----------------------
   0 C :   -0.388390
   1 C :   -0.091853
   2 C :   -0.173014
   3 C :   -0.165323
   4 C :   -0.169155
   5 C :   -0.092235
   6 C :   -0.091472
   7 C :   -0.385824
   8 C :   -0.391215
   9 H :    0.162215
  10 H :    0.162226
  11 H :    0.159058
  12 H :    0.165726
  13 H :    0.165720
  14 H :    0.167239
  15 H :    0.154732
  16 H :    0.164494
  17 H :    0.163536
  18 H :    0.165130
  19 H :    0.165698
  20 H :    0.152706

  Mayer bond orders larger than 0.100000
B(  0-C ,  1-C ) :   0.7818 B(  0-C ,  9-H ) :   0.9844 B(  0-C , 10-H ) :   0.9735
B(  0-C , 11-H ) :   0.9882 B(  1-C ,  2-C ) :   1.4193 B(  1-C ,  6-C ) :   1.4231
B(  2-C ,  3-C ) :   1.4238 B(  2-C , 12-H ) :   0.9278 B(  3-C ,  4-C ) :   1.4549
B(  3-C , 13-H ) :   0.9471 B(  4-C ,  5-C ) :   1.3420 B(  4-C , 14-H ) :   0.9397
B(  5-C ,  6-C ) :   1.5209 B(  5-C ,  8-C ) :   0.7657 B(  6-C ,  7-C ) :   0.8013
B(  7-C , 15-H ) :   0.9787 B(  7-C , 16-H ) :   0.9889 B(  7-C , 17-H ) :   0.9784
B(  8-C , 18-H ) :   0.9805 B(  8-C , 19-H ) :   0.9771 B(  8-C , 20-H ) :   0.9885

Dispersion correction           -0.007124196
FINAL SINGLE POINT ENERGY      -350.081573955307

DIPOLE MOMENT
-------------

Method             : SCF
Type of density    : Electron Density
Multiplicity       :   1
Irrep              :   0
Energy             :  -350.0825222088815849 Eh
Relativity type    :
Basis              : AO
                                X                 Y                 Z
Electronic contribution:     -0.074676134      -5.308964616       0.029403222
Nuclear contribution   :      0.094575227       5.596474217      -0.037330702
                        -----------------------------------------
Total Dipole Moment    :      0.019899092       0.287509601      -0.007927480
                        -----------------------------------------
Magnitude (a.u.)       :      0.288306416
Magnitude (Debye)      :      0.732816671

Rotational constants in cm-1:             0.075375             0.057790             0.033316
Rotational constants in MHz :          2259.690196          1732.497514           998.793629

                             ****ORCA TERMINATED NORMALLY****
TOTAL RUN TIME: 0 days 0 hours 0 minutes 25 seconds 752 msec
