                         Program Version 6.0.0  -   RELEASE  -
|  1> ! r2scan-3c def2/J RI DEFGRID2 scfconv6 printgap
|  2> %output
|  3>     printlevel normal
|  4> end
|  5> %cpcm
|  6>     smd true
|  7>     smdsolvent "water"
|  8> end
|  9> * xyz 0 1
| 10> C -2.492809543 0.7999557943 -0.0049065745
| 11> C -1.2012181002 0.0380908688 -0.0001281304
| 12> C -1.2314503023 -1.3473233244 -0.001164567
| 13> C -0.0565082598 -2.077043939 0.0020507357
| 14> C 1.1505595509 -1.411014007 0.0027381164
| 15> C 1.2133048316 -0.0191494995 0.0023577924
| 16> C 0.0269929804 0.7167168515 0.0049463957
| 17> C -0.0097559793 2.2180497077 0.0055285961
| 18> C 2.5924255009 0.5811385666 -0.0080833042
| 19> H -2.5865946688 1.4057082098 0.8955958397
| 20> H -2.5444520506 1.4689628764 -0.8623224305
| 21> H -3.3365066032 0.1162337611 -0.0479291023
| 22> H -2.1828727652 -1.8601589011 -0.0044818819
| 23> H -0.0848686946 -3.1568536212 0.002632145
| 24> H 2.0735643575 -1.9736466127 0.0022130874
| 25> H 0.975271739 2.6608823264 0.0914807221
| 26> H -0.4647495576 2.5797085182 -0.9161002618
| 27> H -0.6144918957 2.576675952 0.8367246781
| 28> H 3.1563753859 0.2156803916 0.8489172849
| 29> H 3.1178753072 0.2679345888 -0.9093189726
| 30> H 2.5922579606 1.6642005601 0.0227977884
| 31> *
| 32>
| 33>                          ****END OF INPUT****

CARTESIAN COORDINATES (ANGSTROEM)
---------------------------------
  C     -2.492810    0.799956   -0.004907
  C     -1.201218    0.038091   -0.000128
  C     -1.231450   -1.347323   -0.001165
  C     -0.056508   -2.077044    0.002051
  C      1.150560   -1.411014    0.002738
  C      1.213305   -0.019149    0.002358
  C      0.026993    0.716717    0.004946
  C     -0.009756    2.218050    0.005529
  C      2.592426    0.581139   -0.008083
  H     -2.586595    1.405708    0.895596
  H     -2.544452    1.468963   -0.862322
  H     -3.336507    0.116234   -0.047929
  H     -2.182873   -1.860159   -0.004482
  H     -0.084869   -3.156854    0.002632
  H      2.073564   -1.973647    0.002213
  H      0.975272    2.660882    0.091481
  H     -0.464750    2.579709   -0.916100
  H     -0.614492    2.576676    0.836725
  H      3.156375    0.215680    0.848917
  H      3.117875    0.267935   -0.909319
  H      2.592258    1.664201    0.022798

 Total Charge           Charge          ....    0
 Multiplicity           Mult            ....    1
 Number of Electrons    NEL             ....   66
 Basis Dimension        Dim             ....  231

ORBITAL ENERGIES
----------------

  NO   OCC          E(Eh)            E(eV)
   0   2.0000     -10.037086      -273.1230
   1   2.0000     -10.035886      -273.0903
   2   2.0000     -10.035144      -273.0701
   3   2.0000     -10.023254      -272.7466
   4   2.0000     -10.020146      -272.6620
   5   2.0000     -10.019937      -272.6563
   6   2.0000     -10.015705      -272.5412
   7   2.0000     -10.015650      -272.5397
   8   2.0000     -10.015037      -272.5230
   9   2.0000      -0.828919       -22.5560
  10   2.0000      -0.746795       -20.3213
  11   2.0000      -0.739250       -20.1160
  12   2.0000      -0.676496       -18.4084
  13   2.0000      -0.638997       -17.3880
  14   2.0000      -0.631696       -17.1893
  15   2.0000      -0.538561       -14.6550
  16   2.0000      -0.535386       -14.5686
  17   2.0000      -0.456696       -12.4273
  18   2.0000      -0.446304       -12.1445
  19   2.0000      -0.405008       -11.0208
  20   2.0000      -0.396931       -10.8010
  21   2.0000      -0.378299       -10.2940
  22   2.0000      -0.366979        -9.9860
  23   2.0000      -0.363483        -9.8909
  24   2.0000      -0.360371        -9.8062
  25   2.0000      -0.358494        -9.7551
  26   2.0000      -0.347814        -9.4645
  27   2.0000      -0.328554        -8.9404
  28   2.0000      -0.315315        -8.5802
  29   2.0000      -0.294620        -8.0170
  30   2.0000      -0.290513        -7.9053
  31   2.0000      -0.218048        -5.9334
  32   2.0000      -0.216611        -5.8943
  33   0.0000      -0.024789        -0.6745
  34   0.0000      -0.019480        -0.5301
  35   0.0000       0.091351         2.4858
  36   0.0000       0.097161         2.6439
  37   0.0000       0.110146         2.9972

MULLIKEN ATOMIC CHARGES
-----------------------
   0 C :   -0.579901
   1 C :    0.187396
   2 C :   -0.279816
   3 C :   -0.209388
   4 C :   -0.246299
   5 C :    0.179687
   6 C :    0.040849
   7 C :   -0.619328
   8 C :   -0.552648
   9 H :    0.184966
  10 H :    0.175999
  11 H :    0.168334
  12 H :    0.173922
  13 H :    0.171471
  14 H :    0.172098
  15 H :    0.158454
  16 H :    0.187992
  17 H :    0.175117
  18 H :    0.175018
  19 H :    0.176888
  20 H :    0.159189
Sum of atomic charges:    0.0000000

LOEWDIN ATOMIC CHARGES
----------------------
   0 C :   -0.394442
   1 C :   -0.098840
   2 C :   -0.189930
   3 C :   -0.183790
   4 C :   -0.184009
   5 C :   -0.100914
   6 C :   -0.097573
   7 C :   -0.391375
   8 C :   -0.395798
   9 H :    0.169856
  10 H :    0.169433
  11 H :    0.164200
  12 H :    0.175946
  13 H :    0.175048
  14 H :    0.176887
  15 H :    0.161460
  16 H :    0.171609
  17 H :    0.170444
  18 H :    0.170530
  19 H :    0.171069
  20 H :    0.160188

  Mayer bond orders larger than 0.100000
B(  0-C ,  1-C ) :   0.8015 B(  0-C ,  9-H ) :   0.9761 B(  0-C , 10-H ) :   0.9674
B(  0-C , 11-H ) :   0.9823 B(  1-C ,  2-C ) :   1.3940 B(  1-C ,  6-C ) :   1.3733
B(  2-C ,  3-C ) :   1.3768 B(  2-C , 12-H ) :   0.9489 B(  3-C ,  4-C ) :   1.4099
B(  3-C , 13-H ) :   0.9658 B(  4-C ,  5-C ) :   1.3169 B(  4-C , 14-H ) :   0.9565
B(  5-C ,  6-C ) :   1.4669 B(  5-C ,  8-C ) :   0.7850 B(  6-C ,  7-C ) :   0.8213
B(  7-C , 15-H ) :   0.9744 B(  7-C , 16-H ) :   0.9795 B(  7-C , 17-H ) :   0.9720
B(  8-C , 18-H ) :   0.9722 B(  8-C , 19-H ) :   0.9693 B(  8-C , 20-H ) :   0.9854

Dispersion correction           -0.007124196
FINAL SINGLE POINT ENERGY      -350.083016865297

DIPOLE MOMENT
-------------

Method             : SCF
Type of density    : Electron Density
Multiplicity       :   1
Irrep              :   0
Energy             :  -350.0839651188724133 Eh
Relativity type    :
Basis              : AO
                                X                 Y                 Z
Electronic contribution:     -0.075079800      -5.120586745       0.027070300
Nuclear contribution   :      0.094575227       5.596474217      -0.037330702
                        -----------------------------------------
Total Dipole Moment    :      0.019495426       0.475887472      -0.010260402
                        -----------------------------------------
Magnitude (a.u.)       :      0.476397138
Magnitude (Debye)      :      1.210905293

Rotational constants in cm-1:             0.075375             0.057790             0.033316
Rotational constants in MHz :          2259.690196          1732.497514           998.793629

                             ****ORCA TERMINATED NORMALLY****
TOTAL RUN TIME: 0 days 0 hours 0 minutes 31 seconds 560 msec
