                         Program Version 6.0.0  -   RELEASE  -
|  1> ! pbe def2-sv(p) def2/J RI DEFGRID1 loosescf d4 GCP(DFT/SV(P)) printgap
|  2> %output
|  3>     printlevel normal
|  4> end
|  5> * xyz 0 1
|  6> C 2.3711476965 2.0156581519 -1.883135011
|  7> C 3.3081415715 2.090170287 -0.6943859052
|  8> O 3.4254024098 0.8242975186 -0.0218813473
|  9> P 2.261127028 0.247965378 0.8982835751
| 10> S 1.3542742002 1.5675668583 2.0141973919
| 11> O 3.0137009875 -0.8229262407 1.7801161447
| 12> C 3.9425259701 -1.8060458447 1.2508375082
| 13> C 3.3195214638 -3.1880600499 1.2596317869
| 14> S 1.0970109235 -0.8890094424 -0.4860479517
| 15> C -0.0871465941 -1.5668199908 0.7087472803
| 16> S -1.4557811993 -0.4423827588 1.0987991264
| 17> P -2.0868214642 -0.1215245355 -0.9159020641
| 18> S -1.8447615849 -1.6549083409 -2.1093583992
| 19> O -1.3133100863 1.1632311336 -1.4200471814
| 20> C -1.7283431065 2.5349340384 -1.2059656223
| 21> C -1.7882819765 2.9099929404 0.2594670621
| 22> O -3.5783966466 0.4099467396 -0.7920864019
| 23> C -4.7106531712 -0.4787056453 -0.7776564938
| 24> C -4.7524137846 -1.3390042425 0.4682282088
| 25> H 2.3872345907 2.9631382658 -2.4121855023
| 26> H 2.6768172844 1.2204004511 -2.5586886562
| 27> H 1.3540239343 1.8121002378 -1.5508405334
| 28> H 2.9601146261 2.8350582893 0.0288275524
| 29> H 4.329188249 2.31974493 -1.0025254128
| 30> H 4.2431883425 -1.5088786808 0.2449420355
| 31> H 4.8018455374 -1.7561769221 1.9213461151
| 32> H 2.9408966291 -3.4208321207 2.2513460256
| 33> H 2.5039005175 -3.249085867 0.5430131163
| 34> H 4.0777279006 -3.9164798203 0.9897597771
| 35> H 0.4136976845 -1.7825885781 1.6507694554
| 36> H -0.4875490565 -2.4708826157 0.2517360774
| 37> H -0.9693679677 3.1114867793 -1.7375687592
| 38> H -2.7008470923 2.6725603073 -1.6824302613
| 39> H -2.0249866873 3.9658151086 0.3446297635
| 40> H -2.5578964801 2.3321326024 0.7672911465
| 41> H -0.8354559803 2.7224540145 0.7505798686
| 42> H -5.5676023651 0.1942162133 -0.8320517745
| 43> H -4.6682254898 -1.1043931437 -1.6745087979
| 44> H -5.6860082928 -1.8918817204 0.4895929461
| 45> H -3.9243413251 -2.0459130601 0.4593221939
| 46> H -4.6769236659 -0.721924371 1.3600933677
| 47> *
| 48>
| 49>                          ****END OF INPUT****

CARTESIAN COORDINATES (ANGSTROEM)
---------------------------------
  C      2.371148    2.015658   -1.883135
  C      3.308142    2.090170   -0.694386
  O      3.425402    0.824298   -0.021881
  P      2.261127    0.247965    0.898284
  S      1.354274    1.567567    2.014197
  O      3.013701   -0.822926    1.780116
  C      3.942526   -1.806046    1.250838
  C      3.319521   -3.188060    1.259632
  S      1.097011   -0.889009   -0.486048
  C     -0.087147   -1.566820    0.708747
  S     -1.455781   -0.442383    1.098799
  P     -2.086821   -0.121525   -0.915902
  S     -1.844762   -1.654908   -2.109358
  O     -1.313310    1.163231   -1.420047
  C     -1.728343    2.534934   -1.205966
  C     -1.788282    2.909993    0.259467
  O     -3.578397    0.409947   -0.792086
  C     -4.710653   -0.478706   -0.777656
  C     -4.752414   -1.339004    0.468228
  H      2.387235    2.963138   -2.412186
  H      2.676817    1.220400   -2.558689
  H      1.354024    1.812100   -1.550841
  H      2.960115    2.835058    0.028828
  H      4.329188    2.319745   -1.002525
  H      4.243188   -1.508879    0.244942
  H      4.801846   -1.756177    1.921346
  H      2.940897   -3.420832    2.251346
  H      2.503901   -3.249086    0.543013
  H      4.077728   -3.916480    0.989760
  H      0.413698   -1.782589    1.650769
  H     -0.487549   -2.470883    0.251736
  H     -0.969368    3.111487   -1.737569
  H     -2.700847    2.672560   -1.682430
  H     -2.024987    3.965815    0.344630
  H     -2.557896    2.332133    0.767291
  H     -0.835456    2.722454    0.750580
  H     -5.567602    0.194216   -0.832052
  H     -4.668225   -1.104393   -1.674509
  H     -5.686008   -1.891882    0.489593
  H     -3.924341   -2.045913    0.459322
  H     -4.676924   -0.721924    1.360093

 Total Charge           Charge          ....    0
 Multiplicity           Mult            ....    1
 Number of Electrons    NEL             ....  202
 Basis Dimension        Dim             ....  334

ORBITAL ENERGIES
----------------

  NO   OCC          E(Eh)            E(eV)
   0   2.0000     -88.040775     -2395.7113
   1   2.0000     -88.036322     -2395.5901
   2   2.0000     -87.984820     -2394.1887
   3   2.0000     -87.983317     -2394.1478
   4   2.0000     -76.426544     -2079.6720
   5   2.0000     -76.423724     -2079.5952
   6   2.0000     -18.797000      -511.4924
   7   2.0000     -18.793590      -511.3996
   8   2.0000     -18.791512      -511.3430
   9   2.0000     -18.786364      -511.2030
  10   2.0000      -9.957664      -270.9618
  11   2.0000      -9.955639      -270.9067
  12   2.0000      -9.955160      -270.8937
  13   2.0000      -9.952583      -270.8235
  14   2.0000      -9.951685      -270.7991
  15   2.0000      -9.889512      -269.1073
  16   2.0000      -9.884577      -268.9730
  17   2.0000      -9.883438      -268.9420
  18   2.0000      -9.875601      -268.7288
  19   2.0000      -7.684867      -209.1159
  20   2.0000      -7.681189      -209.0158
  21   2.0000      -7.630017      -207.6233
  22   2.0000      -7.628318      -207.5771
  23   2.0000      -6.423553      -174.7938
  24   2.0000      -6.421411      -174.7355
  25   2.0000      -5.712603      -155.4478
  26   2.0000      -5.709576      -155.3655
  27   2.0000      -5.709056      -155.3513
  28   2.0000      -5.705908      -155.2656
  29   2.0000      -5.701928      -155.1573
  30   2.0000      -5.697990      -155.0502
  31   2.0000      -5.658972      -153.9885
  32   2.0000      -5.657212      -153.9406
  33   2.0000      -5.650729      -153.7642
  34   2.0000      -5.650039      -153.7454
  35   2.0000      -5.648988      -153.7168
  36   2.0000      -5.648413      -153.7011
  37   2.0000      -4.646765      -126.4449
  38   2.0000      -4.644997      -126.3968
  39   2.0000      -4.644529      -126.3841
  40   2.0000      -4.643827      -126.3649
  41   2.0000      -4.643088      -126.3449
  42   2.0000      -4.641429      -126.2997
  43   2.0000      -0.988171       -26.8895
  44   2.0000      -0.987833       -26.8803
  45   2.0000      -0.945326       -25.7236
  46   2.0000      -0.942709       -25.6524
  47   2.0000      -0.761346       -20.7173
  48   2.0000      -0.719208       -19.5706
  49   2.0000      -0.709136       -19.2966
  50   2.0000      -0.689986       -18.7755
  51   2.0000      -0.689102       -18.7514
  52   2.0000      -0.673696       -18.3322
  53   2.0000      -0.649564       -17.6755
  54   2.0000      -0.636245       -17.3131
  55   2.0000      -0.597565       -16.2606
  56   2.0000      -0.589370       -16.0376
  57   2.0000      -0.578703       -15.7473
  58   2.0000      -0.575832       -15.6692
  59   2.0000      -0.557085       -15.1591
  60   2.0000      -0.503244       -13.6940
  61   2.0000      -0.494414       -13.4537
  62   2.0000      -0.474408       -12.9093
  63   2.0000      -0.468911       -12.7597
  64   2.0000      -0.461329       -12.5534
  65   2.0000      -0.448350       -12.2002
  66   2.0000      -0.444897       -12.1063
  67   2.0000      -0.434547       -11.8246
  68   2.0000      -0.424714       -11.5571
  69   2.0000      -0.422759       -11.5039
  70   2.0000      -0.410667       -11.1748
  71   2.0000      -0.396767       -10.7966
  72   2.0000      -0.393728       -10.7139
  73   2.0000      -0.375978       -10.2309
  74   2.0000      -0.375374       -10.2144
  75   2.0000      -0.372758       -10.1433
  76   2.0000      -0.367480        -9.9996
  77   2.0000      -0.361315        -9.8319
  78   2.0000      -0.358559        -9.7569
  79   2.0000      -0.350939        -9.5495
  80   2.0000      -0.349421        -9.5082
  81   2.0000      -0.344089        -9.3631
  82   2.0000      -0.341476        -9.2920
  83   2.0000      -0.337259        -9.1773
  84   2.0000      -0.331535        -9.0215
  85   2.0000      -0.319294        -8.6884
  86   2.0000      -0.312448        -8.5021
  87   2.0000      -0.302623        -8.2348
  88   2.0000      -0.295523        -8.0416
  89   2.0000      -0.293161        -7.9773
  90   2.0000      -0.290768        -7.9122
  91   2.0000      -0.272797        -7.4232
  92   2.0000      -0.269957        -7.3459
  93   2.0000      -0.261236        -7.1086
  94   2.0000      -0.256965        -6.9924
  95   2.0000      -0.235499        -6.4083
  96   2.0000      -0.213208        -5.8017
  97   2.0000      -0.208883        -5.6840
  98   2.0000      -0.202501        -5.5103
  99   2.0000      -0.198528        -5.4022
 100   2.0000      -0.187936        -5.1140
 101   0.0000      -0.044147        -1.2013
 102   0.0000      -0.027609        -0.7513
 103   0.0000      -0.000733        -0.0199
 104   0.0000       0.001522         0.0414
 105   0.0000       0.012686         0.3452

MULLIKEN ATOMIC CHARGES
-----------------------
   0 C :   -0.353035
   1 C :   -0.001189
   2 O :   -0.382751
   3 P :    0.589734
   4 S :   -0.302888
   5 O :   -0.366151
   6 C :   -0.010178
   7 C :   -0.301038
   8 S :   -0.077926
   9 C :   -0.358244
  10 S :   -0.070169
  11 P :    0.614811
  12 S :   -0.322771
  13 O :   -0.363678
  14 C :    0.010561
  15 C :   -0.341513
  16 O :   -0.383783
  17 C :   -0.001659
  18 C :   -0.315172
  19 H :    0.112175
  20 H :    0.119709
  21 H :    0.164248
  22 H :    0.109338
  23 H :    0.104612
  24 H :    0.111727
  25 H :    0.111956
  26 H :    0.119784
  27 H :    0.126213
  28 H :    0.112930
  29 H :    0.185931
  30 H :    0.191864
  31 H :    0.106601
  32 H :    0.106732
  33 H :    0.106881
  34 H :    0.116655
  35 H :    0.151242
  36 H :    0.104872
  37 H :    0.114585
  38 H :    0.113496
  39 H :    0.126796
  40 H :    0.118694
Sum of atomic charges:   -0.0000000

LOEWDIN ATOMIC CHARGES
----------------------
   0 C :   -0.373800
   1 C :   -0.118381
   2 O :   -0.249294
   3 P :    0.562123
   4 S :   -0.299895
   5 O :   -0.244596
   6 C :   -0.111425
   7 C :   -0.362051
   8 S :    0.090402
   9 C :   -0.480906
  10 S :    0.087254
  11 P :    0.576310
  12 S :   -0.318605
  13 O :   -0.239311
  14 C :   -0.107111
  15 C :   -0.377039
  16 O :   -0.244449
  17 C :   -0.117022
  18 C :   -0.370339
  19 H :    0.130401
  20 H :    0.126899
  21 H :    0.126525
  22 H :    0.109596
  23 H :    0.118163
  24 H :    0.112704
  25 H :    0.122396
  26 H :    0.127428
  27 H :    0.121451
  28 H :    0.131665
  29 H :    0.132426
  30 H :    0.130869
  31 H :    0.118104
  32 H :    0.112467
  33 H :    0.129247
  34 H :    0.116604
  35 H :    0.122806
  36 H :    0.118495
  37 H :    0.112910
  38 H :    0.131435
  39 H :    0.121118
  40 H :    0.124425

  Mayer bond orders larger than 0.100000
B(  0-C ,  1-C ) :   1.1611 B(  0-C , 19-H ) :   0.9380 B(  0-C , 20-H ) :   0.9435
B(  0-C , 21-H ) :   0.9204 B(  1-C ,  2-O ) :   0.9073 B(  1-C , 22-H ) :   0.9126
B(  1-C , 23-H ) :   0.9334 B(  2-O ,  3-P ) :   1.0823 B(  3-P ,  4-S ) :   1.6563
B(  3-P ,  5-O ) :   1.1169 B(  3-P ,  8-S ) :   0.9478 B(  4-S ,  8-S ) :   0.1115
B(  5-O ,  6-C ) :   0.8934 B(  6-C ,  7-C ) :   1.1662 B(  6-C , 24-H ) :   0.9177
B(  6-C , 25-H ) :   0.9349 B(  7-C , 26-H ) :   0.9449 B(  7-C , 27-H ) :   0.9348
B(  7-C , 28-H ) :   0.9394 B(  8-S ,  9-C ) :   0.9888 B(  9-C , 10-S ) :   1.0086
B(  9-C , 29-H ) :   0.8922 B(  9-C , 30-H ) :   0.8881 B( 10-S , 11-P ) :   0.9537
B( 10-S , 12-S ) :   0.1134 B( 11-P , 12-S ) :   1.6097 B( 11-P , 13-O ) :   1.1222
B( 11-P , 16-O ) :   1.0789 B( 13-O , 14-C ) :   0.8891 B( 14-C , 15-C ) :   1.1742
B( 14-C , 31-H ) :   0.9295 B( 14-C , 32-H ) :   0.9297 B( 15-C , 33-H ) :   0.9347
B( 15-C , 34-H ) :   0.9384 B( 15-C , 35-H ) :   0.9200 B( 16-O , 17-C ) :   0.9026
B( 17-C , 18-C ) :   1.1669 B( 17-C , 36-H ) :   0.9340 B( 17-C , 37-H ) :   0.9165
B( 18-C , 38-H ) :   0.9367 B( 18-C , 39-H ) :   0.9337 B( 18-C , 40-H ) :   0.9446

Dispersion correction           -0.066979610
FINAL SINGLE POINT ENERGY     -2929.517405346325

DIPOLE MOMENT
-------------

Method             : SCF
Type of density    : Electron Density
Multiplicity       :   1
Irrep              :   0
Energy             : -2929.6360911565770948 Eh
Relativity type    :
Basis              : AO
                                X                 Y                 Z
Electronic contribution:      1.511620445      -2.023222041       1.139589070
Nuclear contribution   :     -1.431598214       2.090510000      -1.317105216
                        -----------------------------------------
Total Dipole Moment    :      0.080022231       0.067287959      -0.177516145
                        -----------------------------------------
Magnitude (a.u.)       :      0.206017496
Magnitude (Debye)      :      0.523654859

Rotational constants in cm-1:             0.012224             0.005374             0.004770
Rotational constants in MHz :           366.454347           161.099165           143.014077

                             ****ORCA TERMINATED NORMALLY****
TOTAL RUN TIME: 0 days 0 hours 0 minutes 21 seconds 787 msec
