                         Program Version 6.0.0  -   RELEASE  -
|  1> ! pbe def2-sv(p) def2/J RI DEFGRID1 loosescf d4 GCP(DFT/SV(P)) printgap
|  2> %output
|  3>     printlevel normal
|  4> end
|  5> * xyz 0 1
|  6> C 4.6432482421 -0.8149979648 -1.7148677265
|  7> C 4.1637899618 -1.2959837208 -0.3621983647
|  8> O 3.5840613671 -0.2419438624 0.4326878594
|  9> P 2.4086533154 0.716114853 -0.0385290299
| 10> S 2.8144647958 2.2038794258 -1.2403893489
| 11> O 1.8757760958 1.2912585179 1.3277867377
| 12> C 1.5581234001 0.4717012446 2.4773998469
| 13> C 2.7014478742 0.4845759388 3.4699609647
| 14> S 0.9445874874 -0.6509439166 -0.7571800528
| 15> C -0.0397610094 0.5998144263 -1.6496669655
| 16> S -1.7022084397 0.0014310659 -2.0032465589
| 17> P -2.3413363044 -0.0744483659 0.0155457681
| 18> S -1.6857425625 1.3047490541 1.2339917771
| 19> O -1.9914447619 -1.522975016 0.5650422423
| 20> C -2.4298983969 -2.7271546615 -0.1140058156
| 21> C -1.2503479789 -3.4383027514 -0.745114641
| 22> O -3.9050856714 -0.0534554619 -0.2987147233
| 23> C -4.8691961102 0.3752714235 0.6830977107
| 24> C -5.0164194368 -0.6361058852 1.8023496522
| 25> H 5.3339832561 0.0169039252 -1.5995665775
| 26> H 5.1418150962 -1.6291046999 -2.2309194531
| 27> H 3.7993144489 -0.4771307436 -2.3146223091
| 28> H 4.9929325239 -1.6522783305 0.2515579412
| 29> H 3.4161647914 -2.0858162951 -0.4752022189
| 30> H 0.6554596452 0.9234372697 2.8948601389
| 31> H 1.3304456053 -0.5435184931 2.1390755507
| 32> H 3.5912325732 0.0468772154 3.0250559209
| 33> H 2.9231907279 1.5070132215 3.7632413293
| 34> H 2.4160317339 -0.087020283 4.3473775201
| 35> H 0.437028514 0.8194904972 -2.6026558864
| 36> H -0.0988127536 1.4979550917 -1.0309978757
| 37> H -2.8872911912 -3.3382414373 0.6660849315
| 38> H -3.1797584266 -2.4608818546 -0.8643928752
| 39> H -0.8069257305 -2.8268933291 -1.5274923828
| 40> H -0.4915604007 -3.6398484578 0.0051036355
| 41> H -1.5914289697 -4.3745820676 -1.174953123
| 42> H -4.5549410168 1.3459790102 1.0793380716
| 43> H -5.7923725781 0.4900381812 0.1134862961
| 44> H -5.3002939715 -1.6058177066 1.4018486503
| 45> H -4.0717112073 -0.7329904461 2.3371671341
| 46> H -5.7800658268 -0.2962169051 2.4949597309
| 47> *
| 48>
| 49>                          ****END OF INPUT****

CARTESIAN COORDINATES (ANGSTROEM)
---------------------------------
  C      4.643248   -0.814998   -1.714868
  C      4.163790   -1.295984   -0.362198
  O      3.584061   -0.241944    0.432688
  P      2.408653    0.716115   -0.038529
  S      2.814465    2.203879   -1.240389
  O      1.875776    1.291259    1.327787
  C      1.558123    0.471701    2.477400
  C      2.701448    0.484576    3.469961
  S      0.944587   -0.650944   -0.757180
  C     -0.039761    0.599814   -1.649667
  S     -1.702208    0.001431   -2.003247
  P     -2.341336   -0.074448    0.015546
  S     -1.685743    1.304749    1.233992
  O     -1.991445   -1.522975    0.565042
  C     -2.429898   -2.727155   -0.114006
  C     -1.250348   -3.438303   -0.745115
  O     -3.905086   -0.053455   -0.298715
  C     -4.869196    0.375271    0.683098
  C     -5.016419   -0.636106    1.802350
  H      5.333983    0.016904   -1.599567
  H      5.141815   -1.629105   -2.230919
  H      3.799314   -0.477131   -2.314622
  H      4.992933   -1.652278    0.251558
  H      3.416165   -2.085816   -0.475202
  H      0.655460    0.923437    2.894860
  H      1.330446   -0.543518    2.139076
  H      3.591233    0.046877    3.025056
  H      2.923191    1.507013    3.763241
  H      2.416032   -0.087020    4.347378
  H      0.437029    0.819490   -2.602656
  H     -0.098813    1.497955   -1.030998
  H     -2.887291   -3.338241    0.666085
  H     -3.179758   -2.460882   -0.864393
  H     -0.806926   -2.826893   -1.527492
  H     -0.491560   -3.639848    0.005104
  H     -1.591429   -4.374582   -1.174953
  H     -4.554941    1.345979    1.079338
  H     -5.792373    0.490038    0.113486
  H     -5.300294   -1.605818    1.401849
  H     -4.071711   -0.732990    2.337167
  H     -5.780066   -0.296217    2.494960

 Total Charge           Charge          ....    0
 Multiplicity           Mult            ....    1
 Number of Electrons    NEL             ....  202
 Basis Dimension        Dim             ....  334

ORBITAL ENERGIES
----------------

  NO   OCC          E(Eh)            E(eV)
   0   2.0000     -88.049499     -2395.9487
   1   2.0000     -88.040482     -2395.7033
   2   2.0000     -87.990790     -2394.3511
   3   2.0000     -87.976336     -2393.9578
   4   2.0000     -76.428883     -2079.7356
   5   2.0000     -76.421523     -2079.5354
   6   2.0000     -18.796994      -511.4922
   7   2.0000     -18.795131      -511.4415
   8   2.0000     -18.793941      -511.4091
   9   2.0000     -18.782159      -511.0885
  10   2.0000      -9.961395      -271.0633
  11   2.0000      -9.959339      -271.0074
  12   2.0000      -9.957873      -270.9675
  13   2.0000      -9.953379      -270.8452
  14   2.0000      -9.942474      -270.5485
  15   2.0000      -9.891743      -269.1680
  16   2.0000      -9.889257      -269.1004
  17   2.0000      -9.883136      -268.9338
  18   2.0000      -9.878026      -268.7948
  19   2.0000      -7.694697      -209.3833
  20   2.0000      -7.684865      -209.1158
  21   2.0000      -7.635752      -207.7794
  22   2.0000      -7.621748      -207.3983
  23   2.0000      -6.426979      -174.8870
  24   2.0000      -6.418721      -174.6623
  25   2.0000      -5.722441      -155.7155
  26   2.0000      -5.719432      -155.6337
  27   2.0000      -5.712595      -155.4476
  28   2.0000      -5.711555      -155.4193
  29   2.0000      -5.709456      -155.3622
  30   2.0000      -5.702022      -155.1599
  31   2.0000      -5.664815      -154.1475
  32   2.0000      -5.656511      -153.9215
  33   2.0000      -5.655580      -153.8961
  34   2.0000      -5.650902      -153.7689
  35   2.0000      -5.642225      -153.5328
  36   2.0000      -5.641768      -153.5203
  37   2.0000      -4.649897      -126.5301
  38   2.0000      -4.648429      -126.4902
  39   2.0000      -4.647397      -126.4621
  40   2.0000      -4.641590      -126.3041
  41   2.0000      -4.640807      -126.2828
  42   2.0000      -4.638659      -126.2243
  43   2.0000      -0.989759       -26.9327
  44   2.0000      -0.984831       -26.7986
  45   2.0000      -0.948785       -25.8178
  46   2.0000      -0.940131       -25.5823
  47   2.0000      -0.765400       -20.8276
  48   2.0000      -0.722762       -19.6673
  49   2.0000      -0.709969       -19.3192
  50   2.0000      -0.697119       -18.9696
  51   2.0000      -0.688397       -18.7322
  52   2.0000      -0.675141       -18.3715
  53   2.0000      -0.651797       -17.7363
  54   2.0000      -0.635808       -17.3012
  55   2.0000      -0.598560       -16.2876
  56   2.0000      -0.587656       -15.9909
  57   2.0000      -0.580070       -15.7845
  58   2.0000      -0.567114       -15.4320
  59   2.0000      -0.561165       -15.2701
  60   2.0000      -0.506413       -13.7802
  61   2.0000      -0.498103       -13.5541
  62   2.0000      -0.483124       -13.1465
  63   2.0000      -0.469757       -12.7827
  64   2.0000      -0.455864       -12.4047
  65   2.0000      -0.452019       -12.3001
  66   2.0000      -0.441875       -12.0240
  67   2.0000      -0.431128       -11.7316
  68   2.0000      -0.429720       -11.6933
  69   2.0000      -0.420459       -11.4413
  70   2.0000      -0.409494       -11.1429
  71   2.0000      -0.406731       -11.0677
  72   2.0000      -0.395637       -10.7658
  73   2.0000      -0.384036       -10.4502
  74   2.0000      -0.377165       -10.2632
  75   2.0000      -0.375311       -10.2127
  76   2.0000      -0.362960        -9.8766
  77   2.0000      -0.355187        -9.6651
  78   2.0000      -0.353990        -9.6326
  79   2.0000      -0.351141        -9.5550
  80   2.0000      -0.348593        -9.4857
  81   2.0000      -0.346258        -9.4222
  82   2.0000      -0.345055        -9.3894
  83   2.0000      -0.338349        -9.2070
  84   2.0000      -0.335723        -9.1355
  85   2.0000      -0.323686        -8.8079
  86   2.0000      -0.315032        -8.5724
  87   2.0000      -0.312178        -8.4948
  88   2.0000      -0.295230        -8.0336
  89   2.0000      -0.286174        -7.7872
  90   2.0000      -0.280338        -7.6284
  91   2.0000      -0.277322        -7.5463
  92   2.0000      -0.274744        -7.4762
  93   2.0000      -0.271194        -7.3796
  94   2.0000      -0.256504        -6.9798
  95   2.0000      -0.231290        -6.2937
  96   2.0000      -0.223453        -6.0805
  97   2.0000      -0.210445        -5.7265
  98   2.0000      -0.205181        -5.5833
  99   2.0000      -0.195069        -5.3081
 100   2.0000      -0.191532        -5.2119
 101   0.0000      -0.045011        -1.2248
 102   0.0000      -0.033287        -0.9058
 103   0.0000      -0.005430        -0.1478
 104   0.0000       0.008240         0.2242
 105   0.0000       0.009783         0.2662

MULLIKEN ATOMIC CHARGES
-----------------------
   0 C :   -0.309143
   1 C :   -0.009608
   2 O :   -0.380681
   3 P :    0.598989
   4 S :   -0.315830
   5 O :   -0.345412
   6 C :   -0.011944
   7 C :   -0.283069
   8 S :   -0.133788
   9 C :   -0.340568
  10 S :   -0.088809
  11 P :    0.617285
  12 S :   -0.302792
  13 O :   -0.361618
  14 C :   -0.032492
  15 C :   -0.280167
  16 O :   -0.389083
  17 C :   -0.006417
  18 C :   -0.319051
  19 H :    0.128356
  20 H :    0.110399
  21 H :    0.125496
  22 H :    0.108865
  23 H :    0.110970
  24 H :    0.120448
  25 H :    0.092725
  26 H :    0.114814
  27 H :    0.118491
  28 H :    0.105773
  29 H :    0.188322
  30 H :    0.210467
  31 H :    0.110417
  32 H :    0.108134
  33 H :    0.125822
  34 H :    0.116736
  35 H :    0.109251
  36 H :    0.117543
  37 H :    0.108442
  38 H :    0.114075
  39 H :    0.131820
  40 H :    0.116834
Sum of atomic charges:   -0.0000000

LOEWDIN ATOMIC CHARGES
----------------------
   0 C :   -0.369311
   1 C :   -0.114776
   2 O :   -0.244553
   3 P :    0.569238
   4 S :   -0.311848
   5 O :   -0.227708
   6 C :   -0.117881
   7 C :   -0.359413
   8 S :    0.054008
   9 C :   -0.477122
  10 S :    0.094015
  11 P :    0.570852
  12 S :   -0.287925
  13 O :   -0.243565
  14 C :   -0.118647
  15 C :   -0.361613
  16 O :   -0.256384
  17 C :   -0.116210
  18 C :   -0.365945
  19 H :    0.131416
  20 H :    0.129728
  21 H :    0.121244
  22 H :    0.120811
  23 H :    0.107253
  24 H :    0.116772
  25 H :    0.101838
  26 H :    0.123170
  27 H :    0.128273
  28 H :    0.127484
  29 H :    0.135053
  30 H :    0.127135
  31 H :    0.119316
  32 H :    0.107905
  33 H :    0.115189
  34 H :    0.126591
  35 H :    0.129439
  36 H :    0.113282
  37 H :    0.120199
  38 H :    0.123139
  39 H :    0.126508
  40 H :    0.133042

  Mayer bond orders larger than 0.100000
B(  0-C ,  1-C ) :   1.1675 B(  0-C , 19-H ) :   0.9428 B(  0-C , 20-H ) :   0.9347
B(  0-C , 21-H ) :   0.9316 B(  1-C ,  2-O ) :   0.9122 B(  1-C , 22-H ) :   0.9331
B(  1-C , 23-H ) :   0.9261 B(  2-O ,  3-P ) :   1.0789 B(  3-P ,  4-S ) :   1.6379
B(  3-P ,  5-O ) :   1.1495 B(  3-P ,  8-S ) :   0.9452 B(  4-S ,  8-S ) :   0.1118
B(  5-O ,  6-C ) :   0.8891 B(  6-C ,  7-C ) :   1.1596 B(  6-C , 24-H ) :   0.9247
B(  6-C , 25-H ) :   0.9172 B(  7-C , 26-H ) :   0.9429 B(  7-C , 27-H ) :   0.9470
B(  7-C , 28-H ) :   0.9414 B(  8-S ,  9-C ) :   0.9733 B(  9-C , 10-S ) :   1.0124
B(  9-C , 29-H ) :   0.9007 B(  9-C , 30-H ) :   0.8650 B( 10-S , 11-P ) :   0.9416
B( 10-S , 12-S ) :   0.1036 B( 11-P , 12-S ) :   1.6405 B( 11-P , 13-O ) :   1.1072
B( 11-P , 16-O ) :   1.0869 B( 13-O , 14-C ) :   0.8993 B( 14-C , 15-C ) :   1.1695
B( 14-C , 31-H ) :   0.9316 B( 14-C , 32-H ) :   0.9139 B( 15-C , 33-H ) :   0.9290
B( 15-C , 34-H ) :   0.9454 B( 15-C , 35-H ) :   0.9382 B( 16-O , 17-C ) :   0.9068
B( 17-C , 18-C ) :   1.1610 B( 17-C , 36-H ) :   0.9154 B( 17-C , 37-H ) :   0.9348
B( 18-C , 38-H ) :   0.9459 B( 18-C , 39-H ) :   0.9357 B( 18-C , 40-H ) :   0.9388

Dispersion correction           -0.065020590
FINAL SINGLE POINT ENERGY     -2929.516919179760

DIPOLE MOMENT
-------------

Method             : SCF
Type of density    : Electron Density
Multiplicity       :   1
Irrep              :   0
Energy             : -2929.6372781876052613 Eh
Relativity type    :
Basis              : AO
                                X                 Y                 Z
Electronic contribution:     -0.301304623      16.329175643      -9.739294606
Nuclear contribution   :     -0.562921174     -18.585467039      10.167539065
                        -----------------------------------------
Total Dipole Moment    :     -0.864225798      -2.256291396       0.428244458
                        -----------------------------------------
Magnitude (a.u.)       :      2.453799179
Magnitude (Debye)      :      6.237061845

Rotational constants in cm-1:             0.012694             0.004750             0.004486
Rotational constants in MHz :           380.553743           142.399311           134.478617

                             ****ORCA TERMINATED NORMALLY****
TOTAL RUN TIME: 0 days 0 hours 0 minutes 21 seconds 191 msec
