                         Program Version 6.0.0  -   RELEASE  -
|  1> ! wb97x-v def2-tzvp def2/J RIJCOSX DEFGRID2 scfconv7 GCP(DFT/TZ) printgap
|  2> %output
|  3>     printlevel normal
|  4> end
|  5> * xyz 0 1
|  6> C -4.113241533408362e-05 0.8302702671618084 2.0364402900275615e-05
|  7> Cl -1.4894561031456266 -0.1817099947163233 6.766194723006354e-05
|  8> Cl 1.489427988744368 -0.18164505111801202 -9.139811882431132e-05
|  9> H 2.3052705581580412e-08 1.4336020192396062 0.9062143927301686
| 10> H -0.00010132116235817628 1.433657378184075 -0.9061366077135411
| 11> *
| 12>
| 13>                          ****END OF INPUT****

CARTESIAN COORDINATES (ANGSTROEM)
---------------------------------
  C     -0.000041    0.830270    0.000020
  Cl    -1.489456   -0.181710    0.000068
  Cl     1.489428   -0.181645   -0.000091
  H      0.000000    1.433602    0.906214
  H     -0.000101    1.433657   -0.906137

 Total Charge           Charge          ....    0
 Multiplicity           Mult            ....    1
 Number of Electrons    NEL             ....   42
 Basis Dimension        Dim             ....  117

ORBITAL ENERGIES
----------------

  NO   OCC          E(Eh)            E(eV)
   0   2.0000    -107.152651     -2915.7719
   1   2.0000    -107.152645     -2915.7717
   2   2.0000     -12.180206      -331.4403
   3   2.0000     -11.305988      -307.6516
   4   2.0000     -11.305808      -307.6467
   5   2.0000      -9.098019      -247.5697
   6   2.0000      -9.096955      -247.5407
   7   2.0000      -9.094691      -247.4791
   8   2.0000      -9.094505      -247.4741
   9   2.0000      -9.094291      -247.4682
  10   2.0000      -9.093949      -247.4589
  11   2.0000      -1.441824       -39.2340
  12   2.0000      -1.388939       -37.7950
  13   2.0000      -1.180847       -32.1325
  14   2.0000      -0.936545       -25.4847
  15   2.0000      -0.919838       -25.0301
  16   2.0000      -0.917797       -24.9745
  17   2.0000      -0.801816       -21.8185
  18   2.0000      -0.798832       -21.7373
  19   2.0000      -0.790311       -21.5055
  20   2.0000      -0.777059       -21.1449
  21   0.0000      -0.312911        -8.5147
  22   0.0000      -0.255590        -6.9550
  23   0.0000      -0.019982        -0.5437
  24   0.0000      -0.005792        -0.1576
  25   0.0000       0.103734         2.8227

MULLIKEN ATOMIC CHARGES
-----------------------
   0 C :   -0.108556
   1 Cl:   -0.100539
   2 Cl:   -0.100544
   3 H :    0.154820
   4 H :    0.154819
Sum of atomic charges:   -0.0000000

LOEWDIN ATOMIC CHARGES
----------------------
   0 C :   -0.727198
   1 Cl:    0.257325
   2 Cl:    0.257316
   3 H :    0.106279
   4 H :    0.106278

  Mayer bond orders larger than 0.100000
B(  0-C ,  1-Cl) :   1.1135 B(  0-C ,  2-Cl) :   1.1135 B(  0-C ,  3-H ) :   0.9606
B(  0-C ,  4-H ) :   0.9606

FINAL SINGLE POINT ENERGY      -959.593685066824

DIPOLE MOMENT
-------------

Method             : SCF
Type of density    : Electron Density
Multiplicity       :   1
Irrep              :   0
Energy             :  -959.5965843633244958 Eh
Relativity type    :
Basis              : AO
                                X                 Y                 Z
Electronic contribution:      0.000045269      -2.479106070      -0.000077558
Nuclear contribution   :     -0.000072455       3.177507919       0.000099902
                        -----------------------------------------
Total Dipole Moment    :     -0.000027186       0.698401848       0.000022344
                        -----------------------------------------
Magnitude (a.u.)       :      0.698401849
Magnitude (Debye)      :      1.775196423

Rotational constants in cm-1:             1.026712             0.106052             0.097973
Rotational constants in MHz :         30780.054881          3179.367436          2937.157363

                             ****ORCA TERMINATED NORMALLY****
TOTAL RUN TIME: 0 days 0 hours 0 minutes 19 seconds 65 msec
