                         Program Version 6.0.0  -   RELEASE  -
|  1> ! wb97x-v def2-tzvp def2/J RIJCOSX DEFGRID2 scfconv7 GCP(DFT/TZ) printgap
|  2> %output
|  3>     printlevel normal
|  4> end
|  5> %cpcm
|  6>     smd true
|  7>     smdsolvent "water"
|  8> end
|  9> * xyz 0 1
| 10> C -4.113241533408362e-05 0.8302702671618084 2.0364402900275615e-05
| 11> Cl -1.4894561031456266 -0.1817099947163233 6.766194723006354e-05
| 12> Cl 1.489427988744368 -0.18164505111801202 -9.139811882431132e-05
| 13> H 2.3052705581580412e-08 1.4336020192396062 0.9062143927301686
| 14> H -0.00010132116235817628 1.433657378184075 -0.9061366077135411
| 15> *
| 16>
| 17>                          ****END OF INPUT****

CARTESIAN COORDINATES (ANGSTROEM)
---------------------------------
  C     -0.000041    0.830270    0.000020
  Cl    -1.489456   -0.181710    0.000068
  Cl     1.489428   -0.181645   -0.000091
  H      0.000000    1.433602    0.906214
  H     -0.000101    1.433657   -0.906137

 Total Charge           Charge          ....    0
 Multiplicity           Mult            ....    1
 Number of Electrons    NEL             ....   42
 Basis Dimension        Dim             ....  117

ORBITAL ENERGIES
----------------

  NO   OCC          E(Eh)            E(eV)
   0   2.0000    -107.148212     -2915.6511
   1   2.0000    -107.148206     -2915.6509
   2   2.0000     -12.164953      -331.0252
   3   2.0000     -11.301673      -307.5342
   4   2.0000     -11.301495      -307.5293
   5   2.0000      -9.093672      -247.4514
   6   2.0000      -9.092592      -247.4220
   7   2.0000      -9.090473      -247.3643
   8   2.0000      -9.090264      -247.3587
   9   2.0000      -9.090055      -247.3530
  10   2.0000      -9.089726      -247.3440
  11   2.0000      -1.435649       -39.0660
  12   2.0000      -1.384721       -37.6802
  13   2.0000      -1.167922       -31.7808
  14   2.0000      -0.920944       -25.0602
  15   2.0000      -0.913464       -24.8566
  16   2.0000      -0.907365       -24.6906
  17   2.0000      -0.798316       -21.7233
  18   2.0000      -0.794368       -21.6158
  19   2.0000      -0.787251       -21.4222
  20   2.0000      -0.770555       -20.9679
  21   0.0000      -0.304453        -8.2846
  22   0.0000      -0.244324        -6.6484
  23   0.0000       0.003049         0.0830
  24   0.0000       0.017273         0.4700
  25   0.0000       0.115678         3.1478

MULLIKEN ATOMIC CHARGES
-----------------------
   0 C :   -0.124463
   1 Cl:   -0.135832
   2 Cl:   -0.135838
   3 H :    0.198067
   4 H :    0.198065
Sum of atomic charges:   -0.0000000

LOEWDIN ATOMIC CHARGES
----------------------
   0 C :   -0.708990
   1 Cl:    0.234231
   2 Cl:    0.234222
   3 H :    0.120268
   4 H :    0.120268

  Mayer bond orders larger than 0.100000
B(  0-C ,  1-Cl) :   1.0838 B(  0-C ,  2-Cl) :   1.0838 B(  0-C ,  3-H ) :   0.9502
B(  0-C ,  4-H ) :   0.9502

FINAL SINGLE POINT ENERGY      -959.597211043992

DIPOLE MOMENT
-------------

Method             : SCF
Type of density    : Electron Density
Multiplicity       :   1
Irrep              :   0
Energy             :  -959.6001103404920514 Eh
Relativity type    :
Basis              : AO
                                X                 Y                 Z
Electronic contribution:      0.000036384      -2.216668409      -0.000068269
Nuclear contribution   :     -0.000072455       3.177507919       0.000099902
                        -----------------------------------------
Total Dipole Moment    :     -0.000036071       0.960839509       0.000031633
                        -----------------------------------------
Magnitude (a.u.)       :      0.960839511
Magnitude (Debye)      :      2.442259946

Rotational constants in cm-1:             1.026712             0.106052             0.097973
Rotational constants in MHz :         30780.054881          3179.367436          2937.157363

                             ****ORCA TERMINATED NORMALLY****
TOTAL RUN TIME: 0 days 0 hours 0 minutes 20 seconds 378 msec
