                         Program Version 6.0.0  -   RELEASE  -
|  1> ! r2scan-3c def2/J RI DEFGRID2 scfconv6 printgap
|  2> %output
|  3>     printlevel normal
|  4> end
|  5> * xyz 0 1
|  6> C -1.2797658126 -0.5620045612 -8.0065e-05
|  7> C -1.1074314442 0.8132694665 -0.0001334949
|  8> C 0.153214738 1.3893704632 -0.0003083705
|  9> C 1.2580479889 0.5524065328 -0.0001715633
| 10> C 1.1266498808 -0.8273539373 -5.20414e-05
| 11> C -0.1505450969 -1.365640327 -7.73188e-05
| 12> Cl -0.339982742 -3.0830553987 6.00791e-05
| 13> Cl 2.8400922827 1.2471258106 0.0001112295
| 14> Cl -2.5001706997 1.8359142263 0.0001125977
| 15> H -2.2657944301 -0.9950411145 -6.99439e-05
| 16> H 0.2712970641 2.4598320406 -0.0001646603
| 17> H 1.9946197867 -1.4648182416 5.38103e-05
| 18> *
| 19>
| 20>                          ****END OF INPUT****

CARTESIAN COORDINATES (ANGSTROEM)
---------------------------------
  C     -1.279766   -0.562005   -0.000080
  C     -1.107431    0.813269   -0.000133
  C      0.153215    1.389370   -0.000308
  C      1.258048    0.552407   -0.000172
  C      1.126650   -0.827354   -0.000052
  C     -0.150545   -1.365640   -0.000077
  Cl    -0.339983   -3.083055    0.000060
  Cl     2.840092    1.247126    0.000111
  Cl    -2.500171    1.835914    0.000113
  H     -2.265794   -0.995041   -0.000070
  H      0.271297    2.459832   -0.000165
  H      1.994620   -1.464818    0.000054

 Total Charge           Charge          ....    0
 Multiplicity           Mult            ....    1
 Number of Electrons    NEL             ....   90
 Basis Dimension        Dim             ....  210

ORBITAL ENERGIES
----------------

  NO   OCC          E(Eh)            E(eV)
   0   2.0000    -101.237990     -2754.8258
   1   2.0000    -101.237982     -2754.8255
   2   2.0000    -101.237974     -2754.8253
   3   2.0000     -10.129023      -275.6247
   4   2.0000     -10.129013      -275.6245
   5   2.0000     -10.129001      -275.6241
   6   2.0000     -10.071930      -274.0711
   7   2.0000     -10.071916      -274.0708
   8   2.0000     -10.071904      -274.0704
   9   2.0000      -9.393966      -255.6228
  10   2.0000      -9.393960      -255.6226
  11   2.0000      -9.393953      -255.6224
  12   2.0000      -7.140286      -194.2971
  13   2.0000      -7.140286      -194.2971
  14   2.0000      -7.140274      -194.2967
  15   2.0000      -7.130207      -194.0228
  16   2.0000      -7.130197      -194.0225
  17   2.0000      -7.130193      -194.0224
  18   2.0000      -7.129665      -194.0080
  19   2.0000      -7.129658      -194.0079
  20   2.0000      -7.129651      -194.0077
  21   2.0000      -0.904832       -24.6217
  22   2.0000      -0.860765       -23.4226
  23   2.0000      -0.860764       -23.4226
  24   2.0000      -0.793442       -21.5907
  25   2.0000      -0.726946       -19.7812
  26   2.0000      -0.726933       -19.7809
  27   2.0000      -0.597231       -16.2515
  28   2.0000      -0.597227       -16.2514
  29   2.0000      -0.516178       -14.0459
  30   2.0000      -0.489737       -13.3264
  31   2.0000      -0.462466       -12.5843
  32   2.0000      -0.433758       -11.8031
  33   2.0000      -0.433747       -11.8028
  34   2.0000      -0.415799       -11.3145
  35   2.0000      -0.376412       -10.2427
  36   2.0000      -0.376409       -10.2426
  37   2.0000      -0.357589        -9.7305
  38   2.0000      -0.357587        -9.7304
  39   2.0000      -0.309147        -8.4123
  40   2.0000      -0.309142        -8.4122
  41   2.0000      -0.296234        -8.0609
  42   2.0000      -0.295296        -8.0354
  43   2.0000      -0.248236        -6.7549
  44   2.0000      -0.248231        -6.7547
  45   0.0000      -0.067932        -1.8485
  46   0.0000      -0.067930        -1.8485
  47   0.0000      -0.036567        -0.9951
  48   0.0000       0.020240         0.5508
  49   0.0000       0.020252         0.5511

MULLIKEN ATOMIC CHARGES
-----------------------
   0 C :   -0.313527
   1 C :    0.255034
   2 C :   -0.313504
   3 C :    0.255135
   4 C :   -0.313696
   5 C :    0.255275
   6 Cl:   -0.119168
   7 Cl:   -0.119145
   8 Cl:   -0.119123
   9 H :    0.177560
  10 H :    0.177556
  11 H :    0.177603
Sum of atomic charges:   -0.0000000

LOEWDIN ATOMIC CHARGES
----------------------
   0 C :   -0.187200
   1 C :   -0.153657
   2 C :   -0.187197
   3 C :   -0.153672
   4 C :   -0.187205
   5 C :   -0.153683
   6 Cl:    0.151179
   7 Cl:    0.151178
   8 Cl:    0.151168
   9 H :    0.189692
  10 H :    0.189698
  11 H :    0.189700

  Mayer bond orders larger than 0.100000
B(  0-C ,  1-C ) :   1.3866 B(  0-C ,  5-C ) :   1.3865 B(  0-C ,  9-H ) :   0.9281
B(  1-C ,  2-C ) :   1.3866 B(  1-C ,  8-Cl) :   0.9217 B(  2-C ,  3-C ) :   1.3865
B(  2-C , 10-H ) :   0.9280 B(  3-C ,  4-C ) :   1.3866 B(  3-C ,  7-Cl) :   0.9217
B(  4-C ,  5-C ) :   1.3864 B(  4-C , 11-H ) :   0.9280 B(  5-C ,  6-Cl) :   0.9216

Dispersion correction           -0.005447861
FINAL SINGLE POINT ENERGY     -1610.920894732613

DIPOLE MOMENT
-------------

Method             : SCF
Type of density    : Electron Density
Multiplicity       :   1
Irrep              :   0
Energy             : -1610.9218169280579787 Eh
Relativity type    :
Basis              : AO
                                X                 Y                 Z
Electronic contribution:     -0.000128825       0.000092519       0.000570862
Nuclear contribution   :      0.000196941      -0.000005008      -0.000550679
                        -----------------------------------------
Total Dipole Moment    :      0.000068116       0.000087511       0.000020183
                        -----------------------------------------
Magnitude (a.u.)       :      0.000112718
Magnitude (Debye)      :      0.000286505

Rotational constants in cm-1:             0.028568             0.028565             0.014283
Rotational constants in MHz :           856.433956           856.359136           428.198274

                             ****ORCA TERMINATED NORMALLY****
TOTAL RUN TIME: 0 days 0 hours 0 minutes 21 seconds 820 msec
