                         Program Version 6.0.0  -   RELEASE  -
|  1> ! r2scan-3c def2/J RI DEFGRID2 scfconv6 printgap
|  2> %output
|  3>     printlevel normal
|  4> end
|  5> %cpcm
|  6>     smd true
|  7>     smdsolvent "water"
|  8> end
|  9> * xyz 0 1
| 10> C -1.2797658126 -0.5620045612 -8.0065e-05
| 11> C -1.1074314442 0.8132694665 -0.0001334949
| 12> C 0.153214738 1.3893704632 -0.0003083705
| 13> C 1.2580479889 0.5524065328 -0.0001715633
| 14> C 1.1266498808 -0.8273539373 -5.20414e-05
| 15> C -0.1505450969 -1.365640327 -7.73188e-05
| 16> Cl -0.339982742 -3.0830553987 6.00791e-05
| 17> Cl 2.8400922827 1.2471258106 0.0001112295
| 18> Cl -2.5001706997 1.8359142263 0.0001125977
| 19> H -2.2657944301 -0.9950411145 -6.99439e-05
| 20> H 0.2712970641 2.4598320406 -0.0001646603
| 21> H 1.9946197867 -1.4648182416 5.38103e-05
| 22> *
| 23>
| 24>                          ****END OF INPUT****

CARTESIAN COORDINATES (ANGSTROEM)
---------------------------------
  C     -1.279766   -0.562005   -0.000080
  C     -1.107431    0.813269   -0.000133
  C      0.153215    1.389370   -0.000308
  C      1.258048    0.552407   -0.000172
  C      1.126650   -0.827354   -0.000052
  C     -0.150545   -1.365640   -0.000077
  Cl    -0.339983   -3.083055    0.000060
  Cl     2.840092    1.247126    0.000111
  Cl    -2.500171    1.835914    0.000113
  H     -2.265794   -0.995041   -0.000070
  H      0.271297    2.459832   -0.000165
  H      1.994620   -1.464818    0.000054

 Total Charge           Charge          ....    0
 Multiplicity           Mult            ....    1
 Number of Electrons    NEL             ....   90
 Basis Dimension        Dim             ....  210

ORBITAL ENERGIES
----------------

  NO   OCC          E(Eh)            E(eV)
   0   2.0000    -101.233298     -2754.6981
   1   2.0000    -101.233291     -2754.6979
   2   2.0000    -101.233277     -2754.6975
   3   2.0000     -10.120728      -275.3990
   4   2.0000     -10.120716      -275.3987
   5   2.0000     -10.120705      -275.3984
   6   2.0000     -10.062486      -273.8142
   7   2.0000     -10.062479      -273.8140
   8   2.0000     -10.062452      -273.8132
   9   2.0000      -9.389405      -255.4987
  10   2.0000      -9.389400      -255.4986
  11   2.0000      -9.389386      -255.4982
  12   2.0000      -7.135631      -194.1704
  13   2.0000      -7.135628      -194.1703
  14   2.0000      -7.135618      -194.1700
  15   2.0000      -7.125698      -193.9001
  16   2.0000      -7.125692      -193.8999
  17   2.0000      -7.125675      -193.8995
  18   2.0000      -7.125120      -193.8844
  19   2.0000      -7.125115      -193.8842
  20   2.0000      -7.125099      -193.8838
  21   2.0000      -0.897439       -24.4206
  22   2.0000      -0.855163       -23.2702
  23   2.0000      -0.855151       -23.2698
  24   2.0000      -0.787627       -21.4324
  25   2.0000      -0.718721       -19.5574
  26   2.0000      -0.718710       -19.5571
  27   2.0000      -0.589066       -16.0293
  28   2.0000      -0.589059       -16.0291
  29   2.0000      -0.505678       -13.7602
  30   2.0000      -0.481482       -13.1018
  31   2.0000      -0.454650       -12.3716
  32   2.0000      -0.425664       -11.5829
  33   2.0000      -0.425654       -11.5826
  34   2.0000      -0.408777       -11.1234
  35   2.0000      -0.366339        -9.9686
  36   2.0000      -0.366317        -9.9680
  37   2.0000      -0.352830        -9.6010
  38   2.0000      -0.352820        -9.6007
  39   2.0000      -0.304652        -8.2900
  40   2.0000      -0.304639        -8.2896
  41   2.0000      -0.291677        -7.9369
  42   2.0000      -0.291089        -7.9209
  43   2.0000      -0.241514        -6.5719
  44   2.0000      -0.241510        -6.5718
  45   0.0000      -0.060030        -1.6335
  46   0.0000      -0.060022        -1.6333
  47   0.0000      -0.029914        -0.8140
  48   0.0000       0.026207         0.7131
  49   0.0000       0.026213         0.7133

MULLIKEN ATOMIC CHARGES
-----------------------
   0 C :   -0.299293
   1 C :    0.221798
   2 C :   -0.299625
   3 C :    0.223450
   4 C :   -0.299566
   5 C :    0.222367
   6 Cl:   -0.133456
   7 Cl:   -0.133488
   8 Cl:   -0.133399
   9 H :    0.210153
  10 H :    0.210449
  11 H :    0.210610
Sum of atomic charges:   -0.0000000

LOEWDIN ATOMIC CHARGES
----------------------
   0 C :   -0.181758
   1 C :   -0.159065
   2 C :   -0.181744
   3 C :   -0.159034
   4 C :   -0.181766
   5 C :   -0.159131
   6 Cl:    0.140090
   7 Cl:    0.140088
   8 Cl:    0.140105
   9 H :    0.200667
  10 H :    0.200758
  11 H :    0.200790

  Mayer bond orders larger than 0.100000
B(  0-C ,  1-C ) :   1.3901 B(  0-C ,  5-C ) :   1.3898 B(  0-C ,  9-H ) :   0.9106
B(  1-C ,  2-C ) :   1.3907 B(  1-C ,  8-Cl) :   0.9222 B(  2-C ,  3-C ) :   1.3890
B(  2-C , 10-H ) :   0.9105 B(  3-C ,  4-C ) :   1.3898 B(  3-C ,  7-Cl) :   0.9219
B(  4-C ,  5-C ) :   1.3901 B(  4-C , 11-H ) :   0.9103 B(  5-C ,  6-Cl) :   0.9219

Dispersion correction           -0.005447861
FINAL SINGLE POINT ENERGY     -1610.921452849106

DIPOLE MOMENT
-------------

Method             : SCF
Type of density    : Electron Density
Multiplicity       :   1
Irrep              :   0
Energy             : -1610.9223750445505630 Eh
Relativity type    :
Basis              : AO
                                X                 Y                 Z
Electronic contribution:      0.000353948       0.000733620       0.000568304
Nuclear contribution   :      0.000196941      -0.000005008      -0.000550679
                        -----------------------------------------
Total Dipole Moment    :      0.000550889       0.000728612       0.000017625
                        -----------------------------------------
Magnitude (a.u.)       :      0.000913600
Magnitude (Debye)      :      0.002322186

Rotational constants in cm-1:             0.028568             0.028565             0.014283
Rotational constants in MHz :           856.433956           856.359136           428.198274

                             ****ORCA TERMINATED NORMALLY****
TOTAL RUN TIME: 0 days 0 hours 0 minutes 27 seconds 96 msec
