                         Program Version 6.0.0  -   RELEASE  -
|  1> ! pbe def2-sv(p) def2/J RI DEFGRID1 loosescf d4 GCP(DFT/SV(P)) printgap
|  2> %output
|  3>     printlevel normal
|  4> end
|  5> * xyz 0 1
|  6> C 2.4280996664 -1.7218798758 -2.8463945199
|  7> C 3.4517635874 -0.8972108285 -2.0929892231
|  8> O 3.2611518241 -0.9803793122 -0.6715082721
|  9> P 1.9621851917 -0.4096730892 0.0500592613
| 10> S 1.3971014689 1.3205670333 -0.7133683722
| 11> O 2.4001379581 -0.3928753356 1.5720007488
| 12> C 2.9377821482 0.778764642 2.2151767678
| 13> C 4.3254647065 1.1068939195 1.7060541253
| 14> S 0.7395405689 -2.1261738953 0.0953674615
| 15> C -0.4681877637 -1.714582759 1.4073017929
| 16> S -0.7208134004 0.056290434 1.6878988561
| 17> P -1.9531366241 0.5362443402 0.0421117824
| 18> S -2.2927741387 2.4446189239 -0.235415314
| 19> O -3.2884116625 -0.3222379157 0.2427076271
| 20> C -4.438867273 0.2072861117 0.9177074229
| 21> C -4.2059016003 0.3371216611 2.4094722958
| 22> O -1.2435921648 -0.3254439606 -1.0809693372
| 23> C -1.8110210769 -0.5611593126 -2.3892191519
| 24> C -1.5053285686 0.5798557475 -3.3380536127
| 25> H 2.6482740028 -1.6943015109 -3.9086846299
| 26> H 2.4392029361 -2.7511658108 -2.4965059006
| 27> H 1.4341987549 -1.3062011357 -2.6784067466
| 28> H 3.3893324416 0.1554223741 -2.3888509024
| 29> H 4.466076807 -1.2677072382 -2.2457190067
| 30> H 2.2516003431 1.615438386 2.0448767884
| 31> H 2.9422044451 0.5166451636 3.2738979794
| 32> H 4.9738324872 0.2399697796 1.801052469
| 33> H 4.2740881683 1.3952107968 0.6566372094
| 34> H 4.7344571087 1.932923013 2.2792590371
| 35> H -0.0979868731 -2.1083579001 2.3510893297
| 36> H -1.4092003476 -2.1808310922 1.1225293517
| 37> H -4.6760365335 1.1830564492 0.4816441814
| 38> H -5.2319403009 -0.5068214955 0.6917560468
| 39> H -3.9044373155 -0.6166913314 2.8343015074
| 40> H -3.4213112662 1.0701219317 2.59673526
| 41> H -5.1206156316 0.6719466604 2.8876628319
| 42> H -1.3341173499 -1.4896850667 -2.7114459928
| 43> H -2.8874635883 -0.7152628897 -2.2852250027
| 44> H -1.8355381712 0.3166823033 -4.3377067599
| 45> H -2.014656727 1.4870083151 -3.0184842375
| 46> H -0.4361067112 0.7801016401 -3.3504547403
| 47> *
| 48>
| 49>                          ****END OF INPUT****

CARTESIAN COORDINATES (ANGSTROEM)
---------------------------------
  C      2.428100   -1.721880   -2.846395
  C      3.451764   -0.897211   -2.092989
  O      3.261152   -0.980379   -0.671508
  P      1.962185   -0.409673    0.050059
  S      1.397101    1.320567   -0.713368
  O      2.400138   -0.392875    1.572001
  C      2.937782    0.778765    2.215177
  C      4.325465    1.106894    1.706054
  S      0.739541   -2.126174    0.095367
  C     -0.468188   -1.714583    1.407302
  S     -0.720813    0.056290    1.687899
  P     -1.953137    0.536244    0.042112
  S     -2.292774    2.444619   -0.235415
  O     -3.288412   -0.322238    0.242708
  C     -4.438867    0.207286    0.917707
  C     -4.205902    0.337122    2.409472
  O     -1.243592   -0.325444   -1.080969
  C     -1.811021   -0.561159   -2.389219
  C     -1.505329    0.579856   -3.338054
  H      2.648274   -1.694302   -3.908685
  H      2.439203   -2.751166   -2.496506
  H      1.434199   -1.306201   -2.678407
  H      3.389332    0.155422   -2.388851
  H      4.466077   -1.267707   -2.245719
  H      2.251600    1.615438    2.044877
  H      2.942204    0.516645    3.273898
  H      4.973832    0.239970    1.801052
  H      4.274088    1.395211    0.656637
  H      4.734457    1.932923    2.279259
  H     -0.097987   -2.108358    2.351089
  H     -1.409200   -2.180831    1.122529
  H     -4.676037    1.183056    0.481644
  H     -5.231940   -0.506821    0.691756
  H     -3.904437   -0.616691    2.834302
  H     -3.421311    1.070122    2.596735
  H     -5.120616    0.671947    2.887663
  H     -1.334117   -1.489685   -2.711446
  H     -2.887464   -0.715263   -2.285225
  H     -1.835538    0.316682   -4.337707
  H     -2.014657    1.487008   -3.018484
  H     -0.436107    0.780102   -3.350455

 Total Charge           Charge          ....    0
 Multiplicity           Mult            ....    1
 Number of Electrons    NEL             ....  202
 Basis Dimension        Dim             ....  334

ORBITAL ENERGIES
----------------

  NO   OCC          E(Eh)            E(eV)
   0   2.0000     -88.045777     -2395.8474
   1   2.0000     -88.036821     -2395.6037
   2   2.0000     -87.983286     -2394.1469
   3   2.0000     -87.978252     -2394.0099
   4   2.0000     -76.424454     -2079.6151
   5   2.0000     -76.422340     -2079.5576
   6   2.0000     -18.790128      -511.3054
   7   2.0000     -18.787459      -511.2328
   8   2.0000     -18.787354      -511.2299
   9   2.0000     -18.786057      -511.1946
  10   2.0000      -9.960563      -271.0407
  11   2.0000      -9.951217      -270.7864
  12   2.0000      -9.949380      -270.7364
  13   2.0000      -9.949223      -270.7321
  14   2.0000      -9.946580      -270.6602
  15   2.0000      -9.885449      -268.9967
  16   2.0000      -9.882970      -268.9293
  17   2.0000      -9.878897      -268.8184
  18   2.0000      -9.874367      -268.6952
  19   2.0000      -7.690323      -209.2643
  20   2.0000      -7.681994      -209.0377
  21   2.0000      -7.628406      -207.5795
  22   2.0000      -7.622820      -207.4275
  23   2.0000      -6.421581      -174.7401
  24   2.0000      -6.419245      -174.6765
  25   2.0000      -5.718699      -155.6137
  26   2.0000      -5.714553      -155.5009
  27   2.0000      -5.710227      -155.3832
  28   2.0000      -5.707072      -155.2973
  29   2.0000      -5.706585      -155.2841
  30   2.0000      -5.698487      -155.0637
  31   2.0000      -5.657399      -153.9457
  32   2.0000      -5.651808      -153.7935
  33   2.0000      -5.649203      -153.7226
  34   2.0000      -5.648329      -153.6988
  35   2.0000      -5.643423      -153.5653
  36   2.0000      -5.642991      -153.5536
  37   2.0000      -4.644236      -126.3761
  38   2.0000      -4.643467      -126.3552
  39   2.0000      -4.641939      -126.3136
  40   2.0000      -4.641887      -126.3122
  41   2.0000      -4.641094      -126.2906
  42   2.0000      -4.639664      -126.2517
  43   2.0000      -0.984585       -26.7919
  44   2.0000      -0.982214       -26.7274
  45   2.0000      -0.942662       -25.6511
  46   2.0000      -0.940432       -25.5905
  47   2.0000      -0.762883       -20.7591
  48   2.0000      -0.717420       -19.5220
  49   2.0000      -0.704563       -19.1721
  50   2.0000      -0.684734       -18.6326
  51   2.0000      -0.683095       -18.5880
  52   2.0000      -0.670684       -18.2502
  53   2.0000      -0.652071       -17.7438
  54   2.0000      -0.634714       -17.2715
  55   2.0000      -0.596004       -16.2181
  56   2.0000      -0.587910       -15.9979
  57   2.0000      -0.573192       -15.5973
  58   2.0000      -0.569925       -15.5084
  59   2.0000      -0.563810       -15.3420
  60   2.0000      -0.497981       -13.5507
  61   2.0000      -0.489676       -13.3248
  62   2.0000      -0.470184       -12.7944
  63   2.0000      -0.466281       -12.6882
  64   2.0000      -0.457368       -12.4456
  65   2.0000      -0.438785       -11.9399
  66   2.0000      -0.436913       -11.8890
  67   2.0000      -0.434553       -11.8248
  68   2.0000      -0.422722       -11.5028
  69   2.0000      -0.418245       -11.3810
  70   2.0000      -0.413459       -11.2508
  71   2.0000      -0.395664       -10.7666
  72   2.0000      -0.389756       -10.6058
  73   2.0000      -0.388711       -10.5774
  74   2.0000      -0.378968       -10.3123
  75   2.0000      -0.374645       -10.1946
  76   2.0000      -0.364287        -9.9128
  77   2.0000      -0.357009        -9.7147
  78   2.0000      -0.350979        -9.5506
  79   2.0000      -0.346316        -9.4237
  80   2.0000      -0.345585        -9.4039
  81   2.0000      -0.341513        -9.2930
  82   2.0000      -0.341027        -9.2798
  83   2.0000      -0.334741        -9.1088
  84   2.0000      -0.325860        -8.8671
  85   2.0000      -0.317746        -8.6463
  86   2.0000      -0.310560        -8.4508
  87   2.0000      -0.294763        -8.0209
  88   2.0000      -0.291867        -7.9421
  89   2.0000      -0.289973        -7.8906
  90   2.0000      -0.278020        -7.5653
  91   2.0000      -0.272578        -7.4172
  92   2.0000      -0.268897        -7.3171
  93   2.0000      -0.260551        -7.0899
  94   2.0000      -0.258032        -7.0214
  95   2.0000      -0.233024        -6.3409
  96   2.0000      -0.216759        -5.8983
  97   2.0000      -0.204344        -5.5605
  98   2.0000      -0.197504        -5.3744
  99   2.0000      -0.191860        -5.2208
 100   2.0000      -0.184418        -5.0183
 101   0.0000      -0.050094        -1.3631
 102   0.0000      -0.026220        -0.7135
 103   0.0000      -0.013962        -0.3799
 104   0.0000      -0.000919        -0.0250
 105   0.0000       0.015548         0.4231

MULLIKEN ATOMIC CHARGES
-----------------------
   0 C :   -0.350628
   1 C :    0.003065
   2 O :   -0.369853
   3 P :    0.605272
   4 S :   -0.308781
   5 O :   -0.373063
   6 C :   -0.002608
   7 C :   -0.304001
   8 S :   -0.105466
   9 C :   -0.310197
  10 S :   -0.087012
  11 P :    0.638126
  12 S :   -0.306692
  13 O :   -0.386034
  14 C :   -0.007257
  15 C :   -0.306277
  16 O :   -0.369155
  17 C :   -0.005860
  18 C :   -0.308260
  19 H :    0.114186
  20 H :    0.121733
  21 H :    0.150946
  22 H :    0.108758
  23 H :    0.104535
  24 H :    0.116580
  25 H :    0.100106
  26 H :    0.114645
  27 H :    0.122709
  28 H :    0.110549
  29 H :    0.185434
  30 H :    0.179475
  31 H :    0.110614
  32 H :    0.100373
  33 H :    0.109121
  34 H :    0.124360
  35 H :    0.111748
  36 H :    0.107236
  37 H :    0.101359
  38 H :    0.102687
  39 H :    0.126593
  40 H :    0.130936
Sum of atomic charges:   -0.0000000

LOEWDIN ATOMIC CHARGES
----------------------
   0 C :   -0.373874
   1 C :   -0.121105
   2 O :   -0.246013
   3 P :    0.565201
   4 S :   -0.304910
   5 O :   -0.244693
   6 C :   -0.118648
   7 C :   -0.364509
   8 S :    0.079557
   9 C :   -0.467495
  10 S :    0.110625
  11 P :    0.569811
  12 S :   -0.304620
  13 O :   -0.253711
  14 C :   -0.124869
  15 C :   -0.366757
  16 O :   -0.238053
  17 C :   -0.110261
  18 C :   -0.365742
  19 H :    0.131537
  20 H :    0.124580
  21 H :    0.122447
  22 H :    0.108787
  23 H :    0.118459
  24 H :    0.112116
  25 H :    0.116540
  26 H :    0.125526
  27 H :    0.122802
  28 H :    0.129656
  29 H :    0.137522
  30 H :    0.131947
  31 H :    0.108522
  32 H :    0.115699
  33 H :    0.121322
  34 H :    0.120548
  35 H :    0.130161
  36 H :    0.115279
  37 H :    0.109019
  38 H :    0.125783
  39 H :    0.124376
  40 H :    0.127434

  Mayer bond orders larger than 0.100000
B(  0-C ,  1-C ) :   1.1650 B(  0-C , 19-H ) :   0.9375 B(  0-C , 20-H ) :   0.9417
B(  0-C , 21-H ) :   0.9254 B(  1-C ,  2-O ) :   0.9119 B(  1-C , 22-H ) :   0.9122
B(  1-C , 23-H ) :   0.9327 B(  2-O ,  3-P ) :   1.0974 B(  3-P ,  4-S ) :   1.5837
B(  3-P ,  5-O ) :   1.1135 B(  3-P ,  8-S ) :   0.9744 B(  4-S ,  8-S ) :   0.1192
B(  5-O ,  6-C ) :   0.9024 B(  6-C ,  7-C ) :   1.1668 B(  6-C , 24-H ) :   0.9150
B(  6-C , 25-H ) :   0.9349 B(  7-C , 26-H ) :   0.9461 B(  7-C , 27-H ) :   0.9354
B(  7-C , 28-H ) :   0.9395 B(  8-S ,  9-C ) :   0.9692 B(  9-C , 10-S ) :   1.0061
B(  9-C , 29-H ) :   0.9088 B(  9-C , 30-H ) :   0.9043 B( 10-S , 11-P ) :   0.9521
B( 11-P , 12-S ) :   1.6588 B( 11-P , 13-O ) :   1.0534 B( 11-P , 16-O ) :   1.1156
B( 13-O , 14-C ) :   0.9157 B( 14-C , 15-C ) :   1.1642 B( 14-C , 31-H ) :   0.9099
B( 14-C , 32-H ) :   0.9331 B( 15-C , 33-H ) :   0.9469 B( 15-C , 34-H ) :   0.9358
B( 15-C , 35-H ) :   0.9391 B( 16-O , 17-C ) :   0.8997 B( 17-C , 18-C ) :   1.1725
B( 17-C , 36-H ) :   0.9263 B( 17-C , 37-H ) :   0.9235 B( 18-C , 38-H ) :   0.9384
B( 18-C , 39-H ) :   0.9334 B( 18-C , 40-H ) :   0.9405

Dispersion correction           -0.069446139
FINAL SINGLE POINT ENERGY     -2929.512079588835

DIPOLE MOMENT
-------------

Method             : SCF
Type of density    : Electron Density
Multiplicity       :   1
Irrep              :   0
Energy             : -2929.6280824827022116 Eh
Relativity type    :
Basis              : AO
                                X                 Y                 Z
Electronic contribution:     -1.301543942       1.946785448       6.195684735
Nuclear contribution   :      1.144686040      -3.262262698      -6.109928544
                        -----------------------------------------
Total Dipole Moment    :     -0.156857902      -1.315477250       0.085756190
                        -----------------------------------------
Magnitude (a.u.)       :      1.327568800
Magnitude (Debye)      :      3.374411722

Rotational constants in cm-1:             0.012077             0.005907             0.005260
Rotational constants in MHz :           362.068977           177.096922           157.676424

                             ****ORCA TERMINATED NORMALLY****
TOTAL RUN TIME: 0 days 0 hours 0 minutes 22 seconds 171 msec
