                         Program Version 6.0.0  -   RELEASE  -
|  1> ! pbe def2-sv(p) def2/J RI DEFGRID1 loosescf d4 GCP(DFT/SV(P)) printgap
|  2> %output
|  3>     printlevel normal
|  4> end
|  5> * xyz 0 1
|  6> C 4.3115839092 -0.1693872991 -2.1805352298
|  7> C 4.4829749129 -0.4696223197 -0.7052388196
|  8> O 3.2232318701 -0.7195922464 -0.0600839186
|  9> P 2.2003393133 0.4645243977 0.2558477967
| 10> S 3.0199802898 2.1890970923 0.6908907845
| 11> O 1.2534675397 -0.2029612595 1.3340049031
| 12> C 1.7058416251 -1.0138695786 2.4403318966
| 13> C 2.6413888416 -0.2582132344 3.3597248122
| 14> S 0.8604514065 0.5645880384 -1.3767146535
| 15> C 0.4200021454 -1.1891043692 -1.5586184603
| 16> S -0.6868924612 -1.8348825328 -0.2655676637
| 17> P -2.1071009729 -0.2845933425 -0.3012647158
| 18> S -2.6167700556 0.41390822 -2.0654626261
| 19> O -1.4936543656 0.7432403912 0.7364379206
| 20> C -1.7649804454 2.154907569 0.6686529801
| 21> C -3.1847705959 2.4635165293 1.0929380474
| 22> O -3.3046083582 -0.8914862434 0.5466318948
| 23> C -4.2310792325 -1.8383585835 -0.0254943524
| 24> C -5.4747519215 -1.8567329289 0.8398604617
| 25> H 5.2884666314 -0.0397615468 -2.6350659411
| 26> H 3.7888102911 -0.9801386204 -2.6811931677
| 27> H 3.7404850593 0.7499796398 -2.3070111225
| 28> H 4.9697058054 0.3705718978 -0.1996884948
| 29> H 5.0525063263 -1.3853541394 -0.5411911651
| 30> H 0.7781880093 -1.2902082212 2.9446912312
| 31> H 2.1865927525 -1.9071925469 2.0361096608
| 32> H 2.9028645663 -0.887168375 4.2049110561
| 33> H 3.5496309343 0.0187163597 2.8255564712
| 34> H 2.1665146761 0.6513554866 3.720178021
| 35> H 1.3155899514 -1.8048343313 -1.5322417771
| 36> H -0.0808667242 -1.2552988603 -2.5230933165
| 37> H -1.0276875546 2.6002541953 1.3394734662
| 38> H -1.5789413983 2.4981337109 -0.3553051034
| 39> H -3.332438492 3.5387821227 1.1050918961
| 40> H -3.8819070558 2.0161890522 0.385030895
| 41> H -3.3766995568 2.0569798865 2.0823372019
| 42> H -4.4582411769 -1.5267335589 -1.0505929632
| 43> H -3.7458297111 -2.8176980469 -0.0479623308
| 44> H -5.9462118562 -0.8781318116 0.8406467237
| 45> H -6.1713335448 -2.5890464432 0.4452573718
| 46> H -5.2117457578 -2.1214246242 1.8597818092
| 47> *
| 48>
| 49>                          ****END OF INPUT****

CARTESIAN COORDINATES (ANGSTROEM)
---------------------------------
  C      4.311584   -0.169387   -2.180535
  C      4.482975   -0.469622   -0.705239
  O      3.223232   -0.719592   -0.060084
  P      2.200339    0.464524    0.255848
  S      3.019980    2.189097    0.690891
  O      1.253468   -0.202961    1.334005
  C      1.705842   -1.013870    2.440332
  C      2.641389   -0.258213    3.359725
  S      0.860451    0.564588   -1.376715
  C      0.420002   -1.189104   -1.558618
  S     -0.686892   -1.834883   -0.265568
  P     -2.107101   -0.284593   -0.301265
  S     -2.616770    0.413908   -2.065463
  O     -1.493654    0.743240    0.736438
  C     -1.764980    2.154908    0.668653
  C     -3.184771    2.463517    1.092938
  O     -3.304608   -0.891486    0.546632
  C     -4.231079   -1.838359   -0.025494
  C     -5.474752   -1.856733    0.839860
  H      5.288467   -0.039762   -2.635066
  H      3.788810   -0.980139   -2.681193
  H      3.740485    0.749980   -2.307011
  H      4.969706    0.370572   -0.199688
  H      5.052506   -1.385354   -0.541191
  H      0.778188   -1.290208    2.944691
  H      2.186593   -1.907193    2.036110
  H      2.902865   -0.887168    4.204911
  H      3.549631    0.018716    2.825556
  H      2.166515    0.651355    3.720178
  H      1.315590   -1.804834   -1.532242
  H     -0.080867   -1.255299   -2.523093
  H     -1.027688    2.600254    1.339473
  H     -1.578941    2.498134   -0.355305
  H     -3.332438    3.538782    1.105092
  H     -3.881907    2.016189    0.385031
  H     -3.376700    2.056980    2.082337
  H     -4.458241   -1.526734   -1.050593
  H     -3.745830   -2.817698   -0.047962
  H     -5.946212   -0.878132    0.840647
  H     -6.171334   -2.589046    0.445257
  H     -5.211746   -2.121425    1.859782

 Total Charge           Charge          ....    0
 Multiplicity           Mult            ....    1
 Number of Electrons    NEL             ....  202
 Basis Dimension        Dim             ....  334

ORBITAL ENERGIES
----------------

  NO   OCC          E(Eh)            E(eV)
   0   2.0000     -88.042750     -2395.7650
   1   2.0000     -88.040082     -2395.6924
   2   2.0000     -87.985676     -2394.2120
   3   2.0000     -87.984975     -2394.1929
   4   2.0000     -76.425755     -2079.6505
   5   2.0000     -76.424806     -2079.6247
   6   2.0000     -18.799501      -511.5604
   7   2.0000     -18.793411      -511.3947
   8   2.0000     -18.786386      -511.2036
   9   2.0000     -18.784116      -511.1418
  10   2.0000      -9.959176      -271.0030
  11   2.0000      -9.955418      -270.9007
  12   2.0000      -9.953290      -270.8428
  13   2.0000      -9.952773      -270.8287
  14   2.0000      -9.942631      -270.5527
  15   2.0000      -9.888794      -269.0878
  16   2.0000      -9.887101      -269.0417
  17   2.0000      -9.883358      -268.9398
  18   2.0000      -9.877805      -268.7887
  19   2.0000      -7.687200      -209.1793
  20   2.0000      -7.685589      -209.1355
  21   2.0000      -7.630638      -207.6402
  22   2.0000      -7.630235      -207.6292
  23   2.0000      -6.423111      -174.7817
  24   2.0000      -6.422167      -174.7561
  25   2.0000      -5.715492      -155.5264
  26   2.0000      -5.713514      -155.4726
  27   2.0000      -5.711423      -155.4157
  28   2.0000      -5.710187      -155.3821
  29   2.0000      -5.704107      -155.2166
  30   2.0000      -5.702311      -155.1678
  31   2.0000      -5.659456      -154.0016
  32   2.0000      -5.659110      -153.9922
  33   2.0000      -5.651282      -153.7792
  34   2.0000      -5.650923      -153.7694
  35   2.0000      -5.650778      -153.7655
  36   2.0000      -5.650524      -153.7586
  37   2.0000      -4.646093      -126.4266
  38   2.0000      -4.644856      -126.3930
  39   2.0000      -4.644480      -126.3827
  40   2.0000      -4.644007      -126.3699
  41   2.0000      -4.643279      -126.3501
  42   2.0000      -4.642826      -126.3377
  43   2.0000      -0.989073       -26.9141
  44   2.0000      -0.984374       -26.7862
  45   2.0000      -0.945110       -25.7178
  46   2.0000      -0.942534       -25.6476
  47   2.0000      -0.763468       -20.7750
  48   2.0000      -0.721563       -19.6347
  49   2.0000      -0.708122       -19.2690
  50   2.0000      -0.690220       -18.7818
  51   2.0000      -0.684505       -18.6263
  52   2.0000      -0.672944       -18.3117
  53   2.0000      -0.652433       -17.7536
  54   2.0000      -0.637149       -17.3377
  55   2.0000      -0.596563       -16.2333
  56   2.0000      -0.591943       -16.1076
  57   2.0000      -0.578727       -15.7480
  58   2.0000      -0.567895       -15.4532
  59   2.0000      -0.560401       -15.2493
  60   2.0000      -0.503183       -13.6923
  61   2.0000      -0.497811       -13.5461
  62   2.0000      -0.475175       -12.9302
  63   2.0000      -0.470900       -12.8138
  64   2.0000      -0.457478       -12.4486
  65   2.0000      -0.445193       -12.1143
  66   2.0000      -0.439800       -11.9676
  67   2.0000      -0.431724       -11.7478
  68   2.0000      -0.425089       -11.5673
  69   2.0000      -0.415312       -11.3012
  70   2.0000      -0.411335       -11.1930
  71   2.0000      -0.402371       -10.9491
  72   2.0000      -0.392026       -10.6676
  73   2.0000      -0.388273       -10.5654
  74   2.0000      -0.380759       -10.3610
  75   2.0000      -0.371796       -10.1171
  76   2.0000      -0.368161       -10.0182
  77   2.0000      -0.357333        -9.7235
  78   2.0000      -0.354633        -9.6501
  79   2.0000      -0.351495        -9.5647
  80   2.0000      -0.344811        -9.3828
  81   2.0000      -0.343047        -9.3348
  82   2.0000      -0.340951        -9.2777
  83   2.0000      -0.336640        -9.1605
  84   2.0000      -0.332458        -9.0467
  85   2.0000      -0.324250        -8.8233
  86   2.0000      -0.313140        -8.5210
  87   2.0000      -0.300747        -8.1837
  88   2.0000      -0.295632        -8.0445
  89   2.0000      -0.292042        -7.9469
  90   2.0000      -0.278839        -7.5876
  91   2.0000      -0.278000        -7.5648
  92   2.0000      -0.266664        -7.2563
  93   2.0000      -0.263435        -7.1684
  94   2.0000      -0.258885        -7.0446
  95   2.0000      -0.230722        -6.2783
  96   2.0000      -0.219856        -5.9826
  97   2.0000      -0.206040        -5.6066
  98   2.0000      -0.204756        -5.5717
  99   2.0000      -0.199395        -5.4258
 100   2.0000      -0.196761        -5.3541
 101   0.0000      -0.042781        -1.1641
 102   0.0000      -0.018833        -0.5125
 103   0.0000      -0.002568        -0.0699
 104   0.0000       0.001820         0.0495
 105   0.0000       0.007036         0.1915

MULLIKEN ATOMIC CHARGES
-----------------------
   0 C :   -0.313859
   1 C :   -0.007555
   2 O :   -0.392424
   3 P :    0.617938
   4 S :   -0.322161
   5 O :   -0.361603
   6 C :    0.005684
   7 C :   -0.311985
   8 S :   -0.060196
   9 C :   -0.349234
  10 S :   -0.091410
  11 P :    0.610338
  12 S :   -0.336646
  13 O :   -0.351432
  14 C :   -0.007151
  15 C :   -0.303072
  16 O :   -0.373536
  17 C :   -0.012131
  18 C :   -0.280919
  19 H :    0.114577
  20 H :    0.113278
  21 H :    0.132074
  22 H :    0.113470
  23 H :    0.102852
  24 H :    0.107927
  25 H :    0.102314
  26 H :    0.109005
  27 H :    0.124722
  28 H :    0.124813
  29 H :    0.178307
  30 H :    0.192741
  31 H :    0.109439
  32 H :    0.115588
  33 H :    0.111352
  34 H :    0.119335
  35 H :    0.113211
  36 H :    0.106046
  37 H :    0.101165
  38 H :    0.120461
  39 H :    0.111964
  40 H :    0.116709
Sum of atomic charges:    0.0000000

LOEWDIN ATOMIC CHARGES
----------------------
   0 C :   -0.366309
   1 C :   -0.122913
   2 O :   -0.251469
   3 P :    0.562527
   4 S :   -0.322088
   5 O :   -0.236192
   6 C :   -0.110861
   7 C :   -0.365965
   8 S :    0.113396
   9 C :   -0.475478
  10 S :    0.079243
  11 P :    0.568772
  12 S :   -0.329906
  13 O :   -0.230669
  14 C :   -0.119220
  15 C :   -0.364372
  16 O :   -0.247835
  17 C :   -0.121169
  18 C :   -0.350246
  19 H :    0.132169
  20 H :    0.122265
  21 H :    0.124154
  22 H :    0.110308
  23 H :    0.116716
  24 H :    0.120600
  25 H :    0.109837
  26 H :    0.128520
  27 H :    0.120862
  28 H :    0.130258
  29 H :    0.129391
  30 H :    0.136378
  31 H :    0.120124
  32 H :    0.110312
  33 H :    0.130036
  34 H :    0.120392
  35 H :    0.124593
  36 H :    0.108193
  37 H :    0.109254
  38 H :    0.128524
  39 H :    0.130880
  40 H :    0.126989

  Mayer bond orders larger than 0.100000
B(  0-C ,  1-C ) :   1.1649 B(  0-C , 19-H ) :   0.9387 B(  0-C , 20-H ) :   0.9466
B(  0-C , 21-H ) :   0.9343 B(  1-C ,  2-O ) :   0.9077 B(  1-C , 22-H ) :   0.9107
B(  1-C , 23-H ) :   0.9332 B(  2-O ,  3-P ) :   1.0429 B(  3-P ,  4-S ) :   1.6520
B(  3-P ,  5-O ) :   1.1286 B(  3-P ,  8-S ) :   0.9640 B(  5-O ,  6-C ) :   0.9024
B(  6-C ,  7-C ) :   1.1675 B(  6-C , 24-H ) :   0.9324 B(  6-C , 25-H ) :   0.9298
B(  7-C , 26-H ) :   0.9367 B(  7-C , 27-H ) :   0.9365 B(  7-C , 28-H ) :   0.9450
B(  8-S ,  9-C ) :   0.9926 B(  9-C , 10-S ) :   0.9914 B(  9-C , 29-H ) :   0.8985
B(  9-C , 30-H ) :   0.8961 B( 10-S , 11-P ) :   0.9725 B( 10-S , 12-S ) :   0.1098
B( 11-P , 12-S ) :   1.5933 B( 11-P , 13-O ) :   1.1390 B( 11-P , 16-O ) :   1.1118
B( 13-O , 14-C ) :   0.9004 B( 14-C , 15-C ) :   1.1630 B( 14-C , 31-H ) :   0.9315
B( 14-C , 32-H ) :   0.9151 B( 15-C , 33-H ) :   0.9401 B( 15-C , 34-H ) :   0.9360
B( 15-C , 35-H ) :   0.9466 B( 16-O , 17-C ) :   0.9046 B( 17-C , 18-C ) :   1.1606
B( 17-C , 36-H ) :   0.9085 B( 17-C , 37-H ) :   0.9294 B( 18-C , 38-H ) :   0.9514
B( 18-C , 39-H ) :   0.9419 B( 18-C , 40-H ) :   0.9505

Dispersion correction           -0.065821297
FINAL SINGLE POINT ENERGY     -2929.521497976972

DIPOLE MOMENT
-------------

Method             : SCF
Type of density    : Electron Density
Multiplicity       :   1
Irrep              :   0
Energy             : -2929.6404231772899038 Eh
Relativity type    :
Basis              : AO
                                X                 Y                 Z
Electronic contribution:      3.125312812       3.429276881      -8.907579321
Nuclear contribution   :     -2.987344892      -4.889205257       9.468428654
                        -----------------------------------------
Total Dipole Moment    :      0.137967920      -1.459928376       0.560849333
                        -----------------------------------------
Magnitude (a.u.)       :      1.570024835
Magnitude (Debye)      :      3.990685986

Rotational constants in cm-1:             0.013184             0.004814             0.004673
Rotational constants in MHz :           395.237198           144.331431           140.089384

                             ****ORCA TERMINATED NORMALLY****
TOTAL RUN TIME: 0 days 0 hours 0 minutes 21 seconds 252 msec
