                         Program Version 6.0.0  -   RELEASE  -
|  1> ! r2scan-3c def2/J RI DEFGRID2 scfconv6 printgap
|  2> %output
|  3>     printlevel normal
|  4> end
|  5> * xyz 0 1
|  6> C 5.2226597937 -2.3239538563 -1.043189766
|  7> C 4.1647181804 -1.3116514321 -1.4336777385
|  8> O 3.1389825115 -1.327631744 -0.4203477783
|  9> P 2.1611492371 -0.0958532676 -0.1881468568
| 10> S 3.0562660405 1.6503373439 -0.1136622586
| 11> O 1.3919270393 -0.5578015807 1.1097412638
| 12> C 1.8133007012 -0.1916042705 2.445958894
| 13> C 0.6030523909 0.2694458709 3.2317044678
| 14> S 0.6951104648 -0.3482673515 -1.6827232506
| 15> C 0.0292185449 1.3375783599 -1.6167359427
| 16> S -0.7944517101 1.7235795015 -0.0543614541
| 17> P -2.2988438043 0.2343504877 -0.199948975
| 18> S -3.0005011129 -0.1203409232 -1.9869334517
| 19> O -3.4435138468 0.7094782873 0.7832269904
| 20> C -3.2753102891 0.8897428577 2.2121373353
| 21> C -2.9947537752 2.3401511498 2.5490903407
| 22> O -1.576485238 -0.9864127919 0.5392363993
| 23> C -1.6822031858 -2.3458540707 0.0849731221
| 24> C -2.9928578816 -2.9639315814 0.5278701342
| 25> H 4.7757032107 -3.3095694105 -0.951227903
| 26> H 5.9920482236 -2.3470510523 -1.8078915166
| 27> H 5.6700931836 -2.0490531691 -0.0921857204
| 28> H 3.7005560772 -1.5659902025 -2.3900429299
| 29> H 4.580377411 -0.3000492997 -1.4934134888
| 30> H 2.2645697793 -1.0826375553 2.8868750761
| 31> H 2.5646776944 0.6019576491 2.3757113754
| 32> H 0.9025114426 0.4889379843 4.2513229861
| 33> H 0.1844848571 1.1654459735 2.779920864
| 34> H -0.1517199391 -0.5119943602 3.2368004295
| 35> H -0.6858699253 1.4164019972 -2.4349861087
| 36> H 0.8423328059 2.0554393418 -1.7238076327
| 37> H -4.2278987363 0.5650739901 2.6343284219
| 38> H -2.4720011546 0.23721755 2.5598393571
| 39> H -3.786018736 2.9734797917 2.1577941993
| 40> H -2.9466173802 2.4500434538 3.6279394939
| 41> H -2.0492343465 2.6597422751 2.1153304595
| 42> H -1.5954773817 -2.362325328 -1.0062818212
| 43> H -0.8192179854 -2.8463387203 0.5275932957
| 44> H -3.0353530826 -3.9958113856 0.1941733465
| 45> H -3.0838089403 -2.9303857147 1.6102730409
| 46> H -3.8228130432 -2.4139923496 0.0849140044
| 47> *
| 48>
| 49>                          ****END OF INPUT****

CARTESIAN COORDINATES (ANGSTROEM)
---------------------------------
  C      5.222660   -2.323954   -1.043190
  C      4.164718   -1.311651   -1.433678
  O      3.138983   -1.327632   -0.420348
  P      2.161149   -0.095853   -0.188147
  S      3.056266    1.650337   -0.113662
  O      1.391927   -0.557802    1.109741
  C      1.813301   -0.191604    2.445959
  C      0.603052    0.269446    3.231704
  S      0.695110   -0.348267   -1.682723
  C      0.029219    1.337578   -1.616736
  S     -0.794452    1.723580   -0.054361
  P     -2.298844    0.234350   -0.199949
  S     -3.000501   -0.120341   -1.986933
  O     -3.443514    0.709478    0.783227
  C     -3.275310    0.889743    2.212137
  C     -2.994754    2.340151    2.549090
  O     -1.576485   -0.986413    0.539236
  C     -1.682203   -2.345854    0.084973
  C     -2.992858   -2.963932    0.527870
  H      4.775703   -3.309569   -0.951228
  H      5.992048   -2.347051   -1.807892
  H      5.670093   -2.049053   -0.092186
  H      3.700556   -1.565990   -2.390043
  H      4.580377   -0.300049   -1.493413
  H      2.264570   -1.082638    2.886875
  H      2.564678    0.601958    2.375711
  H      0.902511    0.488938    4.251323
  H      0.184485    1.165446    2.779921
  H     -0.151720   -0.511994    3.236800
  H     -0.685870    1.416402   -2.434986
  H      0.842333    2.055439   -1.723808
  H     -4.227899    0.565074    2.634328
  H     -2.472001    0.237218    2.559839
  H     -3.786019    2.973480    2.157794
  H     -2.946617    2.450043    3.627939
  H     -2.049234    2.659742    2.115330
  H     -1.595477   -2.362325   -1.006282
  H     -0.819218   -2.846339    0.527593
  H     -3.035353   -3.995811    0.194173
  H     -3.083809   -2.930386    1.610273
  H     -3.822813   -2.413992    0.084914

 Total Charge           Charge          ....    0
 Multiplicity           Mult            ....    1
 Number of Electrons    NEL             ....  202
 Basis Dimension        Dim             ....  539

ORBITAL ENERGIES
----------------

  NO   OCC          E(Eh)            E(eV)
   0   2.0000     -88.576795     -2410.2971
   1   2.0000     -88.573398     -2410.2047
   2   2.0000     -88.520992     -2408.7787
   3   2.0000     -88.519473     -2408.7373
   4   2.0000     -76.913997     -2092.9363
   5   2.0000     -76.913827     -2092.9316
   6   2.0000     -18.993548      -516.8407
   7   2.0000     -18.992604      -516.8150
   8   2.0000     -18.990431      -516.7559
   9   2.0000     -18.986045      -516.6365
  10   2.0000     -10.107129      -275.0290
  11   2.0000     -10.105119      -274.9743
  12   2.0000     -10.099986      -274.8346
  13   2.0000     -10.098802      -274.8024
  14   2.0000     -10.093254      -274.6514
  15   2.0000     -10.036700      -273.1125
  16   2.0000     -10.033988      -273.0387
  17   2.0000     -10.033046      -273.0131
  18   2.0000     -10.027593      -272.8647
  19   2.0000      -7.871068      -214.1827
  20   2.0000      -7.867949      -214.0978
  21   2.0000      -7.815841      -212.6798
  22   2.0000      -7.814334      -212.6388
  23   2.0000      -6.592639      -179.3948
  24   2.0000      -6.592054      -179.3789
  25   2.0000      -5.817991      -158.3156
  26   2.0000      -5.814896      -158.2314
  27   2.0000      -5.814829      -158.2295
  28   2.0000      -5.811854      -158.1486
  29   2.0000      -5.808183      -158.0487
  30   2.0000      -5.804952      -157.9608
  31   2.0000      -5.763367      -156.8292
  32   2.0000      -5.762145      -156.7959
  33   2.0000      -5.756141      -156.6326
  34   2.0000      -5.755917      -156.6265
  35   2.0000      -5.754529      -156.5887
  36   2.0000      -5.754233      -156.5806
  37   2.0000      -4.738049      -128.9289
  38   2.0000      -4.737919      -128.9253
  39   2.0000      -4.737575      -128.9160
  40   2.0000      -4.736621      -128.8900
  41   2.0000      -4.736408      -128.8842
  42   2.0000      -4.735848      -128.8690
  43   2.0000      -1.050053       -28.5734
  44   2.0000      -1.047216       -28.4962
  45   2.0000      -1.010632       -27.5007
  46   2.0000      -1.007841       -27.4247
  47   2.0000      -0.803351       -21.8603
  48   2.0000      -0.761994       -20.7349
  49   2.0000      -0.753500       -20.5038
  50   2.0000      -0.735100       -20.0031
  51   2.0000      -0.733972       -19.9724
  52   2.0000      -0.710173       -19.3248
  53   2.0000      -0.685172       -18.6445
  54   2.0000      -0.669542       -18.2192
  55   2.0000      -0.629889       -17.1401
  56   2.0000      -0.619774       -16.8649
  57   2.0000      -0.612795       -16.6750
  58   2.0000      -0.603816       -16.4307
  59   2.0000      -0.590601       -16.0711
  60   2.0000      -0.535472       -14.5709
  61   2.0000      -0.524062       -14.2605
  62   2.0000      -0.500715       -13.6251
  63   2.0000      -0.497290       -13.5320
  64   2.0000      -0.474161       -12.9026
  65   2.0000      -0.464984       -12.6529
  66   2.0000      -0.460286       -12.5250
  67   2.0000      -0.453344       -12.3361
  68   2.0000      -0.449591       -12.2340
  69   2.0000      -0.432760       -11.7760
  70   2.0000      -0.421483       -11.4691
  71   2.0000      -0.414615       -11.2822
  72   2.0000      -0.408038       -11.1033
  73   2.0000      -0.399147       -10.8613
  74   2.0000      -0.393985       -10.7209
  75   2.0000      -0.391379       -10.6500
  76   2.0000      -0.386474       -10.5165
  77   2.0000      -0.374683       -10.1956
  78   2.0000      -0.373803       -10.1717
  79   2.0000      -0.373291       -10.1578
  80   2.0000      -0.368098       -10.0165
  81   2.0000      -0.364258        -9.9120
  82   2.0000      -0.359175        -9.7736
  83   2.0000      -0.356220        -9.6932
  84   2.0000      -0.349781        -9.5180
  85   2.0000      -0.334211        -9.0943
  86   2.0000      -0.323248        -8.7960
  87   2.0000      -0.319001        -8.6805
  88   2.0000      -0.315293        -8.5796
  89   2.0000      -0.305345        -8.3089
  90   2.0000      -0.296132        -8.0582
  91   2.0000      -0.294326        -8.0090
  92   2.0000      -0.286674        -7.8008
  93   2.0000      -0.278872        -7.5885
  94   2.0000      -0.273728        -7.4485
  95   2.0000      -0.245098        -6.6695
  96   2.0000      -0.229055        -6.2329
  97   2.0000      -0.227385        -6.1875
  98   2.0000      -0.220471        -5.9993
  99   2.0000      -0.213248        -5.8028
 100   2.0000      -0.212776        -5.7899
 101   0.0000      -0.047632        -1.2961
 102   0.0000      -0.024563        -0.6684
 103   0.0000      -0.000479        -0.0130
 104   0.0000       0.004047         0.1101
 105   0.0000       0.007880         0.2144

MULLIKEN ATOMIC CHARGES
-----------------------
   0 C :   -0.443166
   1 C :   -0.149986
   2 O :   -0.291586
   3 P :    0.714003
   4 S :   -0.498049
   5 O :   -0.256930
   6 C :   -0.120016
   7 C :   -0.479600
   8 S :   -0.142402
   9 C :   -0.240667
  10 S :   -0.155322
  11 P :    0.682686
  12 S :   -0.450707
  13 O :   -0.283437
  14 C :   -0.175291
  15 C :   -0.416600
  16 O :   -0.261078
  17 C :   -0.162211
  18 C :   -0.448001
  19 H :    0.153048
  20 H :    0.147166
  21 H :    0.156246
  22 H :    0.151131
  23 H :    0.170601
  24 H :    0.148575
  25 H :    0.169647
  26 H :    0.145424
  27 H :    0.168529
  28 H :    0.154574
  29 H :    0.212673
  30 H :    0.212844
  31 H :    0.154664
  32 H :    0.165120
  33 H :    0.162537
  34 H :    0.148699
  35 H :    0.153229
  36 H :    0.177517
  37 H :    0.159926
  38 H :    0.147114
  39 H :    0.145278
  40 H :    0.173817
Sum of atomic charges:    0.0000000

LOEWDIN ATOMIC CHARGES
----------------------
   0 C :   -0.386176
   1 C :    0.020058
   2 O :   -0.664141
   3 P :    0.373772
   4 S :   -0.141104
   5 O :   -0.659620
   6 C :    0.027361
   7 C :   -0.397279
   8 S :    0.180745
   9 C :   -0.419831
  10 S :    0.148364
  11 P :    0.383755
  12 S :   -0.097515
  13 O :   -0.652074
  14 C :    0.023309
  15 C :   -0.398004
  16 O :   -0.694076
  17 C :    0.007770
  18 C :   -0.399181
  19 H :    0.159405
  20 H :    0.160108
  21 H :    0.160505
  22 H :    0.171627
  23 H :    0.181012
  24 H :    0.172783
  25 H :    0.182968
  26 H :    0.158170
  27 H :    0.164123
  28 H :    0.159088
  29 H :    0.190825
  30 H :    0.191987
  31 H :    0.181505
  32 H :    0.178214
  33 H :    0.164308
  34 H :    0.160294
  35 H :    0.162615
  36 H :    0.182568
  37 H :    0.180677
  38 H :    0.159946
  39 H :    0.154634
  40 H :    0.166505

  Mayer bond orders larger than 0.100000
B(  0-C ,  1-C ) :   0.9571 B(  0-C , 19-H ) :   0.9718 B(  0-C , 20-H ) :   0.9646
B(  0-C , 21-H ) :   0.9721 B(  1-C ,  2-O ) :   0.7782 B(  1-C , 22-H ) :   0.9454
B(  1-C , 23-H ) :   0.9520 B(  2-O ,  3-P ) :   1.0853 B(  3-P ,  4-S ) :   1.7284
B(  3-P ,  5-O ) :   1.1839 B(  3-P ,  8-S ) :   1.0701 B(  5-O ,  6-C ) :   0.7606
B(  6-C ,  7-C ) :   0.9560 B(  6-C , 24-H ) :   0.9515 B(  6-C , 25-H ) :   0.9572
B(  7-C , 26-H ) :   0.9629 B(  7-C , 27-H ) :   0.9677 B(  7-C , 28-H ) :   0.9685
B(  8-S ,  9-C ) :   0.8962 B(  9-C , 10-S ) :   0.9104 B(  9-C , 29-H ) :   0.9109
B(  9-C , 30-H ) :   0.9094 B( 10-S , 11-P ) :   1.0315 B( 11-P , 12-S ) :   1.8330
B( 11-P , 13-O ) :   1.1326 B( 11-P , 16-O ) :   1.0348 B( 13-O , 14-C ) :   0.7555
B( 14-C , 15-C ) :   0.9583 B( 14-C , 31-H ) :   0.9610 B( 14-C , 32-H ) :   0.9678
B( 15-C , 33-H ) :   0.9699 B( 15-C , 34-H ) :   0.9662 B( 15-C , 35-H ) :   0.9515
B( 16-O , 17-C ) :   0.7738 B( 17-C , 18-C ) :   0.9246 B( 17-C , 36-H ) :   0.9566
B( 17-C , 37-H ) :   0.9655 B( 18-C , 38-H ) :   0.9639 B( 18-C , 39-H ) :   0.9752
B( 18-C , 40-H ) :   0.9625

Dispersion correction           -0.021866322
FINAL SINGLE POINT ENERGY     -2932.462196968353

DIPOLE MOMENT
-------------

Method             : SCF
Type of density    : Electron Density
Multiplicity       :   1
Irrep              :   0
Energy             : -2932.4868659951453083 Eh
Relativity type    :
Basis              : AO
                                X                 Y                 Z
Electronic contribution:     -2.257452608       9.650692092     -16.979094098
Nuclear contribution   :      2.745171960     -10.654949089      18.447055174
                        -----------------------------------------
Total Dipole Moment    :      0.487719352      -1.004256998       1.467961076
                        -----------------------------------------
Magnitude (a.u.)       :      1.844264624
Magnitude (Debye)      :      4.687748132

Rotational constants in cm-1:             0.011874             0.005299             0.004920
Rotational constants in MHz :           355.972769           158.849721           147.495259

                             ****ORCA TERMINATED NORMALLY****
TOTAL RUN TIME: 0 days 0 hours 1 minutes 22 seconds 553 msec
