                         Program Version 6.0.0  -   RELEASE  -
|  1> ! r2scan-3c def2/J RI DEFGRID2 scfconv6 printgap
|  2> %output
|  3>     printlevel normal
|  4> end
|  5> %cpcm
|  6>     smd true
|  7>     smdsolvent "water"
|  8> end
|  9> * xyz 0 1
| 10> C 5.2226597937 -2.3239538563 -1.043189766
| 11> C 4.1647181804 -1.3116514321 -1.4336777385
| 12> O 3.1389825115 -1.327631744 -0.4203477783
| 13> P 2.1611492371 -0.0958532676 -0.1881468568
| 14> S 3.0562660405 1.6503373439 -0.1136622586
| 15> O 1.3919270393 -0.5578015807 1.1097412638
| 16> C 1.8133007012 -0.1916042705 2.445958894
| 17> C 0.6030523909 0.2694458709 3.2317044678
| 18> S 0.6951104648 -0.3482673515 -1.6827232506
| 19> C 0.0292185449 1.3375783599 -1.6167359427
| 20> S -0.7944517101 1.7235795015 -0.0543614541
| 21> P -2.2988438043 0.2343504877 -0.199948975
| 22> S -3.0005011129 -0.1203409232 -1.9869334517
| 23> O -3.4435138468 0.7094782873 0.7832269904
| 24> C -3.2753102891 0.8897428577 2.2121373353
| 25> C -2.9947537752 2.3401511498 2.5490903407
| 26> O -1.576485238 -0.9864127919 0.5392363993
| 27> C -1.6822031858 -2.3458540707 0.0849731221
| 28> C -2.9928578816 -2.9639315814 0.5278701342
| 29> H 4.7757032107 -3.3095694105 -0.951227903
| 30> H 5.9920482236 -2.3470510523 -1.8078915166
| 31> H 5.6700931836 -2.0490531691 -0.0921857204
| 32> H 3.7005560772 -1.5659902025 -2.3900429299
| 33> H 4.580377411 -0.3000492997 -1.4934134888
| 34> H 2.2645697793 -1.0826375553 2.8868750761
| 35> H 2.5646776944 0.6019576491 2.3757113754
| 36> H 0.9025114426 0.4889379843 4.2513229861
| 37> H 0.1844848571 1.1654459735 2.779920864
| 38> H -0.1517199391 -0.5119943602 3.2368004295
| 39> H -0.6858699253 1.4164019972 -2.4349861087
| 40> H 0.8423328059 2.0554393418 -1.7238076327
| 41> H -4.2278987363 0.5650739901 2.6343284219
| 42> H -2.4720011546 0.23721755 2.5598393571
| 43> H -3.786018736 2.9734797917 2.1577941993
| 44> H -2.9466173802 2.4500434538 3.6279394939
| 45> H -2.0492343465 2.6597422751 2.1153304595
| 46> H -1.5954773817 -2.362325328 -1.0062818212
| 47> H -0.8192179854 -2.8463387203 0.5275932957
| 48> H -3.0353530826 -3.9958113856 0.1941733465
| 49> H -3.0838089403 -2.9303857147 1.6102730409
| 50> H -3.8228130432 -2.4139923496 0.0849140044
| 51> *
| 52>
| 53>                          ****END OF INPUT****

CARTESIAN COORDINATES (ANGSTROEM)
---------------------------------
  C      5.222660   -2.323954   -1.043190
  C      4.164718   -1.311651   -1.433678
  O      3.138983   -1.327632   -0.420348
  P      2.161149   -0.095853   -0.188147
  S      3.056266    1.650337   -0.113662
  O      1.391927   -0.557802    1.109741
  C      1.813301   -0.191604    2.445959
  C      0.603052    0.269446    3.231704
  S      0.695110   -0.348267   -1.682723
  C      0.029219    1.337578   -1.616736
  S     -0.794452    1.723580   -0.054361
  P     -2.298844    0.234350   -0.199949
  S     -3.000501   -0.120341   -1.986933
  O     -3.443514    0.709478    0.783227
  C     -3.275310    0.889743    2.212137
  C     -2.994754    2.340151    2.549090
  O     -1.576485   -0.986413    0.539236
  C     -1.682203   -2.345854    0.084973
  C     -2.992858   -2.963932    0.527870
  H      4.775703   -3.309569   -0.951228
  H      5.992048   -2.347051   -1.807892
  H      5.670093   -2.049053   -0.092186
  H      3.700556   -1.565990   -2.390043
  H      4.580377   -0.300049   -1.493413
  H      2.264570   -1.082638    2.886875
  H      2.564678    0.601958    2.375711
  H      0.902511    0.488938    4.251323
  H      0.184485    1.165446    2.779921
  H     -0.151720   -0.511994    3.236800
  H     -0.685870    1.416402   -2.434986
  H      0.842333    2.055439   -1.723808
  H     -4.227899    0.565074    2.634328
  H     -2.472001    0.237218    2.559839
  H     -3.786019    2.973480    2.157794
  H     -2.946617    2.450043    3.627939
  H     -2.049234    2.659742    2.115330
  H     -1.595477   -2.362325   -1.006282
  H     -0.819218   -2.846339    0.527593
  H     -3.035353   -3.995811    0.194173
  H     -3.083809   -2.930386    1.610273
  H     -3.822813   -2.413992    0.084914

 Total Charge           Charge          ....    0
 Multiplicity           Mult            ....    1
 Number of Electrons    NEL             ....  202
 Basis Dimension        Dim             ....  539

ORBITAL ENERGIES
----------------

  NO   OCC          E(Eh)            E(eV)
   0   2.0000     -88.581029     -2410.4124
   1   2.0000     -88.578209     -2410.3356
   2   2.0000     -88.530257     -2409.0308
   3   2.0000     -88.528138     -2408.9731
   4   2.0000     -76.920722     -2093.1192
   5   2.0000     -76.919039     -2093.0735
   6   2.0000     -18.996071      -516.9094
   7   2.0000     -18.994826      -516.8755
   8   2.0000     -18.993049      -516.8271
   9   2.0000     -18.989552      -516.7320
  10   2.0000     -10.105470      -274.9838
  11   2.0000     -10.092978      -274.6439
  12   2.0000     -10.089482      -274.5488
  13   2.0000     -10.089431      -274.5474
  14   2.0000     -10.087197      -274.4866
  15   2.0000     -10.021221      -272.6913
  16   2.0000     -10.019467      -272.6436
  17   2.0000     -10.017806      -272.5984
  18   2.0000     -10.017421      -272.5879
  19   2.0000      -7.875350      -214.2992
  20   2.0000      -7.872728      -214.2278
  21   2.0000      -7.825472      -212.9419
  22   2.0000      -7.823264      -212.8818
  23   2.0000      -6.598972      -179.5672
  24   2.0000      -6.597701      -179.5326
  25   2.0000      -5.822251      -158.4315
  26   2.0000      -5.819581      -158.3589
  27   2.0000      -5.819161      -158.3474
  28   2.0000      -5.816609      -158.2780
  29   2.0000      -5.812500      -158.1662
  30   2.0000      -5.809790      -158.0924
  31   2.0000      -5.773178      -157.0962
  32   2.0000      -5.770734      -157.0297
  33   2.0000      -5.765622      -156.8906
  34   2.0000      -5.765450      -156.8859
  35   2.0000      -5.763552      -156.8342
  36   2.0000      -5.763357      -156.8289
  37   2.0000      -4.744778      -129.1120
  38   2.0000      -4.743516      -129.0776
  39   2.0000      -4.743063      -129.0653
  40   2.0000      -4.742889      -129.0606
  41   2.0000      -4.742639      -129.0538
  42   2.0000      -4.741546      -129.0240
  43   2.0000      -1.052212       -28.6322
  44   2.0000      -1.049649       -28.5624
  45   2.0000      -1.012061       -27.5396
  46   2.0000      -1.009968       -27.4826
  47   2.0000      -0.806292       -21.9403
  48   2.0000      -0.758196       -20.6316
  49   2.0000      -0.745933       -20.2979
  50   2.0000      -0.726341       -19.7647
  51   2.0000      -0.723551       -19.6888
  52   2.0000      -0.709121       -19.2962
  53   2.0000      -0.688842       -18.7443
  54   2.0000      -0.676037       -18.3959
  55   2.0000      -0.628039       -17.0898
  56   2.0000      -0.615118       -16.7382
  57   2.0000      -0.604760       -16.4564
  58   2.0000      -0.595903       -16.2154
  59   2.0000      -0.587344       -15.9824
  60   2.0000      -0.531531       -14.4637
  61   2.0000      -0.519758       -14.1433
  62   2.0000      -0.497422       -13.5355
  63   2.0000      -0.493610       -13.4318
  64   2.0000      -0.474544       -12.9130
  65   2.0000      -0.459614       -12.5067
  66   2.0000      -0.455282       -12.3888
  67   2.0000      -0.445392       -12.1197
  68   2.0000      -0.444504       -12.0956
  69   2.0000      -0.431831       -11.7507
  70   2.0000      -0.419160       -11.4059
  71   2.0000      -0.410449       -11.1689
  72   2.0000      -0.404464       -11.0060
  73   2.0000      -0.397523       -10.8172
  74   2.0000      -0.389333       -10.5943
  75   2.0000      -0.388040       -10.5591
  76   2.0000      -0.383160       -10.4263
  77   2.0000      -0.368581       -10.0296
  78   2.0000      -0.363588        -9.8937
  79   2.0000      -0.361981        -9.8500
  80   2.0000      -0.357862        -9.7379
  81   2.0000      -0.356175        -9.6920
  82   2.0000      -0.351095        -9.5538
  83   2.0000      -0.346487        -9.4284
  84   2.0000      -0.345144        -9.3918
  85   2.0000      -0.330143        -8.9837
  86   2.0000      -0.318770        -8.6742
  87   2.0000      -0.313370        -8.5272
  88   2.0000      -0.310772        -8.4565
  89   2.0000      -0.303161        -8.2494
  90   2.0000      -0.295209        -8.0330
  91   2.0000      -0.292170        -7.9504
  92   2.0000      -0.285601        -7.7716
  93   2.0000      -0.278564        -7.5801
  94   2.0000      -0.274746        -7.4762
  95   2.0000      -0.249412        -6.7868
  96   2.0000      -0.237347        -6.4585
  97   2.0000      -0.236787        -6.4433
  98   2.0000      -0.228794        -6.2258
  99   2.0000      -0.222611        -6.0575
 100   2.0000      -0.221281        -6.0214
 101   0.0000      -0.052875        -1.4388
 102   0.0000      -0.031209        -0.8492
 103   0.0000      -0.004333        -0.1179
 104   0.0000      -0.000573        -0.0156
 105   0.0000       0.006969         0.1896

MULLIKEN ATOMIC CHARGES
-----------------------
   0 C :   -0.484154
   1 C :   -0.142835
   2 O :   -0.318106
   3 P :    0.740513
   4 S :   -0.541135
   5 O :   -0.286791
   6 C :   -0.114932
   7 C :   -0.513735
   8 S :   -0.151440
   9 C :   -0.250852
  10 S :   -0.164629
  11 P :    0.692516
  12 S :   -0.504106
  13 O :   -0.318228
  14 C :   -0.163695
  15 C :   -0.456924
  16 O :   -0.281668
  17 C :   -0.145622
  18 C :   -0.484605
  19 H :    0.165802
  20 H :    0.169429
  21 H :    0.166241
  22 H :    0.171207
  23 H :    0.171381
  24 H :    0.173181
  25 H :    0.169496
  26 H :    0.169308
  27 H :    0.171311
  28 H :    0.171356
  29 H :    0.233958
  30 H :    0.233121
  31 H :    0.179050
  32 H :    0.184596
  33 H :    0.172349
  34 H :    0.174905
  35 H :    0.154130
  36 H :    0.175925
  37 H :    0.180187
  38 H :    0.170044
  39 H :    0.166721
  40 H :    0.166729
Sum of atomic charges:    0.0000000

LOEWDIN ATOMIC CHARGES
----------------------
   0 C :   -0.389908
   1 C :    0.024483
   2 O :   -0.676288
   3 P :    0.377531
   4 S :   -0.169310
   5 O :   -0.675453
   6 C :    0.032026
   7 C :   -0.398269
   8 S :    0.175504
   9 C :   -0.415255
  10 S :    0.146072
  11 P :    0.384713
  12 S :   -0.137176
  13 O :   -0.671835
  14 C :    0.031980
  15 C :   -0.400405
  16 O :   -0.702263
  17 C :    0.012540
  18 C :   -0.401271
  19 H :    0.163072
  20 H :    0.168824
  21 H :    0.162604
  22 H :    0.179692
  23 H :    0.181582
  24 H :    0.183385
  25 H :    0.183263
  26 H :    0.167671
  27 H :    0.163500
  28 H :    0.163931
  29 H :    0.196882
  30 H :    0.198116
  31 H :    0.192207
  32 H :    0.186746
  33 H :    0.165361
  34 H :    0.171214
  35 H :    0.160830
  36 H :    0.181781
  37 H :    0.189261
  38 H :    0.167984
  39 H :    0.162360
  40 H :    0.162317

  Mayer bond orders larger than 0.100000
B(  0-C ,  1-C ) :   0.9530 B(  0-C , 19-H ) :   0.9688 B(  0-C , 20-H ) :   0.9587
B(  0-C , 21-H ) :   0.9696 B(  1-C ,  2-O ) :   0.7706 B(  1-C , 22-H ) :   0.9367
B(  1-C , 23-H ) :   0.9492 B(  2-O ,  3-P ) :   1.0924 B(  3-P ,  4-S ) :   1.6952
B(  3-P ,  5-O ) :   1.1892 B(  3-P ,  8-S ) :   1.0834 B(  5-O ,  6-C ) :   0.7504
B(  6-C ,  7-C ) :   0.9475 B(  6-C , 24-H ) :   0.9409 B(  6-C , 25-H ) :   0.9543
B(  7-C , 26-H ) :   0.9575 B(  7-C , 27-H ) :   0.9651 B(  7-C , 28-H ) :   0.9655
B(  8-S ,  9-C ) :   0.8877 B(  9-C , 10-S ) :   0.8955 B(  9-C , 29-H ) :   0.9052
B(  9-C , 30-H ) :   0.9042 B( 10-S , 11-P ) :   1.0472 B( 11-P , 12-S ) :   1.8101
B( 11-P , 13-O ) :   1.1406 B( 11-P , 16-O ) :   1.0424 B( 13-O , 14-C ) :   0.7461
B( 14-C , 15-C ) :   0.9456 B( 14-C , 31-H ) :   0.9511 B( 14-C , 32-H ) :   0.9567
B( 15-C , 33-H ) :   0.9699 B( 15-C , 34-H ) :   0.9593 B( 15-C , 35-H ) :   0.9512
B( 16-O , 17-C ) :   0.7596 B( 17-C , 18-C ) :   0.9244 B( 17-C , 36-H ) :   0.9532
B( 17-C , 37-H ) :   0.9541 B( 18-C , 38-H ) :   0.9592 B( 18-C , 39-H ) :   0.9702
B( 18-C , 40-H ) :   0.9641

Dispersion correction           -0.021866322
FINAL SINGLE POINT ENERGY     -2932.472710597867

DIPOLE MOMENT
-------------

Method             : SCF
Type of density    : Electron Density
Multiplicity       :   1
Irrep              :   0
Energy             : -2932.4973796246590609 Eh
Relativity type    :
Basis              : AO
                                X                 Y                 Z
Electronic contribution:     -2.015527094       9.333702952     -16.440546384
Nuclear contribution   :      2.745171960     -10.654949089      18.447055174
                        -----------------------------------------
Total Dipole Moment    :      0.729644866      -1.321246138       2.006508790
                        -----------------------------------------
Magnitude (a.u.)       :      2.510806745
Magnitude (Debye)      :      6.381963562

Rotational constants in cm-1:             0.011874             0.005299             0.004920
Rotational constants in MHz :           355.972769           158.849721           147.495259

                             ****ORCA TERMINATED NORMALLY****
TOTAL RUN TIME: 0 days 0 hours 1 minutes 52 seconds 867 msec
