                         Program Version 6.0.1  -  RELEASE   -
|  1> ! pbe def2-sv(p) def2/J RI DEFGRID1 loosescf d4 GCP(DFT/SV(P)) printgap
|  2> %output
|  3>     printlevel normal
|  4> end
|  5> * xyz 0 1
|  6> C 4.388508276 0.9688113733 -1.3780932641
|  7> C 4.1972580617 -0.3706793428 -2.0700959249
|  8> O 2.8662901501 -0.8821830316 -1.8632640427
|  9> C 2.6097487185 -1.5462726167 -0.7552326042
| 10> O 3.4194538587 -1.7919719815 0.109533342
| 11> C 1.156753689 -1.9908508271 -0.7080826598
| 12> C 0.2494455272 -0.7648558499 -0.5868226304
| 13> H 0.4079886415 -0.0873771585 -1.428955899
| 14> C 0.5406165778 -0.0434480191 0.7161435061
| 15> O -0.1612335366 -0.1491938451 1.700640913
| 16> O 1.6467531428 0.6491131613 0.6383480174
| 17> C 2.0978883257 1.3381168731 1.823154046
| 18> C 2.7888534078 0.3823395834 2.7821779821
| 19> S -1.4960134182 -1.2915011367 -0.5623047221
| 20> P -2.341630391 0.5395246875 0.0933828053
| 21> S -1.3018633395 2.153383148 -0.2884634119
| 22> O -3.7673317962 0.5014575979 -0.6384575413
| 23> C -3.8782992331 0.6247902258 -2.0609286507
| 24> O -2.8179072765 0.4475526561 1.5933853749
| 25> C -3.4858551999 -0.7112701089 2.1311940877
| 26> H 3.6170565502 1.6671376109 -1.691732089
| 27> H 4.3286374131 0.8425348517 -0.3003465937
| 28> H 5.3634910852 1.369539955 -1.6349682563
| 29> H 4.9141403808 -1.1057485276 -1.6930353518
| 30> H 4.2821687926 -0.2752657401 -3.1526124411
| 31> H 1.0143998142 -2.6536562452 0.1461041496
| 32> H 0.9126938536 -2.5187133448 -1.6303213745
| 33> H 2.7820059362 2.0964463828 1.4426313324
| 34> H 1.2320727053 1.813481085 2.2935193783
| 35> H 2.0651194177 -0.3032331769 3.2168042301
| 36> H 3.541491044 -0.1986804864 2.25336281
| 37> H 3.261170163 0.9498652005 3.5767008356
| 38> H -3.2993600498 1.4819836424 -2.4080399295
| 39> H -4.9362845749 0.77583337 -2.25880342
| 40> H -3.5219026508 -0.286629925 -2.5404541063
| 41> H -3.8388852786 -0.4026157397 3.1115536961
| 42> H -2.7707289869 -1.5284474901 2.2221108903
| 43> H -4.3170625058 -0.9985958504 1.4898392832
| 44> *
| 45>
| 46>                          ****END OF INPUT****

CARTESIAN COORDINATES (ANGSTROEM)
---------------------------------
  C      4.388508    0.968811   -1.378093
  C      4.197258   -0.370679   -2.070096
  O      2.866290   -0.882183   -1.863264
  C      2.609749   -1.546273   -0.755233
  O      3.419454   -1.791972    0.109533
  C      1.156754   -1.990851   -0.708083
  C      0.249446   -0.764856   -0.586823
  H      0.407989   -0.087377   -1.428956
  C      0.540617   -0.043448    0.716144
  O     -0.161234   -0.149194    1.700641
  O      1.646753    0.649113    0.638348
  C      2.097888    1.338117    1.823154
  C      2.788853    0.382340    2.782178
  S     -1.496013   -1.291501   -0.562305
  P     -2.341630    0.539525    0.093383
  S     -1.301863    2.153383   -0.288463
  O     -3.767332    0.501458   -0.638458
  C     -3.878299    0.624790   -2.060929
  O     -2.817907    0.447553    1.593385
  C     -3.485855   -0.711270    2.131194
  H      3.617057    1.667138   -1.691732
  H      4.328637    0.842535   -0.300347
  H      5.363491    1.369540   -1.634968
  H      4.914140   -1.105749   -1.693035
  H      4.282169   -0.275266   -3.152612
  H      1.014400   -2.653656    0.146104
  H      0.912694   -2.518713   -1.630321
  H      2.782006    2.096446    1.442631
  H      1.232073    1.813481    2.293519
  H      2.065119   -0.303233    3.216804
  H      3.541491   -0.198680    2.253363
  H      3.261170    0.949865    3.576701
  H     -3.299360    1.481984   -2.408040
  H     -4.936285    0.775833   -2.258803
  H     -3.521903   -0.286630   -2.540454
  H     -3.838885   -0.402616    3.111554
  H     -2.770729   -1.528447    2.222111
  H     -4.317063   -0.998596    1.489839

 Total Charge           Charge          ....    0
 Multiplicity           Mult            ....    1
 Number of Electrons    NEL             ....  174
 Basis Dimension        Dim             ....  316

ORBITAL ENERGIES
----------------

  NO   OCC          E(Eh)            E(eV)
   0   2.0000     -88.039713     -2395.6824
   1   2.0000     -87.979857     -2394.0536
   2   2.0000     -76.423086     -2079.5779
   3   2.0000     -18.809921      -511.8440
   4   2.0000     -18.808256      -511.7987
   5   2.0000     -18.788274      -511.2549
   6   2.0000     -18.786737      -511.2131
   7   2.0000     -18.744961      -510.0763
   8   2.0000     -18.739918      -509.9391
   9   2.0000     -10.017393      -272.5871
  10   2.0000     -10.016620      -272.5661
  11   2.0000      -9.952929      -270.8330
  12   2.0000      -9.947956      -270.6976
  13   2.0000      -9.946127      -270.6479
  14   2.0000      -9.943816      -270.5850
  15   2.0000      -9.942043      -270.5367
  16   2.0000      -9.919031      -269.9106
  17   2.0000      -9.888922      -269.0913
  18   2.0000      -9.878759      -268.8147
  19   2.0000      -7.684733      -209.1122
  20   2.0000      -7.625127      -207.4903
  21   2.0000      -6.419910      -174.6946
  22   2.0000      -5.712518      -155.4455
  23   2.0000      -5.709357      -155.3595
  24   2.0000      -5.701713      -155.1515
  25   2.0000      -5.654274      -153.8606
  26   2.0000      -5.645550      -153.6232
  27   2.0000      -5.645189      -153.6134
  28   2.0000      -4.642540      -126.3299
  29   2.0000      -4.641928      -126.3133
  30   2.0000      -4.640247      -126.2675
  31   2.0000      -1.020039       -27.7567
  32   2.0000      -1.014852       -27.6155
  33   2.0000      -0.981977       -26.7209
  34   2.0000      -0.937771       -25.5181
  35   2.0000      -0.921994       -25.0887
  36   2.0000      -0.921158       -25.0660
  37   2.0000      -0.769136       -20.9293
  38   2.0000      -0.715470       -19.4689
  39   2.0000      -0.703878       -19.1535
  40   2.0000      -0.691636       -18.8204
  41   2.0000      -0.661138       -17.9905
  42   2.0000      -0.632700       -17.2166
  43   2.0000      -0.619936       -16.8693
  44   2.0000      -0.616256       -16.7692
  45   2.0000      -0.597688       -16.2639
  46   2.0000      -0.566404       -15.4126
  47   2.0000      -0.512821       -13.9546
  48   2.0000      -0.504773       -13.7356
  49   2.0000      -0.493376       -13.4254
  50   2.0000      -0.479344       -13.0436
  51   2.0000      -0.470580       -12.8051
  52   2.0000      -0.466687       -12.6992
  53   2.0000      -0.444988       -12.1087
  54   2.0000      -0.442304       -12.0357
  55   2.0000      -0.428279       -11.6541
  56   2.0000      -0.426246       -11.5988
  57   2.0000      -0.423497       -11.5239
  58   2.0000      -0.411599       -11.2002
  59   2.0000      -0.407809       -11.0970
  60   2.0000      -0.404281       -11.0010
  61   2.0000      -0.400372       -10.8947
  62   2.0000      -0.393770       -10.7150
  63   2.0000      -0.386985       -10.5304
  64   2.0000      -0.376946       -10.2572
  65   2.0000      -0.367258        -9.9936
  66   2.0000      -0.357248        -9.7212
  67   2.0000      -0.352072        -9.5804
  68   2.0000      -0.345436        -9.3998
  69   2.0000      -0.341952        -9.3050
  70   2.0000      -0.338400        -9.2083
  71   2.0000      -0.330454        -8.9921
  72   2.0000      -0.321715        -8.7543
  73   2.0000      -0.315476        -8.5846
  74   2.0000      -0.301406        -8.2017
  75   2.0000      -0.298797        -8.1307
  76   2.0000      -0.295191        -8.0325
  77   2.0000      -0.291152        -7.9227
  78   2.0000      -0.271963        -7.4005
  79   2.0000      -0.266624        -7.2552
  80   2.0000      -0.259299        -7.0559
  81   2.0000      -0.256736        -6.9861
  82   2.0000      -0.233387        -6.3508
  83   2.0000      -0.227060        -6.1786
  84   2.0000      -0.220469        -5.9993
  85   2.0000      -0.199215        -5.4209
  86   2.0000      -0.197487        -5.3739
  87   0.0000      -0.044500        -1.2109
  88   0.0000      -0.035834        -0.9751
  89   0.0000      -0.021933        -0.5968
  90   0.0000       0.014247         0.3877
  91   0.0000       0.024441         0.6651

MULLIKEN ATOMIC CHARGES
-----------------------
   0 C :   -0.317890
   1 C :   -0.011647
   2 O :   -0.232679
   3 C :    0.105056
   4 O :   -0.194699
   5 C :   -0.041324
   6 C :   -0.290449
   7 H :    0.153442
   8 C :    0.168987
   9 O :   -0.188876
  10 O :   -0.221426
  11 C :   -0.003800
  12 C :   -0.328888
  13 S :   -0.098750
  14 P :    0.612038
  15 S :   -0.322382
  16 O :   -0.386776
  17 C :   -0.100153
  18 O :   -0.347606
  19 C :   -0.102155
  20 H :    0.122775
  21 H :    0.137362
  22 H :    0.111968
  23 H :    0.107861
  24 H :    0.104923
  25 H :    0.111796
  26 H :    0.124491
  27 H :    0.104676
  28 H :    0.118078
  29 H :    0.126668
  30 H :    0.138442
  31 H :    0.110229
  32 H :    0.116730
  33 H :    0.124582
  34 H :    0.112956
  35 H :    0.131057
  36 H :    0.128707
  37 H :    0.116678
Sum of atomic charges:    0.0000000

LOEWDIN ATOMIC CHARGES
----------------------
   0 C :   -0.357113
   1 C :   -0.107869
   2 O :   -0.056795
   3 C :    0.028657
   4 O :   -0.160662
   5 C :   -0.238012
   6 C :   -0.266451
   7 H :    0.139543
   8 C :   -0.002712
   9 O :   -0.167141
  10 O :   -0.033839
  11 C :   -0.105104
  12 C :   -0.362794
  13 S :    0.092635
  14 P :    0.584127
  15 S :   -0.310608
  16 O :   -0.262255
  17 C :   -0.217575
  18 O :   -0.227185
  19 C :   -0.207031
  20 H :    0.128815
  21 H :    0.129167
  22 H :    0.130250
  23 H :    0.120024
  24 H :    0.118937
  25 H :    0.140183
  26 H :    0.142995
  27 H :    0.116958
  28 H :    0.125265
  29 H :    0.130770
  30 H :    0.130412
  31 H :    0.129137
  32 H :    0.111130
  33 H :    0.122057
  34 H :    0.106933
  35 H :    0.126961
  36 H :    0.116709
  37 H :    0.111479

  Mayer bond orders larger than 0.100000
B(  0-C ,  1-C ) :   1.1768 B(  0-C , 20-H ) :   0.9464 B(  0-C , 21-H ) :   0.9367
B(  0-C , 22-H ) :   0.9407 B(  1-C ,  2-O ) :   0.9156 B(  1-C , 23-H ) :   0.9161
B(  1-C , 24-H ) :   0.9375 B(  2-O ,  3-C ) :   1.2168 B(  3-C ,  4-O ) :   2.0395
B(  3-C ,  5-C ) :   1.0195 B(  5-C ,  6-C ) :   1.0552 B(  5-C , 25-H ) :   0.8970
B(  5-C , 26-H ) :   0.8892 B(  6-C ,  7-H ) :   0.8665 B(  6-C ,  8-C ) :   0.8789
B(  6-C , 13-S ) :   1.0152 B(  8-C ,  9-O ) :   2.0169 B(  8-C , 10-O ) :   1.2431
B( 10-O , 11-C ) :   0.8993 B( 11-C , 12-C ) :   1.1734 B( 11-C , 27-H ) :   0.9322
B( 11-C , 28-H ) :   0.9165 B( 12-C , 29-H ) :   0.9421 B( 12-C , 30-H ) :   0.9378
B( 12-C , 31-H ) :   0.9424 B( 13-S , 14-P ) :   0.9501 B( 13-S , 15-S ) :   0.1125
B( 14-P , 15-S ) :   1.6125 B( 14-P , 16-O ) :   1.0721 B( 14-P , 18-O ) :   1.1496
B( 16-O , 17-C ) :   0.9342 B( 17-C , 32-H ) :   0.9355 B( 17-C , 33-H ) :   0.9587
B( 17-C , 34-H ) :   0.9461 B( 18-O , 19-C ) :   0.9163 B( 19-C , 35-H ) :   0.9597
B( 19-C , 36-H ) :   0.9427 B( 19-C , 37-H ) :   0.9451

Dispersion correction           -0.053126113
FINAL SINGLE POINT ENERGY     -1979.017257416934

DIPOLE MOMENT
-------------

Method             : SCF
Type of density    : Electron Density
Multiplicity       :   1
Irrep              :   0
Energy             : -1979.1480496866201975 Eh
Relativity type    :
Basis              : AO
                                X                 Y                 Z
Electronic contribution:    -16.088246868      -0.556709149      -1.619475278
Nuclear contribution   :     16.299240919       0.073255564       0.914703473
                        -----------------------------------------
Total Dipole Moment    :      0.210994052      -0.483453585      -0.704771805
                        -----------------------------------------
Magnitude (a.u.)       :      0.880311965
Magnitude (Debye)      :      2.237575193

Rotational constants in cm-1:             0.016603             0.006219             0.005801
Rotational constants in MHz :           497.757621           186.445310           173.902341

                             ****ORCA TERMINATED NORMALLY****
TOTAL RUN TIME: 0 days 0 hours 0 minutes 44 seconds 540 msec
