                         Program Version 6.0.0  -   RELEASE  -
|  1> ! pbe def2-sv(p) def2/J RI DEFGRID1 loosescf d4 GCP(DFT/SV(P)) printgap
|  2> %output
|  3>     printlevel normal
|  4> end
|  5> * xyz 0 1
|  6> C 4.9397706917 1.1790419567 0.5888302843
|  7> C 3.693473127 1.6180732517 -0.1487715171
|  8> O 2.9716879967 0.4819915931 -0.6743990568
|  9> P 2.1844735972 -0.5054253445 0.2729691124
| 10> S 1.5115617347 0.2723221978 1.9450281146
| 11> O 3.2199171312 -1.700219627 0.4398093694
| 12> C 2.8841314272 -2.9264802962 1.1179290542
| 13> C 3.2706093179 -2.8643806991 2.5834688691
| 14> S 0.7744694018 -1.3367090216 -1.0920389194
| 15> C 0.2501557911 0.1950544077 -1.9152441351
| 16> S -0.5500096639 1.3808788024 -0.8158448787
| 17> P -2.3627888788 0.275433948 -0.5522233099
| 18> S -2.9126537038 -0.7951817167 -2.0927907637
| 19> O -3.3587587898 1.3763223999 0.0095046914
| 20> C -3.5869183508 2.6698200167 -0.5820327121
| 21> C -4.0032866842 2.5852584566 -2.0352050217
| 22> O -2.1709499462 -0.6666367498 0.6957247378
| 23> C -1.9603331859 -0.1948955786 2.0478967112
| 24> C -3.2595269065 -0.2240319189 2.8245699286
| 25> H 4.6589358951 0.5986682698 1.4669157443
| 26> H 5.5601447285 0.5616899703 -0.0552733442
| 27> H 5.5000303592 2.0530594072 0.9054369887
| 28> H 3.9288847943 2.2127920745 -1.0320169531
| 29> H 3.0263205514 2.1792262447 0.5134706479
| 30> H 1.8140350555 -3.1236320337 0.9974595728
| 31> H 3.4518167966 -3.6951351405 0.5898165073
| 32> H 4.332569225 -2.656519002 2.6794818211
| 33> H 2.7126961444 -2.0798262442 3.0899368865
| 34> H 3.0475019916 -3.8173804925 3.0522607687
| 35> H -0.4626394299 -0.1192150119 -2.6802191129
| 36> H 1.11397051 0.689355262 -2.351138327
| 37> H -4.3789236111 3.0970954231 0.0355400945
| 38> H -2.6728605136 3.2604903605 -0.4739529859
| 39> H -4.8693678326 1.9368837096 -2.1443044243
| 40> H -4.2483193729 3.5783090599 -2.3978089617
| 41> H -3.1923226832 2.1767857397 -2.6363575901
| 42> H -1.2244609012 -0.8804122244 2.4728862105
| 43> H -1.5312503403 0.8103124432 2.0192828711
| 44> H -3.0652076219 0.0773193298 3.8489963428
| 45> H -3.9801273227 0.4557550279 2.3774560969
| 46> H -3.6730611264 -1.228771178 2.8157224902
| 47> *
| 48>
| 49>                          ****END OF INPUT****

CARTESIAN COORDINATES (ANGSTROEM)
---------------------------------
  C      4.939771    1.179042    0.588830
  C      3.693473    1.618073   -0.148772
  O      2.971688    0.481992   -0.674399
  P      2.184474   -0.505425    0.272969
  S      1.511562    0.272322    1.945028
  O      3.219917   -1.700220    0.439809
  C      2.884131   -2.926480    1.117929
  C      3.270609   -2.864381    2.583469
  S      0.774469   -1.336709   -1.092039
  C      0.250156    0.195054   -1.915244
  S     -0.550010    1.380879   -0.815845
  P     -2.362789    0.275434   -0.552223
  S     -2.912654   -0.795182   -2.092791
  O     -3.358759    1.376322    0.009505
  C     -3.586918    2.669820   -0.582033
  C     -4.003287    2.585258   -2.035205
  O     -2.170950   -0.666637    0.695725
  C     -1.960333   -0.194896    2.047897
  C     -3.259527   -0.224032    2.824570
  H      4.658936    0.598668    1.466916
  H      5.560145    0.561690   -0.055273
  H      5.500030    2.053059    0.905437
  H      3.928885    2.212792   -1.032017
  H      3.026321    2.179226    0.513471
  H      1.814035   -3.123632    0.997460
  H      3.451817   -3.695135    0.589817
  H      4.332569   -2.656519    2.679482
  H      2.712696   -2.079826    3.089937
  H      3.047502   -3.817380    3.052261
  H     -0.462639   -0.119215   -2.680219
  H      1.113971    0.689355   -2.351138
  H     -4.378924    3.097095    0.035540
  H     -2.672861    3.260490   -0.473953
  H     -4.869368    1.936884   -2.144304
  H     -4.248319    3.578309   -2.397809
  H     -3.192323    2.176786   -2.636358
  H     -1.224461   -0.880412    2.472886
  H     -1.531250    0.810312    2.019283
  H     -3.065208    0.077319    3.848996
  H     -3.980127    0.455755    2.377456
  H     -3.673061   -1.228771    2.815722

 Total Charge           Charge          ....    0
 Multiplicity           Mult            ....    1
 Number of Electrons    NEL             ....  202
 Basis Dimension        Dim             ....  334

ORBITAL ENERGIES
----------------

  NO   OCC          E(Eh)            E(eV)
   0   2.0000     -88.040176     -2395.6950
   1   2.0000     -88.037444     -2395.6206
   2   2.0000     -87.988242     -2394.2818
   3   2.0000     -87.979831     -2394.0529
   4   2.0000     -76.428855     -2079.7349
   5   2.0000     -76.423468     -2079.5883
   6   2.0000     -18.799160      -511.5511
   7   2.0000     -18.795902      -511.4625
   8   2.0000     -18.792421      -511.3678
   9   2.0000     -18.783240      -511.1180
  10   2.0000      -9.959098      -271.0008
  11   2.0000      -9.958841      -270.9938
  12   2.0000      -9.956821      -270.9389
  13   2.0000      -9.953732      -270.8548
  14   2.0000      -9.942649      -270.5532
  15   2.0000      -9.887046      -269.0402
  16   2.0000      -9.883348      -268.9396
  17   2.0000      -9.883041      -268.9312
  18   2.0000      -9.878001      -268.7941
  19   2.0000      -7.685049      -209.1208
  20   2.0000      -7.682735      -209.0579
  21   2.0000      -7.633120      -207.7078
  22   2.0000      -7.625209      -207.4925
  23   2.0000      -6.426461      -174.8729
  24   2.0000      -6.420670      -174.7153
  25   2.0000      -5.712710      -155.4507
  26   2.0000      -5.710774      -155.3981
  27   2.0000      -5.709571      -155.3653
  28   2.0000      -5.707420      -155.3068
  29   2.0000      -5.702258      -155.1663
  30   2.0000      -5.699351      -155.0872
  31   2.0000      -5.661827      -154.0662
  32   2.0000      -5.654251      -153.8600
  33   2.0000      -5.653908      -153.8506
  34   2.0000      -5.653302      -153.8342
  35   2.0000      -5.645779      -153.6295
  36   2.0000      -5.645229      -153.6145
  37   2.0000      -4.649176      -126.5105
  38   2.0000      -4.648348      -126.4880
  39   2.0000      -4.646670      -126.4423
  40   2.0000      -4.643592      -126.3586
  41   2.0000      -4.642598      -126.3315
  42   2.0000      -4.640705      -126.2800
  43   2.0000      -0.991744       -26.9867
  44   2.0000      -0.986336       -26.8396
  45   2.0000      -0.951086       -25.8804
  46   2.0000      -0.940984       -25.6055
  47   2.0000      -0.761576       -20.7235
  48   2.0000      -0.720657       -19.6101
  49   2.0000      -0.708543       -19.2804
  50   2.0000      -0.690247       -18.7826
  51   2.0000      -0.688135       -18.7251
  52   2.0000      -0.671084       -18.2611
  53   2.0000      -0.652275       -17.7493
  54   2.0000      -0.637783       -17.3550
  55   2.0000      -0.598213       -16.2782
  56   2.0000      -0.588923       -16.0254
  57   2.0000      -0.572996       -15.5920
  58   2.0000      -0.568792       -15.4776
  59   2.0000      -0.564738       -15.3673
  60   2.0000      -0.507202       -13.8017
  61   2.0000      -0.495283       -13.4773
  62   2.0000      -0.481446       -13.1008
  63   2.0000      -0.470051       -12.7907
  64   2.0000      -0.460491       -12.5306
  65   2.0000      -0.448064       -12.1924
  66   2.0000      -0.441082       -12.0025
  67   2.0000      -0.430984       -11.7277
  68   2.0000      -0.428404       -11.6575
  69   2.0000      -0.408870       -11.1259
  70   2.0000      -0.405553       -11.0356
  71   2.0000      -0.401962       -10.9380
  72   2.0000      -0.396591       -10.7918
  73   2.0000      -0.393500       -10.7077
  74   2.0000      -0.380735       -10.3603
  75   2.0000      -0.372693       -10.1415
  76   2.0000      -0.361716        -9.8428
  77   2.0000      -0.354479        -9.6459
  78   2.0000      -0.351440        -9.5632
  79   2.0000      -0.349714        -9.5162
  80   2.0000      -0.347524        -9.4566
  81   2.0000      -0.345649        -9.4056
  82   2.0000      -0.340738        -9.2720
  83   2.0000      -0.336308        -9.1514
  84   2.0000      -0.333698        -9.0804
  85   2.0000      -0.322449        -8.7743
  86   2.0000      -0.313002        -8.5172
  87   2.0000      -0.300446        -8.1756
  88   2.0000      -0.296187        -8.0596
  89   2.0000      -0.293664        -7.9910
  90   2.0000      -0.282715        -7.6931
  91   2.0000      -0.278796        -7.5864
  92   2.0000      -0.273948        -7.4545
  93   2.0000      -0.265363        -7.2209
  94   2.0000      -0.256533        -6.9806
  95   2.0000      -0.238325        -6.4851
  96   2.0000      -0.218082        -5.9343
  97   2.0000      -0.205356        -5.5880
  98   2.0000      -0.198637        -5.4052
  99   2.0000      -0.198306        -5.3962
 100   2.0000      -0.190309        -5.1786
 101   0.0000      -0.046150        -1.2558
 102   0.0000      -0.020126        -0.5476
 103   0.0000      -0.019561        -0.5323
 104   0.0000      -0.000801        -0.0218
 105   0.0000       0.015704         0.4273

MULLIKEN ATOMIC CHARGES
-----------------------
   0 C :   -0.304964
   1 C :   -0.010018
   2 O :   -0.371215
   3 P :    0.609292
   4 S :   -0.323388
   5 O :   -0.369313
   6 C :   -0.019183
   7 C :   -0.292211
   8 S :   -0.079767
   9 C :   -0.355490
  10 S :   -0.110697
  11 P :    0.609886
  12 S :   -0.314763
  13 O :   -0.381199
  14 C :   -0.010993
  15 C :   -0.307358
  16 O :   -0.346822
  17 C :   -0.014055
  18 C :   -0.282336
  19 H :    0.125403
  20 H :    0.118876
  21 H :    0.113358
  22 H :    0.105447
  23 H :    0.115889
  24 H :    0.111234
  25 H :    0.112102
  26 H :    0.114291
  27 H :    0.127879
  28 H :    0.108318
  29 H :    0.194476
  30 H :    0.188040
  31 H :    0.108564
  32 H :    0.114022
  33 H :    0.127303
  34 H :    0.110572
  35 H :    0.124068
  36 H :    0.111960
  37 H :    0.103887
  38 H :    0.107328
  39 H :    0.115311
  40 H :    0.116267
Sum of atomic charges:    0.0000000

LOEWDIN ATOMIC CHARGES
----------------------
   0 C :   -0.364025
   1 C :   -0.118310
   2 O :   -0.237084
   3 P :    0.569660
   4 S :   -0.309429
   5 O :   -0.246688
   6 C :   -0.114239
   7 C :   -0.364090
   8 S :    0.079384
   9 C :   -0.481685
  10 S :    0.062267
  11 P :    0.572348
  12 S :   -0.307342
  13 O :   -0.243269
  14 C :   -0.115091
  15 C :   -0.368834
  16 O :   -0.228894
  17 C :   -0.117340
  18 C :   -0.359045
  19 H :    0.123647
  20 H :    0.127665
  21 H :    0.131377
  22 H :    0.118335
  23 H :    0.111681
  24 H :    0.109805
  25 H :    0.121159
  26 H :    0.125896
  27 H :    0.123325
  28 H :    0.128993
  29 H :    0.128278
  30 H :    0.132501
  31 H :    0.120710
  32 H :    0.108104
  33 H :    0.130907
  34 H :    0.129778
  35 H :    0.120889
  36 H :    0.115830
  37 H :    0.103881
  38 H :    0.128198
  39 H :    0.123553
  40 H :    0.127197

  Mayer bond orders larger than 0.100000
B(  0-C ,  1-C ) :   1.1665 B(  0-C , 19-H ) :   0.9339 B(  0-C , 20-H ) :   0.9460
B(  0-C , 21-H ) :   0.9386 B(  1-C ,  2-O ) :   0.8962 B(  1-C , 22-H ) :   0.9331
B(  1-C , 23-H ) :   0.9131 B(  2-O ,  3-P ) :   1.1169 B(  3-P ,  4-S ) :   1.6148
B(  3-P ,  5-O ) :   1.1046 B(  3-P ,  8-S ) :   0.9647 B(  4-S ,  8-S ) :   0.1087
B(  5-O ,  6-C ) :   0.9052 B(  6-C ,  7-C ) :   1.1669 B(  6-C , 24-H ) :   0.9188
B(  6-C , 25-H ) :   0.9356 B(  7-C , 26-H ) :   0.9468 B(  7-C , 27-H ) :   0.9305
B(  7-C , 28-H ) :   0.9390 B(  8-S ,  9-C ) :   1.0057 B(  9-C , 10-S ) :   1.0142
B(  9-C , 29-H ) :   0.8677 B(  9-C , 30-H ) :   0.8976 B( 10-S , 11-P ) :   0.9328
B( 10-S , 12-S ) :   0.1112 B( 11-P , 12-S ) :   1.6389 B( 11-P , 13-O ) :   1.0791
B( 11-P , 16-O ) :   1.1527 B( 13-O , 14-C ) :   0.9117 B( 14-C , 15-C ) :   1.1668
B( 14-C , 31-H ) :   0.9330 B( 14-C , 32-H ) :   0.9253 B( 15-C , 33-H ) :   0.9433
B( 15-C , 34-H ) :   0.9350 B( 15-C , 35-H ) :   0.9321 B( 16-O , 17-C ) :   0.8875
B( 17-C , 18-C ) :   1.1557 B( 17-C , 36-H ) :   0.9279 B( 17-C , 37-H ) :   0.9181
B( 18-C , 38-H ) :   0.9415 B( 18-C , 39-H ) :   0.9433 B( 18-C , 40-H ) :   0.9467

Dispersion correction           -0.065067029
FINAL SINGLE POINT ENERGY     -2929.516535117559

DIPOLE MOMENT
-------------

Method             : SCF
Type of density    : Electron Density
Multiplicity       :   1
Irrep              :   0
Energy             : -2929.6358723027701672 Eh
Relativity type    :
Basis              : AO
                                X                 Y                 Z
Electronic contribution:     -4.816542259      -4.973074202     -12.063081008
Nuclear contribution   :      5.689960067       5.922335679      12.600028862
                        -----------------------------------------
Total Dipole Moment    :      0.873417807       0.949261477       0.536947855
                        -----------------------------------------
Magnitude (a.u.)       :      1.397236206
Magnitude (Debye)      :      3.551492195

Rotational constants in cm-1:             0.012717             0.004769             0.004486
Rotational constants in MHz :           381.256068           142.977473           134.475724

                             ****ORCA TERMINATED NORMALLY****
TOTAL RUN TIME: 0 days 0 hours 0 minutes 22 seconds 336 msec
