                         Program Version 6.0.0  -   RELEASE  -
|  1> ! r2scan-3c def2/J RI DEFGRID2 scfconv6 printgap
|  2> %output
|  3>     printlevel normal
|  4> end
|  5> * xyz 0 1
|  6> C 5.0671707812 -1.4738416175 -0.5529126396
|  7> C 4.5742154147 -0.3972784009 -1.4967412729
|  8> O 3.1604052088 -0.1526289451 -1.3451167809
|  9> P 2.5671665958 0.5088635804 -0.0280685868
| 10> S 3.6945575091 1.845382914 0.8517351669
| 11> O 2.2227805218 -0.7791328879 0.848592207
| 12> C 2.0703618911 -0.7153468155 2.2749704867
| 13> C 0.88830215 0.1359753939 2.6911301409
| 14> S 0.7247045135 1.1723369815 -0.8246452743
| 15> C 0.1575569486 -0.3971509644 -1.5505530494
| 16> S -0.688764302 -1.4807289657 -0.3721670653
| 17> P -2.4504524998 -0.3385984332 -0.2283132742
| 18> S -3.0913855914 0.4993830215 -1.8873109556
| 19> O -2.1122403709 0.6355574577 0.9679813008
| 20> C -2.7774401677 1.9025394246 1.1723413057
| 21> C -1.7492513273 2.9262832954 1.6079225621
| 22> O -3.4899984456 -1.324556455 0.4593926324
| 23> C -4.1922354975 -2.33767059 -0.2896334112
| 24> C -5.4275188938 -2.7265785003 0.4972456264
| 25> H 6.1036139765 -1.7028350882 -0.780201969
| 26> H 5.000837001 -1.1223238278 0.4757992431
| 27> H 4.4654958104 -2.372924589 -0.657752637
| 28> H 4.6759689377 -0.6941433857 -2.541461889
| 29> H 5.1074816814 0.5425516649 -1.322979917
| 30> H 1.9440754632 -1.7569902739 2.572573819
| 31> H 2.9936249522 -0.30959409 2.7009899814
| 32> H 0.7988124975 0.1232746923 3.7727293192
| 33> H 1.0441623162 1.1636090914 2.3610579168
| 34> H -0.0331809885 -0.2381840079 2.2513880976
| 35> H 1.0089675012 -0.9437516246 -1.9433405441
| 36> H -0.5418578543 -0.1238846047 -2.3415538154
| 37> H -3.2616655572 2.2014047813 0.236427285
| 38> H -3.5375108019 1.7458590197 1.9403888103
| 39> H -2.2439751704 3.8781869361 1.7711809344
| 40> H -1.2704656347 2.6069734856 2.5289899054
| 41> H -0.9896359811 3.0457388624 0.8386325576
| 42> H -4.4539262223 -1.92742872 -1.2708623762
| 43> H -3.5191015758 -3.1883049839 -0.4235814508
| 44> H -5.140837561 -3.0906550369 1.4794871115
| 45> H -6.0807855072 -1.8668931998 0.6171459632
| 46> H -5.9583299305 -3.5080924851 -0.0363491975
| 47> *
| 48>
| 49>                          ****END OF INPUT****

CARTESIAN COORDINATES (ANGSTROEM)
---------------------------------
  C      5.067171   -1.473842   -0.552913
  C      4.574215   -0.397278   -1.496741
  O      3.160405   -0.152629   -1.345117
  P      2.567167    0.508864   -0.028069
  S      3.694558    1.845383    0.851735
  O      2.222781   -0.779133    0.848592
  C      2.070362   -0.715347    2.274970
  C      0.888302    0.135975    2.691130
  S      0.724705    1.172337   -0.824645
  C      0.157557   -0.397151   -1.550553
  S     -0.688764   -1.480729   -0.372167
  P     -2.450452   -0.338598   -0.228313
  S     -3.091386    0.499383   -1.887311
  O     -2.112240    0.635557    0.967981
  C     -2.777440    1.902539    1.172341
  C     -1.749251    2.926283    1.607923
  O     -3.489998   -1.324556    0.459393
  C     -4.192235   -2.337671   -0.289633
  C     -5.427519   -2.726579    0.497246
  H      6.103614   -1.702835   -0.780202
  H      5.000837   -1.122324    0.475799
  H      4.465496   -2.372925   -0.657753
  H      4.675969   -0.694143   -2.541462
  H      5.107482    0.542552   -1.322980
  H      1.944075   -1.756990    2.572574
  H      2.993625   -0.309594    2.700990
  H      0.798812    0.123275    3.772729
  H      1.044162    1.163609    2.361058
  H     -0.033181   -0.238184    2.251388
  H      1.008968   -0.943752   -1.943341
  H     -0.541858   -0.123885   -2.341554
  H     -3.261666    2.201405    0.236427
  H     -3.537511    1.745859    1.940389
  H     -2.243975    3.878187    1.771181
  H     -1.270466    2.606973    2.528990
  H     -0.989636    3.045739    0.838633
  H     -4.453926   -1.927429   -1.270862
  H     -3.519102   -3.188305   -0.423581
  H     -5.140838   -3.090655    1.479487
  H     -6.080786   -1.866893    0.617146
  H     -5.958330   -3.508092   -0.036349

 Total Charge           Charge          ....    0
 Multiplicity           Mult            ....    1
 Number of Electrons    NEL             ....  202
 Basis Dimension        Dim             ....  539

ORBITAL ENERGIES
----------------

  NO   OCC          E(Eh)            E(eV)
   0   2.0000     -88.579650     -2410.3748
   1   2.0000     -88.574057     -2410.2226
   2   2.0000     -88.524122     -2408.8638
   3   2.0000     -88.522707     -2408.8253
   4   2.0000     -76.916940     -2093.0163
   5   2.0000     -76.914941     -2092.9619
   6   2.0000     -18.995697      -516.8992
   7   2.0000     -18.993156      -516.8300
   8   2.0000     -18.991142      -516.7753
   9   2.0000     -18.990273      -516.7516
  10   2.0000     -10.107732      -275.0454
  11   2.0000     -10.101425      -274.8737
  12   2.0000     -10.099758      -274.8284
  13   2.0000     -10.097706      -274.7725
  14   2.0000     -10.095709      -274.7182
  15   2.0000     -10.035662      -273.0843
  16   2.0000     -10.030896      -272.9545
  17   2.0000     -10.027296      -272.8566
  18   2.0000     -10.020622      -272.6750
  19   2.0000      -7.874099      -214.2651
  20   2.0000      -7.868202      -214.1047
  21   2.0000      -7.818859      -212.7620
  22   2.0000      -7.817315      -212.7200
  23   2.0000      -6.595601      -179.4754
  24   2.0000      -6.593258      -179.4117
  25   2.0000      -5.820950      -158.3961
  26   2.0000      -5.817895      -158.3130
  27   2.0000      -5.815538      -158.2488
  28   2.0000      -5.811821      -158.1477
  29   2.0000      -5.811275      -158.1328
  30   2.0000      -5.805120      -157.9653
  31   2.0000      -5.766366      -156.9108
  32   2.0000      -5.764996      -156.8735
  33   2.0000      -5.759147      -156.7144
  34   2.0000      -5.758987      -156.7100
  35   2.0000      -5.757720      -156.6755
  36   2.0000      -5.757186      -156.6610
  37   2.0000      -4.741007      -129.0094
  38   2.0000      -4.740522      -128.9962
  39   2.0000      -4.739380      -128.9651
  40   2.0000      -4.738601      -128.9439
  41   2.0000      -4.738258      -128.9346
  42   2.0000      -4.737096      -128.9029
  43   2.0000      -1.052568       -28.6418
  44   2.0000      -1.049638       -28.5621
  45   2.0000      -1.013355       -27.5748
  46   2.0000      -1.010948       -27.5093
  47   2.0000      -0.803504       -21.8644
  48   2.0000      -0.762587       -20.7510
  49   2.0000      -0.749708       -20.4006
  50   2.0000      -0.733991       -19.9729
  51   2.0000      -0.729234       -19.8435
  52   2.0000      -0.711590       -19.3634
  53   2.0000      -0.689521       -18.7628
  54   2.0000      -0.670479       -18.2447
  55   2.0000      -0.631683       -17.1890
  56   2.0000      -0.624455       -16.9923
  57   2.0000      -0.605900       -16.4874
  58   2.0000      -0.603281       -16.4161
  59   2.0000      -0.591273       -16.0894
  60   2.0000      -0.535461       -14.5706
  61   2.0000      -0.518448       -14.1077
  62   2.0000      -0.502309       -13.6685
  63   2.0000      -0.490704       -13.3527
  64   2.0000      -0.480054       -13.0629
  65   2.0000      -0.463921       -12.6239
  66   2.0000      -0.457525       -12.4499
  67   2.0000      -0.455767       -12.4021
  68   2.0000      -0.451514       -12.2863
  69   2.0000      -0.430394       -11.7116
  70   2.0000      -0.425057       -11.5664
  71   2.0000      -0.413556       -11.2534
  72   2.0000      -0.413253       -11.2452
  73   2.0000      -0.410363       -11.1666
  74   2.0000      -0.396702       -10.7948
  75   2.0000      -0.393937       -10.7196
  76   2.0000      -0.381173       -10.3722
  77   2.0000      -0.374505       -10.1908
  78   2.0000      -0.369091       -10.0435
  79   2.0000      -0.366857        -9.9827
  80   2.0000      -0.362366        -9.8605
  81   2.0000      -0.360994        -9.8231
  82   2.0000      -0.354746        -9.6531
  83   2.0000      -0.352123        -9.5818
  84   2.0000      -0.345291        -9.3958
  85   2.0000      -0.335723        -9.1355
  86   2.0000      -0.324009        -8.8167
  87   2.0000      -0.319049        -8.6818
  88   2.0000      -0.310400        -8.4464
  89   2.0000      -0.306157        -8.3310
  90   2.0000      -0.302851        -8.2410
  91   2.0000      -0.292881        -7.9697
  92   2.0000      -0.289375        -7.8743
  93   2.0000      -0.282575        -7.6893
  94   2.0000      -0.271448        -7.3865
  95   2.0000      -0.246480        -6.7070
  96   2.0000      -0.230523        -6.2729
  97   2.0000      -0.225050        -6.1239
  98   2.0000      -0.223096        -6.0708
  99   2.0000      -0.219457        -5.9717
 100   2.0000      -0.216526        -5.8920
 101   0.0000      -0.044641        -1.2147
 102   0.0000      -0.024120        -0.6563
 103   0.0000      -0.015748        -0.4285
 104   0.0000       0.005774         0.1571
 105   0.0000       0.009315         0.2535

MULLIKEN ATOMIC CHARGES
-----------------------
   0 C :   -0.431481
   1 C :   -0.154209
   2 O :   -0.306179
   3 P :    0.654438
   4 S :   -0.459883
   5 O :   -0.268686
   6 C :   -0.140612
   7 C :   -0.463266
   8 S :   -0.112931
   9 C :   -0.263536
  10 S :   -0.115885
  11 P :    0.690088
  12 S :   -0.494883
  13 O :   -0.261883
  14 C :   -0.128490
  15 C :   -0.455377
  16 O :   -0.294484
  17 C :   -0.148983
  18 C :   -0.441132
  19 H :    0.148011
  20 H :    0.166837
  21 H :    0.153716
  22 H :    0.149133
  23 H :    0.174010
  24 H :    0.147855
  25 H :    0.162516
  26 H :    0.144186
  27 H :    0.170400
  28 H :    0.183395
  29 H :    0.212075
  30 H :    0.217901
  31 H :    0.169544
  32 H :    0.147692
  33 H :    0.145707
  34 H :    0.154552
  35 H :    0.171692
  36 H :    0.170268
  37 H :    0.150014
  38 H :    0.153605
  39 H :    0.156959
  40 H :    0.147305
Sum of atomic charges:   -0.0000000

LOEWDIN ATOMIC CHARGES
----------------------
   0 C :   -0.399386
   1 C :    0.023814
   2 O :   -0.693676
   3 P :    0.371648
   4 S :   -0.109420
   5 O :   -0.677571
   6 C :    0.016814
   7 C :   -0.412633
   8 S :    0.183076
   9 C :   -0.409838
  10 S :    0.173511
  11 P :    0.369581
  12 S :   -0.141327
  13 O :   -0.670355
  14 C :    0.025752
  15 C :   -0.391255
  16 O :   -0.661703
  17 C :    0.020953
  18 C :   -0.385557
  19 H :    0.159811
  20 H :    0.164740
  21 H :    0.160619
  22 H :    0.179677
  23 H :    0.180875
  24 H :    0.180402
  25 H :    0.178364
  26 H :    0.157980
  27 H :    0.166423
  28 H :    0.172647
  29 H :    0.195846
  30 H :    0.196342
  31 H :    0.182796
  32 H :    0.172093
  33 H :    0.159114
  34 H :    0.159655
  35 H :    0.166783
  36 H :    0.180969
  37 H :    0.171313
  38 H :    0.159838
  39 H :    0.161021
  40 H :    0.160266

  Mayer bond orders larger than 0.100000
B(  0-C ,  1-C ) :   0.9241 B(  0-C , 19-H ) :   0.9611 B(  0-C , 20-H ) :   0.9604
B(  0-C , 21-H ) :   0.9702 B(  1-C ,  2-O ) :   0.8111 B(  1-C , 22-H ) :   0.9619
B(  1-C , 23-H ) :   0.9664 B(  2-O ,  3-P ) :   1.1277 B(  3-P ,  4-S ) :   1.8125
B(  3-P ,  5-O ) :   1.0306 B(  3-P ,  8-S ) :   1.0840 B(  5-O ,  6-C ) :   0.7949
B(  6-C ,  7-C ) :   0.9268 B(  6-C , 24-H ) :   0.9601 B(  6-C , 25-H ) :   0.9593
B(  7-C , 26-H ) :   0.9599 B(  7-C , 27-H ) :   0.9586 B(  7-C , 28-H ) :   0.9564
B(  8-S ,  9-C ) :   0.9135 B(  9-C , 10-S ) :   0.9234 B(  9-C , 29-H ) :   0.9111
B(  9-C , 30-H ) :   0.9067 B( 10-S , 11-P ) :   1.0832 B( 11-P , 12-S ) :   1.7311
B( 11-P , 13-O ) :   1.1765 B( 11-P , 16-O ) :   1.0918 B( 13-O , 14-C ) :   0.7645
B( 14-C , 15-C ) :   0.9588 B( 14-C , 31-H ) :   0.9547 B( 14-C , 32-H ) :   0.9493
B( 15-C , 33-H ) :   0.9639 B( 15-C , 34-H ) :   0.9699 B( 15-C , 35-H ) :   0.9655
B( 16-O , 17-C ) :   0.7780 B( 17-C , 18-C ) :   0.9577 B( 17-C , 36-H ) :   0.9513
B( 17-C , 37-H ) :   0.9455 B( 18-C , 38-H ) :   0.9714 B( 18-C , 39-H ) :   0.9716
B( 18-C , 40-H ) :   0.9644

Dispersion correction           -0.021227681
FINAL SINGLE POINT ENERGY     -2932.464345755167

DIPOLE MOMENT
-------------

Method             : SCF
Type of density    : Electron Density
Multiplicity       :   1
Irrep              :   0
Energy             : -2932.4897910133668120 Eh
Relativity type    :
Basis              : AO
                                X                 Y                 Z
Electronic contribution:      3.421045011       5.918294847     -11.229278254
Nuclear contribution   :     -3.773859610      -7.307405167      11.780114294
                        -----------------------------------------
Total Dipole Moment    :     -0.352814599      -1.389110320       0.550836040
                        -----------------------------------------
Magnitude (a.u.)       :      1.535423709
Magnitude (Debye)      :      3.902736913

Rotational constants in cm-1:             0.013708             0.004380             0.004135
Rotational constants in MHz :           410.953621           131.300562           123.951431

                             ****ORCA TERMINATED NORMALLY****
TOTAL RUN TIME: 0 days 0 hours 1 minutes 22 seconds 966 msec
