                         Program Version 6.0.0  -   RELEASE  -
|  1> ! r2scan-3c def2/J RI DEFGRID2 scfconv6 printgap
|  2> %output
|  3>     printlevel normal
|  4> end
|  5> %cpcm
|  6>     smd true
|  7>     smdsolvent "water"
|  8> end
|  9> * xyz 0 1
| 10> C 5.0671707812 -1.4738416175 -0.5529126396
| 11> C 4.5742154147 -0.3972784009 -1.4967412729
| 12> O 3.1604052088 -0.1526289451 -1.3451167809
| 13> P 2.5671665958 0.5088635804 -0.0280685868
| 14> S 3.6945575091 1.845382914 0.8517351669
| 15> O 2.2227805218 -0.7791328879 0.848592207
| 16> C 2.0703618911 -0.7153468155 2.2749704867
| 17> C 0.88830215 0.1359753939 2.6911301409
| 18> S 0.7247045135 1.1723369815 -0.8246452743
| 19> C 0.1575569486 -0.3971509644 -1.5505530494
| 20> S -0.688764302 -1.4807289657 -0.3721670653
| 21> P -2.4504524998 -0.3385984332 -0.2283132742
| 22> S -3.0913855914 0.4993830215 -1.8873109556
| 23> O -2.1122403709 0.6355574577 0.9679813008
| 24> C -2.7774401677 1.9025394246 1.1723413057
| 25> C -1.7492513273 2.9262832954 1.6079225621
| 26> O -3.4899984456 -1.324556455 0.4593926324
| 27> C -4.1922354975 -2.33767059 -0.2896334112
| 28> C -5.4275188938 -2.7265785003 0.4972456264
| 29> H 6.1036139765 -1.7028350882 -0.780201969
| 30> H 5.000837001 -1.1223238278 0.4757992431
| 31> H 4.4654958104 -2.372924589 -0.657752637
| 32> H 4.6759689377 -0.6941433857 -2.541461889
| 33> H 5.1074816814 0.5425516649 -1.322979917
| 34> H 1.9440754632 -1.7569902739 2.572573819
| 35> H 2.9936249522 -0.30959409 2.7009899814
| 36> H 0.7988124975 0.1232746923 3.7727293192
| 37> H 1.0441623162 1.1636090914 2.3610579168
| 38> H -0.0331809885 -0.2381840079 2.2513880976
| 39> H 1.0089675012 -0.9437516246 -1.9433405441
| 40> H -0.5418578543 -0.1238846047 -2.3415538154
| 41> H -3.2616655572 2.2014047813 0.236427285
| 42> H -3.5375108019 1.7458590197 1.9403888103
| 43> H -2.2439751704 3.8781869361 1.7711809344
| 44> H -1.2704656347 2.6069734856 2.5289899054
| 45> H -0.9896359811 3.0457388624 0.8386325576
| 46> H -4.4539262223 -1.92742872 -1.2708623762
| 47> H -3.5191015758 -3.1883049839 -0.4235814508
| 48> H -5.140837561 -3.0906550369 1.4794871115
| 49> H -6.0807855072 -1.8668931998 0.6171459632
| 50> H -5.9583299305 -3.5080924851 -0.0363491975
| 51> *
| 52>
| 53>                          ****END OF INPUT****

CARTESIAN COORDINATES (ANGSTROEM)
---------------------------------
  C      5.067171   -1.473842   -0.552913
  C      4.574215   -0.397278   -1.496741
  O      3.160405   -0.152629   -1.345117
  P      2.567167    0.508864   -0.028069
  S      3.694558    1.845383    0.851735
  O      2.222781   -0.779133    0.848592
  C      2.070362   -0.715347    2.274970
  C      0.888302    0.135975    2.691130
  S      0.724705    1.172337   -0.824645
  C      0.157557   -0.397151   -1.550553
  S     -0.688764   -1.480729   -0.372167
  P     -2.450452   -0.338598   -0.228313
  S     -3.091386    0.499383   -1.887311
  O     -2.112240    0.635557    0.967981
  C     -2.777440    1.902539    1.172341
  C     -1.749251    2.926283    1.607923
  O     -3.489998   -1.324556    0.459393
  C     -4.192235   -2.337671   -0.289633
  C     -5.427519   -2.726579    0.497246
  H      6.103614   -1.702835   -0.780202
  H      5.000837   -1.122324    0.475799
  H      4.465496   -2.372925   -0.657753
  H      4.675969   -0.694143   -2.541462
  H      5.107482    0.542552   -1.322980
  H      1.944075   -1.756990    2.572574
  H      2.993625   -0.309594    2.700990
  H      0.798812    0.123275    3.772729
  H      1.044162    1.163609    2.361058
  H     -0.033181   -0.238184    2.251388
  H      1.008968   -0.943752   -1.943341
  H     -0.541858   -0.123885   -2.341554
  H     -3.261666    2.201405    0.236427
  H     -3.537511    1.745859    1.940389
  H     -2.243975    3.878187    1.771181
  H     -1.270466    2.606973    2.528990
  H     -0.989636    3.045739    0.838633
  H     -4.453926   -1.927429   -1.270862
  H     -3.519102   -3.188305   -0.423581
  H     -5.140838   -3.090655    1.479487
  H     -6.080786   -1.866893    0.617146
  H     -5.958330   -3.508092   -0.036349

 Total Charge           Charge          ....    0
 Multiplicity           Mult            ....    1
 Number of Electrons    NEL             ....  202
 Basis Dimension        Dim             ....  539

ORBITAL ENERGIES
----------------

  NO   OCC          E(Eh)            E(eV)
   0   2.0000     -88.581959     -2410.4376
   1   2.0000     -88.578924     -2410.3551
   2   2.0000     -88.531316     -2409.0596
   3   2.0000     -88.530037     -2409.0248
   4   2.0000     -76.920360     -2093.1094
   5   2.0000     -76.920302     -2093.1078
   6   2.0000     -18.996282      -516.9151
   7   2.0000     -18.994612      -516.8697
   8   2.0000     -18.992754      -516.8191
   9   2.0000     -18.992229      -516.8048
  10   2.0000     -10.106705      -275.0174
  11   2.0000     -10.090240      -274.5694
  12   2.0000     -10.089597      -274.5519
  13   2.0000     -10.089508      -274.5495
  14   2.0000     -10.088517      -274.5225
  15   2.0000     -10.019711      -272.6502
  16   2.0000     -10.018695      -272.6225
  17   2.0000     -10.017991      -272.6034
  18   2.0000     -10.015728      -272.5418
  19   2.0000      -7.876356      -214.3266
  20   2.0000      -7.873175      -214.2400
  21   2.0000      -7.826271      -212.9637
  22   2.0000      -7.825063      -212.9308
  23   2.0000      -6.599004      -179.5680
  24   2.0000      -6.598720      -179.5603
  25   2.0000      -5.823212      -158.4576
  26   2.0000      -5.820446      -158.3824
  27   2.0000      -5.820150      -158.3743
  28   2.0000      -5.816725      -158.2811
  29   2.0000      -5.813545      -158.1946
  30   2.0000      -5.810218      -158.1041
  31   2.0000      -5.773860      -157.1147
  32   2.0000      -5.772502      -157.0778
  33   2.0000      -5.766645      -156.9184
  34   2.0000      -5.766199      -156.9062
  35   2.0000      -5.765347      -156.8831
  36   2.0000      -5.765209      -156.8793
  37   2.0000      -4.744377      -129.1011
  38   2.0000      -4.744003      -129.0909
  39   2.0000      -4.743919      -129.0886
  40   2.0000      -4.743702      -129.0827
  41   2.0000      -4.742852      -129.0596
  42   2.0000      -4.742674      -129.0547
  43   2.0000      -1.053367       -28.6636
  44   2.0000      -1.051041       -28.6003
  45   2.0000      -1.013477       -27.5781
  46   2.0000      -1.011777       -27.5319
  47   2.0000      -0.804831       -21.9006
  48   2.0000      -0.759170       -20.6581
  49   2.0000      -0.743918       -20.2430
  50   2.0000      -0.724113       -19.7041
  51   2.0000      -0.722372       -19.6567
  52   2.0000      -0.710512       -19.3340
  53   2.0000      -0.693246       -18.8642
  54   2.0000      -0.676018       -18.3954
  55   2.0000      -0.629984       -17.1427
  56   2.0000      -0.619736       -16.8639
  57   2.0000      -0.599383       -16.3100
  58   2.0000      -0.596093       -16.2205
  59   2.0000      -0.588673       -16.0186
  60   2.0000      -0.530839       -14.4449
  61   2.0000      -0.514710       -14.0060
  62   2.0000      -0.498666       -13.5694
  63   2.0000      -0.488021       -13.2797
  64   2.0000      -0.478531       -13.0215
  65   2.0000      -0.457885       -12.4597
  66   2.0000      -0.455524       -12.3955
  67   2.0000      -0.452045       -12.3008
  68   2.0000      -0.444069       -12.0837
  69   2.0000      -0.428645       -11.6640
  70   2.0000      -0.421525       -11.4703
  71   2.0000      -0.411968       -11.2102
  72   2.0000      -0.409608       -11.1460
  73   2.0000      -0.406279       -11.0554
  74   2.0000      -0.391899       -10.6641
  75   2.0000      -0.389981       -10.6119
  76   2.0000      -0.380381       -10.3507
  77   2.0000      -0.364128        -9.9084
  78   2.0000      -0.362410        -9.8617
  79   2.0000      -0.358803        -9.7635
  80   2.0000      -0.356327        -9.6962
  81   2.0000      -0.352837        -9.6012
  82   2.0000      -0.348613        -9.4862
  83   2.0000      -0.345106        -9.3908
  84   2.0000      -0.342503        -9.3200
  85   2.0000      -0.332852        -9.0574
  86   2.0000      -0.321035        -8.7358
  87   2.0000      -0.313655        -8.5350
  88   2.0000      -0.306720        -8.3463
  89   2.0000      -0.304518        -8.2863
  90   2.0000      -0.300914        -8.1883
  91   2.0000      -0.290166        -7.8958
  92   2.0000      -0.287315        -7.8183
  93   2.0000      -0.280604        -7.6356
  94   2.0000      -0.271536        -7.3889
  95   2.0000      -0.249707        -6.7949
  96   2.0000      -0.237094        -6.4516
  97   2.0000      -0.233126        -6.3437
  98   2.0000      -0.231024        -6.2865
  99   2.0000      -0.227238        -6.1835
 100   2.0000      -0.222806        -6.0628
 101   0.0000      -0.048100        -1.3089
 102   0.0000      -0.030142        -0.8202
 103   0.0000      -0.019797        -0.5387
 104   0.0000       0.002727         0.0742
 105   0.0000       0.006059         0.1649

MULLIKEN ATOMIC CHARGES
-----------------------
   0 C :   -0.474317
   1 C :   -0.145737
   2 O :   -0.327183
   3 P :    0.682024
   4 S :   -0.514043
   5 O :   -0.284104
   6 C :   -0.141751
   7 C :   -0.492793
   8 S :   -0.143076
   9 C :   -0.269942
  10 S :   -0.116113
  11 P :    0.713800
  12 S :   -0.542590
  13 O :   -0.283640
  14 C :   -0.118231
  15 C :   -0.500443
  16 O :   -0.320456
  17 C :   -0.141227
  18 C :   -0.482724
  19 H :    0.172309
  20 H :    0.168053
  21 H :    0.168883
  22 H :    0.175518
  23 H :    0.176453
  24 H :    0.176143
  25 H :    0.172240
  26 H :    0.171709
  27 H :    0.169515
  28 H :    0.177850
  29 H :    0.244147
  30 H :    0.232075
  31 H :    0.170337
  32 H :    0.173171
  33 H :    0.169395
  34 H :    0.170088
  35 H :    0.169931
  36 H :    0.171157
  37 H :    0.171673
  38 H :    0.165828
  39 H :    0.166387
  40 H :    0.169683
Sum of atomic charges:   -0.0000000

LOEWDIN ATOMIC CHARGES
----------------------
   0 C :   -0.402622
   1 C :    0.028623
   2 O :   -0.700387
   3 P :    0.375255
   4 S :   -0.146446
   5 O :   -0.682737
   6 C :    0.022038
   7 C :   -0.414872
   8 S :    0.165468
   9 C :   -0.402976
  10 S :    0.176020
  11 P :    0.373656
  12 S :   -0.172843
  13 O :   -0.681365
  14 C :    0.030942
  15 C :   -0.396694
  16 O :   -0.674057
  17 C :    0.025740
  18 C :   -0.389437
  19 H :    0.168877
  20 H :    0.162639
  21 H :    0.164382
  22 H :    0.190870
  23 H :    0.181356
  24 H :    0.191536
  25 H :    0.181889
  26 H :    0.167777
  27 H :    0.163093
  28 H :    0.169206
  29 H :    0.207054
  30 H :    0.200721
  31 H :    0.183305
  32 H :    0.182730
  33 H :    0.167862
  34 H :    0.163329
  35 H :    0.163321
  36 H :    0.181678
  37 H :    0.180056
  38 H :    0.163213
  39 H :    0.162767
  40 H :    0.169032

  Mayer bond orders larger than 0.100000
B(  0-C ,  1-C ) :   0.9127 B(  0-C , 19-H ) :   0.9552 B(  0-C , 20-H ) :   0.9595
B(  0-C , 21-H ) :   0.9693 B(  1-C ,  2-O ) :   0.7997 B(  1-C , 22-H ) :   0.9514
B(  1-C , 23-H ) :   0.9628 B(  2-O ,  3-P ) :   1.1366 B(  3-P ,  4-S ) :   1.7774
B(  3-P ,  5-O ) :   1.0384 B(  3-P ,  8-S ) :   1.0961 B(  5-O ,  6-C ) :   0.7828
B(  6-C ,  7-C ) :   0.9122 B(  6-C , 24-H ) :   0.9508 B(  6-C , 25-H ) :   0.9576
B(  7-C , 26-H ) :   0.9551 B(  7-C , 27-H ) :   0.9609 B(  7-C , 28-H ) :   0.9578
B(  8-S ,  9-C ) :   0.9068 B(  9-C , 10-S ) :   0.9206 B(  9-C , 29-H ) :   0.8994
B(  9-C , 30-H ) :   0.9021 B( 10-S , 11-P ) :   1.0989 B( 11-P , 12-S ) :   1.6920
B( 11-P , 13-O ) :   1.1824 B( 11-P , 16-O ) :   1.0981 B( 13-O , 14-C ) :   0.7572
B( 14-C , 15-C ) :   0.9486 B( 14-C , 31-H ) :   0.9536 B( 14-C , 32-H ) :   0.9401
B( 15-C , 33-H ) :   0.9584 B( 15-C , 34-H ) :   0.9669 B( 15-C , 35-H ) :   0.9666
B( 16-O , 17-C ) :   0.7707 B( 17-C , 18-C ) :   0.9529 B( 17-C , 36-H ) :   0.9483
B( 17-C , 37-H ) :   0.9365 B( 18-C , 38-H ) :   0.9687 B( 18-C , 39-H ) :   0.9695
B( 18-C , 40-H ) :   0.9585

Dispersion correction           -0.021227681
FINAL SINGLE POINT ENERGY     -2932.472433685557

DIPOLE MOMENT
-------------

Method             : SCF
Type of density    : Electron Density
Multiplicity       :   1
Irrep              :   0
Energy             : -2932.4978789437573141 Eh
Relativity type    :
Basis              : AO
                                X                 Y                 Z
Electronic contribution:      3.380243950       5.322697477     -11.101185788
Nuclear contribution   :     -3.773859610      -7.307405167      11.780114294
                        -----------------------------------------
Total Dipole Moment    :     -0.393615659      -1.984707690       0.678928506
                        -----------------------------------------
Magnitude (a.u.)       :      2.134230966
Magnitude (Debye)      :      5.424784001

Rotational constants in cm-1:             0.013708             0.004380             0.004135
Rotational constants in MHz :           410.953621           131.300562           123.951431

                             ****ORCA TERMINATED NORMALLY****
TOTAL RUN TIME: 0 days 0 hours 1 minutes 54 seconds 662 msec
