                         Program Version 6.0.1  -  RELEASE   -
|  1> ! pbe def2-sv(p) def2/J RI DEFGRID1 loosescf d4 GCP(DFT/SV(P)) printgap
|  2> %output
|  3>     printlevel normal
|  4> end
|  5> * xyz 0 1
|  6> C 5.2221747644 -1.8388285834 -1.6434905731
|  7> C 4.5045699636 -0.5953104708 -1.1429339061
|  8> O 3.075173354 -0.7553947339 -1.2163179375
|  9> C 2.4642157994 -1.360262646 -0.2119649913
| 10> O 3.0239354583 -1.7934094089 0.7679812442
| 11> C 0.969502199 -1.4781544055 -0.4499511205
| 12> C 0.3881961655 -0.1843676646 -1.0082341515
| 13> H 0.9076032433 0.0833055162 -1.9344201305
| 14> C 0.5049326505 0.9914572097 -0.0570281175
| 15> O -0.3610180281 1.8375786654 0.0437024897
| 16> O 1.6390046529 0.98867658 0.5930891362
| 17> C 1.885837074 2.0502205725 1.5390474794
| 18> C 2.4497851992 3.2795749627 0.8470744387
| 19> S -1.3605802585 -0.3534918487 -1.4894967544
| 20> P -2.3440804922 0.0274913956 0.3547293188
| 21> S -1.3942074217 -0.3700731603 2.0229033067
| 22> O -3.0252463925 1.4502511402 0.3476402788
| 23> C -3.7406847622 1.9668695709 -0.7917018547
| 24> O -3.6537242025 -0.8804541861 0.1552232273
| 25> C -3.5834004056 -2.3093857004 0.1690504237
| 26> H 6.2925049084 -1.6611924869 -1.6395814494
| 27> H 5.0025256218 -2.6826304834 -0.9935402161
| 28> H 4.9014765684 -2.0756058821 -2.6541739207
| 29> H 4.7146241118 0.2663111506 -1.7769432455
| 30> H 4.7770450014 -0.3828083788 -0.1054435131
| 31> H 0.4973471042 -1.7469366168 0.4972986561
| 32> H 0.8034888432 -2.2803801305 -1.1717084338
| 33> H 0.9455150898 2.2794718294 2.0491191021
| 34> H 2.5975052671 1.6172063592 2.242387486
| 35> H 3.353870457 3.0217558271 0.3024285323
| 36> H 1.7178619743 3.6882019354 0.154149561
| 37> H 2.683682033 4.0299039974 1.5949233283
| 38> H -4.5185563613 1.2679888139 -1.0940764901
| 39> H -3.0442338563 2.1401411371 -1.6117420582
| 40> H -4.1706846153 2.9049847853 -0.4509236632
| 41> H -4.611444571 -2.6522503786 0.252887959
| 42> H -2.9992146643 -2.6475225494 1.0265197267
| 43> H -3.1323519847 -2.666692479 -0.7563696385
| 44> *
| 45>
| 46>                          ****END OF INPUT****

CARTESIAN COORDINATES (ANGSTROEM)
---------------------------------
  C      5.222175   -1.838829   -1.643491
  C      4.504570   -0.595310   -1.142934
  O      3.075173   -0.755395   -1.216318
  C      2.464216   -1.360263   -0.211965
  O      3.023935   -1.793409    0.767981
  C      0.969502   -1.478154   -0.449951
  C      0.388196   -0.184368   -1.008234
  H      0.907603    0.083306   -1.934420
  C      0.504933    0.991457   -0.057028
  O     -0.361018    1.837579    0.043702
  O      1.639005    0.988677    0.593089
  C      1.885837    2.050221    1.539047
  C      2.449785    3.279575    0.847074
  S     -1.360580   -0.353492   -1.489497
  P     -2.344080    0.027491    0.354729
  S     -1.394207   -0.370073    2.022903
  O     -3.025246    1.450251    0.347640
  C     -3.740685    1.966870   -0.791702
  O     -3.653724   -0.880454    0.155223
  C     -3.583400   -2.309386    0.169050
  H      6.292505   -1.661192   -1.639581
  H      5.002526   -2.682630   -0.993540
  H      4.901477   -2.075606   -2.654174
  H      4.714624    0.266311   -1.776943
  H      4.777045   -0.382808   -0.105444
  H      0.497347   -1.746937    0.497299
  H      0.803489   -2.280380   -1.171708
  H      0.945515    2.279472    2.049119
  H      2.597505    1.617206    2.242387
  H      3.353870    3.021756    0.302429
  H      1.717862    3.688202    0.154150
  H      2.683682    4.029904    1.594923
  H     -4.518556    1.267989   -1.094076
  H     -3.044234    2.140141   -1.611742
  H     -4.170685    2.904985   -0.450924
  H     -4.611445   -2.652250    0.252888
  H     -2.999215   -2.647523    1.026520
  H     -3.132352   -2.666692   -0.756370

 Total Charge           Charge          ....    0
 Multiplicity           Mult            ....    1
 Number of Electrons    NEL             ....  174
 Basis Dimension        Dim             ....  316

ORBITAL ENERGIES
----------------

  NO   OCC          E(Eh)            E(eV)
   0   2.0000     -88.039621     -2395.6799
   1   2.0000     -87.978910     -2394.0279
   2   2.0000     -76.422816     -2079.5705
   3   2.0000     -18.815683      -512.0008
   4   2.0000     -18.801693      -511.6201
   5   2.0000     -18.785825      -511.1883
   6   2.0000     -18.785197      -511.1712
   7   2.0000     -18.743195      -510.0283
   8   2.0000     -18.734696      -509.7970
   9   2.0000     -10.021907      -272.7100
  10   2.0000     -10.008015      -272.3319
  11   2.0000      -9.950588      -270.7693
  12   2.0000      -9.950510      -270.7671
  13   2.0000      -9.950409      -270.7644
  14   2.0000      -9.943613      -270.5795
  15   2.0000      -9.939796      -270.4756
  16   2.0000      -9.904702      -269.5206
  17   2.0000      -9.890304      -269.1289
  18   2.0000      -9.888681      -269.0847
  19   2.0000      -7.684579      -209.1080
  20   2.0000      -7.623967      -207.4587
  21   2.0000      -6.419323      -174.6787
  22   2.0000      -5.712498      -155.4450
  23   2.0000      -5.709047      -155.3511
  24   2.0000      -5.701542      -155.1468
  25   2.0000      -5.653166      -153.8305
  26   2.0000      -5.644511      -153.5949
  27   2.0000      -5.643874      -153.5776
  28   2.0000      -4.642026      -126.3159
  29   2.0000      -4.641335      -126.2971
  30   2.0000      -4.639691      -126.2524
  31   2.0000      -1.024124       -27.8678
  32   2.0000      -1.008434       -27.4409
  33   2.0000      -0.980338       -26.6764
  34   2.0000      -0.935785       -25.4640
  35   2.0000      -0.925380       -25.1809
  36   2.0000      -0.912337       -24.8259
  37   2.0000      -0.767045       -20.8724
  38   2.0000      -0.711400       -19.3582
  39   2.0000      -0.708569       -19.2811
  40   2.0000      -0.689275       -18.7561
  41   2.0000      -0.657950       -17.9037
  42   2.0000      -0.630842       -17.1661
  43   2.0000      -0.623760       -16.9734
  44   2.0000      -0.616038       -16.7632
  45   2.0000      -0.595044       -16.1920
  46   2.0000      -0.570859       -15.5339
  47   2.0000      -0.513039       -13.9605
  48   2.0000      -0.503558       -13.7025
  49   2.0000      -0.499914       -13.6033
  50   2.0000      -0.483032       -13.1440
  51   2.0000      -0.469229       -12.7684
  52   2.0000      -0.463117       -12.6020
  53   2.0000      -0.441939       -12.0258
  54   2.0000      -0.434239       -11.8162
  55   2.0000      -0.427828       -11.6418
  56   2.0000      -0.426479       -11.6051
  57   2.0000      -0.420445       -11.4409
  58   2.0000      -0.413478       -11.2513
  59   2.0000      -0.409692       -11.1483
  60   2.0000      -0.400469       -10.8973
  61   2.0000      -0.395177       -10.7533
  62   2.0000      -0.394270       -10.7286
  63   2.0000      -0.385759       -10.4970
  64   2.0000      -0.380038       -10.3414
  65   2.0000      -0.367905       -10.0112
  66   2.0000      -0.358208        -9.7473
  67   2.0000      -0.354576        -9.6485
  68   2.0000      -0.347112        -9.4454
  69   2.0000      -0.340487        -9.2651
  70   2.0000      -0.337676        -9.1886
  71   2.0000      -0.328032        -8.9262
  72   2.0000      -0.321451        -8.7471
  73   2.0000      -0.315482        -8.5847
  74   2.0000      -0.300776        -8.1845
  75   2.0000      -0.297956        -8.1078
  76   2.0000      -0.295138        -8.0311
  77   2.0000      -0.291021        -7.9191
  78   2.0000      -0.272526        -7.4158
  79   2.0000      -0.264953        -7.2097
  80   2.0000      -0.257450        -7.0056
  81   2.0000      -0.255841        -6.9618
  82   2.0000      -0.238675        -6.4947
  83   2.0000      -0.225493        -6.1360
  84   2.0000      -0.213732        -5.8159
  85   2.0000      -0.195808        -5.3282
  86   2.0000      -0.194594        -5.2952
  87   0.0000      -0.044595        -1.2135
  88   0.0000      -0.029662        -0.8072
  89   0.0000      -0.014071        -0.3829
  90   0.0000       0.005478         0.1491
  91   0.0000       0.025013         0.6806

MULLIKEN ATOMIC CHARGES
-----------------------
   0 C :   -0.304280
   1 C :   -0.011328
   2 O :   -0.250374
   3 C :    0.120263
   4 O :   -0.193831
   5 C :   -0.048267
   6 C :   -0.308737
   7 H :    0.160595
   8 C :    0.189343
   9 O :   -0.192223
  10 O :   -0.219569
  11 C :   -0.004872
  12 C :   -0.310291
  13 S :   -0.096961
  14 P :    0.611174
  15 S :   -0.313238
  16 O :   -0.350525
  17 C :   -0.101573
  18 O :   -0.389826
  19 C :   -0.100642
  20 H :    0.112718
  21 H :    0.129860
  22 H :    0.111812
  23 H :    0.099387
  24 H :    0.107656
  25 H :    0.120447
  26 H :    0.114872
  27 H :    0.122776
  28 H :    0.113327
  29 H :    0.111299
  30 H :    0.128234
  31 H :    0.117729
  32 H :    0.118662
  33 H :    0.123431
  34 H :    0.130521
  35 H :    0.123561
  36 H :    0.117108
  37 H :    0.111763
Sum of atomic charges:    0.0000000

LOEWDIN ATOMIC CHARGES
----------------------
   0 C :   -0.356659
   1 C :   -0.110730
   2 O :   -0.069309
   3 C :    0.026396
   4 O :   -0.160676
   5 C :   -0.253364
   6 C :   -0.268867
   7 H :    0.152701
   8 C :    0.007863
   9 O :   -0.167100
  10 O :   -0.027669
  11 C :   -0.104520
  12 C :   -0.356596
  13 S :    0.098800
  14 P :    0.585444
  15 S :   -0.306608
  16 O :   -0.228550
  17 C :   -0.207718
  18 O :   -0.264183
  19 C :   -0.218741
  20 H :    0.130589
  21 H :    0.131801
  22 H :    0.123925
  23 H :    0.115546
  24 H :    0.119704
  25 H :    0.136676
  26 H :    0.142791
  27 H :    0.127428
  28 H :    0.123516
  29 H :    0.123058
  30 H :    0.130781
  31 H :    0.133460
  32 H :    0.112595
  33 H :    0.113516
  34 H :    0.126462
  35 H :    0.121670
  36 H :    0.110501
  37 H :    0.106066

  Mayer bond orders larger than 0.100000
B(  0-C ,  1-C ) :   1.1752 B(  0-C , 20-H ) :   0.9442 B(  0-C , 21-H ) :   0.9450
B(  0-C , 22-H ) :   0.9487 B(  1-C ,  2-O ) :   0.9182 B(  1-C , 23-H ) :   0.9370
B(  1-C , 24-H ) :   0.9139 B(  2-O ,  3-C ) :   1.1907 B(  3-C ,  4-O ) :   2.0699
B(  3-C ,  5-C ) :   1.0177 B(  5-C ,  6-C ) :   1.0278 B(  5-C , 25-H ) :   0.8824
B(  5-C , 26-H ) :   0.8816 B(  6-C ,  7-H ) :   0.8557 B(  6-C ,  8-C ) :   0.8950
B(  6-C , 13-S ) :   1.0118 B(  8-C ,  9-O ) :   2.0036 B(  8-C , 10-O ) :   1.2635
B( 10-O , 11-C ) :   0.8974 B( 11-C , 12-C ) :   1.1727 B( 11-C , 27-H ) :   0.9133
B( 11-C , 28-H ) :   0.9354 B( 12-C , 29-H ) :   0.9480 B( 12-C , 30-H ) :   0.9447
B( 12-C , 31-H ) :   0.9440 B( 13-S , 14-P ) :   0.9472 B( 13-S , 15-S ) :   0.1120
B( 14-P , 15-S ) :   1.6062 B( 14-P , 16-O ) :   1.1424 B( 14-P , 18-O ) :   1.0623
B( 16-O , 17-C ) :   0.9195 B( 17-C , 32-H ) :   0.9454 B( 17-C , 33-H ) :   0.9421
B( 17-C , 34-H ) :   0.9596 B( 18-O , 19-C ) :   0.9359 B( 19-C , 35-H ) :   0.9587
B( 19-C , 36-H ) :   0.9343 B( 19-C , 37-H ) :   0.9464

Dispersion correction           -0.052401656
FINAL SINGLE POINT ENERGY     -1979.016229621363

DIPOLE MOMENT
-------------

Method             : SCF
Type of density    : Electron Density
Multiplicity       :   1
Irrep              :   0
Energy             : -1979.1465524270342939 Eh
Relativity type    :
Basis              : AO
                                X                 Y                 Z
Electronic contribution:    -17.359441581      -1.955055285       4.525251633
Nuclear contribution   :     17.869415371       2.357409653      -6.016113282
                        -----------------------------------------
Total Dipole Moment    :      0.509973791       0.402354368      -1.490861649
                        -----------------------------------------
Magnitude (a.u.)       :      1.626232075
Magnitude (Debye)      :      4.133553436

Rotational constants in cm-1:             0.016117             0.006211             0.005456
Rotational constants in MHz :           483.169244           186.198915           163.567851

                             ****ORCA TERMINATED NORMALLY****
TOTAL RUN TIME: 0 days 0 hours 0 minutes 51 seconds 148 msec
