                         Program Version 6.0.0  -   RELEASE  -
|  1> ! wb97x-v def2-tzvp def2/J RIJCOSX DEFGRID2 scfconv7 GCP(DFT/TZ) printgap
|  2> %output
|  3>     printlevel normal
|  4> end
|  5> * xyz 0 1
|  6> C -0.7095176892239995 -0.573637660929677 -0.2604401697534679
|  7> C 0.7022558934742766 -0.5707695172778042 0.28744239821415435
|  8> O 1.4751464347875045 0.553431123283557 -0.16339696037670656
|  9> O -1.4662398388853326 0.5813684564537114 0.13691792890858995
| 10> H -1.210822835653929 -1.4991911075221274 0.05879128280826075
| 11> H -0.6867916965318492 -0.5588418793821017 -1.355760130857224
| 12> H 1.190275144122791 -1.5173921152957468 0.012444794928319267
| 13> H 0.6798894743839652 -0.5039163226035428 1.3808131878714618
| 14> H 1.5467390167568378 0.48622494429682106 -1.1247684389177925
| 15> H -1.5432093025007978 0.5574880903395174 1.0999624286142502
| 16> *
| 17>
| 18>                          ****END OF INPUT****

CARTESIAN COORDINATES (ANGSTROEM)
---------------------------------
  C     -0.709518   -0.573638   -0.260440
  C      0.702256   -0.570770    0.287442
  O      1.475146    0.553431   -0.163397
  O     -1.466240    0.581368    0.136918
  H     -1.210823   -1.499191    0.058791
  H     -0.686792   -0.558842   -1.355760
  H      1.190275   -1.517392    0.012445
  H      0.679889   -0.503916    1.380813
  H      1.546739    0.486225   -1.124768
  H     -1.543209    0.557488    1.099962

 Total Charge           Charge          ....    0
 Multiplicity           Mult            ....    1
 Number of Electrons    NEL             ....   34
 Basis Dimension        Dim             ....  160

ORBITAL ENERGIES
----------------

  NO   OCC          E(Eh)            E(eV)
   0   2.0000     -21.672790      -589.7466
   1   2.0000     -21.672728      -589.7449
   2   2.0000     -12.099983      -329.2573
   3   2.0000     -12.098737      -329.2234
   4   2.0000      -1.675518       -45.5932
   5   2.0000      -1.668221       -45.3946
   6   2.0000      -1.276620       -34.7386
   7   2.0000      -1.159834       -31.5607
   8   2.0000      -1.057625       -28.7794
   9   2.0000      -1.002019       -27.2663
  10   2.0000      -0.958534       -26.0830
  11   2.0000      -0.955847       -26.0099
  12   2.0000      -0.945889       -25.7389
  13   2.0000      -0.903246       -24.5786
  14   2.0000      -0.831128       -22.6161
  15   2.0000      -0.804944       -21.9036
  16   2.0000      -0.801751       -21.8167
  17   0.0000      -0.161834        -4.4037
  18   0.0000      -0.126381        -3.4390
  19   0.0000      -0.058484        -1.5914
  20   0.0000      -0.041479        -1.1287
  21   0.0000       0.003266         0.0889

MULLIKEN ATOMIC CHARGES
-----------------------
   0 C :   -0.044963
   1 C :   -0.043818
   2 O :   -0.433741
   3 O :   -0.433802
   4 H :    0.087793
   5 H :    0.093861
   6 H :    0.087650
   7 H :    0.093661
   8 H :    0.296636
   9 H :    0.296723
Sum of atomic charges:    0.0000000

LOEWDIN ATOMIC CHARGES
----------------------
   0 C :   -0.352315
   1 C :   -0.352280
   2 O :   -0.054797
   3 O :   -0.054837
   4 H :    0.116382
   5 H :    0.122851
   6 H :    0.116348
   7 H :    0.122860
   8 H :    0.167875
   9 H :    0.167912

  Mayer bond orders larger than 0.100000
B(  0-C ,  1-C ) :   1.0021 B(  0-C ,  3-O ) :   1.0053 B(  0-C ,  4-H ) :   0.9647
B(  0-C ,  5-H ) :   0.9648 B(  1-C ,  2-O ) :   1.0052 B(  1-C ,  6-H ) :   0.9645
B(  1-C ,  7-H ) :   0.9647 B(  2-O ,  8-H ) :   0.9057 B(  3-O ,  9-H ) :   0.9057

FINAL SINGLE POINT ENERGY      -230.264616115962

DIPOLE MOMENT
-------------

Method             : SCF
Type of density    : Electron Density
Multiplicity       :   1
Irrep              :   0
Energy             :  -230.2715284890619216 Eh
Relativity type    :
Basis              : AO
                                X                 Y                 Z
Electronic contribution:      0.015372352       2.028831695      -0.047451310
Nuclear contribution   :     -0.025150782      -2.954274002       0.069157358
                        -----------------------------------------
Total Dipole Moment    :     -0.009778430      -0.925442308       0.021706048
                        -----------------------------------------
Magnitude (a.u.)       :      0.925748473
Magnitude (Debye)      :      2.353065617

Rotational constants in cm-1:             0.519460             0.170895             0.148000
Rotational constants in MHz :         15573.005186          5123.311454          4436.915524

                             ****ORCA TERMINATED NORMALLY****
TOTAL RUN TIME: 0 days 0 hours 0 minutes 33 seconds 911 msec
