                         Program Version 6.0.0  -   RELEASE  -
|  1> ! wb97x-v def2-tzvp def2/J RIJCOSX DEFGRID2 scfconv7 GCP(DFT/TZ) printgap
|  2> %output
|  3>     printlevel normal
|  4> end
|  5> %cpcm
|  6>     smd true
|  7>     smdsolvent "water"
|  8> end
|  9> * xyz 0 1
| 10> C -0.7095176892239995 -0.573637660929677 -0.2604401697534679
| 11> C 0.7022558934742766 -0.5707695172778042 0.28744239821415435
| 12> O 1.4751464347875045 0.553431123283557 -0.16339696037670656
| 13> O -1.4662398388853326 0.5813684564537114 0.13691792890858995
| 14> H -1.210822835653929 -1.4991911075221274 0.05879128280826075
| 15> H -0.6867916965318492 -0.5588418793821017 -1.355760130857224
| 16> H 1.190275144122791 -1.5173921152957468 0.012444794928319267
| 17> H 0.6798894743839652 -0.5039163226035428 1.3808131878714618
| 18> H 1.5467390167568378 0.48622494429682106 -1.1247684389177925
| 19> H -1.5432093025007978 0.5574880903395174 1.0999624286142502
| 20> *
| 21>
| 22>                          ****END OF INPUT****

CARTESIAN COORDINATES (ANGSTROEM)
---------------------------------
  C     -0.709518   -0.573638   -0.260440
  C      0.702256   -0.570770    0.287442
  O      1.475146    0.553431   -0.163397
  O     -1.466240    0.581368    0.136918
  H     -1.210823   -1.499191    0.058791
  H     -0.686792   -0.558842   -1.355760
  H      1.190275   -1.517392    0.012445
  H      0.679889   -0.503916    1.380813
  H      1.546739    0.486225   -1.124768
  H     -1.543209    0.557488    1.099962

 Total Charge           Charge          ....    0
 Multiplicity           Mult            ....    1
 Number of Electrons    NEL             ....   34
 Basis Dimension        Dim             ....  160

ORBITAL ENERGIES
----------------

  NO   OCC          E(Eh)            E(eV)
   0   2.0000     -21.674134      -589.7832
   1   2.0000     -21.674083      -589.7818
   2   2.0000     -12.087430      -328.9157
   3   2.0000     -12.086176      -328.8816
   4   2.0000      -1.676780       -45.6275
   5   2.0000      -1.669849       -45.4389
   6   2.0000      -1.266763       -34.4704
   7   2.0000      -1.155489       -31.4424
   8   2.0000      -1.056325       -28.7441
   9   2.0000      -1.004156       -27.3245
  10   2.0000      -0.958995       -26.0956
  11   2.0000      -0.948942       -25.8220
  12   2.0000      -0.948793       -25.8180
  13   2.0000      -0.906069       -24.6554
  14   2.0000      -0.821832       -22.3632
  15   2.0000      -0.797309       -21.6959
  16   2.0000      -0.790876       -21.5208
  17   0.0000      -0.153068        -4.1652
  18   0.0000      -0.116127        -3.1600
  19   0.0000      -0.032077        -0.8729
  20   0.0000      -0.016322        -0.4442
  21   0.0000       0.016311         0.4438

MULLIKEN ATOMIC CHARGES
-----------------------
   0 C :   -0.041656
   1 C :   -0.041319
   2 O :   -0.560043
   3 O :   -0.560222
   4 H :    0.115127
   5 H :    0.126374
   6 H :    0.115034
   7 H :    0.126178
   8 H :    0.360188
   9 H :    0.360337
Sum of atomic charges:   -0.0000000

LOEWDIN ATOMIC CHARGES
----------------------
   0 C :   -0.344539
   1 C :   -0.344635
   2 O :   -0.102686
   3 O :   -0.102725
   4 H :    0.126951
   5 H :    0.130367
   6 H :    0.126894
   7 H :    0.130366
   8 H :    0.189961
   9 H :    0.190046

  Mayer bond orders larger than 0.100000
B(  0-C ,  1-C ) :   1.0033 B(  0-C ,  3-O ) :   0.9563 B(  0-C ,  4-H ) :   0.9654
B(  0-C ,  5-H ) :   0.9647 B(  1-C ,  2-O ) :   0.9564 B(  1-C ,  6-H ) :   0.9652
B(  1-C ,  7-H ) :   0.9647 B(  2-O ,  8-H ) :   0.8677 B(  3-O ,  9-H ) :   0.8676

FINAL SINGLE POINT ENERGY      -230.284477633545

DIPOLE MOMENT
-------------

Method             : SCF
Type of density    : Electron Density
Multiplicity       :   1
Irrep              :   0
Energy             :  -230.2913900066453152 Eh
Relativity type    :
Basis              : AO
                                X                 Y                 Z
Electronic contribution:      0.011374602       1.650137444      -0.038406791
Nuclear contribution   :     -0.025150782      -2.954274002       0.069157358
                        -----------------------------------------
Total Dipole Moment    :     -0.013776180      -1.304136558       0.030750566
                        -----------------------------------------
Magnitude (a.u.)       :      1.304571785
Magnitude (Debye)      :      3.315957954

Rotational constants in cm-1:             0.519460             0.170895             0.148000
Rotational constants in MHz :         15573.005186          5123.311454          4436.915524

                             ****ORCA TERMINATED NORMALLY****
TOTAL RUN TIME: 0 days 0 hours 0 minutes 41 seconds 879 msec
