                         Program Version 6.0.0  -   RELEASE  -
|  1> ! pbe def2-sv(p) def2/J RI DEFGRID1 loosescf d4 GCP(DFT/SV(P)) printgap
|  2> %output
|  3>     printlevel normal
|  4> end
|  5> * xyz 0 1
|  6> C 5.223099412 1.4552805356 -0.5430985467
|  7> C 4.1061759029 0.893423101 -1.4014588235
|  8> O 3.3204665166 -0.0627472664 -0.6672287718
|  9> P 1.9673691541 0.3531523754 0.0852786242
| 10> S 2.1538723578 1.7919633437 1.4007189795
| 11> O 1.5500751834 -1.0720546278 0.6273946318
| 12> C 1.8304094713 -1.5081084928 1.9744376917
| 13> C 0.7534831477 -2.4848610179 2.3998130283
| 14> S 0.6310206576 0.715549566 -1.5105704377
| 15> C 0.2529363584 -0.9793439491 -1.998250176
| 16> S -0.8781100208 -1.8979259937 -0.8746954809
| 17> P -2.0040194851 -0.4055756365 0.0803452652
| 18> S -3.5349406366 -1.1029216233 1.0822544256
| 19> O -2.3642965415 0.7024792935 -1.0073927853
| 20> C -3.5631944675 0.6371866921 -1.7978047071
| 21> C -3.3958999187 -0.2788580517 -2.9939979517
| 22> O -0.9047561916 0.3377455879 0.9661499921
| 23> C -1.2962475756 1.1125764133 2.1189814669
| 24> C -1.9868029633 2.4000192399 1.7253884987
| 25> H 4.8116763476 2.0077361873 0.2987882354
| 26> H 5.8420440174 0.6479008151 -0.1619962676
| 27> H 5.832506356 2.1243895582 -1.1418506119
| 28> H 4.5041240135 0.3332878557 -2.2498765428
| 29> H 3.4512809425 1.6919450865 -1.7660750964
| 30> H 2.8136602675 -1.9841231631 1.9646828791
| 31> H 1.8631733224 -0.6308663294 2.6300261543
| 32> H 0.973009409 -2.8422237414 3.4005658542
| 33> H -0.2221641822 -2.0026732371 2.4025215647
| 34> H 0.7191062246 -3.3262600455 1.7130887683
| 35> H 1.1654062997 -1.5703793499 -2.0355438545
| 36> H -0.2147749373 -0.9117661977 -2.9773472476
| 37> H -4.3846123303 0.2969900148 -1.1577924118
| 38> H -3.7360505684 1.6694521862 -2.1054947904
| 39> H -2.5597762097 0.0522396236 -3.604202095
| 40> H -3.2199610094 -1.3013746097 -2.6629455955
| 41> H -4.3028718592 -0.2544243681 -3.5896137229
| 42> H -1.948411377 0.4939179556 2.7442930029
| 43> H -0.3561743775 1.30899957 2.6381328759
| 44> H -1.3601017493 2.9627911202 1.0374744682
| 45> H -2.9391983701 2.181424682 1.2450660945
| 46> H -2.1655701361 2.9936231735 2.6163519251
| 47> *
| 48>
| 49>                          ****END OF INPUT****

CARTESIAN COORDINATES (ANGSTROEM)
---------------------------------
  C      5.223099    1.455281   -0.543099
  C      4.106176    0.893423   -1.401459
  O      3.320467   -0.062747   -0.667229
  P      1.967369    0.353152    0.085279
  S      2.153872    1.791963    1.400719
  O      1.550075   -1.072055    0.627395
  C      1.830409   -1.508108    1.974438
  C      0.753483   -2.484861    2.399813
  S      0.631021    0.715550   -1.510570
  C      0.252936   -0.979344   -1.998250
  S     -0.878110   -1.897926   -0.874695
  P     -2.004019   -0.405576    0.080345
  S     -3.534941   -1.102922    1.082254
  O     -2.364297    0.702479   -1.007393
  C     -3.563194    0.637187   -1.797805
  C     -3.395900   -0.278858   -2.993998
  O     -0.904756    0.337746    0.966150
  C     -1.296248    1.112576    2.118981
  C     -1.986803    2.400019    1.725388
  H      4.811676    2.007736    0.298788
  H      5.842044    0.647901   -0.161996
  H      5.832506    2.124390   -1.141851
  H      4.504124    0.333288   -2.249877
  H      3.451281    1.691945   -1.766075
  H      2.813660   -1.984123    1.964683
  H      1.863173   -0.630866    2.630026
  H      0.973009   -2.842224    3.400566
  H     -0.222164   -2.002673    2.402522
  H      0.719106   -3.326260    1.713089
  H      1.165406   -1.570379   -2.035544
  H     -0.214775   -0.911766   -2.977347
  H     -4.384612    0.296990   -1.157792
  H     -3.736051    1.669452   -2.105495
  H     -2.559776    0.052240   -3.604202
  H     -3.219961   -1.301375   -2.662946
  H     -4.302872   -0.254424   -3.589614
  H     -1.948411    0.493918    2.744293
  H     -0.356174    1.309000    2.638133
  H     -1.360102    2.962791    1.037474
  H     -2.939198    2.181425    1.245066
  H     -2.165570    2.993623    2.616352

 Total Charge           Charge          ....    0
 Multiplicity           Mult            ....    1
 Number of Electrons    NEL             ....  202
 Basis Dimension        Dim             ....  334

ORBITAL ENERGIES
----------------

  NO   OCC          E(Eh)            E(eV)
   0   2.0000     -88.048301     -2395.9161
   1   2.0000     -88.042380     -2395.7549
   2   2.0000     -87.991481     -2394.3699
   3   2.0000     -87.985755     -2394.2141
   4   2.0000     -76.429489     -2079.7521
   5   2.0000     -76.426268     -2079.6645
   6   2.0000     -18.792742      -511.3765
   7   2.0000     -18.791361      -511.3389
   8   2.0000     -18.789195      -511.2800
   9   2.0000     -18.785364      -511.1757
  10   2.0000      -9.966385      -271.1991
  11   2.0000      -9.953881      -270.8589
  12   2.0000      -9.952665      -270.8258
  13   2.0000      -9.951271      -270.7879
  14   2.0000      -9.938852      -270.4499
  15   2.0000      -9.889013      -269.0937
  16   2.0000      -9.880754      -268.8690
  17   2.0000      -9.879449      -268.8335
  18   2.0000      -9.873808      -268.6800
  19   2.0000      -7.693437      -209.3491
  20   2.0000      -7.687350      -209.1834
  21   2.0000      -7.636492      -207.7995
  22   2.0000      -7.630892      -207.6471
  23   2.0000      -6.426778      -174.8815
  24   2.0000      -6.423520      -174.7929
  25   2.0000      -5.721789      -155.6978
  26   2.0000      -5.717871      -155.5912
  27   2.0000      -5.715954      -155.5390
  28   2.0000      -5.711556      -155.4193
  29   2.0000      -5.709854      -155.3730
  30   2.0000      -5.703866      -155.2101
  31   2.0000      -5.665347      -154.1619
  32   2.0000      -5.659755      -154.0098
  33   2.0000      -5.657449      -153.9470
  34   2.0000      -5.656344      -153.9169
  35   2.0000      -5.651459      -153.7840
  36   2.0000      -5.651157      -153.7758
  37   2.0000      -4.649294      -126.5137
  38   2.0000      -4.648747      -126.4988
  39   2.0000      -4.647191      -126.4565
  40   2.0000      -4.645805      -126.4188
  41   2.0000      -4.645522      -126.4111
  42   2.0000      -4.644071      -126.3716
  43   2.0000      -0.986728       -26.8502
  44   2.0000      -0.982596       -26.7378
  45   2.0000      -0.943930       -25.6856
  46   2.0000      -0.941426       -25.6175
  47   2.0000      -0.766606       -20.8604
  48   2.0000      -0.721692       -19.6382
  49   2.0000      -0.707357       -19.2482
  50   2.0000      -0.685620       -18.6567
  51   2.0000      -0.683777       -18.6065
  52   2.0000      -0.673843       -18.3362
  53   2.0000      -0.656280       -17.8583
  54   2.0000      -0.639054       -17.3895
  55   2.0000      -0.599114       -16.3027
  56   2.0000      -0.590329       -16.0637
  57   2.0000      -0.575608       -15.6631
  58   2.0000      -0.565840       -15.3973
  59   2.0000      -0.560872       -15.2621
  60   2.0000      -0.507734       -13.8162
  61   2.0000      -0.491963       -13.3870
  62   2.0000      -0.480098       -13.0641
  63   2.0000      -0.471047       -12.8178
  64   2.0000      -0.455548       -12.3961
  65   2.0000      -0.443463       -12.0672
  66   2.0000      -0.441510       -12.0141
  67   2.0000      -0.433640       -11.7999
  68   2.0000      -0.426280       -11.5997
  69   2.0000      -0.414563       -11.2808
  70   2.0000      -0.411466       -11.1965
  71   2.0000      -0.399710       -10.8766
  72   2.0000      -0.397820       -10.8252
  73   2.0000      -0.386338       -10.5128
  74   2.0000      -0.382886       -10.4189
  75   2.0000      -0.368734       -10.0338
  76   2.0000      -0.367760       -10.0073
  77   2.0000      -0.356860        -9.7107
  78   2.0000      -0.352815        -9.6006
  79   2.0000      -0.350127        -9.5274
  80   2.0000      -0.346458        -9.4276
  81   2.0000      -0.342018        -9.3068
  82   2.0000      -0.336032        -9.1439
  83   2.0000      -0.333756        -9.0820
  84   2.0000      -0.328487        -8.9386
  85   2.0000      -0.321153        -8.7390
  86   2.0000      -0.313989        -8.5441
  87   2.0000      -0.299090        -8.1387
  88   2.0000      -0.296010        -8.0548
  89   2.0000      -0.293552        -7.9880
  90   2.0000      -0.284461        -7.7406
  91   2.0000      -0.273049        -7.4300
  92   2.0000      -0.267300        -7.2736
  93   2.0000      -0.261826        -7.1246
  94   2.0000      -0.258972        -7.0470
  95   2.0000      -0.227830        -6.1996
  96   2.0000      -0.215420        -5.8619
  97   2.0000      -0.214350        -5.8328
  98   2.0000      -0.207101        -5.6355
  99   2.0000      -0.202955        -5.5227
 100   2.0000      -0.198555        -5.4030
 101   0.0000      -0.046065        -1.2535
 102   0.0000      -0.031713        -0.8630
 103   0.0000      -0.021382        -0.5818
 104   0.0000      -0.002148        -0.0585
 105   0.0000       0.015816         0.4304

MULLIKEN ATOMIC CHARGES
-----------------------
   0 C :   -0.288200
   1 C :   -0.009731
   2 O :   -0.376721
   3 P :    0.630214
   4 S :   -0.323913
   5 O :   -0.373761
   6 C :   -0.008950
   7 C :   -0.292957
   8 S :   -0.077441
   9 C :   -0.328093
  10 S :   -0.082046
  11 P :    0.630215
  12 S :   -0.325516
  13 O :   -0.372528
  14 C :   -0.010347
  15 C :   -0.319243
  16 O :   -0.381048
  17 C :   -0.019137
  18 C :   -0.295837
  19 H :    0.128646
  20 H :    0.110835
  21 H :    0.105923
  22 H :    0.102317
  23 H :    0.095661
  24 H :    0.101896
  25 H :    0.110068
  26 H :    0.107615
  27 H :    0.132518
  28 H :    0.116776
  29 H :    0.185032
  30 H :    0.188352
  31 H :    0.112011
  32 H :    0.107127
  33 H :    0.113872
  34 H :    0.129233
  35 H :    0.114857
  36 H :    0.109434
  37 H :    0.112425
  38 H :    0.118552
  39 H :    0.114127
  40 H :    0.107761
Sum of atomic charges:   -0.0000000

LOEWDIN ATOMIC CHARGES
----------------------
   0 C :   -0.363340
   1 C :   -0.119945
   2 O :   -0.258774
   3 P :    0.579114
   4 S :   -0.303083
   5 O :   -0.237970
   6 C :   -0.112073
   7 C :   -0.355378
   8 S :    0.110329
   9 C :   -0.468971
  10 S :    0.093083
  11 P :    0.564948
  12 S :   -0.321036
  13 O :   -0.243246
  14 C :   -0.122397
  15 C :   -0.366366
  16 O :   -0.244417
  17 C :   -0.128807
  18 C :   -0.362444
  19 H :    0.123956
  20 H :    0.124772
  21 H :    0.127764
  22 H :    0.116188
  23 H :    0.102974
  24 H :    0.113221
  25 H :    0.106909
  26 H :    0.128688
  27 H :    0.125656
  28 H :    0.125257
  29 H :    0.136228
  30 H :    0.134243
  31 H :    0.108963
  32 H :    0.119105
  33 H :    0.120585
  34 H :    0.122835
  35 H :    0.132402
  36 H :    0.105803
  37 H :    0.109976
  38 H :    0.127342
  39 H :    0.118595
  40 H :    0.129312

  Mayer bond orders larger than 0.100000
B(  0-C ,  1-C ) :   1.1661 B(  0-C , 19-H ) :   0.9320 B(  0-C , 20-H ) :   0.9475
B(  0-C , 21-H ) :   0.9400 B(  1-C ,  2-O ) :   0.9117 B(  1-C , 22-H ) :   0.9366
B(  1-C , 23-H ) :   0.9133 B(  2-O ,  3-P ) :   1.0803 B(  3-P ,  4-S ) :   1.6335
B(  3-P ,  5-O ) :   1.1247 B(  3-P ,  8-S ) :   0.9618 B(  5-O ,  6-C ) :   0.8947
B(  6-C ,  7-C ) :   1.1630 B(  6-C , 24-H ) :   0.9333 B(  6-C , 25-H ) :   0.9071
B(  7-C , 26-H ) :   0.9389 B(  7-C , 27-H ) :   0.9410 B(  7-C , 28-H ) :   0.9468
B(  8-S ,  9-C ) :   1.0210 B(  9-C , 10-S ) :   0.9519 B(  9-C , 29-H ) :   0.9027
B(  9-C , 30-H ) :   0.9028 B( 10-S , 11-P ) :   1.0082 B( 11-P , 12-S ) :   1.6208
B( 11-P , 13-O ) :   1.0709 B( 11-P , 16-O ) :   1.0860 B( 13-O , 14-C ) :   0.9136
B( 14-C , 15-C ) :   1.1648 B( 14-C , 31-H ) :   0.9070 B( 14-C , 32-H ) :   0.9331
B( 15-C , 33-H ) :   0.9427 B( 15-C , 34-H ) :   0.9365 B( 15-C , 35-H ) :   0.9384
B( 16-O , 17-C ) :   0.8952 B( 17-C , 18-C ) :   1.1732 B( 17-C , 36-H ) :   0.9132
B( 17-C , 37-H ) :   0.9103 B( 18-C , 38-H ) :   0.9439 B( 18-C , 39-H ) :   0.9386
B( 18-C , 40-H ) :   0.9390

Dispersion correction           -0.069432014
FINAL SINGLE POINT ENERGY     -2929.514699690028

DIPOLE MOMENT
-------------

Method             : SCF
Type of density    : Electron Density
Multiplicity       :   1
Irrep              :   0
Energy             : -2929.6324381655058460 Eh
Relativity type    :
Basis              : AO
                                X                 Y                 Z
Electronic contribution:     -3.670360558      -3.724592137      -0.259496937
Nuclear contribution   :      4.387588954       3.756686664      -0.866663884
                        -----------------------------------------
Total Dipole Moment    :      0.717228396       0.032094527      -1.126160821
                        -----------------------------------------
Magnitude (a.u.)       :      1.335546639
Magnitude (Debye)      :      3.394689776

Rotational constants in cm-1:             0.012413             0.005740             0.005355
Rotational constants in MHz :           372.131410           172.091385           160.539445

                             ****ORCA TERMINATED NORMALLY****
TOTAL RUN TIME: 0 days 0 hours 0 minutes 22 seconds 282 msec
