                         Program Version 6.0.0  -   RELEASE  -
|  1> ! pbe def2-sv(p) def2/J RI DEFGRID1 loosescf d4 GCP(DFT/SV(P)) printgap
|  2> %output
|  3>     printlevel normal
|  4> end
|  5> * xyz 0 1
|  6> C 4.82673381 -0.7965933906 -1.3036880621
|  7> C 4.450605527 -0.5283328734 0.1382132164
|  8> O 3.4752317519 0.521892857 0.2790250165
|  9> P 2.0365165296 0.5549862899 -0.4005356013
| 10> S 1.940259726 0.9499518213 -2.3131707812
| 11> O 1.335747826 1.6798539216 0.4496986339
| 12> C 1.3234183448 1.6901214127 1.8976920465
| 13> C 2.3216552631 2.6990783532 2.425954704
| 14> S 1.2419699509 -1.3266838679 0.2061689149
| 15> C 0.1459277565 -1.698506599 -1.1948604457
| 16> S -1.5516801349 -2.0333538687 -0.6794556708
| 17> P -2.0423962419 -0.084461077 0.0188966888
| 18> S -1.4468287909 1.3952003605 -1.1176867857
| 19> O -1.5190757681 0.0215145452 1.4999237152
| 20> C -1.9474932504 -0.9159813172 2.5317336717
| 21> C -0.7658386139 -1.2390127375 3.4215761093
| 22> O -3.6115288322 -0.1945290384 0.2351839218
| 23> C -4.5226708608 -0.2455324589 -0.8823651506
| 24> C -5.9121377782 0.0573546495 -0.3599960117
| 25> H 5.6254105569 -1.5305288975 -1.3361644158
| 26> H 3.9687392277 -1.1777542781 -1.8548002333
| 27> H 5.1582328571 0.1198378226 -1.7859384144
| 28> H 5.3048081892 -0.1591910702 0.7086295483
| 29> H 4.0515354617 -1.4309441384 0.6090191883
| 30> H 0.2981124626 1.9586555334 2.1622079863
| 31> H 1.5446401319 0.6826791582 2.2614892244
| 32> H 3.3289718333 2.4197597965 2.1284197871
| 33> H 2.0998339286 3.6844089071 2.0251065236
| 34> H 2.2589386303 2.7281135842 3.5091985678
| 35> H 0.4997468907 -2.608238386 -1.6733904007
| 36> H 0.1715432515 -0.8513833909 -1.8870522104
| 37> H -2.7490800368 -0.4239310741 3.0840775122
| 38> H -2.3378499988 -1.8155130359 2.0482170712
| 39> H -0.3790166457 -0.3326714491 3.8781803663
| 40> H -1.0921151375 -1.9209742951 4.200221103
| 41> H 0.0243318269 -1.7113798513 2.8430181796
| 42> H -4.2011575422 0.4897488325 -1.6273413455
| 43> H -4.4679075155 -1.2460335385 -1.3195221147
| 44> H -6.6192022244 0.0077525875 -1.1814062939
| 45> H -6.1888628773 -0.6684851019 0.3988404557
| 46> H -5.938195266 1.0520783705 0.0758804558
| 47> *
| 48>
| 49>                          ****END OF INPUT****

CARTESIAN COORDINATES (ANGSTROEM)
---------------------------------
  C      4.826734   -0.796593   -1.303688
  C      4.450606   -0.528333    0.138213
  O      3.475232    0.521893    0.279025
  P      2.036517    0.554986   -0.400536
  S      1.940260    0.949952   -2.313171
  O      1.335748    1.679854    0.449699
  C      1.323418    1.690121    1.897692
  C      2.321655    2.699078    2.425955
  S      1.241970   -1.326684    0.206169
  C      0.145928   -1.698507   -1.194860
  S     -1.551680   -2.033354   -0.679456
  P     -2.042396   -0.084461    0.018897
  S     -1.446829    1.395200   -1.117687
  O     -1.519076    0.021515    1.499924
  C     -1.947493   -0.915981    2.531734
  C     -0.765839   -1.239013    3.421576
  O     -3.611529   -0.194529    0.235184
  C     -4.522671   -0.245532   -0.882365
  C     -5.912138    0.057355   -0.359996
  H      5.625411   -1.530529   -1.336164
  H      3.968739   -1.177754   -1.854800
  H      5.158233    0.119838   -1.785938
  H      5.304808   -0.159191    0.708630
  H      4.051535   -1.430944    0.609019
  H      0.298112    1.958656    2.162208
  H      1.544640    0.682679    2.261489
  H      3.328972    2.419760    2.128420
  H      2.099834    3.684409    2.025107
  H      2.258939    2.728114    3.509199
  H      0.499747   -2.608238   -1.673390
  H      0.171543   -0.851383   -1.887052
  H     -2.749080   -0.423931    3.084078
  H     -2.337850   -1.815513    2.048217
  H     -0.379017   -0.332671    3.878180
  H     -1.092115   -1.920974    4.200221
  H      0.024332   -1.711380    2.843018
  H     -4.201158    0.489749   -1.627341
  H     -4.467908   -1.246034   -1.319522
  H     -6.619202    0.007753   -1.181406
  H     -6.188863   -0.668485    0.398840
  H     -5.938195    1.052078    0.075880

 Total Charge           Charge          ....    0
 Multiplicity           Mult            ....    1
 Number of Electrons    NEL             ....  202
 Basis Dimension        Dim             ....  334

ORBITAL ENERGIES
----------------

  NO   OCC          E(Eh)            E(eV)
   0   2.0000     -88.042893     -2395.7689
   1   2.0000     -88.041970     -2395.7438
   2   2.0000     -87.977586     -2393.9918
   3   2.0000     -87.975765     -2393.9423
   4   2.0000     -76.421663     -2079.5392
   5   2.0000     -76.420765     -2079.5147
   6   2.0000     -18.792889      -511.3805
   7   2.0000     -18.792551      -511.3713
   8   2.0000     -18.790857      -511.3252
   9   2.0000     -18.780378      -511.0401
  10   2.0000      -9.958290      -270.9788
  11   2.0000      -9.954926      -270.8873
  12   2.0000      -9.953503      -270.8486
  13   2.0000      -9.953355      -270.8445
  14   2.0000      -9.946659      -270.6624
  15   2.0000      -9.890715      -269.1400
  16   2.0000      -9.889341      -269.1026
  17   2.0000      -9.880272      -268.8559
  18   2.0000      -9.880145      -268.8524
  19   2.0000      -7.688092      -209.2036
  20   2.0000      -7.686493      -209.1601
  21   2.0000      -7.622530      -207.4196
  22   2.0000      -7.621058      -207.3795
  23   2.0000      -6.419382      -174.6803
  24   2.0000      -6.417835      -174.6382
  25   2.0000      -5.715858      -155.5364
  26   2.0000      -5.714261      -155.4930
  27   2.0000      -5.712406      -155.4425
  28   2.0000      -5.710850      -155.4001
  29   2.0000      -5.705387      -155.2515
  30   2.0000      -5.703781      -155.2078
  31   2.0000      -5.651596      -153.7877
  32   2.0000      -5.650241      -153.7509
  33   2.0000      -5.643027      -153.5546
  34   2.0000      -5.642684      -153.5452
  35   2.0000      -5.641636      -153.5167
  36   2.0000      -5.640927      -153.4974
  37   2.0000      -4.642240      -126.3218
  38   2.0000      -4.641247      -126.2948
  39   2.0000      -4.640573      -126.2764
  40   2.0000      -4.639855      -126.2569
  41   2.0000      -4.639394      -126.2443
  42   2.0000      -4.637983      -126.2059
  43   2.0000      -0.989058       -26.9136
  44   2.0000      -0.982863       -26.7451
  45   2.0000      -0.944923       -25.7127
  46   2.0000      -0.937323       -25.5059
  47   2.0000      -0.761282       -20.7155
  48   2.0000      -0.720160       -19.5966
  49   2.0000      -0.710196       -19.3254
  50   2.0000      -0.693633       -18.8747
  51   2.0000      -0.686494       -18.6805
  52   2.0000      -0.674537       -18.3551
  53   2.0000      -0.645438       -17.5633
  54   2.0000      -0.631816       -17.1926
  55   2.0000      -0.587563       -15.9884
  56   2.0000      -0.581852       -15.8330
  57   2.0000      -0.573299       -15.6002
  58   2.0000      -0.567881       -15.4528
  59   2.0000      -0.567226       -15.4350
  60   2.0000      -0.512835       -13.9549
  61   2.0000      -0.497782       -13.5453
  62   2.0000      -0.483054       -13.1446
  63   2.0000      -0.469164       -12.7666
  64   2.0000      -0.450977       -12.2717
  65   2.0000      -0.449358       -12.2277
  66   2.0000      -0.438131       -11.9221
  67   2.0000      -0.436553       -11.8792
  68   2.0000      -0.430326       -11.7098
  69   2.0000      -0.417562       -11.3625
  70   2.0000      -0.406118       -11.0510
  71   2.0000      -0.403863       -10.9897
  72   2.0000      -0.392950       -10.6927
  73   2.0000      -0.381480       -10.3806
  74   2.0000      -0.377504       -10.2724
  75   2.0000      -0.366602        -9.9757
  76   2.0000      -0.359556        -9.7840
  77   2.0000      -0.354698        -9.6518
  78   2.0000      -0.353440        -9.6176
  79   2.0000      -0.350550        -9.5389
  80   2.0000      -0.349012        -9.4971
  81   2.0000      -0.343333        -9.3426
  82   2.0000      -0.340397        -9.2627
  83   2.0000      -0.335242        -9.1224
  84   2.0000      -0.333756        -9.0820
  85   2.0000      -0.316277        -8.6063
  86   2.0000      -0.313577        -8.5329
  87   2.0000      -0.303164        -8.2495
  88   2.0000      -0.299895        -8.1606
  89   2.0000      -0.292940        -7.9713
  90   2.0000      -0.282529        -7.6880
  91   2.0000      -0.275383        -7.4935
  92   2.0000      -0.269756        -7.3404
  93   2.0000      -0.259416        -7.0591
  94   2.0000      -0.256270        -6.9735
  95   2.0000      -0.236050        -6.4233
  96   2.0000      -0.221126        -6.0171
  97   2.0000      -0.207863        -5.6562
  98   2.0000      -0.197385        -5.3711
  99   2.0000      -0.187823        -5.1109
 100   2.0000      -0.179231        -4.8771
 101   0.0000      -0.039577        -1.0769
 102   0.0000      -0.030846        -0.8394
 103   0.0000      -0.006541        -0.1780
 104   0.0000       0.010426         0.2837
 105   0.0000       0.020306         0.5525

MULLIKEN ATOMIC CHARGES
-----------------------
   0 C :   -0.305210
   1 C :   -0.006451
   2 O :   -0.382661
   3 P :    0.600993
   4 S :   -0.286448
   5 O :   -0.336569
   6 C :   -0.022757
   7 C :   -0.281453
   8 S :   -0.134700
   9 C :   -0.344349
  10 S :   -0.116333
  11 P :    0.575638
  12 S :   -0.269927
  13 O :   -0.355578
  14 C :   -0.009823
  15 C :   -0.293450
  16 O :   -0.386461
  17 C :   -0.010272
  18 C :   -0.280755
  19 H :    0.107824
  20 H :    0.121359
  21 H :    0.125733
  22 H :    0.105075
  23 H :    0.107232
  24 H :    0.118365
  25 H :    0.096730
  26 H :    0.116115
  27 H :    0.122116
  28 H :    0.103233
  29 H :    0.179657
  30 H :    0.210693
  31 H :    0.110803
  32 H :    0.102970
  33 H :    0.118248
  34 H :    0.109907
  35 H :    0.131127
  36 H :    0.107357
  37 H :    0.103683
  38 H :    0.113521
  39 H :    0.112921
  40 H :    0.121900
Sum of atomic charges:   -0.0000000

LOEWDIN ATOMIC CHARGES
----------------------
   0 C :   -0.368755
   1 C :   -0.117460
   2 O :   -0.247308
   3 P :    0.567679
   4 S :   -0.289376
   5 O :   -0.222616
   6 C :   -0.115640
   7 C :   -0.357584
   8 S :    0.058756
   9 C :   -0.479538
  10 S :    0.057374
  11 P :    0.553000
  12 S :   -0.280928
  13 O :   -0.236060
  14 C :   -0.112426
  15 C :   -0.356381
  16 O :   -0.254068
  17 C :   -0.119729
  18 C :   -0.350510
  19 H :    0.128271
  20 H :    0.120034
  21 H :    0.130353
  22 H :    0.118852
  23 H :    0.104536
  24 H :    0.120070
  25 H :    0.100222
  26 H :    0.124887
  27 H :    0.130014
  28 H :    0.126221
  29 H :    0.135474
  30 H :    0.126545
  31 H :    0.118164
  32 H :    0.104598
  33 H :    0.125361
  34 H :    0.130068
  35 H :    0.122003
  36 H :    0.110719
  37 H :    0.108702
  38 H :    0.131618
  39 H :    0.125192
  40 H :    0.129665

  Mayer bond orders larger than 0.100000
B(  0-C ,  1-C ) :   1.1670 B(  0-C , 19-H ) :   0.9351 B(  0-C , 20-H ) :   0.9330
B(  0-C , 21-H ) :   0.9441 B(  1-C ,  2-O ) :   0.9163 B(  1-C , 22-H ) :   0.9332
B(  1-C , 23-H ) :   0.9232 B(  2-O ,  3-P ) :   1.0684 B(  3-P ,  4-S ) :   1.6481
B(  3-P ,  5-O ) :   1.1453 B(  3-P ,  8-S ) :   0.9357 B(  4-S ,  8-S ) :   0.1148
B(  5-O ,  6-C ) :   0.8957 B(  6-C ,  7-C ) :   1.1587 B(  6-C , 24-H ) :   0.9266
B(  6-C , 25-H ) :   0.9131 B(  7-C , 26-H ) :   0.9432 B(  7-C , 27-H ) :   0.9469
B(  7-C , 28-H ) :   0.9411 B(  8-S ,  9-C ) :   0.9940 B(  9-C , 10-S ) :   1.0033
B(  9-C , 29-H ) :   0.9113 B(  9-C , 30-H ) :   0.8418 B( 10-S , 11-P ) :   0.9351
B( 10-S , 12-S ) :   0.1090 B( 11-P , 12-S ) :   1.6974 B( 11-P , 13-O ) :   1.1235
B( 11-P , 16-O ) :   1.0768 B( 13-O , 14-C ) :   0.8835 B( 14-C , 15-C ) :   1.1669
B( 14-C , 31-H ) :   0.9342 B( 14-C , 32-H ) :   0.9109 B( 15-C , 33-H ) :   0.9450
B( 15-C , 34-H ) :   0.9386 B( 15-C , 35-H ) :   0.9369 B( 16-O , 17-C ) :   0.9042
B( 17-C , 18-C ) :   1.1600 B( 17-C , 36-H ) :   0.9093 B( 17-C , 37-H ) :   0.9293
B( 18-C , 38-H ) :   0.9418 B( 18-C , 39-H ) :   0.9512 B( 18-C , 40-H ) :   0.9508

Dispersion correction           -0.066400649
FINAL SINGLE POINT ENERGY     -2929.515876349630

DIPOLE MOMENT
-------------

Method             : SCF
Type of density    : Electron Density
Multiplicity       :   1
Irrep              :   0
Energy             : -2929.6349747535277857 Eh
Relativity type    :
Basis              : AO
                                X                 Y                 Z
Electronic contribution:     -0.613880543       1.578588888     -14.999521126
Nuclear contribution   :      0.334311303      -2.925948765      16.689810195
                        -----------------------------------------
Total Dipole Moment    :     -0.279569240      -1.347359877       1.690289069
                        -----------------------------------------
Magnitude (a.u.)       :      2.179590497
Magnitude (Debye)      :      5.540078766

Rotational constants in cm-1:             0.012704             0.005154             0.004861
Rotational constants in MHz :           380.867460           154.527923           145.738297

                             ****ORCA TERMINATED NORMALLY****
TOTAL RUN TIME: 0 days 0 hours 0 minutes 21 seconds 467 msec
