                         Program Version 6.0.0  -   RELEASE  -
|  1> ! pbe def2-sv(p) def2/J RI DEFGRID1 loosescf d4 GCP(DFT/SV(P)) printgap
|  2> %output
|  3>     printlevel normal
|  4> end
|  5> * xyz 0 1
|  6> C 4.9829617051 1.2433782597 -1.0225656695
|  7> C 4.5206132157 -0.1921134705 -1.1560978613
|  8> O 3.6852038892 -0.615490275 -0.0619580318
|  9> P 2.374751354 0.132086891 0.4361630447
| 10> S 2.5760965614 1.7411463371 1.5258044979
| 11> O 1.6604396091 -0.9893055798 1.2836207036
| 12> C 1.4384777587 -2.3416989647 0.8190438609
| 13> C 2.5014597598 -3.2724701883 1.3630930568
| 14> S 1.2623734222 0.3650072298 -1.3714155238
| 15> C 0.1088042841 1.6070636196 -0.7345441605
| 16> S -0.9183591356 1.0336657562 0.6433967784
| 17> P -2.2647072881 -0.181441983 -0.5029223479
| 18> S -1.5003204669 -1.824032136 -1.2432060515
| 19> O -2.8764885954 0.7439909786 -1.6202037464
| 20> C -3.9863573488 1.6645915843 -1.4514261214
| 21> C -3.6565292902 2.8212257721 -0.5319434312
| 22> O -3.4733786902 -0.3993378605 0.5011437771
| 23> C -3.3754277598 -1.3401845515 1.5894111646
| 24> C -4.7777493549 -1.6177505737 2.0912837689
| 25> H 5.6783510393 1.473317785 -1.8233628111
| 26> H 4.1319015 1.9199547786 -1.0848049757
| 27> H 5.4720893942 1.3965171339 -0.063524922
| 28> H 5.3618366186 -0.8866615028 -1.1195557909
| 29> H 3.9622601933 -0.3350380249 -2.0856692805
| 30> H 0.4466987766 -2.605150972 1.1929551158
| 31> H 1.4160028111 -2.3515226453 -0.2746768571
| 32> H 3.4800425497 -2.9865512269 0.9868042678
| 33> H 2.5151750402 -3.2240163658 2.4484310425
| 34> H 2.276207311 -4.286773579 1.0491787923
| 35> H -0.5204170047 1.8985913015 -1.5726031296
| 36> H 0.6775917161 2.4508492556 -0.3433958669
| 37> H -4.1802799757 2.0027101624 -2.4706105818
| 38> H -4.8410509726 1.1003700191 -1.0763193026
| 39> H -4.5003081799 3.5041953531 -0.5135182983
| 40> H -3.4703188569 2.4641621726 0.4783935107
| 41> H -2.7774410921 3.3560230567 -0.8829833043
| 42> H -2.8932439764 -2.2509706053 1.2184670609
| 43> H -2.7506193197 -0.8954365887 2.3690228667
| 44> H -5.243257239 -0.6954460035 2.4260914739
| 45> H -5.3792880728 -2.0506805905 1.2970718194
| 46> H -4.7259410472 -2.3149297044 2.9210013241
| 47> *
| 48>
| 49>                          ****END OF INPUT****

CARTESIAN COORDINATES (ANGSTROEM)
---------------------------------
  C      4.982962    1.243378   -1.022566
  C      4.520613   -0.192113   -1.156098
  O      3.685204   -0.615490   -0.061958
  P      2.374751    0.132087    0.436163
  S      2.576097    1.741146    1.525804
  O      1.660440   -0.989306    1.283621
  C      1.438478   -2.341699    0.819044
  C      2.501460   -3.272470    1.363093
  S      1.262373    0.365007   -1.371416
  C      0.108804    1.607064   -0.734544
  S     -0.918359    1.033666    0.643397
  P     -2.264707   -0.181442   -0.502922
  S     -1.500320   -1.824032   -1.243206
  O     -2.876489    0.743991   -1.620204
  C     -3.986357    1.664592   -1.451426
  C     -3.656529    2.821226   -0.531943
  O     -3.473379   -0.399338    0.501144
  C     -3.375428   -1.340185    1.589411
  C     -4.777749   -1.617751    2.091284
  H      5.678351    1.473318   -1.823363
  H      4.131901    1.919955   -1.084805
  H      5.472089    1.396517   -0.063525
  H      5.361837   -0.886662   -1.119556
  H      3.962260   -0.335038   -2.085669
  H      0.446699   -2.605151    1.192955
  H      1.416003   -2.351523   -0.274677
  H      3.480043   -2.986551    0.986804
  H      2.515175   -3.224016    2.448431
  H      2.276207   -4.286774    1.049179
  H     -0.520417    1.898591   -1.572603
  H      0.677592    2.450849   -0.343396
  H     -4.180280    2.002710   -2.470611
  H     -4.841051    1.100370   -1.076319
  H     -4.500308    3.504195   -0.513518
  H     -3.470319    2.464162    0.478394
  H     -2.777441    3.356023   -0.882983
  H     -2.893244   -2.250971    1.218467
  H     -2.750619   -0.895437    2.369023
  H     -5.243257   -0.695446    2.426091
  H     -5.379288   -2.050681    1.297072
  H     -4.725941   -2.314930    2.921001

 Total Charge           Charge          ....    0
 Multiplicity           Mult            ....    1
 Number of Electrons    NEL             ....  202
 Basis Dimension        Dim             ....  334

ORBITAL ENERGIES
----------------

  NO   OCC          E(Eh)            E(eV)
   0   2.0000     -88.038197     -2395.6411
   1   2.0000     -88.036680     -2395.5999
   2   2.0000     -87.981086     -2394.0871
   3   2.0000     -87.977500     -2393.9895
   4   2.0000     -76.427159     -2079.6887
   5   2.0000     -76.421043     -2079.5223
   6   2.0000     -18.799572      -511.5624
   7   2.0000     -18.797883      -511.5164
   8   2.0000     -18.791976      -511.3557
   9   2.0000     -18.780777      -511.0509
  10   2.0000      -9.962833      -271.1025
  11   2.0000      -9.959089      -271.0006
  12   2.0000      -9.956500      -270.9301
  13   2.0000      -9.955338      -270.8985
  14   2.0000      -9.941293      -270.5163
  15   2.0000      -9.893548      -269.2171
  16   2.0000      -9.892200      -269.1804
  17   2.0000      -9.880952      -268.8744
  18   2.0000      -9.876914      -268.7645
  19   2.0000      -7.682825      -209.0603
  20   2.0000      -7.681625      -209.0277
  21   2.0000      -7.626261      -207.5211
  22   2.0000      -7.622931      -207.4305
  23   2.0000      -6.424641      -174.8234
  24   2.0000      -6.418073      -174.6447
  25   2.0000      -5.710561      -155.3923
  26   2.0000      -5.709306      -155.3581
  27   2.0000      -5.707665      -155.3135
  28   2.0000      -5.706175      -155.2729
  29   2.0000      -5.699685      -155.0963
  30   2.0000      -5.698768      -155.0713
  31   2.0000      -5.655210      -153.8861
  32   2.0000      -5.651994      -153.7986
  33   2.0000      -5.647197      -153.6680
  34   2.0000      -5.646034      -153.6364
  35   2.0000      -5.643457      -153.5663
  36   2.0000      -5.642975      -153.5531
  37   2.0000      -4.648018      -126.4790
  38   2.0000      -4.646299      -126.4322
  39   2.0000      -4.644420      -126.3811
  40   2.0000      -4.640982      -126.2875
  41   2.0000      -4.640041      -126.2619
  42   2.0000      -4.638127      -126.2098
  43   2.0000      -0.994328       -27.0570
  44   2.0000      -0.982978       -26.7482
  45   2.0000      -0.951433       -25.8898
  46   2.0000      -0.938314       -25.5328
  47   2.0000      -0.760468       -20.6934
  48   2.0000      -0.722749       -19.6670
  49   2.0000      -0.708739       -19.2858
  50   2.0000      -0.698996       -19.0207
  51   2.0000      -0.685994       -18.6669
  52   2.0000      -0.671588       -18.2748
  53   2.0000      -0.647207       -17.6114
  54   2.0000      -0.635091       -17.2817
  55   2.0000      -0.594082       -16.1658
  56   2.0000      -0.586236       -15.9523
  57   2.0000      -0.579611       -15.7720
  58   2.0000      -0.566801       -15.4234
  59   2.0000      -0.564945       -15.3729
  60   2.0000      -0.512151       -13.9363
  61   2.0000      -0.495112       -13.4727
  62   2.0000      -0.481905       -13.1133
  63   2.0000      -0.467600       -12.7241
  64   2.0000      -0.461524       -12.5587
  65   2.0000      -0.449385       -12.2284
  66   2.0000      -0.444503       -12.0955
  67   2.0000      -0.435726       -11.8567
  68   2.0000      -0.428089       -11.6489
  69   2.0000      -0.413710       -11.2576
  70   2.0000      -0.406275       -11.0553
  71   2.0000      -0.404121       -10.9967
  72   2.0000      -0.393510       -10.7079
  73   2.0000      -0.381248       -10.3743
  74   2.0000      -0.377598       -10.2750
  75   2.0000      -0.373157       -10.1541
  76   2.0000      -0.364991        -9.9319
  77   2.0000      -0.358480        -9.7547
  78   2.0000      -0.354140        -9.6366
  79   2.0000      -0.349914        -9.5216
  80   2.0000      -0.347856        -9.4657
  81   2.0000      -0.345872        -9.4117
  82   2.0000      -0.343774        -9.3546
  83   2.0000      -0.334806        -9.1105
  84   2.0000      -0.331716        -9.0264
  85   2.0000      -0.326339        -8.8801
  86   2.0000      -0.314413        -8.5556
  87   2.0000      -0.307599        -8.3702
  88   2.0000      -0.300429        -8.1751
  89   2.0000      -0.293442        -7.9850
  90   2.0000      -0.279853        -7.6152
  91   2.0000      -0.277838        -7.5603
  92   2.0000      -0.271733        -7.3942
  93   2.0000      -0.262583        -7.1452
  94   2.0000      -0.254019        -6.9122
  95   2.0000      -0.236208        -6.4276
  96   2.0000      -0.215246        -5.8571
  97   2.0000      -0.204748        -5.5715
  98   2.0000      -0.195129        -5.3097
  99   2.0000      -0.194008        -5.2792
 100   2.0000      -0.184426        -5.0185
 101   0.0000      -0.042904        -1.1675
 102   0.0000      -0.024213        -0.6589
 103   0.0000      -0.006475        -0.1762
 104   0.0000      -0.000520        -0.0141
 105   0.0000       0.016948         0.4612

MULLIKEN ATOMIC CHARGES
-----------------------
   0 C :   -0.307476
   1 C :   -0.010369
   2 O :   -0.380400
   3 P :    0.600178
   4 S :   -0.320403
   5 O :   -0.347241
   6 C :   -0.012574
   7 C :   -0.284440
   8 S :   -0.090564
   9 C :   -0.358818
  10 S :   -0.084326
  11 P :    0.603983
  12 S :   -0.309840
  13 O :   -0.371002
  14 C :    0.004585
  15 C :   -0.318930
  16 O :   -0.389436
  17 C :   -0.018855
  18 C :   -0.280683
  19 H :    0.110069
  20 H :    0.123278
  21 H :    0.126939
  22 H :    0.107986
  23 H :    0.114042
  24 H :    0.104116
  25 H :    0.110240
  26 H :    0.116396
  27 H :    0.114338
  28 H :    0.107393
  29 H :    0.180992
  30 H :    0.194966
  31 H :    0.112088
  32 H :    0.113142
  33 H :    0.114680
  34 H :    0.131110
  35 H :    0.120314
  36 H :    0.110778
  37 H :    0.111549
  38 H :    0.115951
  39 H :    0.121165
  40 H :    0.115081
Sum of atomic charges:   -0.0000000

LOEWDIN ATOMIC CHARGES
----------------------
   0 C :   -0.369362
   1 C :   -0.115084
   2 O :   -0.244829
   3 P :    0.567783
   4 S :   -0.315415
   5 O :   -0.230125
   6 C :   -0.117025
   7 C :   -0.359755
   8 S :    0.071362
   9 C :   -0.481791
  10 S :    0.078546
  11 P :    0.564253
  12 S :   -0.309311
  13 O :   -0.240898
  14 C :   -0.106673
  15 C :   -0.367987
  16 O :   -0.250620
  17 C :   -0.119849
  18 C :   -0.350441
  19 H :    0.129458
  20 H :    0.120329
  21 H :    0.130428
  22 H :    0.120395
  23 H :    0.108729
  24 H :    0.114421
  25 H :    0.105272
  26 H :    0.123887
  27 H :    0.126169
  28 H :    0.128135
  29 H :    0.128399
  30 H :    0.131073
  31 H :    0.122771
  32 H :    0.116763
  33 H :    0.132234
  34 H :    0.121833
  35 H :    0.125922
  36 H :    0.109491
  37 H :    0.113212
  38 H :    0.126276
  39 H :    0.129273
  40 H :    0.132750

  Mayer bond orders larger than 0.100000
B(  0-C ,  1-C ) :   1.1671 B(  0-C , 19-H ) :   0.9348 B(  0-C , 20-H ) :   0.9321
B(  0-C , 21-H ) :   0.9428 B(  1-C ,  2-O ) :   0.9128 B(  1-C , 22-H ) :   0.9332
B(  1-C , 23-H ) :   0.9261 B(  2-O ,  3-P ) :   1.0797 B(  3-P ,  4-S ) :   1.6319
B(  3-P ,  5-O ) :   1.1446 B(  3-P ,  8-S ) :   0.9490 B(  4-S ,  8-S ) :   0.1107
B(  5-O ,  6-C ) :   0.8899 B(  6-C ,  7-C ) :   1.1563 B(  6-C , 24-H ) :   0.9315
B(  6-C , 25-H ) :   0.9153 B(  7-C , 26-H ) :   0.9429 B(  7-C , 27-H ) :   0.9467
B(  7-C , 28-H ) :   0.9415 B(  8-S ,  9-C ) :   1.0075 B(  9-C , 10-S ) :   1.0054
B(  9-C , 29-H ) :   0.8938 B(  9-C , 30-H ) :   0.8806 B( 10-S , 11-P ) :   0.9478
B( 10-S , 12-S ) :   0.1135 B( 11-P , 12-S ) :   1.6834 B( 11-P , 13-O ) :   1.1166
B( 11-P , 16-O ) :   1.0683 B( 13-O , 14-C ) :   0.8904 B( 14-C , 15-C ) :   1.1699
B( 14-C , 31-H ) :   0.9355 B( 14-C , 32-H ) :   0.9272 B( 15-C , 33-H ) :   0.9352
B( 15-C , 34-H ) :   0.9358 B( 15-C , 35-H ) :   0.9456 B( 16-O , 17-C ) :   0.9013
B( 17-C , 18-C ) :   1.1602 B( 17-C , 36-H ) :   0.9078 B( 17-C , 37-H ) :   0.9296
B( 18-C , 38-H ) :   0.9511 B( 18-C , 39-H ) :   0.9507 B( 18-C , 40-H ) :   0.9412

Dispersion correction           -0.064702009
FINAL SINGLE POINT ENERGY     -2929.513470522926

DIPOLE MOMENT
-------------

Method             : SCF
Type of density    : Electron Density
Multiplicity       :   1
Irrep              :   0
Energy             : -2929.6329844944757497 Eh
Relativity type    :
Basis              : AO
                                X                 Y                 Z
Electronic contribution:      4.727329853       3.107757503      -3.314358858
Nuclear contribution   :     -5.655744358      -3.124086768       2.960247354
                        -----------------------------------------
Total Dipole Moment    :     -0.928414505      -0.016329265      -0.354111504
                        -----------------------------------------
Magnitude (a.u.)       :      0.993788254
Magnitude (Debye)      :      2.526008997

Rotational constants in cm-1:             0.012601             0.004847             0.004324
Rotational constants in MHz :           377.769606           145.299102           129.644826

                             ****ORCA TERMINATED NORMALLY****
TOTAL RUN TIME: 0 days 0 hours 0 minutes 20 seconds 739 msec
