                         Program Version 6.0.0  -   RELEASE  -
|  1> ! pbe def2-sv(p) def2/J RI DEFGRID1 loosescf d4 GCP(DFT/SV(P)) printgap
|  2> %output
|  3>     printlevel normal
|  4> end
|  5> * xyz 0 1
|  6> C 5.8072586311 -0.1925872172 -0.8543379113
|  7> C 4.3547097802 -0.5853314392 -1.0330434893
|  8> O 3.5502523732 0.3292805601 -0.2631118205
|  9> P 1.9873966675 0.4632124768 -0.5288919481
| 10> S 1.5396348151 0.7575602137 -2.4135229086
| 11> O 1.6053977888 1.6501619785 0.4335532271
| 12> C 2.2965585646 1.977414547 1.6678921309
| 13> C 2.3326078613 0.8251762693 2.6496462981
| 14> S 1.2083964966 -1.3433270012 0.3112269086
| 15> C 0.0526020626 -1.858901716 -0.9909856072
| 16> S -1.6173113862 -2.1917100169 -0.3712668495
| 17> P -2.1402885181 -0.2731695807 0.3109246022
| 18> S -1.4668593997 1.3075909592 -0.6525548564
| 19> O -1.6764519914 -0.394441424 1.8207569224
| 20> C -1.5536390079 0.7553147078 2.6820721695
| 21> C -2.8978495692 1.3696458194 3.0119943889
| 22> O -3.7227055774 -0.342832341 0.4433424152
| 23> C -4.6069692784 0.0301348609 -0.6263396981
| 24> C -4.5143430325 -0.9194442134 -1.8033041478
| 25> H 5.9675883097 0.8187154428 -1.2174529697
| 26> H 6.0802343438 -0.2386120954 0.1958103793
| 27> H 6.4314638215 -0.8775748497 -1.4184440959
| 28> H 4.1650869933 -1.5970715384 -0.6641755948
| 29> H 4.0469389152 -0.5216531812 -2.0821029465
| 30> H 3.3060359981 2.3031225457 1.4112167382
| 31> H 1.7210526017 2.8208787114 2.0535242901
| 32> H 2.928132069 0.0061689356 2.251213217
| 33> H 2.7781948093 1.1686514435 3.5780218264
| 34> H 1.329505714 0.4573069855 2.848087665
| 35> H 0.3995021209 -2.7990080681 -1.4123971753
| 36> H 0.0259768785 -1.0735790833 -1.7528092171
| 37> H -1.064390674 0.3598309901 3.5737899234
| 38> H -0.9078733211 1.4889680255 2.1869342928
| 39> H -2.764065096 2.143706338 3.7613724798
| 40> H -3.333907844 1.8132596832 2.1180940521
| 41> H -3.5733748719 0.6080170628 3.3920885906
| 42> H -5.596264249 0.008191517 -0.1673339418
| 43> H -4.3612447729 1.0508060246 -0.9375572548
| 44> H -3.5402631135 -0.8242478895 -2.2822187343
| 45> H -4.6423101615 -1.9466391984 -1.4712925106
| 46> H -5.2854648462 -0.672991141 -2.5261890448
| 47> *
| 48>
| 49>                          ****END OF INPUT****

CARTESIAN COORDINATES (ANGSTROEM)
---------------------------------
  C      5.807259   -0.192587   -0.854338
  C      4.354710   -0.585331   -1.033043
  O      3.550252    0.329281   -0.263112
  P      1.987397    0.463212   -0.528892
  S      1.539635    0.757560   -2.413523
  O      1.605398    1.650162    0.433553
  C      2.296559    1.977415    1.667892
  C      2.332608    0.825176    2.649646
  S      1.208396   -1.343327    0.311227
  C      0.052602   -1.858902   -0.990986
  S     -1.617311   -2.191710   -0.371267
  P     -2.140289   -0.273170    0.310925
  S     -1.466859    1.307591   -0.652555
  O     -1.676452   -0.394441    1.820757
  C     -1.553639    0.755315    2.682072
  C     -2.897850    1.369646    3.011994
  O     -3.722706   -0.342832    0.443342
  C     -4.606969    0.030135   -0.626340
  C     -4.514343   -0.919444   -1.803304
  H      5.967588    0.818715   -1.217453
  H      6.080234   -0.238612    0.195810
  H      6.431464   -0.877575   -1.418444
  H      4.165087   -1.597072   -0.664176
  H      4.046939   -0.521653   -2.082103
  H      3.306036    2.303123    1.411217
  H      1.721053    2.820879    2.053524
  H      2.928132    0.006169    2.251213
  H      2.778195    1.168651    3.578022
  H      1.329506    0.457307    2.848088
  H      0.399502   -2.799008   -1.412397
  H      0.025977   -1.073579   -1.752809
  H     -1.064391    0.359831    3.573790
  H     -0.907873    1.488968    2.186934
  H     -2.764065    2.143706    3.761372
  H     -3.333908    1.813260    2.118094
  H     -3.573375    0.608017    3.392089
  H     -5.596264    0.008192   -0.167334
  H     -4.361245    1.050806   -0.937557
  H     -3.540263   -0.824248   -2.282219
  H     -4.642310   -1.946639   -1.471293
  H     -5.285465   -0.672991   -2.526189

 Total Charge           Charge          ....    0
 Multiplicity           Mult            ....    1
 Number of Electrons    NEL             ....  202
 Basis Dimension        Dim             ....  334

ORBITAL ENERGIES
----------------

  NO   OCC          E(Eh)            E(eV)
   0   2.0000     -88.039881     -2395.6870
   1   2.0000     -88.037953     -2395.6345
   2   2.0000     -87.980263     -2394.0647
   3   2.0000     -87.979038     -2394.0313
   4   2.0000     -76.423139     -2079.5793
   5   2.0000     -76.420544     -2079.5087
   6   2.0000     -18.792161      -511.3607
   7   2.0000     -18.789497      -511.2882
   8   2.0000     -18.788590      -511.2635
   9   2.0000     -18.783742      -511.1316
  10   2.0000      -9.958052      -270.9724
  11   2.0000      -9.950981      -270.7800
  12   2.0000      -9.949837      -270.7488
  13   2.0000      -9.949783      -270.7474
  14   2.0000      -9.949337      -270.7352
  15   2.0000      -9.891164      -269.1523
  16   2.0000      -9.888803      -269.0880
  17   2.0000      -9.882468      -268.9156
  18   2.0000      -9.880764      -268.8693
  19   2.0000      -7.685429      -209.1311
  20   2.0000      -7.682402      -209.0488
  21   2.0000      -7.624757      -207.4802
  22   2.0000      -7.624192      -207.4648
  23   2.0000      -6.420354      -174.7067
  24   2.0000      -6.418088      -174.6450
  25   2.0000      -5.713391      -155.4693
  26   2.0000      -5.710234      -155.3834
  27   2.0000      -5.709846      -155.3728
  28   2.0000      -5.706928      -155.2934
  29   2.0000      -5.702314      -155.1678
  30   2.0000      -5.699522      -155.0919
  31   2.0000      -5.653555      -153.8411
  32   2.0000      -5.653256      -153.8329
  33   2.0000      -5.645431      -153.6200
  34   2.0000      -5.645080      -153.6104
  35   2.0000      -5.644642      -153.5985
  36   2.0000      -5.644320      -153.5898
  37   2.0000      -4.643379      -126.3528
  38   2.0000      -4.641882      -126.3120
  39   2.0000      -4.640646      -126.2784
  40   2.0000      -4.640511      -126.2747
  41   2.0000      -4.639845      -126.2566
  42   2.0000      -4.638669      -126.2246
  43   2.0000      -0.987436       -26.8695
  44   2.0000      -0.982264       -26.7288
  45   2.0000      -0.942170       -25.6378
  46   2.0000      -0.941424       -25.6175
  47   2.0000      -0.758339       -20.6354
  48   2.0000      -0.719134       -19.5686
  49   2.0000      -0.707715       -19.2579
  50   2.0000      -0.693919       -18.8825
  51   2.0000      -0.684803       -18.6344
  52   2.0000      -0.673051       -18.3147
  53   2.0000      -0.647917       -17.6307
  54   2.0000      -0.629203       -17.1215
  55   2.0000      -0.598638       -16.2898
  56   2.0000      -0.592049       -16.1105
  57   2.0000      -0.572789       -15.5864
  58   2.0000      -0.570026       -15.5112
  59   2.0000      -0.558082       -15.1862
  60   2.0000      -0.504779       -13.7357
  61   2.0000      -0.488818       -13.3014
  62   2.0000      -0.474113       -12.9013
  63   2.0000      -0.468834       -12.7576
  64   2.0000      -0.447881       -12.1875
  65   2.0000      -0.446239       -12.1428
  66   2.0000      -0.445298       -12.1172
  67   2.0000      -0.435895       -11.8613
  68   2.0000      -0.428792       -11.6680
  69   2.0000      -0.418665       -11.3924
  70   2.0000      -0.407021       -11.0756
  71   2.0000      -0.401580       -10.9276
  72   2.0000      -0.390408       -10.6236
  73   2.0000      -0.383654       -10.4398
  74   2.0000      -0.378368       -10.2959
  75   2.0000      -0.372423       -10.1341
  76   2.0000      -0.367826       -10.0091
  77   2.0000      -0.356876        -9.7111
  78   2.0000      -0.352632        -9.5956
  79   2.0000      -0.351094        -9.5537
  80   2.0000      -0.346856        -9.4384
  81   2.0000      -0.343418        -9.3449
  82   2.0000      -0.341325        -9.2879
  83   2.0000      -0.336417        -9.1544
  84   2.0000      -0.333453        -9.0737
  85   2.0000      -0.313308        -8.5256
  86   2.0000      -0.311188        -8.4678
  87   2.0000      -0.300534        -8.1779
  88   2.0000      -0.293546        -7.9878
  89   2.0000      -0.292127        -7.9492
  90   2.0000      -0.278737        -7.5848
  91   2.0000      -0.273783        -7.4500
  92   2.0000      -0.269926        -7.3451
  93   2.0000      -0.259996        -7.0748
  94   2.0000      -0.254358        -6.9214
  95   2.0000      -0.230200        -6.2641
  96   2.0000      -0.221583        -6.0296
  97   2.0000      -0.211014        -5.7420
  98   2.0000      -0.197578        -5.3764
  99   2.0000      -0.190989        -5.1971
 100   2.0000      -0.181557        -4.9404
 101   0.0000      -0.037125        -1.0102
 102   0.0000      -0.033088        -0.9004
 103   0.0000      -0.006204        -0.1688
 104   0.0000       0.014294         0.3890
 105   0.0000       0.017000         0.4626

MULLIKEN ATOMIC CHARGES
-----------------------
   0 C :   -0.281544
   1 C :   -0.004066
   2 O :   -0.390497
   3 P :    0.619074
   4 S :   -0.292048
   5 O :   -0.359954
   6 C :    0.013428
   7 C :   -0.358924
   8 S :   -0.123584
   9 C :   -0.343651
  10 S :   -0.088107
  11 P :    0.599887
  12 S :   -0.305282
  13 O :   -0.363271
  14 C :   -0.045807
  15 C :   -0.281927
  16 O :   -0.373948
  17 C :   -0.002605
  18 C :   -0.316854
  19 H :    0.120623
  20 H :    0.112512
  21 H :    0.112370
  22 H :    0.097324
  23 H :    0.103959
  24 H :    0.111740
  25 H :    0.111379
  26 H :    0.127586
  27 H :    0.115623
  28 H :    0.148483
  29 H :    0.177122
  30 H :    0.205069
  31 H :    0.112884
  32 H :    0.123725
  33 H :    0.107352
  34 H :    0.121526
  35 H :    0.116268
  36 H :    0.103652
  37 H :    0.109845
  38 H :    0.130205
  39 H :    0.117819
  40 H :    0.112613
Sum of atomic charges:    0.0000000

LOEWDIN ATOMIC CHARGES
----------------------
   0 C :   -0.350579
   1 C :   -0.123674
   2 O :   -0.251798
   3 P :    0.574810
   4 S :   -0.290963
   5 O :   -0.232518
   6 C :   -0.106048
   7 C :   -0.374849
   8 S :    0.060042
   9 C :   -0.482155
  10 S :    0.091825
  11 P :    0.560600
  12 S :   -0.301794
  13 O :   -0.241226
  14 C :   -0.121967
  15 C :   -0.363089
  16 O :   -0.245462
  17 C :   -0.119659
  18 C :   -0.369961
  19 H :    0.128775
  20 H :    0.124414
  21 H :    0.131169
  22 H :    0.106258
  23 H :    0.107311
  24 H :    0.116090
  25 H :    0.121606
  26 H :    0.119823
  27 H :    0.133248
  28 H :    0.128702
  29 H :    0.135008
  30 H :    0.124134
  31 H :    0.116634
  32 H :    0.110920
  33 H :    0.128432
  34 H :    0.123653
  35 H :    0.127006
  36 H :    0.117908
  37 H :    0.110164
  38 H :    0.122648
  39 H :    0.123752
  40 H :    0.130810

  Mayer bond orders larger than 0.100000
B(  0-C ,  1-C ) :   1.1598 B(  0-C , 19-H ) :   0.9508 B(  0-C , 20-H ) :   0.9520
B(  0-C , 21-H ) :   0.9421 B(  1-C ,  2-O ) :   0.9033 B(  1-C , 22-H ) :   0.9252
B(  1-C , 23-H ) :   0.9063 B(  2-O ,  3-P ) :   1.0592 B(  3-P ,  4-S ) :   1.6392
B(  3-P ,  5-O ) :   1.1340 B(  3-P ,  8-S ) :   0.9405 B(  4-S ,  8-S ) :   0.1237
B(  4-S , 30-H ) :   0.1106 B(  5-O ,  6-C ) :   0.8970 B(  6-C ,  7-C ) :   1.1710
B(  6-C , 24-H ) :   0.9290 B(  6-C , 25-H ) :   0.9303 B(  7-C , 26-H ) :   0.9323
B(  7-C , 27-H ) :   0.9342 B(  7-C , 28-H ) :   0.9305 B(  8-S ,  9-C ) :   0.9997
B(  9-C , 10-S ) :   0.9994 B(  9-C , 29-H ) :   0.9116 B(  9-C , 30-H ) :   0.8443
B( 10-S , 11-P ) :   0.9577 B( 10-S , 12-S ) :   0.1137 B( 11-P , 12-S ) :   1.6232
B( 11-P , 13-O ) :   1.1226 B( 11-P , 16-O ) :   1.0964 B( 13-O , 14-C ) :   0.9120
B( 14-C , 15-C ) :   1.1580 B( 14-C , 31-H ) :   0.9257 B( 14-C , 32-H ) :   0.9086
B( 15-C , 33-H ) :   0.9390 B( 15-C , 34-H ) :   0.9360 B( 15-C , 35-H ) :   0.9441
B( 16-O , 17-C ) :   0.9094 B( 17-C , 18-C ) :   1.1668 B( 17-C , 36-H ) :   0.9340
B( 17-C , 37-H ) :   0.9148 B( 18-C , 38-H ) :   0.9354 B( 18-C , 39-H ) :   0.9441
B( 18-C , 40-H ) :   0.9377

Dispersion correction           -0.066706597
FINAL SINGLE POINT ENERGY     -2929.515838315115

DIPOLE MOMENT
-------------

Method             : SCF
Type of density    : Electron Density
Multiplicity       :   1
Irrep              :   0
Energy             : -2929.6345992451347229 Eh
Relativity type    :
Basis              : AO
                                X                 Y                 Z
Electronic contribution:     -3.592983306      -4.390576510      -9.849759001
Nuclear contribution   :      3.999139020       4.109393416      11.052281378
                        -----------------------------------------
Total Dipole Moment    :      0.406155715      -0.281183094       1.202522377
                        -----------------------------------------
Magnitude (a.u.)       :      1.300033255
Magnitude (Debye)      :      3.304421927

Rotational constants in cm-1:             0.013239             0.005215             0.004620
Rotational constants in MHz :           396.896447           156.329766           138.515896

                             ****ORCA TERMINATED NORMALLY****
TOTAL RUN TIME: 0 days 0 hours 0 minutes 21 seconds 433 msec
