                         Program Version 6.0.0  -   RELEASE  -
|  1> ! pbe def2-sv(p) def2/J RI DEFGRID1 loosescf d4 GCP(DFT/SV(P)) printgap
|  2> %output
|  3>     printlevel normal
|  4> end
|  5> * xyz 0 1
|  6> C 3.1602455351 -2.0981849132 -2.5104907802
|  7> C 1.9794768684 -1.3570531561 -1.918081324
|  8> O 2.4266414102 -0.2363212783 -1.1175968117
|  9> P 2.5550253088 -0.2852215554 0.4545645885
| 10> S 3.3007703294 1.3732875121 1.1718267421
| 11> O 3.4088576905 -1.6035141724 0.6937882407
| 12> C 4.0853105292 -1.8779180904 1.9351986684
| 13> C 3.121718379 -2.0825284084 3.0858222015
| 14> S 0.6070284049 -0.8053412419 1.1510389411
| 15> C -0.0450636718 0.8756501149 1.1649916453
| 16> S -0.3414858033 1.540224516 -0.5109786797
| 17> P -2.373874606 0.9810785865 -0.6901930588
| 18> S -3.195715481 1.3027078183 -2.4375569168
| 19> O -2.9832385763 1.7581137544 0.5487787356
| 20> C -4.3895130947 2.0794567143 0.6192098823
| 21> C -5.2369049119 0.8388135359 0.8035625945
| 22> O -2.4345448568 -0.5254072278 -0.1788249964
| 23> C -2.1039420199 -1.6192623044 -1.056789514
| 24> C -2.1612625606 -2.8947412111 -0.2423226713
| 25> H 3.7781519969 -1.4135367828 -3.0849626694
| 26> H 3.7631406171 -2.5371909605 -1.7202794692
| 27> H 2.7938828944 -2.8842931217 -3.1632704219
| 28> H 1.3735477865 -2.0203674552 -1.2936398386
| 29> H 1.3602046751 -0.9066250967 -2.6975101805
| 30> H 4.6567105143 -2.7827806209 1.7234546098
| 31> H 4.7665015446 -1.0480786721 2.1457538081
| 32> H 2.6271617942 -1.1438750991 3.3300581342
| 33> H 2.3681087781 -2.8204711147 2.8229265066
| 34> H 3.673248532 -2.4241301939 3.9558624819
| 35> H 0.6909020489 1.5346172003 1.6271645686
| 36> H -0.9782570591 0.8659990968 1.7201160684
| 37> H -4.4594975543 2.7544166991 1.4731673062
| 38> H -4.6701394426 2.60703088 -0.2977556383
| 39> H -4.9002364862 0.276710295 1.6705016605
| 40> H -6.2739890045 1.1289583592 0.9395908609
| 41> H -5.1590144202 0.2072380256 -0.0803492098
| 42> H -2.8218620274 -1.6245677716 -1.8825828138
| 43> H -1.1034572292 -1.4516630477 -1.4675627556
| 44> H -3.1567230499 -3.0272998247 0.1701562496
| 45> H -1.9229291091 -3.7371180653 -0.8829535753
| 46> H -1.4444120784 -2.842656394 0.5730465158
| 47> *
| 48>
| 49>                          ****END OF INPUT****

CARTESIAN COORDINATES (ANGSTROEM)
---------------------------------
  C      3.160246   -2.098185   -2.510491
  C      1.979477   -1.357053   -1.918081
  O      2.426641   -0.236321   -1.117597
  P      2.555025   -0.285222    0.454565
  S      3.300770    1.373288    1.171827
  O      3.408858   -1.603514    0.693788
  C      4.085311   -1.877918    1.935199
  C      3.121718   -2.082528    3.085822
  S      0.607028   -0.805341    1.151039
  C     -0.045064    0.875650    1.164992
  S     -0.341486    1.540225   -0.510979
  P     -2.373875    0.981079   -0.690193
  S     -3.195715    1.302708   -2.437557
  O     -2.983239    1.758114    0.548779
  C     -4.389513    2.079457    0.619210
  C     -5.236905    0.838814    0.803563
  O     -2.434545   -0.525407   -0.178825
  C     -2.103942   -1.619262   -1.056790
  C     -2.161263   -2.894741   -0.242323
  H      3.778152   -1.413537   -3.084963
  H      3.763141   -2.537191   -1.720279
  H      2.793883   -2.884293   -3.163270
  H      1.373548   -2.020367   -1.293640
  H      1.360205   -0.906625   -2.697510
  H      4.656711   -2.782781    1.723455
  H      4.766502   -1.048079    2.145754
  H      2.627162   -1.143875    3.330058
  H      2.368109   -2.820471    2.822927
  H      3.673249   -2.424130    3.955862
  H      0.690902    1.534617    1.627165
  H     -0.978257    0.865999    1.720116
  H     -4.459498    2.754417    1.473167
  H     -4.670139    2.607031   -0.297756
  H     -4.900236    0.276710    1.670502
  H     -6.273989    1.128958    0.939591
  H     -5.159014    0.207238   -0.080349
  H     -2.821862   -1.624568   -1.882583
  H     -1.103457   -1.451663   -1.467563
  H     -3.156723   -3.027300    0.170156
  H     -1.922929   -3.737118   -0.882954
  H     -1.444412   -2.842656    0.573047

 Total Charge           Charge          ....    0
 Multiplicity           Mult            ....    1
 Number of Electrons    NEL             ....  202
 Basis Dimension        Dim             ....  334

ORBITAL ENERGIES
----------------

  NO   OCC          E(Eh)            E(eV)
   0   2.0000     -88.047973     -2395.9071
   1   2.0000     -88.039986     -2395.6898
   2   2.0000     -87.991261     -2394.3639
   3   2.0000     -87.987013     -2394.2483
   4   2.0000     -76.431574     -2079.8089
   5   2.0000     -76.425587     -2079.6460
   6   2.0000     -18.802764      -511.6492
   7   2.0000     -18.795155      -511.4422
   8   2.0000     -18.794256      -511.4177
   9   2.0000     -18.793672      -511.4018
  10   2.0000      -9.960640      -271.0428
  11   2.0000      -9.959221      -271.0042
  12   2.0000      -9.955893      -270.9136
  13   2.0000      -9.954497      -270.8756
  14   2.0000      -9.954462      -270.8747
  15   2.0000      -9.890473      -269.1334
  16   2.0000      -9.889659      -269.1113
  17   2.0000      -9.889177      -269.0982
  18   2.0000      -9.886295      -269.0198
  19   2.0000      -7.692608      -209.3265
  20   2.0000      -7.685182      -209.1244
  21   2.0000      -7.636519      -207.8003
  22   2.0000      -7.632220      -207.6833
  23   2.0000      -6.429196      -174.9473
  24   2.0000      -6.423622      -174.7956
  25   2.0000      -5.720266      -155.6563
  26   2.0000      -5.717163      -155.5719
  27   2.0000      -5.713381      -155.4690
  28   2.0000      -5.709792      -155.3713
  29   2.0000      -5.709523      -155.3640
  30   2.0000      -5.702001      -155.1593
  31   2.0000      -5.665500      -154.1661
  32   2.0000      -5.661185      -154.0487
  33   2.0000      -5.657035      -153.9357
  34   2.0000      -5.656685      -153.9262
  35   2.0000      -5.652790      -153.8202
  36   2.0000      -5.652406      -153.8098
  37   2.0000      -4.652144      -126.5913
  38   2.0000      -4.650826      -126.5554
  39   2.0000      -4.649424      -126.5173
  40   2.0000      -4.646028      -126.4248
  41   2.0000      -4.645611      -126.4135
  42   2.0000      -4.643961      -126.3686
  43   2.0000      -0.994658       -27.0660
  44   2.0000      -0.989277       -26.9196
  45   2.0000      -0.951411       -25.8892
  46   2.0000      -0.948101       -25.7991
  47   2.0000      -0.765144       -20.8206
  48   2.0000      -0.725802       -19.7501
  49   2.0000      -0.713848       -19.4248
  50   2.0000      -0.696240       -18.9457
  51   2.0000      -0.691139       -18.8068
  52   2.0000      -0.676309       -18.4033
  53   2.0000      -0.655202       -17.8289
  54   2.0000      -0.640174       -17.4200
  55   2.0000      -0.601857       -16.3774
  56   2.0000      -0.596618       -16.2348
  57   2.0000      -0.579496       -15.7689
  58   2.0000      -0.567317       -15.4375
  59   2.0000      -0.564567       -15.3626
  60   2.0000      -0.507678       -13.8146
  61   2.0000      -0.504737       -13.7346
  62   2.0000      -0.482069       -13.1178
  63   2.0000      -0.478558       -13.0222
  64   2.0000      -0.464815       -12.6483
  65   2.0000      -0.453800       -12.3485
  66   2.0000      -0.442635       -12.0447
  67   2.0000      -0.435415       -11.8482
  68   2.0000      -0.433053       -11.7840
  69   2.0000      -0.419814       -11.4237
  70   2.0000      -0.418160       -11.3787
  71   2.0000      -0.399690       -10.8761
  72   2.0000      -0.397068       -10.8048
  73   2.0000      -0.387363       -10.5407
  74   2.0000      -0.381601       -10.3839
  75   2.0000      -0.374613       -10.1937
  76   2.0000      -0.366837        -9.9821
  77   2.0000      -0.365676        -9.9505
  78   2.0000      -0.359938        -9.7944
  79   2.0000      -0.357075        -9.7165
  80   2.0000      -0.352739        -9.5985
  81   2.0000      -0.349699        -9.5158
  82   2.0000      -0.348675        -9.4879
  83   2.0000      -0.343116        -9.3367
  84   2.0000      -0.336025        -9.1437
  85   2.0000      -0.322008        -8.7623
  86   2.0000      -0.315310        -8.5800
  87   2.0000      -0.303098        -8.2477
  88   2.0000      -0.302335        -8.2269
  89   2.0000      -0.298550        -8.1240
  90   2.0000      -0.290443        -7.9034
  91   2.0000      -0.277648        -7.5552
  92   2.0000      -0.276657        -7.5282
  93   2.0000      -0.270154        -7.3513
  94   2.0000      -0.257220        -6.9993
  95   2.0000      -0.238741        -6.4965
  96   2.0000      -0.220094        -5.9891
  97   2.0000      -0.212103        -5.7716
  98   2.0000      -0.207519        -5.6469
  99   2.0000      -0.206090        -5.6080
 100   2.0000      -0.201732        -5.4894
 101   0.0000      -0.042398        -1.1537
 102   0.0000      -0.024245        -0.6597
 103   0.0000      -0.016614        -0.4521
 104   0.0000       0.001686         0.0459
 105   0.0000       0.009606         0.2614

MULLIKEN ATOMIC CHARGES
-----------------------
   0 C :   -0.276438
   1 C :   -0.037641
   2 O :   -0.346436
   3 P :    0.598408
   4 S :   -0.304262
   5 O :   -0.382486
   6 C :   -0.000872
   7 C :   -0.319093
   8 S :   -0.099081
   9 C :   -0.365217
  10 S :   -0.051801
  11 P :    0.596274
  12 S :   -0.325448
  13 O :   -0.377928
  14 C :   -0.006146
  15 C :   -0.306180
  16 O :   -0.385628
  17 C :   -0.021535
  18 C :   -0.283334
  19 H :    0.122454
  20 H :    0.118826
  21 H :    0.109228
  22 H :    0.107475
  23 H :    0.124827
  24 H :    0.106698
  25 H :    0.116124
  26 H :    0.130159
  27 H :    0.116688
  28 H :    0.116650
  29 H :    0.196470
  30 H :    0.192237
  31 H :    0.107393
  32 H :    0.116399
  33 H :    0.114662
  34 H :    0.113452
  35 H :    0.123443
  36 H :    0.109191
  37 H :    0.107746
  38 H :    0.115812
  39 H :    0.108158
  40 H :    0.120753
Sum of atomic charges:    0.0000000

LOEWDIN ATOMIC CHARGES
----------------------
   0 C :   -0.357701
   1 C :   -0.118205
   2 O :   -0.231779
   3 P :    0.570144
   4 S :   -0.302221
   5 O :   -0.246865
   6 C :   -0.115190
   7 C :   -0.371279
   8 S :    0.085839
   9 C :   -0.483002
  10 S :    0.093357
  11 P :    0.564323
  12 S :   -0.324566
  13 O :   -0.246712
  14 C :   -0.114897
  15 C :   -0.365386
  16 O :   -0.250859
  17 C :   -0.124533
  18 C :   -0.353618
  19 H :    0.130542
  20 H :    0.125613
  21 H :    0.129552
  22 H :    0.101130
  23 H :    0.123162
  24 H :    0.119317
  25 H :    0.115099
  26 H :    0.122432
  27 H :    0.122732
  28 H :    0.132904
  29 H :    0.130062
  30 H :    0.135512
  31 H :    0.119795
  32 H :    0.113662
  33 H :    0.125290
  34 H :    0.131206
  35 H :    0.122775
  36 H :    0.111269
  37 H :    0.104963
  38 H :    0.127238
  39 H :    0.129322
  40 H :    0.119574

  Mayer bond orders larger than 0.100000
B(  0-C ,  1-C ) :   1.1571 B(  0-C , 19-H ) :   0.9458 B(  0-C , 20-H ) :   0.9419
B(  0-C , 21-H ) :   0.9402 B(  1-C ,  2-O ) :   0.8942 B(  1-C , 22-H ) :   0.9054
B(  1-C , 23-H ) :   0.9299 B(  2-O ,  3-P ) :   1.1439 B(  3-P ,  4-S ) :   1.6426
B(  3-P ,  5-O ) :   1.0841 B(  3-P ,  8-S ) :   0.9443 B(  4-S ,  8-S ) :   0.1081
B(  5-O ,  6-C ) :   0.9030 B(  6-C ,  7-C ) :   1.1665 B(  6-C , 24-H ) :   0.9341
B(  6-C , 25-H ) :   0.9195 B(  7-C , 26-H ) :   0.9348 B(  7-C , 27-H ) :   0.9434
B(  7-C , 28-H ) :   0.9365 B(  8-S ,  9-C ) :   1.0014 B(  9-C , 10-S ) :   0.9773
B(  9-C , 29-H ) :   0.8677 B(  9-C , 30-H ) :   0.8906 B( 10-S , 11-P ) :   0.9948
B( 11-P , 12-S ) :   1.6475 B( 11-P , 13-O ) :   1.1038 B( 11-P , 16-O ) :   1.0723
B( 13-O , 14-C ) :   0.9023 B( 14-C , 15-C ) :   1.1641 B( 14-C , 31-H ) :   0.9352
B( 14-C , 32-H ) :   0.9170 B( 15-C , 33-H ) :   0.9464 B( 15-C , 34-H ) :   0.9380
B( 15-C , 35-H ) :   0.9344 B( 16-O , 17-C ) :   0.8969 B( 17-C , 18-C ) :   1.1600
B( 17-C , 36-H ) :   0.9191 B( 17-C , 37-H ) :   0.9103 B( 18-C , 38-H ) :   0.9494
B( 18-C , 39-H ) :   0.9419 B( 18-C , 40-H ) :   0.9437

Dispersion correction           -0.063709819
FINAL SINGLE POINT ENERGY     -2929.521700173941

DIPOLE MOMENT
-------------

Method             : SCF
Type of density    : Electron Density
Multiplicity       :   1
Irrep              :   0
Energy             : -2929.6435923972148885 Eh
Relativity type    :
Basis              : AO
                                X                 Y                 Z
Electronic contribution:      4.655687534      20.651835232      -4.604469597
Nuclear contribution   :     -4.893807107     -22.579203550       5.463722195
                        -----------------------------------------
Total Dipole Moment    :     -0.238119573      -1.927368318       0.859252598
                        -----------------------------------------
Magnitude (a.u.)       :      2.123620633
Magnitude (Debye)      :      5.397814677

Rotational constants in cm-1:             0.013151             0.004346             0.004218
Rotational constants in MHz :           394.271069           130.296651           126.461888

                             ****ORCA TERMINATED NORMALLY****
TOTAL RUN TIME: 0 days 0 hours 0 minutes 20 seconds 984 msec
