                         Program Version 6.0.0  -   RELEASE  -
|  1> ! wb97x-v def2-tzvp def2/J RIJCOSX DEFGRID2 scfconv7 GCP(DFT/TZ) printgap
|  2> %output
|  3>     printlevel normal
|  4> end
|  5> * xyz 0 1
|  6> C -1.2417171376611873 2.441383255408117e-05 -7.246186059729947e-05
|  7> Cl 0.5819334651190338 5.470080672931186e-05 0.00011887064773768615
|  8> H -1.5764950509414777 -0.08296051556746 -1.033343109833324
|  9> H -1.5764611082200188 -0.8533992031744546 0.5883267986259
| 10> H -1.5762845782753214 0.9362867027499879 0.44488419577837474
| 11> *
| 12>
| 13>                          ****END OF INPUT****

CARTESIAN COORDINATES (ANGSTROEM)
---------------------------------
  C     -1.241717    0.000024   -0.000072
  Cl     0.581933    0.000055    0.000119
  H     -1.576495   -0.082961   -1.033343
  H     -1.576461   -0.853399    0.588327
  H     -1.576285    0.936287    0.444884

 Total Charge           Charge          ....    0
 Multiplicity           Mult            ....    1
 Number of Electrons    NEL             ....   26
 Basis Dimension        Dim             ....   86

ORBITAL ENERGIES
----------------

  NO   OCC          E(Eh)            E(eV)
   0   2.0000    -107.129859     -2915.1517
   1   2.0000     -12.109142      -329.5065
   2   2.0000     -11.282842      -307.0217
   3   2.0000      -9.074261      -246.9232
   4   2.0000      -9.071523      -246.8487
   5   2.0000      -9.071523      -246.8487
   6   2.0000      -1.389130       -37.8001
   7   2.0000      -1.182003       -32.1639
   8   2.0000      -0.880685       -23.9647
   9   2.0000      -0.880640       -23.9634
  10   2.0000      -0.870748       -23.6943
  11   2.0000      -0.764320       -20.7982
  12   2.0000      -0.764311       -20.7980
  13   0.0000      -0.256467        -6.9788
  14   0.0000       0.001596         0.0434
  15   0.0000       0.027389         0.7453
  16   0.0000       0.027432         0.7465
  17   0.0000       0.133701         3.6382

MULLIKEN ATOMIC CHARGES
-----------------------
   0 C :   -0.256658
   1 Cl:   -0.161127
   2 H :    0.139201
   3 H :    0.139286
   4 H :    0.139298
Sum of atomic charges:   -0.0000000

LOEWDIN ATOMIC CHARGES
----------------------
   0 C :   -0.498549
   1 Cl:    0.189206
   2 H :    0.103110
   3 H :    0.103123
   4 H :    0.103110

  Mayer bond orders larger than 0.100000
B(  0-C ,  1-Cl) :   1.0660 B(  0-C ,  2-H ) :   0.9708 B(  0-C ,  3-H ) :   0.9708
B(  0-C ,  4-H ) :   0.9708

FINAL SINGLE POINT ENERGY      -500.052717295952

DIPOLE MOMENT
-------------

Method             : SCF
Type of density    : Electron Density
Multiplicity       :   1
Irrep              :   0
Energy             :  -500.0557837382520461 Eh
Relativity type    :
Basis              : AO
                                X                 Y                 Z
Electronic contribution:      4.432730839       0.000178058       0.000270999
Nuclear contribution   :     -5.245639765      -0.000204880      -0.000377130
                        -----------------------------------------
Total Dipole Moment    :     -0.812908926      -0.000026822      -0.000106131
                        -----------------------------------------
Magnitude (a.u.)       :      0.812908934
Magnitude (Debye)      :      2.066250302

Rotational constants in cm-1:             5.187857             0.425195             0.425191
Rotational constants in MHz :        155528.034623         12747.019924         12746.897163

                             ****ORCA TERMINATED NORMALLY****
TOTAL RUN TIME: 0 days 0 hours 0 minutes 10 seconds 257 msec
