                         Program Version 6.0.0  -   RELEASE  -
|  1> ! wb97x-v def2-tzvp def2/J RIJCOSX DEFGRID2 scfconv7 GCP(DFT/TZ) printgap
|  2> %output
|  3>     printlevel normal
|  4> end
|  5> %cpcm
|  6>     smd true
|  7>     smdsolvent "water"
|  8> end
|  9> * xyz 0 1
| 10> C -1.2417171376611873 2.441383255408117e-05 -7.246186059729947e-05
| 11> Cl 0.5819334651190338 5.470080672931186e-05 0.00011887064773768615
| 12> H -1.5764950509414777 -0.08296051556746 -1.033343109833324
| 13> H -1.5764611082200188 -0.8533992031744546 0.5883267986259
| 14> H -1.5762845782753214 0.9362867027499879 0.44488419577837474
| 15> *
| 16>
| 17>                          ****END OF INPUT****

CARTESIAN COORDINATES (ANGSTROEM)
---------------------------------
  C     -1.241717    0.000024   -0.000072
  Cl     0.581933    0.000055    0.000119
  H     -1.576495   -0.082961   -1.033343
  H     -1.576461   -0.853399    0.588327
  H     -1.576285    0.936287    0.444884

 Total Charge           Charge          ....    0
 Multiplicity           Mult            ....    1
 Number of Electrons    NEL             ....   26
 Basis Dimension        Dim             ....   86

ORBITAL ENERGIES
----------------

  NO   OCC          E(Eh)            E(eV)
   0   2.0000    -107.128516     -2915.1151
   1   2.0000     -12.092713      -329.0594
   2   2.0000     -11.281753      -306.9921
   3   2.0000      -9.073101      -246.8916
   4   2.0000      -9.070562      -246.8225
   5   2.0000      -9.070562      -246.8225
   6   2.0000      -1.386745       -37.7353
   7   2.0000      -1.167788       -31.7771
   8   2.0000      -0.865771       -23.5588
   9   2.0000      -0.865734       -23.5578
  10   2.0000      -0.864680       -23.5291
  11   2.0000      -0.761803       -20.7297
  12   2.0000      -0.761795       -20.7295
  13   0.0000      -0.246410        -6.7052
  14   0.0000       0.021815         0.5936
  15   0.0000       0.047313         1.2874
  16   0.0000       0.047355         1.2886
  17   0.0000       0.144406         3.9295

MULLIKEN ATOMIC CHARGES
-----------------------
   0 C :   -0.285235
   1 Cl:   -0.211472
   2 H :    0.165456
   3 H :    0.165601
   4 H :    0.165650
Sum of atomic charges:   -0.0000000

LOEWDIN ATOMIC CHARGES
----------------------
   0 C :   -0.487945
   1 Cl:    0.154216
   2 H :    0.111224
   3 H :    0.111261
   4 H :    0.111244

  Mayer bond orders larger than 0.100000
B(  0-C ,  1-Cl) :   1.0269 B(  0-C ,  2-H ) :   0.9646 B(  0-C ,  3-H ) :   0.9646
B(  0-C ,  4-H ) :   0.9646

FINAL SINGLE POINT ENERGY      -500.054384078253

DIPOLE MOMENT
-------------

Method             : SCF
Type of density    : Electron Density
Multiplicity       :   1
Irrep              :   0
Energy             :  -500.0574505205529476 Eh
Relativity type    :
Basis              : AO
                                X                 Y                 Z
Electronic contribution:      4.187463933       0.000090860       0.000362686
Nuclear contribution   :     -5.245639765      -0.000204880      -0.000377130
                        -----------------------------------------
Total Dipole Moment    :     -1.058175833      -0.000114020      -0.000014444
                        -----------------------------------------
Magnitude (a.u.)       :      1.058175839
Magnitude (Debye)      :      2.689669231

Rotational constants in cm-1:             5.187857             0.425195             0.425191
Rotational constants in MHz :        155528.034623         12747.019924         12746.897163

                             ****ORCA TERMINATED NORMALLY****
TOTAL RUN TIME: 0 days 0 hours 0 minutes 10 seconds 864 msec
