                         Program Version 6.0.0  -   RELEASE  -
|  1> ! pbe def2-sv(p) def2/J RI DEFGRID1 loosescf d4 GCP(DFT/SV(P)) printgap
|  2> %output
|  3>     printlevel normal
|  4> end
|  5> * xyz 0 1
|  6> C 4.9877529795 -1.3420092304 -0.4290908338
|  7> C 4.0972779934 -1.5352614725 -1.6368275709
|  8> O 3.2137357151 -0.4123789753 -1.8812314476
|  9> P 2.2103584481 0.2427447968 -0.857272378
| 10> S 0.9131444611 1.3299450582 -1.8460619605
| 11> O 3.1907457034 1.0308057455 0.1053350626
| 12> C 2.7935848523 1.9167681742 1.1655703322
| 13> C 2.8151742081 1.2004588582 2.5010832664
| 14> S 1.4172788041 -1.3789718884 0.2722725413
| 15> C -0.0541412236 -1.7134236286 -0.7499094657
| 16> S -1.5815520487 -1.8447087175 0.2076655844
| 17> P -2.0092546324 0.2303878347 0.4625991112
| 18> S -0.6874293977 1.2313134967 1.501688923
| 19> O -3.4621971434 0.1956139619 1.0982387475
| 20> C -3.6640525722 -0.2113315847 2.4683432424
| 21> C -5.0480978562 0.2395814754 2.8876197756
| 22> O -2.2527862709 0.8594202321 -0.9572795949
| 23> C -3.4612954488 0.7498778216 -1.7504640544
| 24> C -3.7255540475 -0.6634665271 -2.2248782693
| 25> H 5.6968724496 -2.1626163461 -0.3787178854
| 26> H 5.5279945533 -0.4021214667 -0.5047140519
| 27> H 4.3904596125 -1.3343692284 0.4806596082
| 28> H 3.482192748 -2.4314907409 -1.5224265327
| 29> H 4.6754619766 -1.5967255091 -2.5599166434
| 30> H 3.5273734081 2.724539547 1.1361567494
| 31> H 1.7996242495 2.3218642496 0.9535807824
| 32> H 2.6027280943 1.9174047127 3.2872146105
| 33> H 2.0524000469 0.4255479123 2.527194166
| 34> H 3.7902597847 0.7527313674 2.6700499968
| 35> H 0.072540586 -2.6780581172 -1.233645437
| 36> H -0.1493873627 -0.9030159169 -1.4786883583
| 37> H -3.5640307273 -1.2986964587 2.516334438
| 38> H -2.8852537889 0.2482223222 3.0857693071
| 39> H -5.7980315753 -0.2128646927 2.2454621205
| 40> H -5.2234881247 -0.0640340769 3.9142927325
| 41> H -5.1267438389 1.3208394102 2.8158265547
| 42> H -4.2936469775 1.1267525624 -1.1542042544
| 43> H -3.2631199819 1.4240991123 -2.5855161058
| 44> H -4.5785224151 -0.6516363943 -2.8963921599
| 45> H -2.8612044062 -1.0521023025 -2.7579993034
| 46> H -3.9465630042 -1.315123939 -1.3826141192
| 47> *
| 48>
| 49>                          ****END OF INPUT****

CARTESIAN COORDINATES (ANGSTROEM)
---------------------------------
  C      4.987753   -1.342009   -0.429091
  C      4.097278   -1.535261   -1.636828
  O      3.213736   -0.412379   -1.881231
  P      2.210358    0.242745   -0.857272
  S      0.913144    1.329945   -1.846062
  O      3.190746    1.030806    0.105335
  C      2.793585    1.916768    1.165570
  C      2.815174    1.200459    2.501083
  S      1.417279   -1.378972    0.272273
  C     -0.054141   -1.713424   -0.749909
  S     -1.581552   -1.844709    0.207666
  P     -2.009255    0.230388    0.462599
  S     -0.687429    1.231313    1.501689
  O     -3.462197    0.195614    1.098239
  C     -3.664053   -0.211332    2.468343
  C     -5.048098    0.239581    2.887620
  O     -2.252786    0.859420   -0.957280
  C     -3.461295    0.749878   -1.750464
  C     -3.725554   -0.663467   -2.224878
  H      5.696872   -2.162616   -0.378718
  H      5.527995   -0.402121   -0.504714
  H      4.390460   -1.334369    0.480660
  H      3.482193   -2.431491   -1.522427
  H      4.675462   -1.596726   -2.559917
  H      3.527373    2.724540    1.136157
  H      1.799624    2.321864    0.953581
  H      2.602728    1.917405    3.287215
  H      2.052400    0.425548    2.527194
  H      3.790260    0.752731    2.670050
  H      0.072541   -2.678058   -1.233645
  H     -0.149387   -0.903016   -1.478688
  H     -3.564031   -1.298696    2.516334
  H     -2.885254    0.248222    3.085769
  H     -5.798032   -0.212865    2.245462
  H     -5.223488   -0.064034    3.914293
  H     -5.126744    1.320839    2.815827
  H     -4.293647    1.126753   -1.154204
  H     -3.263120    1.424099   -2.585516
  H     -4.578522   -0.651636   -2.896392
  H     -2.861204   -1.052102   -2.757999
  H     -3.946563   -1.315124   -1.382614

 Total Charge           Charge          ....    0
 Multiplicity           Mult            ....    1
 Number of Electrons    NEL             ....  202
 Basis Dimension        Dim             ....  334

ORBITAL ENERGIES
----------------

  NO   OCC          E(Eh)            E(eV)
   0   2.0000     -88.040545     -2395.7050
   1   2.0000     -88.037275     -2395.6161
   2   2.0000     -87.975802     -2393.9433
   3   2.0000     -87.970674     -2393.8037
   4   2.0000     -76.423594     -2079.5917
   5   2.0000     -76.417111     -2079.4153
   6   2.0000     -18.795747      -511.4583
   7   2.0000     -18.789291      -511.2826
   8   2.0000     -18.785511      -511.1797
   9   2.0000     -18.779689      -511.0213
  10   2.0000      -9.956255      -270.9235
  11   2.0000      -9.955522      -270.9035
  12   2.0000      -9.953546      -270.8498
  13   2.0000      -9.951442      -270.7925
  14   2.0000      -9.942488      -270.5488
  15   2.0000      -9.891554      -269.1629
  16   2.0000      -9.887273      -269.0464
  17   2.0000      -9.884480      -268.9704
  18   2.0000      -9.874678      -268.7036
  19   2.0000      -7.685650      -209.1372
  20   2.0000      -7.681888      -209.0348
  21   2.0000      -7.620929      -207.3760
  22   2.0000      -7.615982      -207.2414
  23   2.0000      -6.420956      -174.7231
  24   2.0000      -6.414475      -174.5468
  25   2.0000      -5.713323      -155.4674
  26   2.0000      -5.710268      -155.3843
  27   2.0000      -5.709642      -155.3672
  28   2.0000      -5.706444      -155.2802
  29   2.0000      -5.702718      -155.1788
  30   2.0000      -5.699010      -155.0780
  31   2.0000      -5.649830      -153.7397
  32   2.0000      -5.645081      -153.6105
  33   2.0000      -5.641735      -153.5194
  34   2.0000      -5.640855      -153.4955
  35   2.0000      -5.636704      -153.3825
  36   2.0000      -5.635788      -153.3576
  37   2.0000      -4.644162      -126.3741
  38   2.0000      -4.642737      -126.3353
  39   2.0000      -4.640821      -126.2832
  40   2.0000      -4.637183      -126.1842
  41   2.0000      -4.636434      -126.1638
  42   2.0000      -4.634641      -126.1150
  43   2.0000      -0.989178       -26.9169
  44   2.0000      -0.978569       -26.6282
  45   2.0000      -0.945413       -25.7260
  46   2.0000      -0.936337       -25.4790
  47   2.0000      -0.758242       -20.6328
  48   2.0000      -0.719221       -19.5710
  49   2.0000      -0.709355       -19.3025
  50   2.0000      -0.694430       -18.8964
  51   2.0000      -0.684301       -18.6208
  52   2.0000      -0.673504       -18.3270
  53   2.0000      -0.645210       -17.5571
  54   2.0000      -0.626677       -17.0528
  55   2.0000      -0.590947       -16.0805
  56   2.0000      -0.587836       -15.9958
  57   2.0000      -0.575087       -15.6489
  58   2.0000      -0.568002       -15.4561
  59   2.0000      -0.559354       -15.2208
  60   2.0000      -0.507497       -13.8097
  61   2.0000      -0.490492       -13.3470
  62   2.0000      -0.475259       -12.9324
  63   2.0000      -0.468262       -12.7421
  64   2.0000      -0.452843       -12.3225
  65   2.0000      -0.445794       -12.1307
  66   2.0000      -0.444658       -12.0998
  67   2.0000      -0.434273       -11.8172
  68   2.0000      -0.430557       -11.7161
  69   2.0000      -0.415556       -11.3079
  70   2.0000      -0.404738       -11.0135
  71   2.0000      -0.399225       -10.8635
  72   2.0000      -0.393884       -10.7181
  73   2.0000      -0.380432       -10.3521
  74   2.0000      -0.378012       -10.2862
  75   2.0000      -0.370249       -10.0750
  76   2.0000      -0.360203        -9.8016
  77   2.0000      -0.355457        -9.6725
  78   2.0000      -0.352751        -9.5988
  79   2.0000      -0.350075        -9.5260
  80   2.0000      -0.348271        -9.4769
  81   2.0000      -0.342310        -9.3147
  82   2.0000      -0.338582        -9.2133
  83   2.0000      -0.336763        -9.1638
  84   2.0000      -0.325471        -8.8565
  85   2.0000      -0.321685        -8.7535
  86   2.0000      -0.309512        -8.4222
  87   2.0000      -0.304742        -8.2925
  88   2.0000      -0.292858        -7.9691
  89   2.0000      -0.283805        -7.7227
  90   2.0000      -0.281110        -7.6494
  91   2.0000      -0.272821        -7.4238
  92   2.0000      -0.267458        -7.2779
  93   2.0000      -0.259878        -7.0716
  94   2.0000      -0.254176        -6.9165
  95   2.0000      -0.237095        -6.4517
  96   2.0000      -0.220033        -5.9874
  97   2.0000      -0.200369        -5.4523
  98   2.0000      -0.191222        -5.2034
  99   2.0000      -0.184497        -5.0204
 100   2.0000      -0.176781        -4.8104
 101   0.0000      -0.038330        -1.0430
 102   0.0000      -0.028750        -0.7823
 103   0.0000      -0.013418        -0.3651
 104   0.0000       0.005062         0.1378
 105   0.0000       0.027594         0.7509

MULLIKEN ATOMIC CHARGES
-----------------------
   0 C :   -0.312516
   1 C :    0.004034
   2 O :   -0.361558
   3 P :    0.597822
   4 S :   -0.298451
   5 O :   -0.373185
   6 C :   -0.011961
   7 C :   -0.313349
   8 S :   -0.107208
   9 C :   -0.347896
  10 S :   -0.119123
  11 P :    0.622938
  12 S :   -0.314424
  13 O :   -0.389033
  14 C :   -0.013928
  15 C :   -0.281511
  16 O :   -0.350939
  17 C :    0.006296
  18 C :   -0.318990
  19 H :    0.111103
  20 H :    0.124419
  21 H :    0.121926
  22 H :    0.100284
  23 H :    0.108239
  24 H :    0.102717
  25 H :    0.130482
  26 H :    0.109690
  27 H :    0.139963
  28 H :    0.110106
  29 H :    0.179095
  30 H :    0.193870
  31 H :    0.106017
  32 H :    0.108571
  33 H :    0.114356
  34 H :    0.114082
  35 H :    0.122896
  36 H :    0.109652
  37 H :    0.115041
  38 H :    0.112762
  39 H :    0.124298
  40 H :    0.123416
Sum of atomic charges:    0.0000000

LOEWDIN ATOMIC CHARGES
----------------------
   0 C :   -0.367455
   1 C :   -0.114405
   2 O :   -0.242199
   3 P :    0.566678
   4 S :   -0.302643
   5 O :   -0.235473
   6 C :   -0.116050
   7 C :   -0.366341
   8 S :    0.067689
   9 C :   -0.483480
  10 S :    0.063139
  11 P :    0.571014
  12 S :   -0.305376
  13 O :   -0.250887
  14 C :   -0.120024
  15 C :   -0.350705
  16 O :   -0.226364
  17 C :   -0.106031
  18 C :   -0.368574
  19 H :    0.130031
  20 H :    0.129458
  21 H :    0.117745
  22 H :    0.105594
  23 H :    0.121352
  24 H :    0.117622
  25 H :    0.111291
  26 H :    0.130822
  27 H :    0.122110
  28 H :    0.121333
  29 H :    0.134233
  30 H :    0.121118
  31 H :    0.110045
  32 H :    0.110618
  33 H :    0.125573
  34 H :    0.132168
  35 H :    0.130104
  36 H :    0.114649
  37 H :    0.125026
  38 H :    0.130962
  39 H :    0.127753
  40 H :    0.117881

  Mayer bond orders larger than 0.100000
B(  0-C ,  1-C ) :   1.1706 B(  0-C , 19-H ) :   0.9353 B(  0-C , 20-H ) :   0.9431
B(  0-C , 21-H ) :   0.9376 B(  1-C ,  2-O ) :   0.9093 B(  1-C , 22-H ) :   0.9206
B(  1-C , 23-H ) :   0.9343 B(  2-O ,  3-P ) :   1.1270 B(  3-P ,  4-S ) :   1.6416
B(  3-P ,  5-O ) :   1.1126 B(  3-P ,  8-S ) :   0.9363 B(  4-S ,  8-S ) :   0.1150
B(  4-S , 30-H ) :   0.1205 B(  5-O ,  6-C ) :   0.8972 B(  6-C ,  7-C ) :   1.1706
B(  6-C , 24-H ) :   0.9339 B(  6-C , 25-H ) :   0.9034 B(  7-C , 26-H ) :   0.9405
B(  7-C , 27-H ) :   0.9316 B(  7-C , 28-H ) :   0.9453 B(  8-S ,  9-C ) :   0.9885
B(  9-C , 10-S ) :   1.0064 B(  9-C , 29-H ) :   0.9118 B(  9-C , 30-H ) :   0.8427
B( 10-S , 11-P ) :   0.9422 B( 10-S , 12-S ) :   0.1130 B( 11-P , 12-S ) :   1.6743
B( 11-P , 13-O ) :   1.0708 B( 11-P , 16-O ) :   1.1412 B( 13-O , 14-C ) :   0.9019
B( 14-C , 15-C ) :   1.1605 B( 14-C , 31-H ) :   0.9296 B( 14-C , 32-H ) :   0.9071
B( 15-C , 33-H ) :   0.9512 B( 15-C , 34-H ) :   0.9413 B( 15-C , 35-H ) :   0.9506
B( 16-O , 17-C ) :   0.8957 B( 17-C , 18-C ) :   1.1701 B( 17-C , 36-H ) :   0.9274
B( 17-C , 37-H ) :   0.9336 B( 18-C , 38-H ) :   0.9359 B( 18-C , 39-H ) :   0.9452
B( 18-C , 40-H ) :   0.9379

Dispersion correction           -0.065960445
FINAL SINGLE POINT ENERGY     -2929.508296354265

DIPOLE MOMENT
-------------

Method             : SCF
Type of density    : Electron Density
Multiplicity       :   1
Irrep              :   0
Energy             : -2929.6271662385497621 Eh
Relativity type    :
Basis              : AO
                                X                 Y                 Z
Electronic contribution:      3.386144062       2.856771901      -6.708672679
Nuclear contribution   :     -3.991569320      -3.982167839       7.058426316
                        -----------------------------------------
Total Dipole Moment    :     -0.605425258      -1.125395938       0.349753637
                        -----------------------------------------
Magnitude (a.u.)       :      1.324908814
Magnitude (Debye)      :      3.367650574

Rotational constants in cm-1:             0.013341             0.004910             0.004519
Rotational constants in MHz :           399.947813           147.210912           135.484665

                             ****ORCA TERMINATED NORMALLY****
TOTAL RUN TIME: 0 days 0 hours 0 minutes 20 seconds 857 msec
