                         Program Version 6.0.0  -   RELEASE  -
|  1> ! pbe def2-sv(p) def2/J RI DEFGRID1 loosescf d4 GCP(DFT/SV(P)) printgap
|  2> %output
|  3>     printlevel normal
|  4> end
|  5> * xyz 0 1
|  6> C 4.5529719263 -1.730848729 -0.5208267855
|  7> C 4.6072494039 -0.2411110665 -0.2512473451
|  8> O 3.4598815469 0.2167693548 0.4841234499
|  9> P 2.0072187622 0.3009315381 -0.1637567604
| 10> S 2.0267280481 0.8109268434 -2.0629559647
| 11> O 1.2654946237 1.1950697749 0.9120966978
| 12> C 1.7295581767 2.4714212528 1.3972226446
| 13> C 1.8866786884 3.4921417517 0.2896058431
| 14> S 1.1260634315 -1.5613589544 0.2557702464
| 15> C -0.0280869757 -1.7112071918 -1.1503853703
| 16> S -1.7436298387 -1.8807466801 -0.62926222
| 17> P -2.0064758622 0.0652920582 0.1957045714
| 18> S -1.3340760157 1.5184765227 -0.9350358956
| 19> O -1.323707385 0.1473954784 1.6142443876
| 20> C -1.7893731323 -0.4743415472 2.8385676964
| 21> C -1.7285736507 -1.9872845158 2.7940058329
| 22> O -3.5461499698 0.0818164043 0.5840008674
| 23> C -4.6227687653 -0.346852768 -0.2710953841
| 24> C -4.6485653678 0.3863092449 -1.5954282645
| 25> H 4.3782995952 -2.2765059571 0.4028601752
| 26> H 3.7467885712 -1.9518959083 -1.2186262896
| 27> H 5.4935817807 -2.0496572882 -0.9580781174
| 28> H 4.6596051153 0.3171938765 -1.1915731411
| 29> H 5.4504170888 0.0237514204 0.3881680665
| 30> H 0.9502114835 2.7691250786 2.1013690498
| 31> H 2.6732367643 2.3124518319 1.9247729342
| 32> H 2.6873155756 3.1967057419 -0.3874734255
| 33> H 0.9633918603 3.5653562005 -0.2831688303
| 34> H 2.1219352481 4.4608877796 0.7187248694
| 35> H 0.210954347 -2.6229930374 -1.6916202621
| 36> H 0.0876717636 -0.8304224381 -1.7891947817
| 37> H -1.1074611806 -0.0718162248 3.5895457556
| 38> H -2.8051355702 -0.1247257422 3.0314189442
| 39> H -1.941041232 -2.3738217739 3.7860260532
| 40> H -2.4632445862 -2.3828982359 2.0965710547
| 41> H -0.7382562412 -2.3176637311 2.487537351
| 42> H -4.524723853 -1.4242869822 -0.4286752703
| 43> H -5.516296162 -0.1354817042 0.3190504432
| 44> H -4.6826297525 1.461359335 -1.4347595806
| 45> H -3.7530754502 0.1556927956 -2.1708182627
| 46> H -5.5217435253 0.0783171639 -2.1613125141
| 47> *
| 48>
| 49>                          ****END OF INPUT****

CARTESIAN COORDINATES (ANGSTROEM)
---------------------------------
  C      4.552972   -1.730849   -0.520827
  C      4.607249   -0.241111   -0.251247
  O      3.459882    0.216769    0.484123
  P      2.007219    0.300932   -0.163757
  S      2.026728    0.810927   -2.062956
  O      1.265495    1.195070    0.912097
  C      1.729558    2.471421    1.397223
  C      1.886679    3.492142    0.289606
  S      1.126063   -1.561359    0.255770
  C     -0.028087   -1.711207   -1.150385
  S     -1.743630   -1.880747   -0.629262
  P     -2.006476    0.065292    0.195705
  S     -1.334076    1.518477   -0.935036
  O     -1.323707    0.147395    1.614244
  C     -1.789373   -0.474342    2.838568
  C     -1.728574   -1.987285    2.794006
  O     -3.546150    0.081816    0.584001
  C     -4.622769   -0.346853   -0.271095
  C     -4.648565    0.386309   -1.595428
  H      4.378300   -2.276506    0.402860
  H      3.746789   -1.951896   -1.218626
  H      5.493582   -2.049657   -0.958078
  H      4.659605    0.317194   -1.191573
  H      5.450417    0.023751    0.388168
  H      0.950211    2.769125    2.101369
  H      2.673237    2.312452    1.924773
  H      2.687316    3.196706   -0.387473
  H      0.963392    3.565356   -0.283169
  H      2.121935    4.460888    0.718725
  H      0.210954   -2.622993   -1.691620
  H      0.087672   -0.830422   -1.789195
  H     -1.107461   -0.071816    3.589546
  H     -2.805136   -0.124726    3.031419
  H     -1.941041   -2.373822    3.786026
  H     -2.463245   -2.382898    2.096571
  H     -0.738256   -2.317664    2.487537
  H     -4.524724   -1.424287   -0.428675
  H     -5.516296   -0.135482    0.319050
  H     -4.682630    1.461359   -1.434760
  H     -3.753075    0.155693   -2.170818
  H     -5.521744    0.078317   -2.161313

 Total Charge           Charge          ....    0
 Multiplicity           Mult            ....    1
 Number of Electrons    NEL             ....  202
 Basis Dimension        Dim             ....  334

ORBITAL ENERGIES
----------------

  NO   OCC          E(Eh)            E(eV)
   0   2.0000     -88.042097     -2395.7473
   1   2.0000     -88.038497     -2395.6493
   2   2.0000     -87.979182     -2394.0353
   3   2.0000     -87.972564     -2393.8552
   4   2.0000     -76.421767     -2079.5420
   5   2.0000     -76.420299     -2079.5021
   6   2.0000     -18.794575      -511.4264
   7   2.0000     -18.789592      -511.2908
   8   2.0000     -18.783178      -511.1163
   9   2.0000     -18.776513      -510.9349
  10   2.0000      -9.959458      -271.0106
  11   2.0000      -9.952500      -270.8213
  12   2.0000      -9.951943      -270.8061
  13   2.0000      -9.947786      -270.6930
  14   2.0000      -9.944086      -270.5923
  15   2.0000      -9.883169      -268.9347
  16   2.0000      -9.881316      -268.8843
  17   2.0000      -9.880658      -268.8664
  18   2.0000      -9.870569      -268.5918
  19   2.0000      -7.687076      -209.1760
  20   2.0000      -7.683589      -209.0811
  21   2.0000      -7.624104      -207.4624
  22   2.0000      -7.617608      -207.2856
  23   2.0000      -6.418647      -174.6603
  24   2.0000      -6.417459      -174.6279
  25   2.0000      -5.714856      -155.5091
  26   2.0000      -5.711460      -155.4167
  27   2.0000      -5.711444      -155.4163
  28   2.0000      -5.708136      -155.3263
  29   2.0000      -5.704300      -155.2219
  30   2.0000      -5.700442      -155.1169
  31   2.0000      -5.652990      -153.8257
  32   2.0000      -5.646667      -153.6536
  33   2.0000      -5.644895      -153.6054
  34   2.0000      -5.644130      -153.5846
  35   2.0000      -5.638207      -153.4234
  36   2.0000      -5.637614      -153.4073
  37   2.0000      -4.641713      -126.3074
  38   2.0000      -4.640638      -126.2782
  39   2.0000      -4.640225      -126.2669
  40   2.0000      -4.638946      -126.2321
  41   2.0000      -4.638517      -126.2205
  42   2.0000      -4.638066      -126.2082
  43   2.0000      -0.985529       -26.8176
  44   2.0000      -0.980131       -26.6707
  45   2.0000      -0.940201       -25.5842
  46   2.0000      -0.934765       -25.4363
  47   2.0000      -0.760709       -20.6999
  48   2.0000      -0.717065       -19.5123
  49   2.0000      -0.706121       -19.2145
  50   2.0000      -0.689285       -18.7564
  51   2.0000      -0.682392       -18.5688
  52   2.0000      -0.671284       -18.2666
  53   2.0000      -0.647426       -17.6174
  54   2.0000      -0.629069       -17.1178
  55   2.0000      -0.592524       -16.1234
  56   2.0000      -0.584966       -15.9177
  57   2.0000      -0.578750       -15.7486
  58   2.0000      -0.569507       -15.4971
  59   2.0000      -0.558700       -15.2030
  60   2.0000      -0.496672       -13.5151
  61   2.0000      -0.489361       -13.3162
  62   2.0000      -0.468556       -12.7500
  63   2.0000      -0.462534       -12.5862
  64   2.0000      -0.450375       -12.2553
  65   2.0000      -0.447134       -12.1671
  66   2.0000      -0.434604       -11.8262
  67   2.0000      -0.430330       -11.7099
  68   2.0000      -0.426149       -11.5961
  69   2.0000      -0.412360       -11.2209
  70   2.0000      -0.408586       -11.1182
  71   2.0000      -0.403433       -10.9780
  72   2.0000      -0.401535       -10.9263
  73   2.0000      -0.385067       -10.4782
  74   2.0000      -0.380931       -10.3656
  75   2.0000      -0.364991        -9.9319
  76   2.0000      -0.352010        -9.5787
  77   2.0000      -0.351477        -9.5642
  78   2.0000      -0.349113        -9.4998
  79   2.0000      -0.344569        -9.3762
  80   2.0000      -0.341151        -9.2832
  81   2.0000      -0.337742        -9.1904
  82   2.0000      -0.337188        -9.1754
  83   2.0000      -0.334007        -9.0888
  84   2.0000      -0.325427        -8.8553
  85   2.0000      -0.321016        -8.7353
  86   2.0000      -0.309154        -8.4125
  87   2.0000      -0.296045        -8.0558
  88   2.0000      -0.290891        -7.9156
  89   2.0000      -0.290367        -7.9013
  90   2.0000      -0.274682        -7.4745
  91   2.0000      -0.271663        -7.3923
  92   2.0000      -0.268806        -7.3146
  93   2.0000      -0.257989        -7.0202
  94   2.0000      -0.254229        -6.9179
  95   2.0000      -0.231931        -6.3112
  96   2.0000      -0.217587        -5.9208
  97   2.0000      -0.208577        -5.6757
  98   2.0000      -0.194230        -5.2853
  99   2.0000      -0.184137        -5.0106
 100   2.0000      -0.179017        -4.8713
 101   0.0000      -0.040357        -1.0982
 102   0.0000      -0.029656        -0.8070
 103   0.0000      -0.008647        -0.2353
 104   0.0000       0.013666         0.3719
 105   0.0000       0.018242         0.4964

MULLIKEN ATOMIC CHARGES
-----------------------
   0 C :   -0.307795
   1 C :   -0.003476
   2 O :   -0.383464
   3 P :    0.627818
   4 S :   -0.314742
   5 O :   -0.350005
   6 C :    0.008917
   7 C :   -0.322377
   8 S :   -0.095190
   9 C :   -0.348890
  10 S :   -0.127720
  11 P :    0.600236
  12 S :   -0.291868
  13 O :   -0.344263
  14 C :    0.006088
  15 C :   -0.319615
  16 O :   -0.384085
  17 C :   -0.015883
  18 C :   -0.305753
  19 H :    0.114444
  20 H :    0.120456
  21 H :    0.110601
  22 H :    0.109633
  23 H :    0.100700
  24 H :    0.103430
  25 H :    0.100690
  26 H :    0.121516
  27 H :    0.137950
  28 H :    0.103931
  29 H :    0.179783
  30 H :    0.212297
  31 H :    0.105746
  32 H :    0.106638
  33 H :    0.108762
  34 H :    0.117891
  35 H :    0.130429
  36 H :    0.113998
  37 H :    0.108164
  38 H :    0.126069
  39 H :    0.129261
  40 H :    0.109678
Sum of atomic charges:   -0.0000000

LOEWDIN ATOMIC CHARGES
----------------------
   0 C :   -0.368322
   1 C :   -0.121959
   2 O :   -0.248887
   3 P :    0.572878
   4 S :   -0.302876
   5 O :   -0.229954
   6 C :   -0.108149
   7 C :   -0.370026
   8 S :    0.087652
   9 C :   -0.478944
  10 S :    0.066855
  11 P :    0.561902
  12 S :   -0.295472
  13 O :   -0.228295
  14 C :   -0.108305
  15 C :   -0.371736
  16 O :   -0.247846
  17 C :   -0.115209
  18 C :   -0.368955
  19 H :    0.123339
  20 H :    0.119678
  21 H :    0.129648
  22 H :    0.108730
  23 H :    0.116144
  24 H :    0.119705
  25 H :    0.108709
  26 H :    0.118890
  27 H :    0.131459
  28 H :    0.126118
  29 H :    0.135954
  30 H :    0.126517
  31 H :    0.120689
  32 H :    0.112428
  33 H :    0.128775
  34 H :    0.115167
  35 H :    0.122993
  36 H :    0.106974
  37 H :    0.120557
  38 H :    0.130743
  39 H :    0.123050
  40 H :    0.129384

  Mayer bond orders larger than 0.100000
B(  0-C ,  1-C ) :   1.1672 B(  0-C , 19-H ) :   0.9454 B(  0-C , 20-H ) :   0.9365
B(  0-C , 21-H ) :   0.9385 B(  1-C ,  2-O ) :   0.9127 B(  1-C , 22-H ) :   0.9112
B(  1-C , 23-H ) :   0.9332 B(  2-O ,  3-P ) :   1.0805 B(  3-P ,  4-S ) :   1.5965
B(  3-P ,  5-O ) :   1.1441 B(  3-P ,  8-S ) :   0.9620 B(  4-S ,  8-S ) :   0.1185
B(  5-O ,  6-C ) :   0.9099 B(  6-C ,  7-C ) :   1.1660 B(  6-C , 24-H ) :   0.9327
B(  6-C , 25-H ) :   0.9315 B(  7-C , 26-H ) :   0.9364 B(  7-C , 27-H ) :   0.9394
B(  7-C , 28-H ) :   0.9361 B(  8-S ,  9-C ) :   0.9991 B(  9-C , 10-S ) :   1.0079
B(  9-C , 29-H ) :   0.9114 B(  9-C , 30-H ) :   0.8427 B( 10-S , 11-P ) :   0.9239
B( 10-S , 12-S ) :   0.1071 B( 11-P , 12-S ) :   1.6681 B( 11-P , 13-O ) :   1.1376
B( 11-P , 16-O ) :   1.0719 B( 13-O , 14-C ) :   0.9030 B( 14-C , 15-C ) :   1.1695
B( 14-C , 31-H ) :   0.9343 B( 14-C , 32-H ) :   0.9280 B( 15-C , 33-H ) :   0.9357
B( 15-C , 34-H ) :   0.9401 B( 15-C , 35-H ) :   0.9371 B( 16-O , 17-C ) :   0.9147
B( 17-C , 18-C ) :   1.1671 B( 17-C , 36-H ) :   0.9251 B( 17-C , 37-H ) :   0.9336
B( 18-C , 38-H ) :   0.9433 B( 18-C , 39-H ) :   0.9310 B( 18-C , 40-H ) :   0.9347

Dispersion correction           -0.068941037
FINAL SINGLE POINT ENERGY     -2929.510140955991

DIPOLE MOMENT
-------------

Method             : SCF
Type of density    : Electron Density
Multiplicity       :   1
Irrep              :   0
Energy             : -2929.6270930565824528 Eh
Relativity type    :
Basis              : AO
                                X                 Y                 Z
Electronic contribution:     -0.621839780      -0.328583756      -5.593952564
Nuclear contribution   :      0.341960310      -0.478352274       6.812147538
                        -----------------------------------------
Total Dipole Moment    :     -0.279879470      -0.806936030       1.218194974
                        -----------------------------------------
Magnitude (a.u.)       :      1.487775948
Magnitude (Debye)      :      3.781625928

Rotational constants in cm-1:             0.012741             0.005498             0.005193
Rotational constants in MHz :           381.967187           164.814037           155.682455

                             ****ORCA TERMINATED NORMALLY****
TOTAL RUN TIME: 0 days 0 hours 0 minutes 21 seconds 749 msec
