                         Program Version 6.0.0  -   RELEASE  -
|  1> ! pbe def2-sv(p) def2/J RI DEFGRID1 loosescf d4 GCP(DFT/SV(P)) printgap
|  2> %output
|  3>     printlevel normal
|  4> end
|  5> * xyz 0 1
|  6> C 2.347761272 2.0377168778 2.7526697129
|  7> C 1.3708587289 1.7535184147 1.6304911947
|  8> O 0.8829073826 0.3912462625 1.6983842977
|  9> P 1.4940633806 -0.7782322298 0.8381164158
| 10> S 0.7394601296 -2.5399525131 1.235409826
| 11> O 3.0405895712 -0.6472089194 1.2060438367
| 12> C 4.0165851016 -1.6366076579 0.8322750432
| 13> C 4.7678762104 -1.2296908843 -0.420806908
| 14> S 1.4428885872 -0.1699948822 -1.2055179469
| 15> C 0.2263995852 -1.3351854432 -1.8587031021
| 16> S -1.3200562371 -0.5704955045 -2.4417901651
| 17> P -2.0009248102 0.4325181918 -0.7150124039
| 18> S -3.8819773386 0.9671703911 -0.7652919139
| 19> O -0.9853908809 1.6300398135 -0.4286772674
| 20> C -1.1403142668 2.9203893058 -1.0465522492
| 21> C -0.741141879 2.9004473176 -2.5088400249
| 22> O -1.5601268009 -0.5902434922 0.420104617
| 23> C -2.3930007408 -0.8350662694 1.5722101977
| 24> C -2.3324885091 0.3099059039 2.5597527742
| 25> H 3.2340578752 1.4183051284 2.6487006249
| 26> H 2.6342279247 3.0841225026 2.7140679255
| 27> H 1.884861958 1.8286563302 3.7133277705
| 28> H 1.8299933952 1.9162555351 0.6516268011
| 29> H 0.4726488614 2.3676107999 1.7206180522
| 30> H 4.6893059434 -1.6968173091 1.6901764122
| 31> H 3.5132984657 -2.6006082028 0.7050989473
| 32> H 5.2197780782 -0.2517144687 -0.2822833507
| 33> H 5.5479236842 -1.9590070202 -0.6142707662
| 34> H 4.0997705447 -1.1879632943 -1.2769198903
| 35> H 0.0079434565 -2.0800722655 -1.0893994995
| 36> H 0.6486001386 -1.7984214109 -2.7472869137
| 37> H -2.183243875 3.2339573993 -0.9322362503
| 38> H -0.4893848411 3.573971787 -0.4638435914
| 39> H 0.2555320189 2.4800692366 -2.622167251
| 40> H -1.4441299438 2.2978547059 -3.0826077313
| 41> H -0.7505357075 3.9146312672 -2.8948904506
| 42> H -3.4192739739 -0.9964155881 1.2283054628
| 43> H -1.9923396255 -1.7588681451 1.9939550736
| 44> H -2.9403151577 0.0661279648 3.4253187989
| 45> H -1.305421995 0.4774059775 2.8723480922
| 46> H -2.7200782929 1.2157563136 2.0948633062
| 47> *
| 48>
| 49>                          ****END OF INPUT****

CARTESIAN COORDINATES (ANGSTROEM)
---------------------------------
  C      2.347761    2.037717    2.752670
  C      1.370859    1.753518    1.630491
  O      0.882907    0.391246    1.698384
  P      1.494063   -0.778232    0.838116
  S      0.739460   -2.539953    1.235410
  O      3.040590   -0.647209    1.206044
  C      4.016585   -1.636608    0.832275
  C      4.767876   -1.229691   -0.420807
  S      1.442889   -0.169995   -1.205518
  C      0.226400   -1.335185   -1.858703
  S     -1.320056   -0.570496   -2.441790
  P     -2.000925    0.432518   -0.715012
  S     -3.881977    0.967170   -0.765292
  O     -0.985391    1.630040   -0.428677
  C     -1.140314    2.920389   -1.046552
  C     -0.741142    2.900447   -2.508840
  O     -1.560127   -0.590243    0.420105
  C     -2.393001   -0.835066    1.572210
  C     -2.332489    0.309906    2.559753
  H      3.234058    1.418305    2.648701
  H      2.634228    3.084123    2.714068
  H      1.884862    1.828656    3.713328
  H      1.829993    1.916256    0.651627
  H      0.472649    2.367611    1.720618
  H      4.689306   -1.696817    1.690176
  H      3.513298   -2.600608    0.705099
  H      5.219778   -0.251714   -0.282283
  H      5.547924   -1.959007   -0.614271
  H      4.099771   -1.187963   -1.276920
  H      0.007943   -2.080072   -1.089399
  H      0.648600   -1.798421   -2.747287
  H     -2.183244    3.233957   -0.932236
  H     -0.489385    3.573972   -0.463844
  H      0.255532    2.480069   -2.622167
  H     -1.444130    2.297855   -3.082608
  H     -0.750536    3.914631   -2.894890
  H     -3.419274   -0.996416    1.228305
  H     -1.992340   -1.758868    1.993955
  H     -2.940315    0.066128    3.425319
  H     -1.305422    0.477406    2.872348
  H     -2.720078    1.215756    2.094863

 Total Charge           Charge          ....    0
 Multiplicity           Mult            ....    1
 Number of Electrons    NEL             ....  202
 Basis Dimension        Dim             ....  334

ORBITAL ENERGIES
----------------

  NO   OCC          E(Eh)            E(eV)
   0   2.0000     -88.049130     -2395.9386
   1   2.0000     -88.040737     -2395.7102
   2   2.0000     -87.991810     -2394.3789
   3   2.0000     -87.986740     -2394.2409
   4   2.0000     -76.432397     -2079.8313
   5   2.0000     -76.424013     -2079.6031
   6   2.0000     -18.798644      -511.5371
   7   2.0000     -18.797613      -511.5090
   8   2.0000     -18.789516      -511.2887
   9   2.0000     -18.786167      -511.1976
  10   2.0000      -9.961271      -271.0600
  11   2.0000      -9.956929      -270.9418
  12   2.0000      -9.956398      -270.9274
  13   2.0000      -9.952272      -270.8151
  14   2.0000      -9.940453      -270.4935
  15   2.0000      -9.890283      -269.1283
  16   2.0000      -9.888562      -269.0815
  17   2.0000      -9.883333      -268.9392
  18   2.0000      -9.872240      -268.6373
  19   2.0000      -7.693654      -209.3550
  20   2.0000      -7.686159      -209.1510
  21   2.0000      -7.636823      -207.8085
  22   2.0000      -7.631899      -207.6745
  23   2.0000      -6.429795      -174.9636
  24   2.0000      -6.421851      -174.7475
  25   2.0000      -5.721494      -155.6898
  26   2.0000      -5.718135      -155.5984
  27   2.0000      -5.714471      -155.4987
  28   2.0000      -5.710676      -155.3954
  29   2.0000      -5.710284      -155.3847
  30   2.0000      -5.703024      -155.1872
  31   2.0000      -5.665867      -154.1761
  32   2.0000      -5.660840      -154.0393
  33   2.0000      -5.657356      -153.9445
  34   2.0000      -5.656859      -153.9310
  35   2.0000      -5.652610      -153.8153
  36   2.0000      -5.651937      -153.7970
  37   2.0000      -4.652531      -126.6018
  38   2.0000      -4.651485      -126.5733
  39   2.0000      -4.650193      -126.5382
  40   2.0000      -4.644128      -126.3731
  41   2.0000      -4.643818      -126.3647
  42   2.0000      -4.642349      -126.3247
  43   2.0000      -0.994527       -27.0625
  44   2.0000      -0.982552       -26.7366
  45   2.0000      -0.949661       -25.8416
  46   2.0000      -0.941737       -25.6260
  47   2.0000      -0.763731       -20.7822
  48   2.0000      -0.723557       -19.6890
  49   2.0000      -0.709023       -19.2935
  50   2.0000      -0.694974       -18.9112
  51   2.0000      -0.683853       -18.6086
  52   2.0000      -0.674656       -18.3583
  53   2.0000      -0.654201       -17.8017
  54   2.0000      -0.640506       -17.4290
  55   2.0000      -0.600512       -16.3408
  56   2.0000      -0.594541       -16.1783
  57   2.0000      -0.578749       -15.7486
  58   2.0000      -0.565184       -15.3795
  59   2.0000      -0.563742       -15.3402
  60   2.0000      -0.508903       -13.8479
  61   2.0000      -0.490421       -13.3450
  62   2.0000      -0.484772       -13.1913
  63   2.0000      -0.469313       -12.7706
  64   2.0000      -0.456170       -12.4130
  65   2.0000      -0.449909       -12.2427
  66   2.0000      -0.444663       -12.0999
  67   2.0000      -0.439493       -11.9592
  68   2.0000      -0.429023       -11.6743
  69   2.0000      -0.416054       -11.3214
  70   2.0000      -0.409067       -11.1313
  71   2.0000      -0.396312       -10.7842
  72   2.0000      -0.395246       -10.7552
  73   2.0000      -0.390991       -10.6394
  74   2.0000      -0.383750       -10.4424
  75   2.0000      -0.372465       -10.1353
  76   2.0000      -0.366058        -9.9609
  77   2.0000      -0.362602        -9.8669
  78   2.0000      -0.358772        -9.7627
  79   2.0000      -0.353596        -9.6218
  80   2.0000      -0.351088        -9.5536
  81   2.0000      -0.343662        -9.3515
  82   2.0000      -0.339299        -9.2328
  83   2.0000      -0.336856        -9.1663
  84   2.0000      -0.326526        -8.8852
  85   2.0000      -0.321765        -8.7557
  86   2.0000      -0.318205        -8.6588
  87   2.0000      -0.302615        -8.2346
  88   2.0000      -0.297571        -8.0973
  89   2.0000      -0.295290        -8.0352
  90   2.0000      -0.284512        -7.7420
  91   2.0000      -0.275820        -7.5054
  92   2.0000      -0.269279        -7.3275
  93   2.0000      -0.264344        -7.1932
  94   2.0000      -0.260161        -7.0793
  95   2.0000      -0.229620        -6.2483
  96   2.0000      -0.224227        -6.1015
  97   2.0000      -0.213042        -5.7972
  98   2.0000      -0.207753        -5.6533
  99   2.0000      -0.202726        -5.5164
 100   2.0000      -0.198732        -5.4078
 101   0.0000      -0.042184        -1.1479
 102   0.0000      -0.033066        -0.8998
 103   0.0000      -0.020908        -0.5689
 104   0.0000       0.000634         0.0172
 105   0.0000       0.009354         0.2545

MULLIKEN ATOMIC CHARGES
-----------------------
   0 C :   -0.280585
   1 C :   -0.026304
   2 O :   -0.354296
   3 P :    0.622104
   4 S :   -0.296308
   5 O :   -0.383402
   6 C :   -0.004203
   7 C :   -0.299349
   8 S :   -0.113346
   9 C :   -0.341687
  10 S :   -0.089102
  11 P :    0.622038
  12 S :   -0.321851
  13 O :   -0.367622
  14 C :   -0.010485
  15 C :   -0.311054
  16 O :   -0.377724
  17 C :   -0.004773
  18 C :   -0.318497
  19 H :    0.122504
  20 H :    0.108615
  21 H :    0.119385
  22 H :    0.105930
  23 H :    0.121367
  24 H :    0.107870
  25 H :    0.103759
  26 H :    0.110576
  27 H :    0.111517
  28 H :    0.122634
  29 H :    0.204608
  30 H :    0.179839
  31 H :    0.111711
  32 H :    0.096864
  33 H :    0.117349
  34 H :    0.126765
  35 H :    0.110321
  36 H :    0.110837
  37 H :    0.112887
  38 H :    0.106996
  39 H :    0.131055
  40 H :    0.113057
Sum of atomic charges:   -0.0000000

LOEWDIN ATOMIC CHARGES
----------------------
   0 C :   -0.359296
   1 C :   -0.114333
   2 O :   -0.223782
   3 P :    0.580237
   4 S :   -0.283704
   5 O :   -0.249996
   6 C :   -0.119300
   7 C :   -0.365755
   8 S :    0.081864
   9 C :   -0.482399
  10 S :    0.085001
  11 P :    0.568284
  12 S :   -0.315157
  13 O :   -0.242834
  14 C :   -0.121590
  15 C :   -0.368728
  16 O :   -0.241675
  17 C :   -0.119449
  18 C :   -0.369460
  19 H :    0.126373
  20 H :    0.129453
  21 H :    0.128937
  22 H :    0.104753
  23 H :    0.120499
  24 H :    0.119587
  25 H :    0.107086
  26 H :    0.124023
  27 H :    0.130693
  28 H :    0.117476
  29 H :    0.125392
  30 H :    0.138661
  31 H :    0.109259
  32 H :    0.111774
  33 H :    0.121192
  34 H :    0.121211
  35 H :    0.129282
  36 H :    0.109112
  37 H :    0.115202
  38 H :    0.128909
  39 H :    0.125586
  40 H :    0.117610

  Mayer bond orders larger than 0.100000
B(  0-C ,  1-C ) :   1.1604 B(  0-C , 19-H ) :   0.9388 B(  0-C , 20-H ) :   0.9396
B(  0-C , 21-H ) :   0.9472 B(  1-C ,  2-O ) :   0.8808 B(  1-C , 22-H ) :   0.9169
B(  1-C , 23-H ) :   0.9259 B(  2-O ,  3-P ) :   1.1319 B(  3-P ,  4-S ) :   1.6234
B(  3-P ,  5-O ) :   1.0741 B(  3-P ,  8-S ) :   0.9552 B(  4-S ,  8-S ) :   0.1151
B(  4-S , 29-H ) :   0.1141 B(  5-O ,  6-C ) :   0.9026 B(  6-C ,  7-C ) :   1.1660
B(  6-C , 24-H ) :   0.9357 B(  6-C , 25-H ) :   0.9047 B(  7-C , 26-H ) :   0.9489
B(  7-C , 27-H ) :   0.9396 B(  7-C , 28-H ) :   0.9337 B(  8-S ,  9-C ) :   1.0124
B(  9-C , 10-S ) :   0.9807 B(  9-C , 29-H ) :   0.8475 B(  9-C , 30-H ) :   0.9100
B( 10-S , 11-P ) :   0.9824 B( 11-P , 12-S ) :   1.6337 B( 11-P , 13-O ) :   1.0731
B( 11-P , 16-O ) :   1.1087 B( 13-O , 14-C ) :   0.9163 B( 14-C , 15-C ) :   1.1663
B( 14-C , 31-H ) :   0.9123 B( 14-C , 32-H ) :   0.9293 B( 15-C , 33-H ) :   0.9432
B( 15-C , 34-H ) :   0.9373 B( 15-C , 35-H ) :   0.9383 B( 16-O , 17-C ) :   0.8893
B( 17-C , 18-C ) :   1.1675 B( 17-C , 36-H ) :   0.9176 B( 17-C , 37-H ) :   0.9186
B( 18-C , 38-H ) :   0.9383 B( 18-C , 39-H ) :   0.9338 B( 18-C , 40-H ) :   0.9355

Dispersion correction           -0.069486419
FINAL SINGLE POINT ENERGY     -2929.518943803451

DIPOLE MOMENT
-------------

Method             : SCF
Type of density    : Electron Density
Multiplicity       :   1
Irrep              :   0
Energy             : -2929.6394926645948544 Eh
Relativity type    :
Basis              : AO
                                X                 Y                 Z
Electronic contribution:    -14.453309650     -12.251293386      -8.714249927
Nuclear contribution   :     16.315627323      13.094853284       8.892935333
                        -----------------------------------------
Total Dipole Moment    :      1.862317673       0.843559898       0.178685405
                        -----------------------------------------
Magnitude (a.u.)       :      2.052254587
Magnitude (Debye)      :      5.216416605

Rotational constants in cm-1:             0.011685             0.005922             0.005721
Rotational constants in MHz :           350.314717           177.551946           171.516589

                             ****ORCA TERMINATED NORMALLY****
TOTAL RUN TIME: 0 days 0 hours 0 minutes 22 seconds 894 msec
