                         Program Version 6.0.0  -   RELEASE  -
|  1> ! pbe def2-sv(p) def2/J RI DEFGRID1 loosescf d4 GCP(DFT/SV(P)) printgap
|  2> %output
|  3>     printlevel normal
|  4> end
|  5> * xyz 0 1
|  6> C 4.1419144282 1.5892270859 0.6063001437
|  7> C 2.6680763133 1.8554194936 0.8166847818
|  8> O 1.9425528168 0.6860486041 1.2768655959
|  9> P 1.8921097872 -0.7252897399 0.5893138986
| 10> S 0.3668866657 -1.7803541638 1.2243020049
| 11> O 3.31065803 -1.3444644487 0.9398141175
| 12> C 3.6368910949 -2.7100000382 0.6174797337
| 13> C 4.8535523359 -3.1011478801 1.431670169
| 14> S 2.016651075 -0.4367730242 -1.523222954
| 15> C 0.2548317158 -0.2784943449 -1.8579335406
| 16> S -0.4611287676 1.1274202719 -0.9447606859
| 17> P -2.4381109948 0.3708805361 -0.6715985607
| 18> S -2.6831265736 -1.5504544381 -0.9309851679
| 19> O -3.3097117302 1.1884590748 -1.6969082937
| 20> C -3.3322183871 2.6365683193 -1.7707360173
| 21> C -4.4818759468 3.2038786479 -0.9641022761
| 22> O -2.9105094328 0.9677373533 0.723729842
| 23> C -2.5126296599 0.4337453254 1.9999748318
| 24> C -1.4214927135 1.2820854319 2.6227278288
| 25> H 4.578711545 1.1644346611 1.5061194961
| 26> H 4.2880219374 0.895216733 -0.2189096407
| 27> H 4.638867617 2.5255280546 0.3718725935
| 28> H 2.1911325436 2.2037884793 -0.1040372069
| 29> H 2.4984360879 2.578243152 1.6158731946
| 30> H 2.7744729622 -3.3426413909 0.8547609953
| 31> H 3.8378200549 -2.769170957 -0.4557554442
| 32> H 5.1210276972 -4.1272414123 1.2017594984
| 33> H 5.6871273377 -2.4485027244 1.1900582282
| 34> H 4.6344484559 -3.0166997531 2.4923420083
| 35> H -0.270994311 -1.1871828449 -1.5496186866
| 36> H 0.1561976899 -0.1084099737 -2.9272829911
| 37> H -2.3706162447 3.0229460513 -1.4204552776
| 38> H -3.4508885912 2.8485932923 -2.8347528994
| 39> H -4.353262643 2.9766395659 0.090542791
| 40> H -4.5116002393 4.2805872059 -1.0990885391
| 41> H -5.4205407218 2.7733012106 -1.30185647
| 42> H -3.4213818518 0.4525479757 2.6046387078
| 43> H -2.1855969506 -0.603702073 1.8749468173
| 44> H -1.233644528 0.9263802729 3.6307398389
| 45> H -0.4993935948 1.2008920486 2.0511619526
| 46> H -1.7294854592 2.3231193295 2.6560296442
| 47> *
| 48>
| 49>                          ****END OF INPUT****

CARTESIAN COORDINATES (ANGSTROEM)
---------------------------------
  C      4.141914    1.589227    0.606300
  C      2.668076    1.855419    0.816685
  O      1.942553    0.686049    1.276866
  P      1.892110   -0.725290    0.589314
  S      0.366887   -1.780354    1.224302
  O      3.310658   -1.344464    0.939814
  C      3.636891   -2.710000    0.617480
  C      4.853552   -3.101148    1.431670
  S      2.016651   -0.436773   -1.523223
  C      0.254832   -0.278494   -1.857934
  S     -0.461129    1.127420   -0.944761
  P     -2.438111    0.370881   -0.671599
  S     -2.683127   -1.550454   -0.930985
  O     -3.309712    1.188459   -1.696908
  C     -3.332218    2.636568   -1.770736
  C     -4.481876    3.203879   -0.964102
  O     -2.910509    0.967737    0.723730
  C     -2.512630    0.433745    1.999975
  C     -1.421493    1.282085    2.622728
  H      4.578712    1.164435    1.506119
  H      4.288022    0.895217   -0.218910
  H      4.638868    2.525528    0.371873
  H      2.191133    2.203788   -0.104037
  H      2.498436    2.578243    1.615873
  H      2.774473   -3.342641    0.854761
  H      3.837820   -2.769171   -0.455755
  H      5.121028   -4.127241    1.201759
  H      5.687127   -2.448503    1.190058
  H      4.634448   -3.016700    2.492342
  H     -0.270994   -1.187183   -1.549619
  H      0.156198   -0.108410   -2.927283
  H     -2.370616    3.022946   -1.420455
  H     -3.450889    2.848593   -2.834753
  H     -4.353263    2.976640    0.090543
  H     -4.511600    4.280587   -1.099089
  H     -5.420541    2.773301   -1.301856
  H     -3.421382    0.452548    2.604639
  H     -2.185597   -0.603702    1.874947
  H     -1.233645    0.926380    3.630740
  H     -0.499394    1.200892    2.051162
  H     -1.729485    2.323119    2.656030

 Total Charge           Charge          ....    0
 Multiplicity           Mult            ....    1
 Number of Electrons    NEL             ....  202
 Basis Dimension        Dim             ....  334

ORBITAL ENERGIES
----------------

  NO   OCC          E(Eh)            E(eV)
   0   2.0000     -88.049033     -2395.9360
   1   2.0000     -88.040690     -2395.7090
   2   2.0000     -87.980349     -2394.0670
   3   2.0000     -87.978773     -2394.0241
   4   2.0000     -76.427410     -2079.6956
   5   2.0000     -76.421101     -2079.5239
   6   2.0000     -18.795644      -511.4555
   7   2.0000     -18.794760      -511.4314
   8   2.0000     -18.788770      -511.2684
   9   2.0000     -18.786898      -511.2175
  10   2.0000      -9.960207      -271.0310
  11   2.0000      -9.954726      -270.8819
  12   2.0000      -9.954206      -270.8677
  13   2.0000      -9.952687      -270.8264
  14   2.0000      -9.941913      -270.5332
  15   2.0000      -9.891865      -269.1713
  16   2.0000      -9.889850      -269.1165
  17   2.0000      -9.884359      -268.9671
  18   2.0000      -9.872243      -268.6374
  19   2.0000      -7.693807      -209.3591
  20   2.0000      -7.685032      -209.1203
  21   2.0000      -7.625254      -207.4937
  22   2.0000      -7.624113      -207.4626
  23   2.0000      -6.424541      -174.8207
  24   2.0000      -6.418739      -174.6628
  25   2.0000      -5.721635      -155.6936
  26   2.0000      -5.718145      -155.5986
  27   2.0000      -5.712844      -155.4544
  28   2.0000      -5.711099      -155.4069
  29   2.0000      -5.709640      -155.3672
  30   2.0000      -5.702088      -155.1617
  31   2.0000      -5.654279      -153.8607
  32   2.0000      -5.653196      -153.8313
  33   2.0000      -5.645711      -153.6276
  34   2.0000      -5.645454      -153.6206
  35   2.0000      -5.644558      -153.5962
  36   2.0000      -5.644215      -153.5869
  37   2.0000      -4.647287      -126.4591
  38   2.0000      -4.646577      -126.4398
  39   2.0000      -4.644613      -126.3864
  40   2.0000      -4.641510      -126.3019
  41   2.0000      -4.640489      -126.2741
  42   2.0000      -4.639017      -126.2341
  43   2.0000      -0.990477       -26.9522
  44   2.0000      -0.983477       -26.7618
  45   2.0000      -0.949248       -25.8303
  46   2.0000      -0.940243       -25.5853
  47   2.0000      -0.763206       -20.7679
  48   2.0000      -0.721843       -19.6423
  49   2.0000      -0.711987       -19.3741
  50   2.0000      -0.695713       -18.9313
  51   2.0000      -0.683961       -18.6115
  52   2.0000      -0.674166       -18.3450
  53   2.0000      -0.647007       -17.6060
  54   2.0000      -0.632040       -17.1987
  55   2.0000      -0.596394       -16.2287
  56   2.0000      -0.587536       -15.9877
  57   2.0000      -0.572952       -15.5908
  58   2.0000      -0.569672       -15.5016
  59   2.0000      -0.561359       -15.2753
  60   2.0000      -0.506813       -13.7911
  61   2.0000      -0.497866       -13.5476
  62   2.0000      -0.480253       -13.0684
  63   2.0000      -0.474661       -12.9162
  64   2.0000      -0.453025       -12.3274
  65   2.0000      -0.444945       -12.1076
  66   2.0000      -0.440829       -11.9956
  67   2.0000      -0.436999       -11.8914
  68   2.0000      -0.434071       -11.8117
  69   2.0000      -0.417363       -11.3570
  70   2.0000      -0.411598       -11.2001
  71   2.0000      -0.401476       -10.9247
  72   2.0000      -0.388178       -10.5629
  73   2.0000      -0.382664       -10.4128
  74   2.0000      -0.379849       -10.3362
  75   2.0000      -0.368477       -10.0268
  76   2.0000      -0.362937        -9.8760
  77   2.0000      -0.359287        -9.7767
  78   2.0000      -0.355408        -9.6712
  79   2.0000      -0.353021        -9.6062
  80   2.0000      -0.350689        -9.5427
  81   2.0000      -0.347234        -9.4487
  82   2.0000      -0.341080        -9.2813
  83   2.0000      -0.337436        -9.1821
  84   2.0000      -0.327789        -8.9196
  85   2.0000      -0.317470        -8.6388
  86   2.0000      -0.312817        -8.5122
  87   2.0000      -0.300363        -8.1733
  88   2.0000      -0.294603        -8.0166
  89   2.0000      -0.289706        -7.8833
  90   2.0000      -0.283785        -7.7222
  91   2.0000      -0.280474        -7.6321
  92   2.0000      -0.270435        -7.3589
  93   2.0000      -0.263324        -7.1654
  94   2.0000      -0.256726        -6.9859
  95   2.0000      -0.236728        -6.4417
  96   2.0000      -0.222428        -6.0526
  97   2.0000      -0.206965        -5.6318
  98   2.0000      -0.197787        -5.3820
  99   2.0000      -0.194643        -5.2965
 100   2.0000      -0.185910        -5.0589
 101   0.0000      -0.047235        -1.2853
 102   0.0000      -0.032696        -0.8897
 103   0.0000      -0.007936        -0.2160
 104   0.0000       0.009007         0.2451
 105   0.0000       0.017610         0.4792

MULLIKEN ATOMIC CHARGES
-----------------------
   0 C :   -0.305845
   1 C :   -0.001794
   2 O :   -0.351208
   3 P :    0.595349
   4 S :   -0.302152
   5 O :   -0.374349
   6 C :   -0.012162
   7 C :   -0.281269
   8 S :   -0.125723
   9 C :   -0.333823
  10 S :   -0.147076
  11 P :    0.616664
  12 S :   -0.291589
  13 O :   -0.356397
  14 C :   -0.013273
  15 C :   -0.289596
  16 O :   -0.383334
  17 C :   -0.009362
  18 C :   -0.313659
  19 H :    0.123967
  20 H :    0.119584
  21 H :    0.115080
  22 H :    0.112110
  23 H :    0.110470
  24 H :    0.109871
  25 H :    0.102167
  26 H :    0.113883
  27 H :    0.113967
  28 H :    0.122257
  29 H :    0.215224
  30 H :    0.180183
  31 H :    0.100538
  32 H :    0.108522
  33 H :    0.124057
  34 H :    0.107184
  35 H :    0.120245
  36 H :    0.101443
  37 H :    0.125597
  38 H :    0.108381
  39 H :    0.146936
  40 H :    0.098935
Sum of atomic charges:    0.0000000

LOEWDIN ATOMIC CHARGES
----------------------
   0 C :   -0.366405
   1 C :   -0.112905
   2 O :   -0.227612
   3 P :    0.564626
   4 S :   -0.298360
   5 O :   -0.245354
   6 C :   -0.121144
   7 C :   -0.350363
   8 S :    0.066396
   9 C :   -0.478356
  10 S :    0.055115
  11 P :    0.568047
  12 S :   -0.286424
  13 O :   -0.239399
  14 C :   -0.114649
  15 C :   -0.360190
  16 O :   -0.244222
  17 C :   -0.116913
  18 C :   -0.367352
  19 H :    0.129485
  20 H :    0.117460
  21 H :    0.132317
  22 H :    0.104932
  23 H :    0.122859
  24 H :    0.110909
  25 H :    0.108692
  26 H :    0.131827
  27 H :    0.125403
  28 H :    0.129854
  29 H :    0.124562
  30 H :    0.134442
  31 H :    0.101144
  32 H :    0.120670
  33 H :    0.126486
  34 H :    0.128147
  35 H :    0.129217
  36 H :    0.116206
  37 H :    0.110214
  38 H :    0.130840
  39 H :    0.122008
  40 H :    0.117791

  Mayer bond orders larger than 0.100000
B(  0-C ,  1-C ) :   1.1724 B(  0-C , 19-H ) :   0.9424 B(  0-C , 20-H ) :   0.9381
B(  0-C , 21-H ) :   0.9359 B(  1-C ,  2-O ) :   0.8928 B(  1-C , 22-H ) :   0.9153
B(  1-C , 23-H ) :   0.9336 B(  2-O ,  3-P ) :   1.1341 B(  3-P ,  4-S ) :   1.6535
B(  3-P ,  5-O ) :   1.0931 B(  3-P ,  8-S ) :   0.9302 B(  4-S ,  8-S ) :   0.1094
B(  5-O ,  6-C ) :   0.9017 B(  6-C ,  7-C ) :   1.1601 B(  6-C , 24-H ) :   0.9086
B(  6-C , 25-H ) :   0.9289 B(  7-C , 26-H ) :   0.9418 B(  7-C , 27-H ) :   0.9514
B(  7-C , 28-H ) :   0.9508 B(  8-S ,  9-C ) :   1.0056 B(  9-C , 10-S ) :   0.9902
B(  9-C , 29-H ) :   0.8428 B(  9-C , 30-H ) :   0.9094 B( 10-S , 11-P ) :   0.9293
B( 10-S , 12-S ) :   0.1161 B( 11-P , 12-S ) :   1.6691 B( 11-P , 13-O ) :   1.1360
B( 11-P , 16-O ) :   1.0964 B( 13-O , 14-C ) :   0.8994 B( 14-C , 15-C ) :   1.1629
B( 14-C , 31-H ) :   0.9125 B( 14-C , 32-H ) :   0.9368 B( 15-C , 33-H ) :   0.9407
B( 15-C , 34-H ) :   0.9396 B( 15-C , 35-H ) :   0.9469 B( 16-O , 17-C ) :   0.8907
B( 17-C , 18-C ) :   1.1725 B( 17-C , 36-H ) :   0.9349 B( 17-C , 37-H ) :   0.9012
B( 18-C , 38-H ) :   0.9401 B( 18-C , 39-H ) :   0.9253 B( 18-C , 40-H ) :   0.9472

Dispersion correction           -0.065369972
FINAL SINGLE POINT ENERGY     -2929.518044793486

DIPOLE MOMENT
-------------

Method             : SCF
Type of density    : Electron Density
Multiplicity       :   1
Irrep              :   0
Energy             : -2929.6378895715920407 Eh
Relativity type    :
Basis              : AO
                                X                 Y                 Z
Electronic contribution:     -9.414554918     -10.691622286      -9.724485535
Nuclear contribution   :     10.776846323      12.206843172       9.751531322
                        -----------------------------------------
Total Dipole Moment    :      1.362291405       1.515220886       0.027045788
                        -----------------------------------------
Magnitude (a.u.)       :      2.037759476
Magnitude (Debye)      :      5.179572960

Rotational constants in cm-1:             0.013796             0.004664             0.004476
Rotational constants in MHz :           413.592825           139.827570           134.185754

                             ****ORCA TERMINATED NORMALLY****
TOTAL RUN TIME: 0 days 0 hours 0 minutes 21 seconds 143 msec
