                         Program Version 6.0.0  -   RELEASE  -
|  1> ! r2scan-3c def2/J RI DEFGRID2 scfconv6 printgap
|  2> %output
|  3>     printlevel normal
|  4> end
|  5> * xyz 0 1
|  6> C 5.2190531473 -2.5206354002 -1.0031032779
|  7> C 4.1846387793 -1.4642648504 -1.3355072112
|  8> O 3.2331426558 -1.4212551869 -0.2533761785
|  9> P 2.2696176371 -0.1800175621 -0.03864408
| 10> S 3.1399898958 1.5824151551 -0.0703557531
| 11> O 1.5235815786 -0.5698989499 1.2985363949
| 12> C 1.9556529966 -0.0809105689 2.5865455721
| 13> C 3.2766707829 -0.6960577093 2.9953995054
| 14> S 0.7485160006 -0.4802050283 -1.475648774
| 15> C -0.0051507581 1.1592183428 -1.2895191352
| 16> S -0.9378755856 1.3384526754 0.2447555614
| 17> P -2.811155855 0.5234326547 -0.4032562695
| 18> S -3.0425283149 0.5124442066 -2.347888722
| 19> O -3.9047180435 1.3892139657 0.3210310489
| 20> C -4.2990328234 1.2638447493 1.7115296022
| 21> C -3.1460146577 1.4910753286 2.6646951315
| 22> O -2.9966427318 -0.8906428146 0.3058158118
| 23> C -2.3683904886 -2.1018429246 -0.1552082399
| 24> C -1.3299901377 -2.5664590152 0.8468689269
| 25> H 5.7501000583 -2.2535356613 -0.0939482326
| 26> H 4.7323982853 -3.4805688129 -0.8582189079
| 27> H 5.9269826139 -2.5955679434 -1.8219464865
| 28> H 3.6455818763 -1.7080522466 -2.2550270465
| 29> H 4.6402505163 -0.4736454038 -1.4406054764
| 30> H 2.0306986309 1.0097825103 2.5359115317
| 31> H 1.1466707649 -0.3652133792 3.2600978507
| 32> H 4.0599162377 -0.3705233296 2.3116212267
| 33> H 3.529909499 -0.3744972286 4.0007048801
| 34> H 3.2116974253 -1.780313805 2.9646519154
| 35> H -0.6773041115 1.2976871086 -2.1379867713
| 36> H 0.7833471466 1.9121056506 -1.2756049256
| 37> H -5.0687522427 2.029455822 1.8187640658
| 38> H -4.7349520575 0.2731397208 1.8518779137
| 39> H -2.3966080948 0.711511495 2.5406257368
| 40> H -2.6796901745 2.4549565259 2.476296543
| 41> H -3.5175829398 1.4657398146 3.6844184408
| 42> H -3.1780151136 -2.8288749321 -0.2481689988
| 43> H -1.9276925071 -1.9315724473 -1.1429912404
| 44> H -1.7897206706 -2.7050397572 1.8212761357
| 45> H -0.9109123567 -3.5087873548 0.5093493214
| 46> H -0.5264976189 -1.839178721 0.935265667
| 47> *
| 48>
| 49>                          ****END OF INPUT****

CARTESIAN COORDINATES (ANGSTROEM)
---------------------------------
  C      5.219053   -2.520635   -1.003103
  C      4.184639   -1.464265   -1.335507
  O      3.233143   -1.421255   -0.253376
  P      2.269618   -0.180018   -0.038644
  S      3.139990    1.582415   -0.070356
  O      1.523582   -0.569899    1.298536
  C      1.955653   -0.080911    2.586546
  C      3.276671   -0.696058    2.995400
  S      0.748516   -0.480205   -1.475649
  C     -0.005151    1.159218   -1.289519
  S     -0.937876    1.338453    0.244756
  P     -2.811156    0.523433   -0.403256
  S     -3.042528    0.512444   -2.347889
  O     -3.904718    1.389214    0.321031
  C     -4.299033    1.263845    1.711530
  C     -3.146015    1.491075    2.664695
  O     -2.996643   -0.890643    0.305816
  C     -2.368390   -2.101843   -0.155208
  C     -1.329990   -2.566459    0.846869
  H      5.750100   -2.253536   -0.093948
  H      4.732398   -3.480569   -0.858219
  H      5.926983   -2.595568   -1.821946
  H      3.645582   -1.708052   -2.255027
  H      4.640251   -0.473645   -1.440605
  H      2.030699    1.009783    2.535912
  H      1.146671   -0.365213    3.260098
  H      4.059916   -0.370523    2.311621
  H      3.529909   -0.374497    4.000705
  H      3.211697   -1.780314    2.964652
  H     -0.677304    1.297687   -2.137987
  H      0.783347    1.912106   -1.275605
  H     -5.068752    2.029456    1.818764
  H     -4.734952    0.273140    1.851878
  H     -2.396608    0.711511    2.540626
  H     -2.679690    2.454957    2.476297
  H     -3.517583    1.465740    3.684418
  H     -3.178015   -2.828875   -0.248169
  H     -1.927693   -1.931572   -1.142991
  H     -1.789721   -2.705040    1.821276
  H     -0.910912   -3.508787    0.509349
  H     -0.526498   -1.839179    0.935266

 Total Charge           Charge          ....    0
 Multiplicity           Mult            ....    1
 Number of Electrons    NEL             ....  202
 Basis Dimension        Dim             ....  539

ORBITAL ENERGIES
----------------

  NO   OCC          E(Eh)            E(eV)
   0   2.0000     -88.576879     -2410.2994
   1   2.0000     -88.572525     -2410.1809
   2   2.0000     -88.524550     -2408.8755
   3   2.0000     -88.517883     -2408.6941
   4   2.0000     -76.917626     -2093.0350
   5   2.0000     -76.914360     -2092.9461
   6   2.0000     -18.998258      -516.9689
   7   2.0000     -18.996473      -516.9203
   8   2.0000     -18.993194      -516.8311
   9   2.0000     -18.990673      -516.7625
  10   2.0000     -10.107161      -275.0298
  11   2.0000     -10.103423      -274.9281
  12   2.0000     -10.102580      -274.9052
  13   2.0000     -10.099175      -274.8125
  14   2.0000     -10.096331      -274.7351
  15   2.0000     -10.038830      -273.1704
  16   2.0000     -10.037395      -273.1314
  17   2.0000     -10.033130      -273.0153
  18   2.0000     -10.024064      -272.7687
  19   2.0000      -7.871160      -214.1852
  20   2.0000      -7.866709      -214.0640
  21   2.0000      -7.819252      -212.7727
  22   2.0000      -7.812706      -212.5945
  23   2.0000      -6.596372      -179.4964
  24   2.0000      -6.592562      -179.3927
  25   2.0000      -5.817911      -158.3134
  26   2.0000      -5.815057      -158.2357
  27   2.0000      -5.813673      -158.1981
  28   2.0000      -5.810472      -158.1110
  29   2.0000      -5.808387      -158.0543
  30   2.0000      -5.803860      -157.9311
  31   2.0000      -5.766810      -156.9229
  32   2.0000      -5.760383      -156.7480
  33   2.0000      -5.759555      -156.7255
  34   2.0000      -5.759331      -156.7194
  35   2.0000      -5.752968      -156.5462
  36   2.0000      -5.752681      -156.5384
  37   2.0000      -4.741765      -129.0300
  38   2.0000      -4.741337      -129.0183
  39   2.0000      -4.740113      -128.9850
  40   2.0000      -4.738481      -128.9406
  41   2.0000      -4.737258      -128.9073
  42   2.0000      -4.736159      -128.8774
  43   2.0000      -1.056319       -28.7439
  44   2.0000      -1.051729       -28.6190
  45   2.0000      -1.017757       -27.6946
  46   2.0000      -1.009254       -27.4632
  47   2.0000      -0.800391       -21.7797
  48   2.0000      -0.762880       -20.7590
  49   2.0000      -0.754577       -20.5331
  50   2.0000      -0.737993       -20.0818
  51   2.0000      -0.735406       -20.0114
  52   2.0000      -0.712633       -19.3917
  53   2.0000      -0.685744       -18.6600
  54   2.0000      -0.667413       -18.1612
  55   2.0000      -0.634990       -17.2789
  56   2.0000      -0.627648       -17.0792
  57   2.0000      -0.609514       -16.5857
  58   2.0000      -0.604613       -16.4524
  59   2.0000      -0.590291       -16.0626
  60   2.0000      -0.533464       -14.5163
  61   2.0000      -0.524488       -14.2720
  62   2.0000      -0.502731       -13.6800
  63   2.0000      -0.495621       -13.4865
  64   2.0000      -0.478148       -13.0111
  65   2.0000      -0.468648       -12.7526
  66   2.0000      -0.461992       -12.5714
  67   2.0000      -0.457337       -12.4448
  68   2.0000      -0.444641       -12.0993
  69   2.0000      -0.443714       -12.0741
  70   2.0000      -0.428185       -11.6515
  71   2.0000      -0.418478       -11.3874
  72   2.0000      -0.405965       -11.0469
  73   2.0000      -0.402331       -10.9480
  74   2.0000      -0.400257       -10.8915
  75   2.0000      -0.391532       -10.6541
  76   2.0000      -0.383939       -10.4475
  77   2.0000      -0.377795       -10.2803
  78   2.0000      -0.376102       -10.2343
  79   2.0000      -0.367267        -9.9938
  80   2.0000      -0.366563        -9.9747
  81   2.0000      -0.365458        -9.9446
  82   2.0000      -0.360168        -9.8007
  83   2.0000      -0.356021        -9.6878
  84   2.0000      -0.347419        -9.4537
  85   2.0000      -0.337707        -9.1895
  86   2.0000      -0.326091        -8.8734
  87   2.0000      -0.319798        -8.7021
  88   2.0000      -0.314953        -8.5703
  89   2.0000      -0.307092        -8.3564
  90   2.0000      -0.304068        -8.2741
  91   2.0000      -0.295451        -8.0396
  92   2.0000      -0.292423        -7.9572
  93   2.0000      -0.281803        -7.6683
  94   2.0000      -0.269702        -7.3390
  95   2.0000      -0.248028        -6.7492
  96   2.0000      -0.233034        -6.3412
  97   2.0000      -0.227476        -6.1899
  98   2.0000      -0.217507        -5.9187
  99   2.0000      -0.215217        -5.8563
 100   2.0000      -0.211940        -5.7672
 101   0.0000      -0.046408        -1.2628
 102   0.0000      -0.027054        -0.7362
 103   0.0000      -0.005699        -0.1551
 104   0.0000      -0.001950        -0.0531
 105   0.0000       0.014293         0.3889

MULLIKEN ATOMIC CHARGES
-----------------------
   0 C :   -0.438094
   1 C :   -0.155801
   2 O :   -0.289613
   3 P :    0.677603
   4 S :   -0.482927
   5 O :   -0.266775
   6 C :   -0.145969
   7 C :   -0.445195
   8 S :   -0.146431
   9 C :   -0.238853
  10 S :   -0.130603
  11 P :    0.631402
  12 S :   -0.451998
  13 O :   -0.281763
  14 C :   -0.095275
  15 C :   -0.503620
  16 O :   -0.274117
  17 C :   -0.130977
  18 C :   -0.456290
  19 H :    0.154708
  20 H :    0.154089
  21 H :    0.148598
  22 H :    0.153024
  23 H :    0.171300
  24 H :    0.174377
  25 H :    0.151312
  26 H :    0.169461
  27 H :    0.148144
  28 H :    0.156491
  29 H :    0.221507
  30 H :    0.219767
  31 H :    0.152497
  32 H :    0.162338
  33 H :    0.170348
  34 H :    0.174387
  35 H :    0.154324
  36 H :    0.149988
  37 H :    0.165666
  38 H :    0.144599
  39 H :    0.145358
  40 H :    0.183015
Sum of atomic charges:   -0.0000000

LOEWDIN ATOMIC CHARGES
----------------------
   0 C :   -0.384974
   1 C :    0.021769
   2 O :   -0.663212
   3 P :    0.371871
   4 S :   -0.136015
   5 O :   -0.683425
   6 C :    0.019755
   7 C :   -0.398899
   8 S :    0.155845
   9 C :   -0.428848
  10 S :    0.144004
  11 P :    0.390682
  12 S :   -0.108177
  13 O :   -0.644536
  14 C :    0.034671
  15 C :   -0.407012
  16 O :   -0.675185
  17 C :    0.020282
  18 C :   -0.404583
  19 H :    0.160137
  20 H :    0.160238
  21 H :    0.160854
  22 H :    0.172698
  23 H :    0.181075
  24 H :    0.181706
  25 H :    0.179852
  26 H :    0.165846
  27 H :    0.160169
  28 H :    0.160863
  29 H :    0.196981
  30 H :    0.193144
  31 H :    0.183522
  32 H :    0.177537
  33 H :    0.164173
  34 H :    0.165195
  35 H :    0.161528
  36 H :    0.176679
  37 H :    0.180592
  38 H :    0.154903
  39 H :    0.160785
  40 H :    0.177509

  Mayer bond orders larger than 0.100000
B(  0-C ,  1-C ) :   0.9566 B(  0-C , 19-H ) :   0.9710 B(  0-C , 20-H ) :   0.9714
B(  0-C , 21-H ) :   0.9641 B(  1-C ,  2-O ) :   0.7779 B(  1-C , 22-H ) :   0.9453
B(  1-C , 23-H ) :   0.9515 B(  2-O ,  3-P ) :   1.0972 B(  3-P ,  4-S ) :   1.7530
B(  3-P ,  5-O ) :   1.1434 B(  3-P ,  8-S ) :   1.0717 B(  5-O ,  6-C ) :   0.7833
B(  6-C ,  7-C ) :   0.9269 B(  6-C , 24-H ) :   0.9621 B(  6-C , 25-H ) :   0.9611
B(  7-C , 26-H ) :   0.9593 B(  7-C , 27-H ) :   0.9620 B(  7-C , 28-H ) :   0.9717
B(  8-S ,  9-C ) :   0.9012 B(  9-C , 10-S ) :   0.9214 B(  9-C , 29-H ) :   0.8944
B(  9-C , 30-H ) :   0.9073 B( 10-S , 11-P ) :   0.9910 B( 11-P , 12-S ) :   1.8366
B( 11-P , 13-O ) :   1.1771 B( 11-P , 16-O ) :   1.0354 B( 13-O , 14-C ) :   0.7971
B( 14-C , 15-C ) :   0.9025 B( 14-C , 31-H ) :   0.9523 B( 14-C , 32-H ) :   0.9748
B( 15-C , 33-H ) :   0.9656 B( 15-C , 34-H ) :   0.9669 B( 15-C , 35-H ) :   0.9550
B( 16-O , 17-C ) :   0.7535 B( 17-C , 18-C ) :   0.9426 B( 17-C , 36-H ) :   0.9647
B( 17-C , 37-H ) :   0.9559 B( 18-C , 38-H ) :   0.9738 B( 18-C , 39-H ) :   0.9670
B( 18-C , 40-H ) :   0.9506

Dispersion correction           -0.021193952
FINAL SINGLE POINT ENERGY     -2932.462124011306

DIPOLE MOMENT
-------------

Method             : SCF
Type of density    : Electron Density
Multiplicity       :   1
Irrep              :   0
Energy             : -2932.4876245334908162 Eh
Relativity type    :
Basis              : AO
                                X                 Y                 Z
Electronic contribution:    -11.185375343      13.290414562     -17.046372801
Nuclear contribution   :     11.759571076     -14.544231242      18.759883286
                        -----------------------------------------
Total Dipole Moment    :      0.574195733      -1.253816680       1.713510485
                        -----------------------------------------
Magnitude (a.u.)       :      2.199517035
Magnitude (Debye)      :      5.590728001

Rotational constants in cm-1:             0.012955             0.004581             0.004294
Rotational constants in MHz :           388.395642           137.324199           128.732382

                             ****ORCA TERMINATED NORMALLY****
TOTAL RUN TIME: 0 days 0 hours 1 minutes 18 seconds 571 msec
