                         Program Version 6.0.0  -   RELEASE  -
|  1> ! r2scan-3c def2/J RI DEFGRID2 scfconv6 printgap
|  2> %output
|  3>     printlevel normal
|  4> end
|  5> %cpcm
|  6>     smd true
|  7>     smdsolvent "water"
|  8> end
|  9> * xyz 0 1
| 10> C 5.2190531473 -2.5206354002 -1.0031032779
| 11> C 4.1846387793 -1.4642648504 -1.3355072112
| 12> O 3.2331426558 -1.4212551869 -0.2533761785
| 13> P 2.2696176371 -0.1800175621 -0.03864408
| 14> S 3.1399898958 1.5824151551 -0.0703557531
| 15> O 1.5235815786 -0.5698989499 1.2985363949
| 16> C 1.9556529966 -0.0809105689 2.5865455721
| 17> C 3.2766707829 -0.6960577093 2.9953995054
| 18> S 0.7485160006 -0.4802050283 -1.475648774
| 19> C -0.0051507581 1.1592183428 -1.2895191352
| 20> S -0.9378755856 1.3384526754 0.2447555614
| 21> P -2.811155855 0.5234326547 -0.4032562695
| 22> S -3.0425283149 0.5124442066 -2.347888722
| 23> O -3.9047180435 1.3892139657 0.3210310489
| 24> C -4.2990328234 1.2638447493 1.7115296022
| 25> C -3.1460146577 1.4910753286 2.6646951315
| 26> O -2.9966427318 -0.8906428146 0.3058158118
| 27> C -2.3683904886 -2.1018429246 -0.1552082399
| 28> C -1.3299901377 -2.5664590152 0.8468689269
| 29> H 5.7501000583 -2.2535356613 -0.0939482326
| 30> H 4.7323982853 -3.4805688129 -0.8582189079
| 31> H 5.9269826139 -2.5955679434 -1.8219464865
| 32> H 3.6455818763 -1.7080522466 -2.2550270465
| 33> H 4.6402505163 -0.4736454038 -1.4406054764
| 34> H 2.0306986309 1.0097825103 2.5359115317
| 35> H 1.1466707649 -0.3652133792 3.2600978507
| 36> H 4.0599162377 -0.3705233296 2.3116212267
| 37> H 3.529909499 -0.3744972286 4.0007048801
| 38> H 3.2116974253 -1.780313805 2.9646519154
| 39> H -0.6773041115 1.2976871086 -2.1379867713
| 40> H 0.7833471466 1.9121056506 -1.2756049256
| 41> H -5.0687522427 2.029455822 1.8187640658
| 42> H -4.7349520575 0.2731397208 1.8518779137
| 43> H -2.3966080948 0.711511495 2.5406257368
| 44> H -2.6796901745 2.4549565259 2.476296543
| 45> H -3.5175829398 1.4657398146 3.6844184408
| 46> H -3.1780151136 -2.8288749321 -0.2481689988
| 47> H -1.9276925071 -1.9315724473 -1.1429912404
| 48> H -1.7897206706 -2.7050397572 1.8212761357
| 49> H -0.9109123567 -3.5087873548 0.5093493214
| 50> H -0.5264976189 -1.839178721 0.935265667
| 51> *
| 52>
| 53>                          ****END OF INPUT****

CARTESIAN COORDINATES (ANGSTROEM)
---------------------------------
  C      5.219053   -2.520635   -1.003103
  C      4.184639   -1.464265   -1.335507
  O      3.233143   -1.421255   -0.253376
  P      2.269618   -0.180018   -0.038644
  S      3.139990    1.582415   -0.070356
  O      1.523582   -0.569899    1.298536
  C      1.955653   -0.080911    2.586546
  C      3.276671   -0.696058    2.995400
  S      0.748516   -0.480205   -1.475649
  C     -0.005151    1.159218   -1.289519
  S     -0.937876    1.338453    0.244756
  P     -2.811156    0.523433   -0.403256
  S     -3.042528    0.512444   -2.347889
  O     -3.904718    1.389214    0.321031
  C     -4.299033    1.263845    1.711530
  C     -3.146015    1.491075    2.664695
  O     -2.996643   -0.890643    0.305816
  C     -2.368390   -2.101843   -0.155208
  C     -1.329990   -2.566459    0.846869
  H      5.750100   -2.253536   -0.093948
  H      4.732398   -3.480569   -0.858219
  H      5.926983   -2.595568   -1.821946
  H      3.645582   -1.708052   -2.255027
  H      4.640251   -0.473645   -1.440605
  H      2.030699    1.009783    2.535912
  H      1.146671   -0.365213    3.260098
  H      4.059916   -0.370523    2.311621
  H      3.529909   -0.374497    4.000705
  H      3.211697   -1.780314    2.964652
  H     -0.677304    1.297687   -2.137987
  H      0.783347    1.912106   -1.275605
  H     -5.068752    2.029456    1.818764
  H     -4.734952    0.273140    1.851878
  H     -2.396608    0.711511    2.540626
  H     -2.679690    2.454957    2.476297
  H     -3.517583    1.465740    3.684418
  H     -3.178015   -2.828875   -0.248169
  H     -1.927693   -1.931572   -1.142991
  H     -1.789721   -2.705040    1.821276
  H     -0.910912   -3.508787    0.509349
  H     -0.526498   -1.839179    0.935266

 Total Charge           Charge          ....    0
 Multiplicity           Mult            ....    1
 Number of Electrons    NEL             ....  202
 Basis Dimension        Dim             ....  539

ORBITAL ENERGIES
----------------

  NO   OCC          E(Eh)            E(eV)
   0   2.0000     -88.580264     -2410.3915
   1   2.0000     -88.578526     -2410.3442
   2   2.0000     -88.530896     -2409.0481
   3   2.0000     -88.529818     -2409.0188
   4   2.0000     -76.922592     -2093.1702
   5   2.0000     -76.920440     -2093.1116
   6   2.0000     -18.997801      -516.9564
   7   2.0000     -18.997369      -516.9447
   8   2.0000     -18.995728      -516.9000
   9   2.0000     -18.994199      -516.8584
  10   2.0000     -10.101839      -274.8850
  11   2.0000     -10.094306      -274.6800
  12   2.0000     -10.091319      -274.5987
  13   2.0000     -10.090473      -274.5757
  14   2.0000     -10.090467      -274.5756
  15   2.0000     -10.022947      -272.7383
  16   2.0000     -10.020048      -272.6594
  17   2.0000     -10.019186      -272.6359
  18   2.0000     -10.015624      -272.5390
  19   2.0000      -7.874609      -214.2790
  20   2.0000      -7.872659      -214.2259
  21   2.0000      -7.826092      -212.9588
  22   2.0000      -7.824811      -212.9239
  23   2.0000      -6.600836      -179.6179
  24   2.0000      -6.599203      -179.5735
  25   2.0000      -5.821341      -158.4067
  26   2.0000      -5.819625      -158.3601
  27   2.0000      -5.818504      -158.3296
  28   2.0000      -5.816406      -158.2725
  29   2.0000      -5.811844      -158.1483
  30   2.0000      -5.809833      -158.0936
  31   2.0000      -5.773637      -157.1087
  32   2.0000      -5.772304      -157.0724
  33   2.0000      -5.766373      -156.9110
  34   2.0000      -5.766109      -156.9038
  35   2.0000      -5.765113      -156.8767
  36   2.0000      -5.764903      -156.8710
  37   2.0000      -4.746706      -129.1644
  38   2.0000      -4.745486      -129.1312
  39   2.0000      -4.744573      -129.1064
  40   2.0000      -4.744532      -129.1053
  41   2.0000      -4.744160      -129.0952
  42   2.0000      -4.743054      -129.0651
  43   2.0000      -1.055439       -28.7200
  44   2.0000      -1.055273       -28.7154
  45   2.0000      -1.016050       -27.6481
  46   2.0000      -1.012135       -27.5416
  47   2.0000      -0.803963       -21.8769
  48   2.0000      -0.758704       -20.6454
  49   2.0000      -0.746830       -20.3223
  50   2.0000      -0.727633       -19.7999
  51   2.0000      -0.725336       -19.7374
  52   2.0000      -0.711642       -19.3648
  53   2.0000      -0.688824       -18.7439
  54   2.0000      -0.674109       -18.3434
  55   2.0000      -0.632131       -17.2012
  56   2.0000      -0.623100       -16.9554
  57   2.0000      -0.603264       -16.4156
  58   2.0000      -0.593714       -16.1558
  59   2.0000      -0.589748       -16.0479
  60   2.0000      -0.528707       -14.3868
  61   2.0000      -0.521546       -14.1920
  62   2.0000      -0.497176       -13.5288
  63   2.0000      -0.491018       -13.3613
  64   2.0000      -0.477757       -13.0004
  65   2.0000      -0.463577       -12.6146
  66   2.0000      -0.456961       -12.4345
  67   2.0000      -0.447581       -12.1793
  68   2.0000      -0.443216       -12.0605
  69   2.0000      -0.437626       -11.9084
  70   2.0000      -0.425020       -11.5654
  71   2.0000      -0.411471       -11.1967
  72   2.0000      -0.403329       -10.9751
  73   2.0000      -0.400548       -10.8995
  74   2.0000      -0.397735       -10.8229
  75   2.0000      -0.385987       -10.5032
  76   2.0000      -0.382460       -10.4073
  77   2.0000      -0.367565       -10.0020
  78   2.0000      -0.363806        -9.8997
  79   2.0000      -0.360966        -9.8224
  80   2.0000      -0.358453        -9.7540
  81   2.0000      -0.354515        -9.6468
  82   2.0000      -0.352079        -9.5806
  83   2.0000      -0.349680        -9.5153
  84   2.0000      -0.342402        -9.3172
  85   2.0000      -0.331860        -9.0304
  86   2.0000      -0.322531        -8.7765
  87   2.0000      -0.314073        -8.5463
  88   2.0000      -0.309491        -8.4217
  89   2.0000      -0.303873        -8.2688
  90   2.0000      -0.299638        -8.1536
  91   2.0000      -0.291817        -7.9408
  92   2.0000      -0.291159        -7.9228
  93   2.0000      -0.279560        -7.6072
  94   2.0000      -0.272883        -7.4255
  95   2.0000      -0.252021        -6.8578
  96   2.0000      -0.241943        -6.5836
  97   2.0000      -0.235510        -6.4086
  98   2.0000      -0.226723        -6.1694
  99   2.0000      -0.226196        -6.1551
 100   2.0000      -0.220326        -5.9954
 101   0.0000      -0.052256        -1.4220
 102   0.0000      -0.033655        -0.9158
 103   0.0000      -0.009984        -0.2717
 104   0.0000      -0.006764        -0.1841
 105   0.0000       0.011806         0.3213

MULLIKEN ATOMIC CHARGES
-----------------------
   0 C :   -0.481574
   1 C :   -0.146337
   2 O :   -0.313780
   3 P :    0.708244
   4 S :   -0.531472
   5 O :   -0.287374
   6 C :   -0.139908
   7 C :   -0.485740
   8 S :   -0.150235
   9 C :   -0.250036
  10 S :   -0.133939
  11 P :    0.641087
  12 S :   -0.509667
  13 O :   -0.314781
  14 C :   -0.093171
  15 C :   -0.532773
  16 O :   -0.288480
  17 C :   -0.121021
  18 C :   -0.488045
  19 H :    0.166426
  20 H :    0.166353
  21 H :    0.170024
  22 H :    0.171970
  23 H :    0.172570
  24 H :    0.177568
  25 H :    0.179549
  26 H :    0.168246
  27 H :    0.173112
  28 H :    0.170897
  29 H :    0.231203
  30 H :    0.236620
  31 H :    0.176269
  32 H :    0.179305
  33 H :    0.173845
  34 H :    0.180531
  35 H :    0.181547
  36 H :    0.175160
  37 H :    0.163721
  38 H :    0.165059
  39 H :    0.169928
  40 H :    0.169102
Sum of atomic charges:   -0.0000000

LOEWDIN ATOMIC CHARGES
----------------------
   0 C :   -0.388608
   1 C :    0.026492
   2 O :   -0.673736
   3 P :    0.376682
   4 S :   -0.166685
   5 O :   -0.691545
   6 C :    0.025170
   7 C :   -0.402032
   8 S :    0.152760
   9 C :   -0.427100
  10 S :    0.145485
  11 P :    0.390612
  12 S :   -0.153136
  13 O :   -0.665873
  14 C :    0.041562
  15 C :   -0.405896
  16 O :   -0.678561
  17 C :    0.024588
  18 C :   -0.406419
  19 H :    0.162839
  20 H :    0.163586
  21 H :    0.169240
  22 H :    0.180249
  23 H :    0.181944
  24 H :    0.182716
  25 H :    0.191292
  26 H :    0.162968
  27 H :    0.169424
  28 H :    0.164525
  29 H :    0.199223
  30 H :    0.197295
  31 H :    0.193617
  32 H :    0.185030
  33 H :    0.163955
  34 H :    0.165586
  35 H :    0.172827
  36 H :    0.187174
  37 H :    0.179655
  38 H :    0.162143
  39 H :    0.169240
  40 H :    0.171711

  Mayer bond orders larger than 0.100000
B(  0-C ,  1-C ) :   0.9522 B(  0-C , 19-H ) :   0.9687 B(  0-C , 20-H ) :   0.9687
B(  0-C , 21-H ) :   0.9582 B(  1-C ,  2-O ) :   0.7708 B(  1-C , 22-H ) :   0.9365
B(  1-C , 23-H ) :   0.9483 B(  2-O ,  3-P ) :   1.1057 B(  3-P ,  4-S ) :   1.7120
B(  3-P ,  5-O ) :   1.1550 B(  3-P ,  8-S ) :   1.0834 B(  5-O ,  6-C ) :   0.7714
B(  6-C ,  7-C ) :   0.9156 B(  6-C , 24-H ) :   0.9582 B(  6-C , 25-H ) :   0.9508
B(  7-C , 26-H ) :   0.9589 B(  7-C , 27-H ) :   0.9561 B(  7-C , 28-H ) :   0.9704
B(  8-S ,  9-C ) :   0.8977 B(  9-C , 10-S ) :   0.9114 B(  9-C , 29-H ) :   0.8935
B(  9-C , 30-H ) :   0.9031 B( 10-S , 11-P ) :   1.0070 B( 11-P , 12-S ) :   1.8100
B( 11-P , 13-O ) :   1.1848 B( 11-P , 16-O ) :   1.0444 B( 13-O , 14-C ) :   0.7835
B( 14-C , 15-C ) :   0.8898 B( 14-C , 31-H ) :   0.9432 B( 14-C , 32-H ) :   0.9660
B( 15-C , 33-H ) :   0.9617 B( 15-C , 34-H ) :   0.9656 B( 15-C , 35-H ) :   0.9476
B( 16-O , 17-C ) :   0.7413 B( 17-C , 18-C ) :   0.9409 B( 17-C , 36-H ) :   0.9537
B( 17-C , 37-H ) :   0.9536 B( 18-C , 38-H ) :   0.9694 B( 18-C , 39-H ) :   0.9626
B( 18-C , 40-H ) :   0.9542

Dispersion correction           -0.021193952
FINAL SINGLE POINT ENERGY     -2932.471327630118

DIPOLE MOMENT
-------------

Method             : SCF
Type of density    : Electron Density
Multiplicity       :   1
Irrep              :   0
Energy             : -2932.4968281523028963 Eh
Relativity type    :
Basis              : AO
                                X                 Y                 Z
Electronic contribution:    -11.045843949      12.853677376     -16.425159146
Nuclear contribution   :     11.759571076     -14.544231242      18.759883286
                        -----------------------------------------
Total Dipole Moment    :      0.713727127      -1.690553866       2.334724140
                        -----------------------------------------
Magnitude (a.u.)       :      2.969564884
Magnitude (Debye)      :      7.548034082

Rotational constants in cm-1:             0.012955             0.004581             0.004294
Rotational constants in MHz :           388.395642           137.324199           128.732382

                             ****ORCA TERMINATED NORMALLY****
TOTAL RUN TIME: 0 days 0 hours 1 minutes 50 seconds 283 msec
