                         Program Version 6.0.0  -   RELEASE  -
|  1> ! r2scan-3c def2/J RI DEFGRID2 scfconv6 printgap
|  2> %output
|  3>     printlevel normal
|  4> end
|  5> * xyz 0 1
|  6> C 5.1796710409 -0.429940047 -1.4744313907
|  7> C 4.5302212253 -0.5693268509 -0.1120620822
|  8> O 3.5733212525 0.4750423632 0.1471512517
|  9> P 2.1032534359 0.5514084002 -0.4635195411
| 10> S 1.936586511 0.8631670812 -2.3867271896
| 11> O 1.513774733 1.7340507405 0.3900180389
| 12> C 1.6032241708 1.7662584473 1.8381032526
| 13> C 0.5314693373 2.7051627909 2.3494437625
| 14> S 1.2657919616 -1.2710957719 0.2521396233
| 15> C 0.1798808695 -1.7193775552 -1.1364763275
| 16> S -1.5114850822 -2.0594215061 -0.6066161533
| 17> P -1.9989890305 -0.1072941168 0.0900499138
| 18> S -1.3871244095 1.3722074342 -1.0383660081
| 19> O -1.4853941597 -0.0011462405 1.5729401289
| 20> C -1.8882856278 -0.9492172176 2.6030047345
| 21> C -0.6960515762 -1.2329808394 3.4924327871
| 22> O -3.5699425796 -0.2114899042 0.2985139429
| 23> C -4.4786315109 -0.2704981557 -0.8200057173
| 24> C -5.8760432253 -0.0174824451 -0.2920118732
| 25> H 4.4393074105 -0.5443860276 -2.2632391922
| 26> H 5.6371765882 0.5508873287 -1.5738576861
| 27> H 5.9412015525 -1.1949166577 -1.586515981
| 28> H 5.2625518668 -0.4503768602 0.6888404815
| 29> H 4.0303531114 -1.536845074 -0.0119989703
| 30> H 1.459736146 0.7498107083 2.2175147362
| 31> H 2.6047048061 2.1142914457 2.0979950551
| 32> H 0.5977943701 2.7700245059 3.4307018501
| 33> H 0.6656897335 3.692699796 1.9169381323
| 34> H -0.4515319612 2.3358759796 2.0665091511
| 35> H 0.5491344072 -2.6412406787 -1.578800723
| 36> H 0.1930893729 -0.8999340687 -1.8614237516
| 37> H -2.7041579004 -0.4811614934 3.1553337746
| 38> H -2.251073248 -1.8605865798 2.1201194913
| 39> H -0.3310151742 -0.3106428565 3.9351568265
| 40> H -1.0012986443 -1.9124360866 4.2816329049
| 41> H 0.1038368411 -1.6923405424 2.9163747864
| 42> H -4.1788267603 0.4864658229 -1.5520960307
| 43> H -4.3953919014 -1.2611656028 -1.2749700582
| 44> H -5.9297092886 0.9667235073 0.1646778505
| 45> H -6.5818139642 -0.0698167537 -1.1143531131
| 46> H -6.1320458053 -0.7664927001 0.4514568239
| 47> *
| 48>
| 49>                          ****END OF INPUT****

CARTESIAN COORDINATES (ANGSTROEM)
---------------------------------
  C      5.179671   -0.429940   -1.474431
  C      4.530221   -0.569327   -0.112062
  O      3.573321    0.475042    0.147151
  P      2.103253    0.551408   -0.463520
  S      1.936587    0.863167   -2.386727
  O      1.513775    1.734051    0.390018
  C      1.603224    1.766258    1.838103
  C      0.531469    2.705163    2.349444
  S      1.265792   -1.271096    0.252140
  C      0.179881   -1.719378   -1.136476
  S     -1.511485   -2.059422   -0.606616
  P     -1.998989   -0.107294    0.090050
  S     -1.387124    1.372207   -1.038366
  O     -1.485394   -0.001146    1.572940
  C     -1.888286   -0.949217    2.603005
  C     -0.696052   -1.232981    3.492433
  O     -3.569943   -0.211490    0.298514
  C     -4.478632   -0.270498   -0.820006
  C     -5.876043   -0.017482   -0.292012
  H      4.439307   -0.544386   -2.263239
  H      5.637177    0.550887   -1.573858
  H      5.941202   -1.194917   -1.586516
  H      5.262552   -0.450377    0.688840
  H      4.030353   -1.536845   -0.011999
  H      1.459736    0.749811    2.217515
  H      2.604705    2.114291    2.097995
  H      0.597794    2.770025    3.430702
  H      0.665690    3.692700    1.916938
  H     -0.451532    2.335876    2.066509
  H      0.549134   -2.641241   -1.578801
  H      0.193089   -0.899934   -1.861424
  H     -2.704158   -0.481161    3.155334
  H     -2.251073   -1.860587    2.120119
  H     -0.331015   -0.310643    3.935157
  H     -1.001299   -1.912436    4.281633
  H      0.103837   -1.692341    2.916375
  H     -4.178827    0.486466   -1.552096
  H     -4.395392   -1.261166   -1.274970
  H     -5.929709    0.966724    0.164678
  H     -6.581814   -0.069817   -1.114353
  H     -6.132046   -0.766493    0.451457

 Total Charge           Charge          ....    0
 Multiplicity           Mult            ....    1
 Number of Electrons    NEL             ....  202
 Basis Dimension        Dim             ....  539

ORBITAL ENERGIES
----------------

  NO   OCC          E(Eh)            E(eV)
   0   2.0000     -88.576546     -2410.2904
   1   2.0000     -88.573057     -2410.1954
   2   2.0000     -88.512378     -2408.5442
   3   2.0000     -88.510944     -2408.5052
   4   2.0000     -76.910641     -2092.8449
   5   2.0000     -76.907933     -2092.7712
   6   2.0000     -18.994083      -516.8553
   7   2.0000     -18.992442      -516.8106
   8   2.0000     -18.987258      -516.6696
   9   2.0000     -18.981387      -516.5098
  10   2.0000     -10.105883      -274.9951
  11   2.0000     -10.104096      -274.9464
  12   2.0000     -10.099518      -274.8219
  13   2.0000     -10.097126      -274.7568
  14   2.0000     -10.094677      -274.6901
  15   2.0000     -10.037161      -273.1250
  16   2.0000     -10.034216      -273.0449
  17   2.0000     -10.021561      -272.7005
  18   2.0000     -10.021299      -272.6934
  19   2.0000      -7.870980      -214.1802
  20   2.0000      -7.867684      -214.0906
  21   2.0000      -7.806790      -212.4336
  22   2.0000      -7.805771      -212.4058
  23   2.0000      -6.589190      -179.3010
  24   2.0000      -6.586085      -179.2165
  25   2.0000      -5.817825      -158.3111
  26   2.0000      -5.814561      -158.2223
  27   2.0000      -5.814409      -158.2181
  28   2.0000      -5.811367      -158.1353
  29   2.0000      -5.808382      -158.0541
  30   2.0000      -5.805049      -157.9634
  31   2.0000      -5.754633      -156.5915
  32   2.0000      -5.753629      -156.5642
  33   2.0000      -5.746985      -156.3834
  34   2.0000      -5.746759      -156.3773
  35   2.0000      -5.746059      -156.3582
  36   2.0000      -5.745547      -156.3443
  37   2.0000      -4.735014      -128.8463
  38   2.0000      -4.734296      -128.8267
  39   2.0000      -4.732412      -128.7755
  40   2.0000      -4.731738      -128.7571
  41   2.0000      -4.731292      -128.7450
  42   2.0000      -4.729484      -128.6958
  43   2.0000      -1.052893       -28.6507
  44   2.0000      -1.044739       -28.4288
  45   2.0000      -1.011211       -27.5164
  46   2.0000      -1.001285       -27.2464
  47   2.0000      -0.798908       -21.7394
  48   2.0000      -0.760000       -20.6807
  49   2.0000      -0.749862       -20.4048
  50   2.0000      -0.738431       -20.0937
  51   2.0000      -0.727529       -19.7971
  52   2.0000      -0.708936       -19.2911
  53   2.0000      -0.680715       -18.5232
  54   2.0000      -0.662683       -18.0325
  55   2.0000      -0.617139       -16.7932
  56   2.0000      -0.612335       -16.6625
  57   2.0000      -0.608197       -16.5499
  58   2.0000      -0.599042       -16.3008
  59   2.0000      -0.596687       -16.2367
  60   2.0000      -0.538306       -14.6480
  61   2.0000      -0.525526       -14.3003
  62   2.0000      -0.502987       -13.6870
  63   2.0000      -0.492177       -13.3928
  64   2.0000      -0.469847       -12.7852
  65   2.0000      -0.466385       -12.6910
  66   2.0000      -0.456591       -12.4245
  67   2.0000      -0.452590       -12.3156
  68   2.0000      -0.446026       -12.1370
  69   2.0000      -0.433757       -11.8031
  70   2.0000      -0.421474       -11.4689
  71   2.0000      -0.419119       -11.4048
  72   2.0000      -0.409209       -11.1352
  73   2.0000      -0.396792       -10.7973
  74   2.0000      -0.394993       -10.7483
  75   2.0000      -0.382843       -10.4177
  76   2.0000      -0.375692       -10.2231
  77   2.0000      -0.370814       -10.0904
  78   2.0000      -0.366082        -9.9616
  79   2.0000      -0.364484        -9.9181
  80   2.0000      -0.360188        -9.8012
  81   2.0000      -0.359482        -9.7820
  82   2.0000      -0.354860        -9.6562
  83   2.0000      -0.345970        -9.4143
  84   2.0000      -0.344484        -9.3739
  85   2.0000      -0.329949        -8.9784
  86   2.0000      -0.324186        -8.8216
  87   2.0000      -0.319962        -8.7066
  88   2.0000      -0.316542        -8.6135
  89   2.0000      -0.305876        -8.3233
  90   2.0000      -0.305140        -8.3033
  91   2.0000      -0.290360        -7.9011
  92   2.0000      -0.282396        -7.6844
  93   2.0000      -0.275345        -7.4925
  94   2.0000      -0.270081        -7.3493
  95   2.0000      -0.248782        -6.7697
  96   2.0000      -0.234233        -6.3738
  97   2.0000      -0.222184        -6.0459
  98   2.0000      -0.211653        -5.7594
  99   2.0000      -0.202907        -5.5214
 100   2.0000      -0.193846        -5.2748
 101   0.0000      -0.042222        -1.1489
 102   0.0000      -0.031934        -0.8690
 103   0.0000      -0.005280        -0.1437
 104   0.0000       0.013906         0.3784
 105   0.0000       0.018393         0.5005

MULLIKEN ATOMIC CHARGES
-----------------------
   0 C :   -0.429321
   1 C :   -0.163751
   2 O :   -0.286254
   3 P :    0.693517
   4 S :   -0.426737
   5 O :   -0.265320
   6 C :   -0.097194
   7 C :   -0.479731
   8 S :   -0.224139
   9 C :   -0.217706
  10 S :   -0.179133
  11 P :    0.630853
  12 S :   -0.386393
  13 O :   -0.258776
  14 C :   -0.089409
  15 C :   -0.480245
  16 O :   -0.284178
  17 C :   -0.157468
  18 C :   -0.438640
  19 H :    0.174942
  20 H :    0.153839
  21 H :    0.141736
  22 H :    0.145978
  23 H :    0.154291
  24 H :    0.148402
  25 H :    0.155341
  26 H :    0.138416
  27 H :    0.154944
  28 H :    0.187207
  29 H :    0.191294
  30 H :    0.225585
  31 H :    0.156027
  32 H :    0.155112
  33 H :    0.157286
  34 H :    0.147419
  35 H :    0.173559
  36 H :    0.173419
  37 H :    0.148748
  38 H :    0.158821
  39 H :    0.147581
  40 H :    0.150075
Sum of atomic charges:   -0.0000000

LOEWDIN ATOMIC CHARGES
----------------------
   0 C :   -0.405010
   1 C :    0.020077
   2 O :   -0.670242
   3 P :    0.375161
   4 S :   -0.096856
   5 O :   -0.650246
   6 C :    0.024546
   7 C :   -0.391940
   8 S :    0.121535
   9 C :   -0.417949
  10 S :    0.117861
  11 P :    0.365040
  12 S :   -0.052040
  13 O :   -0.664129
  14 C :    0.023318
  15 C :   -0.396399
  16 O :   -0.672813
  17 C :    0.020631
  18 C :   -0.385565
  19 H :    0.168464
  20 H :    0.161432
  21 H :    0.156099
  22 H :    0.178327
  23 H :    0.173348
  24 H :    0.173944
  25 H :    0.174124
  26 H :    0.156347
  27 H :    0.163078
  28 H :    0.174995
  29 H :    0.179013
  30 H :    0.203371
  31 H :    0.176441
  32 H :    0.177058
  33 H :    0.159907
  34 H :    0.159716
  35 H :    0.165497
  36 H :    0.181925
  37 H :    0.171195
  38 H :    0.161985
  39 H :    0.160428
  40 H :    0.158328

  Mayer bond orders larger than 0.100000
B(  0-C ,  1-C ) :   0.9533 B(  0-C , 19-H ) :   0.9522 B(  0-C , 20-H ) :   0.9704
B(  0-C , 21-H ) :   0.9652 B(  1-C ,  2-O ) :   0.8061 B(  1-C , 22-H ) :   0.9643
B(  1-C , 23-H ) :   0.9576 B(  2-O ,  3-P ) :   1.0453 B(  3-P ,  4-S ) :   1.8410
B(  3-P ,  5-O ) :   1.1894 B(  3-P ,  8-S ) :   0.9727 B(  5-O ,  6-C ) :   0.7303
B(  6-C ,  7-C ) :   0.9433 B(  6-C , 24-H ) :   0.9533 B(  6-C , 25-H ) :   0.9442
B(  7-C , 26-H ) :   0.9674 B(  7-C , 27-H ) :   0.9679 B(  7-C , 28-H ) :   0.9630
B(  8-S ,  9-C ) :   0.8967 B(  9-C , 10-S ) :   0.9252 B(  9-C , 29-H ) :   0.9162
B(  9-C , 30-H ) :   0.9031 B( 10-S , 11-P ) :   0.9775 B( 11-P , 12-S ) :   1.8912
B( 11-P , 13-O ) :   1.1187 B( 11-P , 16-O ) :   1.0587 B( 13-O , 14-C ) :   0.7403
B( 14-C , 15-C ) :   0.9459 B( 14-C , 31-H ) :   0.9501 B( 14-C , 32-H ) :   0.9561
B( 15-C , 33-H ) :   0.9729 B( 15-C , 34-H ) :   0.9625 B( 15-C , 35-H ) :   0.9657
B( 16-O , 17-C ) :   0.7884 B( 17-C , 18-C ) :   0.9558 B( 17-C , 36-H ) :   0.9506
B( 17-C , 37-H ) :   0.9420 B( 18-C , 38-H ) :   0.9712 B( 18-C , 39-H ) :   0.9638
B( 18-C , 40-H ) :   0.9717

Dispersion correction           -0.021953476
FINAL SINGLE POINT ENERGY     -2932.457738676194

DIPOLE MOMENT
-------------

Method             : SCF
Type of density    : Electron Density
Multiplicity       :   1
Irrep              :   0
Energy             : -2932.4823283117857500 Eh
Relativity type    :
Basis              : AO
                                X                 Y                 Z
Electronic contribution:      2.056010026       0.787238987     -14.314373874
Nuclear contribution   :     -2.420915023      -2.170203200      16.076818309
                        -----------------------------------------
Total Dipole Moment    :     -0.364904997      -1.382964213       1.762444435
                        -----------------------------------------
Magnitude (a.u.)       :      2.269792074
Magnitude (Debye)      :      5.769352954

Rotational constants in cm-1:             0.012777             0.005145             0.004865
Rotational constants in MHz :           383.036473           154.248648           145.841236

                             ****ORCA TERMINATED NORMALLY****
TOTAL RUN TIME: 0 days 0 hours 1 minutes 24 seconds 539 msec
