                         Program Version 6.0.0  -   RELEASE  -
|  1> ! r2scan-3c def2/J RI DEFGRID2 scfconv6 printgap
|  2> %output
|  3>     printlevel normal
|  4> end
|  5> %cpcm
|  6>     smd true
|  7>     smdsolvent "water"
|  8> end
|  9> * xyz 0 1
| 10> C 5.1796710409 -0.429940047 -1.4744313907
| 11> C 4.5302212253 -0.5693268509 -0.1120620822
| 12> O 3.5733212525 0.4750423632 0.1471512517
| 13> P 2.1032534359 0.5514084002 -0.4635195411
| 14> S 1.936586511 0.8631670812 -2.3867271896
| 15> O 1.513774733 1.7340507405 0.3900180389
| 16> C 1.6032241708 1.7662584473 1.8381032526
| 17> C 0.5314693373 2.7051627909 2.3494437625
| 18> S 1.2657919616 -1.2710957719 0.2521396233
| 19> C 0.1798808695 -1.7193775552 -1.1364763275
| 20> S -1.5114850822 -2.0594215061 -0.6066161533
| 21> P -1.9989890305 -0.1072941168 0.0900499138
| 22> S -1.3871244095 1.3722074342 -1.0383660081
| 23> O -1.4853941597 -0.0011462405 1.5729401289
| 24> C -1.8882856278 -0.9492172176 2.6030047345
| 25> C -0.6960515762 -1.2329808394 3.4924327871
| 26> O -3.5699425796 -0.2114899042 0.2985139429
| 27> C -4.4786315109 -0.2704981557 -0.8200057173
| 28> C -5.8760432253 -0.0174824451 -0.2920118732
| 29> H 4.4393074105 -0.5443860276 -2.2632391922
| 30> H 5.6371765882 0.5508873287 -1.5738576861
| 31> H 5.9412015525 -1.1949166577 -1.586515981
| 32> H 5.2625518668 -0.4503768602 0.6888404815
| 33> H 4.0303531114 -1.536845074 -0.0119989703
| 34> H 1.459736146 0.7498107083 2.2175147362
| 35> H 2.6047048061 2.1142914457 2.0979950551
| 36> H 0.5977943701 2.7700245059 3.4307018501
| 37> H 0.6656897335 3.692699796 1.9169381323
| 38> H -0.4515319612 2.3358759796 2.0665091511
| 39> H 0.5491344072 -2.6412406787 -1.578800723
| 40> H 0.1930893729 -0.8999340687 -1.8614237516
| 41> H -2.7041579004 -0.4811614934 3.1553337746
| 42> H -2.251073248 -1.8605865798 2.1201194913
| 43> H -0.3310151742 -0.3106428565 3.9351568265
| 44> H -1.0012986443 -1.9124360866 4.2816329049
| 45> H 0.1038368411 -1.6923405424 2.9163747864
| 46> H -4.1788267603 0.4864658229 -1.5520960307
| 47> H -4.3953919014 -1.2611656028 -1.2749700582
| 48> H -5.9297092886 0.9667235073 0.1646778505
| 49> H -6.5818139642 -0.0698167537 -1.1143531131
| 50> H -6.1320458053 -0.7664927001 0.4514568239
| 51> *
| 52>
| 53>                          ****END OF INPUT****

CARTESIAN COORDINATES (ANGSTROEM)
---------------------------------
  C      5.179671   -0.429940   -1.474431
  C      4.530221   -0.569327   -0.112062
  O      3.573321    0.475042    0.147151
  P      2.103253    0.551408   -0.463520
  S      1.936587    0.863167   -2.386727
  O      1.513775    1.734051    0.390018
  C      1.603224    1.766258    1.838103
  C      0.531469    2.705163    2.349444
  S      1.265792   -1.271096    0.252140
  C      0.179881   -1.719378   -1.136476
  S     -1.511485   -2.059422   -0.606616
  P     -1.998989   -0.107294    0.090050
  S     -1.387124    1.372207   -1.038366
  O     -1.485394   -0.001146    1.572940
  C     -1.888286   -0.949217    2.603005
  C     -0.696052   -1.232981    3.492433
  O     -3.569943   -0.211490    0.298514
  C     -4.478632   -0.270498   -0.820006
  C     -5.876043   -0.017482   -0.292012
  H      4.439307   -0.544386   -2.263239
  H      5.637177    0.550887   -1.573858
  H      5.941202   -1.194917   -1.586516
  H      5.262552   -0.450377    0.688840
  H      4.030353   -1.536845   -0.011999
  H      1.459736    0.749811    2.217515
  H      2.604705    2.114291    2.097995
  H      0.597794    2.770025    3.430702
  H      0.665690    3.692700    1.916938
  H     -0.451532    2.335876    2.066509
  H      0.549134   -2.641241   -1.578801
  H      0.193089   -0.899934   -1.861424
  H     -2.704158   -0.481161    3.155334
  H     -2.251073   -1.860587    2.120119
  H     -0.331015   -0.310643    3.935157
  H     -1.001299   -1.912436    4.281633
  H      0.103837   -1.692341    2.916375
  H     -4.178827    0.486466   -1.552096
  H     -4.395392   -1.261166   -1.274970
  H     -5.929709    0.966724    0.164678
  H     -6.581814   -0.069817   -1.114353
  H     -6.132046   -0.766493    0.451457

 Total Charge           Charge          ....    0
 Multiplicity           Mult            ....    1
 Number of Electrons    NEL             ....  202
 Basis Dimension        Dim             ....  539

ORBITAL ENERGIES
----------------

  NO   OCC          E(Eh)            E(eV)
   0   2.0000     -88.579863     -2410.3806
   1   2.0000     -88.577096     -2410.3053
   2   2.0000     -88.524518     -2408.8746
   3   2.0000     -88.523382     -2408.8437
   4   2.0000     -76.917795     -2093.0396
   5   2.0000     -76.917100     -2093.0207
   6   2.0000     -18.994676      -516.8714
   7   2.0000     -18.994378      -516.8633
   8   2.0000     -18.992437      -516.8105
   9   2.0000     -18.990271      -516.7515
  10   2.0000     -10.103217      -274.9225
  11   2.0000     -10.092645      -274.6348
  12   2.0000     -10.091031      -274.5909
  13   2.0000     -10.090606      -274.5793
  14   2.0000     -10.089379      -274.5460
  15   2.0000     -10.019635      -272.6481
  16   2.0000     -10.019380      -272.6412
  17   2.0000     -10.017847      -272.5995
  18   2.0000     -10.015483      -272.5351
  19   2.0000      -7.874111      -214.2655
  20   2.0000      -7.871477      -214.1938
  21   2.0000      -7.819915      -212.7907
  22   2.0000      -7.818452      -212.7509
  23   2.0000      -6.595986      -179.4859
  24   2.0000      -6.595632      -179.4763
  25   2.0000      -5.820986      -158.3971
  26   2.0000      -5.818264      -158.3230
  27   2.0000      -5.817725      -158.3083
  28   2.0000      -5.815212      -158.2400
  29   2.0000      -5.811491      -158.1387
  30   2.0000      -5.808771      -158.0647
  31   2.0000      -5.767620      -156.9449
  32   2.0000      -5.766134      -156.9045
  33   2.0000      -5.760257      -156.7446
  34   2.0000      -5.759673      -156.7287
  35   2.0000      -5.758623      -156.7001
  36   2.0000      -5.758470      -156.6959
  37   2.0000      -4.741601      -129.0255
  38   2.0000      -4.741400      -129.0201
  39   2.0000      -4.741101      -129.0119
  40   2.0000      -4.740703      -129.0011
  41   2.0000      -4.739552      -128.9698
  42   2.0000      -4.739020      -128.9553
  43   2.0000      -1.053994       -28.6806
  44   2.0000      -1.051580       -28.6149
  45   2.0000      -1.011529       -27.5251
  46   2.0000      -1.007521       -27.4160
  47   2.0000      -0.800673       -21.7874
  48   2.0000      -0.755783       -20.5659
  49   2.0000      -0.747643       -20.3444
  50   2.0000      -0.726708       -19.7747
  51   2.0000      -0.723560       -19.6891
  52   2.0000      -0.709965       -19.3191
  53   2.0000      -0.686755       -18.6876
  54   2.0000      -0.670371       -18.2417
  55   2.0000      -0.617554       -16.8045
  56   2.0000      -0.609592       -16.5878
  57   2.0000      -0.597945       -16.2709
  58   2.0000      -0.597559       -16.2604
  59   2.0000      -0.596087       -16.2204
  60   2.0000      -0.535045       -14.5593
  61   2.0000      -0.524747       -14.2791
  62   2.0000      -0.497703       -13.5432
  63   2.0000      -0.492425       -13.3996
  64   2.0000      -0.468464       -12.7475
  65   2.0000      -0.466283       -12.6882
  66   2.0000      -0.449890       -12.2421
  67   2.0000      -0.447428       -12.1751
  68   2.0000      -0.444485       -12.0951
  69   2.0000      -0.432900       -11.7798
  70   2.0000      -0.421259       -11.4630
  71   2.0000      -0.417683       -11.3657
  72   2.0000      -0.402639       -10.9564
  73   2.0000      -0.398056       -10.8317
  74   2.0000      -0.386696       -10.5225
  75   2.0000      -0.379090       -10.3156
  76   2.0000      -0.372470       -10.1354
  77   2.0000      -0.366035        -9.9603
  78   2.0000      -0.361018        -9.8238
  79   2.0000      -0.356613        -9.7039
  80   2.0000      -0.355808        -9.6820
  81   2.0000      -0.354259        -9.6399
  82   2.0000      -0.347847        -9.4654
  83   2.0000      -0.344731        -9.3806
  84   2.0000      -0.343123        -9.3369
  85   2.0000      -0.327472        -8.9110
  86   2.0000      -0.321256        -8.7418
  87   2.0000      -0.315527        -8.5859
  88   2.0000      -0.313384        -8.5276
  89   2.0000      -0.309379        -8.4186
  90   2.0000      -0.304098        -8.2749
  91   2.0000      -0.286399        -7.7933
  92   2.0000      -0.284949        -7.7538
  93   2.0000      -0.277221        -7.5436
  94   2.0000      -0.273810        -7.4507
  95   2.0000      -0.251707        -6.8493
  96   2.0000      -0.242212        -6.5909
  97   2.0000      -0.235217        -6.4006
  98   2.0000      -0.224023        -6.0960
  99   2.0000      -0.214450        -5.8355
 100   2.0000      -0.207680        -5.6513
 101   0.0000      -0.045858        -1.2479
 102   0.0000      -0.038788        -1.0555
 103   0.0000      -0.009854        -0.2681
 104   0.0000       0.007099         0.1932
 105   0.0000       0.013945         0.3795

MULLIKEN ATOMIC CHARGES
-----------------------
   0 C :   -0.477142
   1 C :   -0.145757
   2 O :   -0.312534
   3 P :    0.705405
   4 S :   -0.492446
   5 O :   -0.296325
   6 C :   -0.098123
   7 C :   -0.518708
   8 S :   -0.208409
   9 C :   -0.217453
  10 S :   -0.175837
  11 P :    0.655986
  12 S :   -0.461531
  13 O :   -0.281439
  14 C :   -0.090346
  15 C :   -0.506237
  16 O :   -0.305678
  17 C :   -0.148779
  18 C :   -0.479820
  19 H :    0.166876
  20 H :    0.166187
  21 H :    0.168361
  22 H :    0.173650
  23 H :    0.166087
  24 H :    0.172269
  25 H :    0.175714
  26 H :    0.170849
  27 H :    0.166954
  28 H :    0.175036
  29 H :    0.232818
  30 H :    0.216225
  31 H :    0.178539
  32 H :    0.168273
  33 H :    0.172894
  34 H :    0.170830
  35 H :    0.170553
  36 H :    0.173284
  37 H :    0.168366
  38 H :    0.166151
  39 H :    0.169452
  40 H :    0.165803
Sum of atomic charges:   -0.0000000

LOEWDIN ATOMIC CHARGES
----------------------
   0 C :   -0.409619
   1 C :    0.027836
   2 O :   -0.679890
   3 P :    0.376631
   4 S :   -0.147026
   5 O :   -0.675877
   6 C :    0.029995
   7 C :   -0.395619
   8 S :    0.138906
   9 C :   -0.413184
  10 S :    0.128232
  11 P :    0.370017
  12 S :   -0.107326
  13 O :   -0.676006
  14 C :    0.030522
  15 C :   -0.396566
  16 O :   -0.681417
  17 C :    0.024502
  18 C :   -0.388739
  19 H :    0.162522
  20 H :    0.162245
  21 H :    0.166571
  22 H :    0.190318
  23 H :    0.179123
  24 H :    0.182342
  25 H :    0.183430
  26 H :    0.169796
  27 H :    0.163946
  28 H :    0.168028
  29 H :    0.195177
  30 H :    0.199515
  31 H :    0.185946
  32 H :    0.182095
  33 H :    0.165080
  34 H :    0.168883
  35 H :    0.163736
  36 H :    0.181340
  37 H :    0.179206
  38 H :    0.163160
  39 H :    0.168953
  40 H :    0.163217

  Mayer bond orders larger than 0.100000
B(  0-C ,  1-C ) :   0.9352 B(  0-C , 19-H ) :   0.9568 B(  0-C , 20-H ) :   0.9723
B(  0-C , 21-H ) :   0.9590 B(  1-C ,  2-O ) :   0.7978 B(  1-C , 22-H ) :   0.9552
B(  1-C , 23-H ) :   0.9518 B(  2-O ,  3-P ) :   1.0571 B(  3-P ,  4-S ) :   1.8005
B(  3-P ,  5-O ) :   1.1919 B(  3-P ,  8-S ) :   1.0031 B(  5-O ,  6-C ) :   0.7205
B(  6-C ,  7-C ) :   0.9290 B(  6-C , 24-H ) :   0.9456 B(  6-C , 25-H ) :   0.9341
B(  7-C , 26-H ) :   0.9593 B(  7-C , 27-H ) :   0.9689 B(  7-C , 28-H ) :   0.9662
B(  8-S ,  9-C ) :   0.8883 B(  9-C , 10-S ) :   0.9170 B(  9-C , 29-H ) :   0.9006
B(  9-C , 30-H ) :   0.9077 B( 10-S , 11-P ) :   1.0034 B( 11-P , 12-S ) :   1.8373
B( 11-P , 13-O ) :   1.1347 B( 11-P , 16-O ) :   1.0688 B( 13-O , 14-C ) :   0.7281
B( 14-C , 15-C ) :   0.9441 B( 14-C , 31-H ) :   0.9394 B( 14-C , 32-H ) :   0.9496
B( 15-C , 33-H ) :   0.9678 B( 15-C , 34-H ) :   0.9572 B( 15-C , 35-H ) :   0.9647
B( 16-O , 17-C ) :   0.7806 B( 17-C , 18-C ) :   0.9539 B( 17-C , 36-H ) :   0.9480
B( 17-C , 37-H ) :   0.9330 B( 18-C , 38-H ) :   0.9692 B( 18-C , 39-H ) :   0.9581
B( 18-C , 40-H ) :   0.9684

Dispersion correction           -0.021953476
FINAL SINGLE POINT ENERGY     -2932.469553379950

DIPOLE MOMENT
-------------

Method             : SCF
Type of density    : Electron Density
Multiplicity       :   1
Irrep              :   0
Energy             : -2932.4941430155422495 Eh
Relativity type    :
Basis              : AO
                                X                 Y                 Z
Electronic contribution:      2.049915568      -0.208349284     -13.491784543
Nuclear contribution   :     -2.420915023      -2.170203200      16.076818309
                        -----------------------------------------
Total Dipole Moment    :     -0.370999455      -2.378552484       2.585033767
                        -----------------------------------------
Magnitude (a.u.)       :      3.532357865
Magnitude (Debye)      :      8.978540157

Rotational constants in cm-1:             0.012777             0.005145             0.004865
Rotational constants in MHz :           383.036473           154.248648           145.841236

                             ****ORCA TERMINATED NORMALLY****
TOTAL RUN TIME: 0 days 0 hours 2 minutes 14 seconds 211 msec
