                         Program Version 6.0.0  -   RELEASE  -
|  1> ! pbe def2-sv(p) def2/J RI DEFGRID1 loosescf d4 GCP(DFT/SV(P)) printgap
|  2> %output
|  3>     printlevel normal
|  4> end
|  5> * xyz 0 1
|  6> C 3.7737685587 1.4655010229 -1.5312549616
|  7> C 2.3426921462 1.6574219941 -1.0770293326
|  8> O 1.6960577649 0.3932288362 -0.8558414601
|  9> P 2.0248143377 -0.536687555 0.3850069052
| 10> S 2.6578375617 0.4340156497 1.971323036
| 11> O 3.0215308628 -1.5790469475 -0.2780797762
| 12> C 3.286089361 -2.911078311 0.2024083639
| 13> C 3.6332182636 -2.9515656839 1.6762652181
| 14> S 0.2317894797 -1.622925993 0.5862799828
| 15> C -0.5991772367 -0.4518268408 1.6944525044
| 16> S -0.8691523684 1.1845252925 0.9573988838
| 17> P -2.000231256 0.6477073976 -0.756536664
| 18> S -1.1629576282 -0.0452237636 -2.3790476435
| 19> O -2.7389347892 2.0051235655 -1.1032948181
| 20> C -3.5487422105 2.7472931781 -0.1564019255
| 21> C -2.8279337229 4.0075606461 0.2783402158
| 22> O -3.1027033574 -0.2964625471 -0.0872462385
| 23> C -3.570801959 -1.5395184055 -0.6514024807
| 24> C -3.262051007 -2.6902687896 0.2854039349
| 25> H 4.343117668 0.9749701775 -0.7418983461
| 26> H 3.8018059989 0.8434303809 -2.4220745812
| 27> H 4.2192370837 2.4316346266 -1.7459971963
| 28> H 1.7295195568 2.1369011336 -1.8423659764
| 29> H 2.3003026725 2.2389164968 -0.1490780497
| 30> H 2.4063564628 -3.5266388255 -0.0066667923
| 31> H 4.1227310535 -3.2430942592 -0.4150128277
| 32> H 3.9060946831 -3.9649431496 1.9526030441
| 33> H 4.4647690757 -2.2838578257 1.8894584391
| 34> H 2.7778665668 -2.6386505899 2.2737891654
| 35> H 0.0257043984 -0.2748130446 2.5704686662
| 36> H -1.5530858657 -0.8952379323 1.9679117313
| 37> H -4.4642827473 2.9842051652 -0.70092081
| 38> H -3.7814654137 2.1055744202 0.6961592285
| 39> H -2.5671304413 4.604765833 -0.5909578655
| 40> H -3.4793110497 4.583538016 0.9279195351
| 41> H -1.9165054461 3.7581989641 0.8178816907
| 42> H -4.6471511634 -1.4149948111 -0.7848727323
| 43> H -3.0961662357 -1.6849046582 -1.6274629666
| 44> H -3.6920458365 -2.5035638948 1.2655560075
| 45> H -3.6921777505 -3.5985222446 -0.123884777
| 46> H -2.1860114874 -2.8239156768 0.3827334449
| 47> *
| 48>
| 49>                          ****END OF INPUT****

CARTESIAN COORDINATES (ANGSTROEM)
---------------------------------
  C      3.773769    1.465501   -1.531255
  C      2.342692    1.657422   -1.077029
  O      1.696058    0.393229   -0.855841
  P      2.024814   -0.536688    0.385007
  S      2.657838    0.434016    1.971323
  O      3.021531   -1.579047   -0.278080
  C      3.286089   -2.911078    0.202408
  C      3.633218   -2.951566    1.676265
  S      0.231789   -1.622926    0.586280
  C     -0.599177   -0.451827    1.694453
  S     -0.869152    1.184525    0.957399
  P     -2.000231    0.647707   -0.756537
  S     -1.162958   -0.045224   -2.379048
  O     -2.738935    2.005124   -1.103295
  C     -3.548742    2.747293   -0.156402
  C     -2.827934    4.007561    0.278340
  O     -3.102703   -0.296463   -0.087246
  C     -3.570802   -1.539518   -0.651402
  C     -3.262051   -2.690269    0.285404
  H      4.343118    0.974970   -0.741898
  H      3.801806    0.843430   -2.422075
  H      4.219237    2.431635   -1.745997
  H      1.729520    2.136901   -1.842366
  H      2.300303    2.238916   -0.149078
  H      2.406356   -3.526639   -0.006667
  H      4.122731   -3.243094   -0.415013
  H      3.906095   -3.964943    1.952603
  H      4.464769   -2.283858    1.889458
  H      2.777867   -2.638651    2.273789
  H      0.025704   -0.274813    2.570469
  H     -1.553086   -0.895238    1.967912
  H     -4.464283    2.984205   -0.700921
  H     -3.781465    2.105574    0.696159
  H     -2.567130    4.604766   -0.590958
  H     -3.479311    4.583538    0.927920
  H     -1.916505    3.758199    0.817882
  H     -4.647151   -1.414995   -0.784873
  H     -3.096166   -1.684905   -1.627463
  H     -3.692046   -2.503564    1.265556
  H     -3.692178   -3.598522   -0.123885
  H     -2.186011   -2.823916    0.382733

 Total Charge           Charge          ....    0
 Multiplicity           Mult            ....    1
 Number of Electrons    NEL             ....  202
 Basis Dimension        Dim             ....  334

ORBITAL ENERGIES
----------------

  NO   OCC          E(Eh)            E(eV)
   0   2.0000     -88.045940     -2395.8518
   1   2.0000     -88.042210     -2395.7503
   2   2.0000     -87.984239     -2394.1728
   3   2.0000     -87.976070     -2393.9506
   4   2.0000     -76.424674     -2079.6211
   5   2.0000     -76.421716     -2079.5406
   6   2.0000     -18.792732      -511.3762
   7   2.0000     -18.791040      -511.3302
   8   2.0000     -18.788309      -511.2559
   9   2.0000     -18.777946      -510.9739
  10   2.0000      -9.960040      -271.0265
  11   2.0000      -9.957745      -270.9640
  12   2.0000      -9.954983      -270.8889
  13   2.0000      -9.952096      -270.8103
  14   2.0000      -9.938267      -270.4340
  15   2.0000      -9.890388      -269.1311
  16   2.0000      -9.886911      -269.0365
  17   2.0000      -9.883456      -268.9425
  18   2.0000      -9.873912      -268.6828
  19   2.0000      -7.690687      -209.2742
  20   2.0000      -7.686925      -209.1719
  21   2.0000      -7.629212      -207.6014
  22   2.0000      -7.621469      -207.3907
  23   2.0000      -6.421810      -174.7463
  24   2.0000      -6.419202      -174.6754
  25   2.0000      -5.718472      -155.6075
  26   2.0000      -5.715271      -155.5204
  27   2.0000      -5.714944      -155.5115
  28   2.0000      -5.711312      -155.4127
  29   2.0000      -5.707683      -155.3140
  30   2.0000      -5.703903      -155.2111
  31   2.0000      -5.658036      -153.9630
  32   2.0000      -5.650594      -153.7605
  33   2.0000      -5.650043      -153.7455
  34   2.0000      -5.649279      -153.7247
  35   2.0000      -5.641909      -153.5242
  36   2.0000      -5.641524      -153.5137
  37   2.0000      -4.644281      -126.3773
  38   2.0000      -4.643686      -126.3611
  39   2.0000      -4.642341      -126.3245
  40   2.0000      -4.642323      -126.3240
  41   2.0000      -4.640772      -126.2818
  42   2.0000      -4.639353      -126.2432
  43   2.0000      -0.982218       -26.7275
  44   2.0000      -0.981402       -26.7053
  45   2.0000      -0.942522       -25.6473
  46   2.0000      -0.938942       -25.5499
  47   2.0000      -0.765926       -20.8419
  48   2.0000      -0.720397       -19.6030
  49   2.0000      -0.708149       -19.2697
  50   2.0000      -0.692940       -18.8558
  51   2.0000      -0.683371       -18.5955
  52   2.0000      -0.670892       -18.2559
  53   2.0000      -0.648180       -17.6379
  54   2.0000      -0.638106       -17.3638
  55   2.0000      -0.595157       -16.1950
  56   2.0000      -0.587661       -15.9911
  57   2.0000      -0.574428       -15.6310
  58   2.0000      -0.571629       -15.5548
  59   2.0000      -0.561550       -15.2806
  60   2.0000      -0.505862       -13.7652
  61   2.0000      -0.490928       -13.3588
  62   2.0000      -0.478254       -13.0139
  63   2.0000      -0.464987       -12.6529
  64   2.0000      -0.459991       -12.5170
  65   2.0000      -0.443715       -12.0741
  66   2.0000      -0.439295       -11.9538
  67   2.0000      -0.432716       -11.7748
  68   2.0000      -0.426459       -11.6045
  69   2.0000      -0.416966       -11.3462
  70   2.0000      -0.409630       -11.1466
  71   2.0000      -0.393215       -10.6999
  72   2.0000      -0.387917       -10.5558
  73   2.0000      -0.382224       -10.4008
  74   2.0000      -0.379294       -10.3211
  75   2.0000      -0.377072       -10.2607
  76   2.0000      -0.369599       -10.0573
  77   2.0000      -0.359321        -9.7776
  78   2.0000      -0.355084        -9.6623
  79   2.0000      -0.352026        -9.5791
  80   2.0000      -0.346681        -9.4337
  81   2.0000      -0.341416        -9.2904
  82   2.0000      -0.339860        -9.2481
  83   2.0000      -0.337605        -9.1867
  84   2.0000      -0.333446        -9.0735
  85   2.0000      -0.317696        -8.6449
  86   2.0000      -0.309963        -8.4345
  87   2.0000      -0.300973        -8.1899
  88   2.0000      -0.295107        -8.0303
  89   2.0000      -0.283862        -7.7243
  90   2.0000      -0.280413        -7.6304
  91   2.0000      -0.269477        -7.3328
  92   2.0000      -0.267101        -7.2682
  93   2.0000      -0.263515        -7.1706
  94   2.0000      -0.260263        -7.0821
  95   2.0000      -0.235256        -6.4016
  96   2.0000      -0.220144        -5.9904
  97   2.0000      -0.205896        -5.6027
  98   2.0000      -0.198505        -5.4016
  99   2.0000      -0.192535        -5.2391
 100   2.0000      -0.187051        -5.0899
 101   0.0000      -0.049543        -1.3481
 102   0.0000      -0.024466        -0.6658
 103   0.0000      -0.007713        -0.2099
 104   0.0000      -0.000210        -0.0057
 105   0.0000       0.017119         0.4658

MULLIKEN ATOMIC CHARGES
-----------------------
   0 C :   -0.304476
   1 C :   -0.002418
   2 O :   -0.341503
   3 P :    0.630915
   4 S :   -0.339609
   5 O :   -0.370018
   6 C :   -0.010105
   7 C :   -0.310197
   8 S :   -0.107546
   9 C :   -0.348101
  10 S :   -0.100501
  11 P :    0.608941
  12 S :   -0.288753
  13 O :   -0.362370
  14 C :   -0.019894
  15 C :   -0.293622
  16 O :   -0.397442
  17 C :   -0.006916
  18 C :   -0.313969
  19 H :    0.118537
  20 H :    0.117183
  21 H :    0.107882
  22 H :    0.105912
  23 H :    0.108438
  24 H :    0.113453
  25 H :    0.110878
  26 H :    0.110875
  27 H :    0.127543
  28 H :    0.122132
  29 H :    0.192744
  30 H :    0.187095
  31 H :    0.109046
  32 H :    0.106154
  33 H :    0.121097
  34 H :    0.110089
  35 H :    0.128722
  36 H :    0.101612
  37 H :    0.115334
  38 H :    0.116333
  39 H :    0.114792
  40 H :    0.131734
Sum of atomic charges:   -0.0000000

LOEWDIN ATOMIC CHARGES
----------------------
   0 C :   -0.363529
   1 C :   -0.120152
   2 O :   -0.226360
   3 P :    0.575903
   4 S :   -0.323993
   5 O :   -0.241611
   6 C :   -0.112929
   7 C :   -0.370377
   8 S :    0.090442
   9 C :   -0.475675
  10 S :    0.088943
  11 P :    0.558468
  12 S :   -0.294365
  13 O :   -0.244581
  14 C :   -0.119354
  15 C :   -0.359522
  16 O :   -0.262037
  17 C :   -0.119021
  18 C :   -0.361206
  19 H :    0.120810
  20 H :    0.126508
  21 H :    0.128244
  22 H :    0.118757
  23 H :    0.106212
  24 H :    0.109834
  25 H :    0.122492
  26 H :    0.129665
  27 H :    0.130042
  28 H :    0.119369
  29 H :    0.131793
  30 H :    0.131280
  31 H :    0.120498
  32 H :    0.107979
  33 H :    0.129357
  34 H :    0.130127
  35 H :    0.120562
  36 H :    0.115492
  37 H :    0.108940
  38 H :    0.123338
  39 H :    0.133295
  40 H :    0.116364

  Mayer bond orders larger than 0.100000
B(  0-C ,  1-C ) :   1.1638 B(  0-C , 19-H ) :   0.9376 B(  0-C , 20-H ) :   0.9466
B(  0-C , 21-H ) :   0.9407 B(  1-C ,  2-O ) :   0.9054 B(  1-C , 22-H ) :   0.9291
B(  1-C , 23-H ) :   0.9133 B(  2-O ,  3-P ) :   1.1462 B(  3-P ,  4-S ) :   1.5890
B(  3-P ,  5-O ) :   1.1158 B(  3-P ,  8-S ) :   0.9380 B(  4-S ,  8-S ) :   0.1061
B(  5-O ,  6-C ) :   0.9149 B(  6-C ,  7-C ) :   1.1633 B(  6-C , 24-H ) :   0.9287
B(  6-C , 25-H ) :   0.9343 B(  7-C , 26-H ) :   0.9347 B(  7-C , 27-H ) :   0.9421
B(  7-C , 28-H ) :   0.9331 B(  8-S ,  9-C ) :   1.0138 B(  9-C , 10-S ) :   0.9991
B(  9-C , 29-H ) :   0.8831 B(  9-C , 30-H ) :   0.8981 B( 10-S , 11-P ) :   0.9491
B( 10-S , 12-S ) :   0.1048 B( 11-P , 12-S ) :   1.6795 B( 11-P , 13-O ) :   1.1291
B( 11-P , 16-O ) :   1.0554 B( 13-O , 14-C ) :   0.8968 B( 14-C , 15-C ) :   1.1646
B( 14-C , 31-H ) :   0.9327 B( 14-C , 32-H ) :   0.9161 B( 15-C , 33-H ) :   0.9461
B( 15-C , 34-H ) :   0.9397 B( 15-C , 35-H ) :   0.9391 B( 16-O , 17-C ) :   0.9071
B( 17-C , 18-C ) :   1.1670 B( 17-C , 36-H ) :   0.9337 B( 17-C , 37-H ) :   0.8971
B( 18-C , 38-H ) :   0.9442 B( 18-C , 39-H ) :   0.9378 B( 18-C , 40-H ) :   0.9325

Dispersion correction           -0.066775432
FINAL SINGLE POINT ENERGY     -2929.515601306260

DIPOLE MOMENT
-------------

Method             : SCF
Type of density    : Electron Density
Multiplicity       :   1
Irrep              :   0
Energy             : -2929.6331388676730967 Eh
Relativity type    :
Basis              : AO
                                X                 Y                 Z
Electronic contribution:      0.091033797       1.594823388      -3.073583853
Nuclear contribution   :     -0.980806085      -2.145553417       3.635776775
                        -----------------------------------------
Total Dipole Moment    :     -0.889772289      -0.550730029       0.562192922
                        -----------------------------------------
Magnitude (a.u.)       :      1.187880116
Magnitude (Debye)      :      3.019351304

Rotational constants in cm-1:             0.011627             0.005547             0.004835
Rotational constants in MHz :           348.573260           166.299317           144.940223

                             ****ORCA TERMINATED NORMALLY****
TOTAL RUN TIME: 0 days 0 hours 0 minutes 21 seconds 398 msec
