                         Program Version 6.0.0  -   RELEASE  -
|  1> ! r2scan-3c def2/J RI DEFGRID2 scfconv6 printgap
|  2> %output
|  3>     printlevel normal
|  4> end
|  5> * xyz 0 1
|  6> C -1.0426748463 -2.9162696821 -0.0001835745
|  7> C -1.0104148645 -1.4171758963 -1.12162e-05
|  8> C -2.1779527426 -0.7009441908 0.0001276423
|  9> C -2.1784075308 0.6995383777 0.0001388237
| 10> C -1.0113373839 1.4165202968 -1.67359e-05
| 11> C 0.2234100859 0.7116772341 -2.9862e-05
| 12> C 0.2238795439 -0.7115133893 6.374e-06
| 13> C 1.4649792171 -1.3849454639 7.60829e-05
| 14> C 2.6474068412 -0.6994761769 7.92723e-05
| 15> C 2.6469368403 0.7011737156 -9.0352e-06
| 16> C 1.464067172 1.3858966233 -4.72946e-05
| 17> C -1.0447483867 2.9155914072 -0.0001063041
| 18> H -2.0708451996 -3.2688049706 -0.0006311178
| 19> H -0.5423010447 -3.3125247862 -0.8825334332
| 20> H -0.543013759 -3.3127080831 0.8824920394
| 21> H -3.1260035854 -1.2201965928 0.0002178916
| 22> H -3.1268185397 1.2181297694 0.0002573555
| 23> H 1.4782984761 -2.4632888696 0.0001375163
| 24> H 3.5865812554 -1.2330400884 0.0001496158
| 25> H 3.585746477 1.2353838999 1.04272e-05
| 26> H 1.4767805372 2.4642495373 -3.23544e-05
| 27> H -0.5454791359 3.3123019848 0.8826792178
| 28> H -0.5444339599 3.3122487013 -0.8823133598
| 29> H -2.0731825511 3.2673812891 -0.000721862
| 30> *
| 31>
| 32>                          ****END OF INPUT****

CARTESIAN COORDINATES (ANGSTROEM)
---------------------------------
  C     -1.042675   -2.916270   -0.000184
  C     -1.010415   -1.417176   -0.000011
  C     -2.177953   -0.700944    0.000128
  C     -2.178408    0.699538    0.000139
  C     -1.011337    1.416520   -0.000017
  C      0.223410    0.711677   -0.000030
  C      0.223880   -0.711513    0.000006
  C      1.464979   -1.384945    0.000076
  C      2.647407   -0.699476    0.000079
  C      2.646937    0.701174   -0.000009
  C      1.464067    1.385897   -0.000047
  C     -1.044748    2.915591   -0.000106
  H     -2.070845   -3.268805   -0.000631
  H     -0.542301   -3.312525   -0.882533
  H     -0.543014   -3.312708    0.882492
  H     -3.126004   -1.220197    0.000218
  H     -3.126819    1.218130    0.000257
  H      1.478298   -2.463289    0.000138
  H      3.586581   -1.233040    0.000150
  H      3.585746    1.235384    0.000010
  H      1.476781    2.464250   -0.000032
  H     -0.545479    3.312302    0.882679
  H     -0.544434    3.312249   -0.882313
  H     -2.073183    3.267381   -0.000722

 Total Charge           Charge          ....    0
 Multiplicity           Mult            ....    1
 Number of Electrons    NEL             ....   84
 Basis Dimension        Dim             ....  288

ORBITAL ENERGIES
----------------

  NO   OCC          E(Eh)            E(eV)
   0   2.0000     -10.041130      -273.2330
   1   2.0000     -10.040868      -273.2259
   2   2.0000     -10.040561      -273.2175
   3   2.0000     -10.040506      -273.2161
   4   2.0000     -10.033899      -273.0363
   5   2.0000     -10.033592      -273.0279
   6   2.0000     -10.033089      -273.0142
   7   2.0000     -10.033008      -273.0120
   8   2.0000     -10.027988      -272.8754
   9   2.0000     -10.027583      -272.8644
  10   2.0000     -10.027123      -272.8519
  11   2.0000     -10.027120      -272.8518
  12   2.0000      -0.845910       -23.0184
  13   2.0000      -0.793843       -21.6016
  14   2.0000      -0.767356       -20.8808
  15   2.0000      -0.709159       -19.2972
  16   2.0000      -0.704762       -19.1775
  17   2.0000      -0.688873       -18.7452
  18   2.0000      -0.622859       -16.9489
  19   2.0000      -0.589842       -16.0504
  20   2.0000      -0.583092       -15.8667
  21   2.0000      -0.534207       -14.5365
  22   2.0000      -0.476648       -12.9702
  23   2.0000      -0.476247       -12.9593
  24   2.0000      -0.454586       -12.3699
  25   2.0000      -0.423253       -11.5173
  26   2.0000      -0.405167       -11.0252
  27   2.0000      -0.401538       -10.9264
  28   2.0000      -0.389213       -10.5910
  29   2.0000      -0.384861       -10.4726
  30   2.0000      -0.379430       -10.3248
  31   2.0000      -0.363537        -9.8923
  32   2.0000      -0.353596        -9.6218
  33   2.0000      -0.347460        -9.4549
  34   2.0000      -0.346031        -9.4160
  35   2.0000      -0.333994        -9.0884
  36   2.0000      -0.299698        -8.1552
  37   2.0000      -0.298959        -8.1351
  38   2.0000      -0.291005        -7.9187
  39   2.0000      -0.252883        -6.8813
  40   2.0000      -0.229091        -6.2339
  41   2.0000      -0.194454        -5.2914
  42   0.0000      -0.063889        -1.7385
  43   0.0000      -0.034184        -0.9302
  44   0.0000       0.009547         0.2598
  45   0.0000       0.065760         1.7894
  46   0.0000       0.077147         2.0993

MULLIKEN ATOMIC CHARGES
-----------------------
   0 C :   -0.584552
   1 C :    0.125768
   2 C :   -0.229721
   3 C :   -0.229692
   4 C :    0.125716
   5 C :    0.193319
   6 C :    0.193200
   7 C :   -0.260648
   8 C :   -0.163830
   9 C :   -0.163827
  10 C :   -0.260687
  11 C :   -0.584529
  12 H :    0.150637
  13 H :    0.168727
  14 H :    0.168760
  15 H :    0.143994
  16 H :    0.143995
  17 H :    0.143485
  18 H :    0.144143
  19 H :    0.144141
  20 H :    0.143485
  21 H :    0.168775
  22 H :    0.168702
  23 H :    0.150640
Sum of atomic charges:   -0.0000000

LOEWDIN ATOMIC CHARGES
----------------------
   0 C :   -0.390163
   1 C :   -0.083459
   2 C :   -0.162978
   3 C :   -0.162980
   4 C :   -0.083458
   5 C :   -0.048290
   6 C :   -0.048288
   7 C :   -0.145530
   8 C :   -0.163900
   9 C :   -0.163901
  10 C :   -0.145532
  11 C :   -0.390158
  12 H :    0.160303
  13 H :    0.163734
  14 H :    0.163739
  15 H :    0.167416
  16 H :    0.167416
  17 H :    0.172189
  18 H :    0.166937
  19 H :    0.166935
  20 H :    0.172188
  21 H :    0.163742
  22 H :    0.163730
  23 H :    0.160307

  Mayer bond orders larger than 0.100000
B(  0-C ,  1-C ) :   0.7527 B(  0-C , 12-H ) :   0.9882 B(  0-C , 13-H ) :   0.9794
B(  0-C , 14-H ) :   0.9794 B(  1-C ,  2-C ) :   1.4903 B(  1-C ,  6-C ) :   1.2884
B(  2-C ,  3-C ) :   1.3064 B(  2-C , 15-H ) :   0.9166 B(  3-C ,  4-C ) :   1.4903
B(  3-C , 16-H ) :   0.9165 B(  4-C ,  5-C ) :   1.2885 B(  4-C , 11-C ) :   0.7527
B(  5-C ,  6-C ) :   1.3467 B(  5-C , 10-C ) :   1.2312 B(  6-C ,  7-C ) :   1.2312
B(  7-C ,  8-C ) :   1.5008 B(  7-C , 17-H ) :   0.9402 B(  8-C ,  9-C ) :   1.2681
B(  8-C , 18-H ) :   0.9494 B(  9-C , 10-C ) :   1.5008 B(  9-C , 19-H ) :   0.9494
B( 10-C , 20-H ) :   0.9402 B( 11-C , 21-H ) :   0.9794 B( 11-C , 22-H ) :   0.9794
B( 11-C , 23-H ) :   0.9882

Dispersion correction           -0.009739414
FINAL SINGLE POINT ENERGY      -464.388559531776

DIPOLE MOMENT
-------------

Method             : SCF
Type of density    : Electron Density
Multiplicity       :   1
Irrep              :   0
Energy             :  -464.3860867309186915 Eh
Relativity type    :
Basis              : AO
                                X                 Y                 Z
Electronic contribution:      2.270821470       0.000798366       0.000328087
Nuclear contribution   :     -2.293515089      -0.000814527      -0.000270252
                        -----------------------------------------
Total Dipole Moment    :     -0.022693619      -0.000016161       0.000057835
                        -----------------------------------------
Magnitude (a.u.)       :      0.022693699
Magnitude (Debye)      :      0.057682798

Rotational constants in cm-1:             0.039992             0.037564             0.019511
Rotational constants in MHz :          1198.936325          1126.150379           584.923080

                             ****ORCA TERMINATED NORMALLY****
TOTAL RUN TIME: 0 days 0 hours 0 minutes 42 seconds 126 msec
