                         Program Version 6.0.0  -   RELEASE  -
|  1> ! r2scan-3c def2/J RI DEFGRID2 scfconv6 printgap
|  2> %output
|  3>     printlevel normal
|  4> end
|  5> %cpcm
|  6>     smd true
|  7>     smdsolvent "water"
|  8> end
|  9> * xyz 0 1
| 10> C -1.0426748463 -2.9162696821 -0.0001835745
| 11> C -1.0104148645 -1.4171758963 -1.12162e-05
| 12> C -2.1779527426 -0.7009441908 0.0001276423
| 13> C -2.1784075308 0.6995383777 0.0001388237
| 14> C -1.0113373839 1.4165202968 -1.67359e-05
| 15> C 0.2234100859 0.7116772341 -2.9862e-05
| 16> C 0.2238795439 -0.7115133893 6.374e-06
| 17> C 1.4649792171 -1.3849454639 7.60829e-05
| 18> C 2.6474068412 -0.6994761769 7.92723e-05
| 19> C 2.6469368403 0.7011737156 -9.0352e-06
| 20> C 1.464067172 1.3858966233 -4.72946e-05
| 21> C -1.0447483867 2.9155914072 -0.0001063041
| 22> H -2.0708451996 -3.2688049706 -0.0006311178
| 23> H -0.5423010447 -3.3125247862 -0.8825334332
| 24> H -0.543013759 -3.3127080831 0.8824920394
| 25> H -3.1260035854 -1.2201965928 0.0002178916
| 26> H -3.1268185397 1.2181297694 0.0002573555
| 27> H 1.4782984761 -2.4632888696 0.0001375163
| 28> H 3.5865812554 -1.2330400884 0.0001496158
| 29> H 3.585746477 1.2353838999 1.04272e-05
| 30> H 1.4767805372 2.4642495373 -3.23544e-05
| 31> H -0.5454791359 3.3123019848 0.8826792178
| 32> H -0.5444339599 3.3122487013 -0.8823133598
| 33> H -2.0731825511 3.2673812891 -0.000721862
| 34> *
| 35>
| 36>                          ****END OF INPUT****

CARTESIAN COORDINATES (ANGSTROEM)
---------------------------------
  C     -1.042675   -2.916270   -0.000184
  C     -1.010415   -1.417176   -0.000011
  C     -2.177953   -0.700944    0.000128
  C     -2.178408    0.699538    0.000139
  C     -1.011337    1.416520   -0.000017
  C      0.223410    0.711677   -0.000030
  C      0.223880   -0.711513    0.000006
  C      1.464979   -1.384945    0.000076
  C      2.647407   -0.699476    0.000079
  C      2.646937    0.701174   -0.000009
  C      1.464067    1.385897   -0.000047
  C     -1.044748    2.915591   -0.000106
  H     -2.070845   -3.268805   -0.000631
  H     -0.542301   -3.312525   -0.882533
  H     -0.543014   -3.312708    0.882492
  H     -3.126004   -1.220197    0.000218
  H     -3.126819    1.218130    0.000257
  H      1.478298   -2.463289    0.000138
  H      3.586581   -1.233040    0.000150
  H      3.585746    1.235384    0.000010
  H      1.476781    2.464250   -0.000032
  H     -0.545479    3.312302    0.882679
  H     -0.544434    3.312249   -0.882313
  H     -2.073183    3.267381   -0.000722

 Total Charge           Charge          ....    0
 Multiplicity           Mult            ....    1
 Number of Electrons    NEL             ....   84
 Basis Dimension        Dim             ....  288

ORBITAL ENERGIES
----------------

  NO   OCC          E(Eh)            E(eV)
   0   2.0000     -10.042576      -273.2724
   1   2.0000     -10.042253      -273.2636
   2   2.0000     -10.040395      -273.2130
   3   2.0000     -10.040389      -273.2129
   4   2.0000     -10.032765      -273.0054
   5   2.0000     -10.032609      -273.0012
   6   2.0000     -10.032212      -272.9904
   7   2.0000     -10.031981      -272.9841
   8   2.0000     -10.026586      -272.8373
   9   2.0000     -10.026181      -272.8263
  10   2.0000     -10.017893      -272.6007
  11   2.0000     -10.017890      -272.6006
  12   2.0000      -0.847538       -23.0627
  13   2.0000      -0.794437       -21.6177
  14   2.0000      -0.765636       -20.8340
  15   2.0000      -0.709666       -19.3110
  16   2.0000      -0.703753       -19.1501
  17   2.0000      -0.683053       -18.5868
  18   2.0000      -0.617956       -16.8154
  19   2.0000      -0.588800       -16.0221
  20   2.0000      -0.582133       -15.8407
  21   2.0000      -0.532008       -14.4767
  22   2.0000      -0.473840       -12.8938
  23   2.0000      -0.473443       -12.8830
  24   2.0000      -0.452091       -12.3020
  25   2.0000      -0.420167       -11.4333
  26   2.0000      -0.400656       -10.9024
  27   2.0000      -0.398744       -10.8504
  28   2.0000      -0.383539       -10.4366
  29   2.0000      -0.381884       -10.3916
  30   2.0000      -0.373667       -10.1680
  31   2.0000      -0.359069        -9.7708
  32   2.0000      -0.347699        -9.4614
  33   2.0000      -0.346876        -9.4390
  34   2.0000      -0.339699        -9.2437
  35   2.0000      -0.329292        -8.9605
  36   2.0000      -0.301856        -8.2139
  37   2.0000      -0.296453        -8.0669
  38   2.0000      -0.287879        -7.8336
  39   2.0000      -0.255306        -6.9472
  40   2.0000      -0.233019        -6.3408
  41   2.0000      -0.196307        -5.3418
  42   0.0000      -0.065706        -1.7879
  43   0.0000      -0.037123        -1.0102
  44   0.0000       0.007549         0.2054
  45   0.0000       0.065028         1.7695
  46   0.0000       0.086041         2.3413

MULLIKEN ATOMIC CHARGES
-----------------------
   0 C :   -0.594609
   1 C :    0.093339
   2 C :   -0.254986
   3 C :   -0.254975
   4 C :    0.093308
   5 C :    0.165965
   6 C :    0.165951
   7 C :   -0.272250
   8 C :   -0.201520
   9 C :   -0.201508
  10 C :   -0.272283
  11 C :   -0.594579
  12 H :    0.170866
  13 H :    0.183535
  14 H :    0.183562
  15 H :    0.175302
  16 H :    0.175300
  17 H :    0.174462
  18 H :    0.176350
  19 H :    0.176349
  20 H :    0.174465
  21 H :    0.183571
  22 H :    0.183512
  23 H :    0.170872
Sum of atomic charges:   -0.0000000

LOEWDIN ATOMIC CHARGES
----------------------
   0 C :   -0.393958
   1 C :   -0.090366
   2 C :   -0.173919
   3 C :   -0.173921
   4 C :   -0.090365
   5 C :   -0.063280
   6 C :   -0.063278
   7 C :   -0.152501
   8 C :   -0.172881
   9 C :   -0.172883
  10 C :   -0.152501
  11 C :   -0.393954
  12 H :    0.166428
  13 H :    0.170048
  14 H :    0.170053
  15 H :    0.178751
  16 H :    0.178751
  17 H :    0.183604
  18 H :    0.178018
  19 H :    0.178017
  20 H :    0.183604
  21 H :    0.170054
  22 H :    0.170044
  23 H :    0.166434

  Mayer bond orders larger than 0.100000
B(  0-C ,  1-C ) :   0.7898 B(  0-C , 12-H ) :   0.9819 B(  0-C , 13-H ) :   0.9704
B(  0-C , 14-H ) :   0.9704 B(  1-C ,  2-C ) :   1.4693 B(  1-C ,  5-C ) :  -0.1033
B(  1-C ,  6-C ) :   1.2402 B(  2-C ,  3-C ) :   1.2627 B(  2-C , 15-H ) :   0.9435
B(  3-C ,  4-C ) :   1.4693 B(  3-C , 16-H ) :   0.9435 B(  4-C ,  5-C ) :   1.2402
B(  4-C ,  6-C ) :  -0.1033 B(  4-C , 11-C ) :   0.7898 B(  5-C ,  6-C ) :   1.2730
B(  5-C , 10-C ) :   1.2233 B(  6-C ,  7-C ) :   1.2233 B(  7-C ,  8-C ) :   1.4665
B(  7-C , 17-H ) :   0.9522 B(  8-C ,  9-C ) :   1.2311 B(  8-C , 18-H ) :   0.9640
B(  9-C , 10-C ) :   1.4665 B(  9-C , 19-H ) :   0.9640 B( 10-C , 20-H ) :   0.9522
B( 11-C , 21-H ) :   0.9704 B( 11-C , 22-H ) :   0.9704 B( 11-C , 23-H ) :   0.9819

Dispersion correction           -0.009739414
FINAL SINGLE POINT ENERGY      -464.391627661880

DIPOLE MOMENT
-------------

Method             : SCF
Type of density    : Electron Density
Multiplicity       :   1
Irrep              :   0
Energy             :  -464.3891548610219502 Eh
Relativity type    :
Basis              : AO
                                X                 Y                 Z
Electronic contribution:      2.283317086       0.000804709       0.000342444
Nuclear contribution   :     -2.293515089      -0.000814527      -0.000270252
                        -----------------------------------------
Total Dipole Moment    :     -0.010198003      -0.000009818       0.000072192
                        -----------------------------------------
Magnitude (a.u.)       :      0.010198263
Magnitude (Debye)      :      0.025921925

Rotational constants in cm-1:             0.039992             0.037564             0.019511
Rotational constants in MHz :          1198.936325          1126.150379           584.923080

                             ****ORCA TERMINATED NORMALLY****
TOTAL RUN TIME: 0 days 0 hours 0 minutes 36 seconds 869 msec
