                         Program Version 6.0.1  -  RELEASE   -
|  1> ! pbe def2-sv(p) def2/J RI DEFGRID1 loosescf d4 GCP(DFT/SV(P)) printgap
|  2> %output
|  3>     printlevel normal
|  4> end
|  5> * xyz 0 1
|  6> C 2.215143558 -4.3182811979 0.0250915248
|  7> C 1.2695125947 -3.4620531767 -0.8011954172
|  8> O 1.3208732694 -2.0890419672 -0.3737003648
|  9> C 2.1859981265 -1.2793558975 -0.9566860697
| 10> O 2.9547209069 -1.6012790422 -1.8319830313
| 11> C 2.0634461983 0.1247396459 -0.3958485114
| 12> C 0.9660080165 0.9075640388 -1.1366057702
| 13> H 1.3408142749 1.2772041345 -2.0924711661
| 14> C 0.5022518706 2.0562263819 -0.2589567955
| 15> O -0.5921202752 2.0541141211 0.271772279
| 16> O 1.4103249555 2.9745756103 -0.1195249205
| 17> C 1.1232709 4.1090204182 0.7323734263
| 18> C 0.3806338478 5.1873764947 -0.0380814588
| 19> S -0.5153809929 -0.0727434862 -1.5500315363
| 20> P -1.3372510552 -0.3684202833 0.3756547285
| 21> S -0.3817397575 -0.3055697392 2.0979927801
| 22> O -2.7921300532 0.2959328817 0.4159291929
| 23> C -3.1666741054 1.4485652283 1.1689464753
| 24> O -1.7741911616 -1.8651256645 -0.0051925229
| 25> C -2.4658292879 -2.6885421863 0.937542597
| 26> H 1.9910141354 -4.2065326421 1.082706541
| 27> H 2.0977984753 -5.3585376505 -0.2596740881
| 28> H 3.2442474581 -4.0152178778 -0.1531747276
| 29> H 0.2293323652 -3.7556282323 -0.6553587885
| 30> H 1.5285234005 -3.5021022643 -1.8630703415
| 31> H 3.0110492821 0.6485819019 -0.5158034945
| 32> H 1.8098527194 0.0405736503 0.6629767656
| 33> H 0.5386185837 3.7617735217 1.5881981787
| 34> H 2.1055405912 4.4529200546 1.0551241714
| 35> H -0.5894359339 4.8192004641 -0.3636704467
| 36> H 0.2313706632 6.0468476272 0.6068560299
| 37> H 0.9555084139 5.4888564042 -0.9091036433
| 38> H -3.0664203873 2.3365191603 0.5487868706
| 39> H -2.5320703921 1.5431296671 2.0513821242
| 40> H -4.203611679 1.2927708796 1.4585105504
| 41> H -2.4921676867 -3.6833034379 0.4999797216
| 42> H -3.4775785545 -2.314570892 1.0931054681
| 43> H -1.9275581594 -2.7025518698 1.8876142464
| 44> *
| 45>
| 46>                          ****END OF INPUT****

CARTESIAN COORDINATES (ANGSTROEM)
---------------------------------
  C      2.215144   -4.318281    0.025092
  C      1.269513   -3.462053   -0.801195
  O      1.320873   -2.089042   -0.373700
  C      2.185998   -1.279356   -0.956686
  O      2.954721   -1.601279   -1.831983
  C      2.063446    0.124740   -0.395849
  C      0.966008    0.907564   -1.136606
  H      1.340814    1.277204   -2.092471
  C      0.502252    2.056226   -0.258957
  O     -0.592120    2.054114    0.271772
  O      1.410325    2.974576   -0.119525
  C      1.123271    4.109020    0.732373
  C      0.380634    5.187376   -0.038081
  S     -0.515381   -0.072743   -1.550032
  P     -1.337251   -0.368420    0.375655
  S     -0.381740   -0.305570    2.097993
  O     -2.792130    0.295933    0.415929
  C     -3.166674    1.448565    1.168946
  O     -1.774191   -1.865126   -0.005193
  C     -2.465829   -2.688542    0.937543
  H      1.991014   -4.206533    1.082707
  H      2.097798   -5.358538   -0.259674
  H      3.244247   -4.015218   -0.153175
  H      0.229332   -3.755628   -0.655359
  H      1.528523   -3.502102   -1.863070
  H      3.011049    0.648582   -0.515803
  H      1.809853    0.040574    0.662977
  H      0.538619    3.761774    1.588198
  H      2.105541    4.452920    1.055124
  H     -0.589436    4.819200   -0.363670
  H      0.231371    6.046848    0.606856
  H      0.955508    5.488856   -0.909104
  H     -3.066420    2.336519    0.548787
  H     -2.532070    1.543130    2.051382
  H     -4.203612    1.292771    1.458511
  H     -2.492168   -3.683303    0.499980
  H     -3.477579   -2.314571    1.093105
  H     -1.927558   -2.702552    1.887614

 Total Charge           Charge          ....    0
 Multiplicity           Mult            ....    1
 Number of Electrons    NEL             ....  174
 Basis Dimension        Dim             ....  316

ORBITAL ENERGIES
----------------

  NO   OCC          E(Eh)            E(eV)
   0   2.0000     -88.034044     -2395.5281
   1   2.0000     -87.972527     -2393.8542
   2   2.0000     -76.419755     -2079.4872
   3   2.0000     -18.829397      -512.3739
   4   2.0000     -18.792421      -511.3678
   5   2.0000     -18.780855      -511.0530
   6   2.0000     -18.775529      -510.9081
   7   2.0000     -18.766820      -510.6711
   8   2.0000     -18.730126      -509.6726
   9   2.0000     -10.033707      -273.0311
  10   2.0000     -10.003287      -272.2033
  11   2.0000      -9.965315      -271.1700
  12   2.0000      -9.955595      -270.9055
  13   2.0000      -9.936446      -270.3844
  14   2.0000      -9.933596      -270.3069
  15   2.0000      -9.932228      -270.2697
  16   2.0000      -9.904439      -269.5135
  17   2.0000      -9.901350      -269.4294
  18   2.0000      -9.879054      -268.8227
  19   2.0000      -7.679227      -208.9624
  20   2.0000      -7.617749      -207.2895
  21   2.0000      -6.415436      -174.5729
  22   2.0000      -5.707560      -155.3106
  23   2.0000      -5.704126      -155.2172
  24   2.0000      -5.695239      -154.9753
  25   2.0000      -5.646881      -153.6595
  26   2.0000      -5.638581      -153.4336
  27   2.0000      -5.637402      -153.4015
  28   2.0000      -4.638066      -126.2082
  29   2.0000      -4.637451      -126.1915
  30   2.0000      -4.636035      -126.1529
  31   2.0000      -1.039800       -28.2944
  32   2.0000      -1.001051       -27.2400
  33   2.0000      -0.971437       -26.4342
  34   2.0000      -0.945141       -25.7186
  35   2.0000      -0.926942       -25.2234
  36   2.0000      -0.907998       -24.7079
  37   2.0000      -0.768549       -20.9133
  38   2.0000      -0.721815       -19.6416
  39   2.0000      -0.701584       -19.0911
  40   2.0000      -0.686667       -18.6852
  41   2.0000      -0.649111       -17.6632
  42   2.0000      -0.631524       -17.1846
  43   2.0000      -0.620718       -16.8906
  44   2.0000      -0.619638       -16.8612
  45   2.0000      -0.592294       -16.1171
  46   2.0000      -0.564179       -15.3521
  47   2.0000      -0.517465       -14.0809
  48   2.0000      -0.505593       -13.7579
  49   2.0000      -0.490634       -13.3508
  50   2.0000      -0.487710       -13.2713
  51   2.0000      -0.467556       -12.7228
  52   2.0000      -0.455402       -12.3921
  53   2.0000      -0.451976       -12.2989
  54   2.0000      -0.441169       -12.0048
  55   2.0000      -0.433877       -11.8064
  56   2.0000      -0.419545       -11.4164
  57   2.0000      -0.415437       -11.3046
  58   2.0000      -0.411284       -11.1916
  59   2.0000      -0.403271       -10.9736
  60   2.0000      -0.400712       -10.9039
  61   2.0000      -0.396095       -10.7783
  62   2.0000      -0.388317       -10.5666
  63   2.0000      -0.384825       -10.4716
  64   2.0000      -0.377436       -10.2706
  65   2.0000      -0.370898       -10.0926
  66   2.0000      -0.360600        -9.8124
  67   2.0000      -0.358070        -9.7436
  68   2.0000      -0.347209        -9.4480
  69   2.0000      -0.345413        -9.3992
  70   2.0000      -0.335876        -9.1396
  71   2.0000      -0.325158        -8.8480
  72   2.0000      -0.321750        -8.7553
  73   2.0000      -0.314545        -8.5592
  74   2.0000      -0.304387        -8.2828
  75   2.0000      -0.295169        -8.0320
  76   2.0000      -0.287828        -7.8322
  77   2.0000      -0.286218        -7.7884
  78   2.0000      -0.277766        -7.5584
  79   2.0000      -0.261806        -7.1241
  80   2.0000      -0.260620        -7.0918
  81   2.0000      -0.251326        -6.8389
  82   2.0000      -0.247609        -6.7378
  83   2.0000      -0.215859        -5.8738
  84   2.0000      -0.207877        -5.6566
  85   2.0000      -0.192102        -5.2274
  86   2.0000      -0.186179        -5.0662
  87   0.0000      -0.048403        -1.3171
  88   0.0000      -0.043217        -1.1760
  89   0.0000      -0.014185        -0.3860
  90   0.0000       0.007860         0.2139
  91   0.0000       0.031741         0.8637

MULLIKEN ATOMIC CHARGES
-----------------------
   0 C :   -0.303516
   1 C :   -0.011512
   2 O :   -0.217836
   3 C :    0.115287
   4 O :   -0.199089
   5 C :   -0.065121
   6 C :   -0.334341
   7 H :    0.149693
   8 C :    0.233427
   9 O :   -0.195157
  10 O :   -0.215658
  11 C :   -0.012136
  12 C :   -0.311462
  13 S :   -0.058278
  14 P :    0.659897
  15 S :   -0.355022
  16 O :   -0.390422
  17 C :   -0.085767
  18 O :   -0.390262
  19 C :   -0.100161
  20 H :    0.117856
  21 H :    0.108664
  22 H :    0.120630
  23 H :    0.107017
  24 H :    0.104911
  25 H :    0.110567
  26 H :    0.127900
  27 H :    0.121911
  28 H :    0.112789
  29 H :    0.130689
  30 H :    0.121260
  31 H :    0.120682
  32 H :    0.112903
  33 H :    0.113104
  34 H :    0.113038
  35 H :    0.119037
  36 H :    0.110105
  37 H :    0.114373
Sum of atomic charges:    0.0000000

LOEWDIN ATOMIC CHARGES
----------------------
   0 C :   -0.355324
   1 C :   -0.111298
   2 O :   -0.051306
   3 C :    0.021318
   4 O :   -0.166043
   5 C :   -0.256619
   6 C :   -0.257572
   7 H :    0.149579
   8 C :    0.028060
   9 O :   -0.155195
  10 O :   -0.033455
  11 C :   -0.104945
  12 C :   -0.355343
  13 S :    0.130884
  14 P :    0.596657
  15 S :   -0.334019
  16 O :   -0.253926
  17 C :   -0.212758
  18 O :   -0.263791
  19 C :   -0.218231
  20 H :    0.126346
  21 H :    0.128253
  22 H :    0.128064
  23 H :    0.117421
  24 H :    0.118323
  25 H :    0.140945
  26 H :    0.133135
  27 H :    0.126434
  28 H :    0.123527
  29 H :    0.131157
  30 H :    0.135176
  31 H :    0.128254
  32 H :    0.110842
  33 H :    0.106985
  34 H :    0.114154
  35 H :    0.116507
  36 H :    0.109757
  37 H :    0.108048

  Mayer bond orders larger than 0.100000
B(  0-C ,  1-C ) :   1.1739 B(  0-C , 20-H ) :   0.9483 B(  0-C , 21-H ) :   0.9455
B(  0-C , 22-H ) :   0.9473 B(  1-C ,  2-O ) :   0.9124 B(  1-C , 23-H ) :   0.9288
B(  1-C , 24-H ) :   0.9133 B(  2-O ,  3-C ) :   1.2159 B(  3-C ,  4-O ) :   2.0634
B(  3-C ,  5-C ) :   1.0174 B(  5-C ,  6-C ) :   1.0319 B(  5-C , 25-H ) :   0.8864
B(  5-C , 26-H ) :   0.8640 B(  6-C ,  7-H ) :   0.8706 B(  6-C ,  8-C ) :   0.9093
B(  6-C , 13-S ) :   1.0634 B(  8-C ,  9-O ) :   1.9186 B(  8-C , 10-O ) :   1.2868
B(  9-O , 14-P ) :   0.1162 B( 10-O , 11-C ) :   0.8945 B( 11-C , 12-C ) :   1.1747
B( 11-C , 27-H ) :   0.9152 B( 11-C , 28-H ) :   0.9357 B( 12-C , 29-H ) :   0.9457
B( 12-C , 30-H ) :   0.9429 B( 12-C , 31-H ) :   0.9472 B( 13-S , 14-P ) :   0.9213
B( 13-S , 15-S ) :   0.1125 B( 14-P , 15-S ) :   1.5514 B( 14-P , 16-O ) :   1.0950
B( 14-P , 18-O ) :   1.0715 B( 16-O , 17-C ) :   0.9330 B( 17-C , 32-H ) :   0.9531
B( 17-C , 33-H ) :   0.9324 B( 17-C , 34-H ) :   0.9548 B( 18-O , 19-C ) :   0.9402
B( 19-C , 35-H ) :   0.9572 B( 19-C , 36-H ) :   0.9507 B( 19-C , 37-H ) :   0.9337

Dispersion correction           -0.054025997
FINAL SINGLE POINT ENERGY     -1979.009339049604

DIPOLE MOMENT
-------------

Method             : SCF
Type of density    : Electron Density
Multiplicity       :   1
Irrep              :   0
Energy             : -1979.1389517913526106 Eh
Relativity type    :
Basis              : AO
                                X                 Y                 Z
Electronic contribution:     -2.354651662      -1.235249381      -4.654074923
Nuclear contribution   :      1.974309326       2.372487670       4.993232529
                        -----------------------------------------
Total Dipole Moment    :     -0.380342336       1.137238289       0.339157606
                        -----------------------------------------
Magnitude (a.u.)       :      1.246193845
Magnitude (Debye)      :      3.167573023

Rotational constants in cm-1:             0.012860             0.008373             0.006024
Rotational constants in MHz :           385.520437           251.019369           180.595935

                             ****ORCA TERMINATED NORMALLY****
TOTAL RUN TIME: 0 days 0 hours 0 minutes 40 seconds 400 msec
