                         Program Version 6.0.0  -   RELEASE  -
|  1> ! r2scan-3c def2/J RI DEFGRID2 scfconv6 printgap
|  2> %output
|  3>     printlevel normal
|  4> end
|  5> * xyz 0 1
|  6> C 5.8368426388 -0.4945162638 -0.5159185148
|  7> C 4.3772684092 -0.8331667274 -0.7421371167
|  8> O 3.5850747883 0.258411858 -0.2379105152
|  9> P 2.0572056501 0.4289301625 -0.6512486249
| 10> S 1.7705702266 0.3878425829 -2.5866239797
| 11> O 1.7136747132 1.8160000959 -0.0001343013
| 12> C 1.4506071133 2.0923469657 1.3964587499
| 13> C 2.5218693505 1.5551516123 2.3195073422
| 14> S 1.1187193693 -1.133668024 0.4536635978
| 15> C -0.0020244004 -1.8227978499 -0.8044688781
| 16> S -1.696940955 -2.0031892298 -0.2084662975
| 17> P -2.0700812969 0.0397090875 0.2572013089
| 18> S -1.3524123643 1.3766275313 -0.9840166164
| 19> O -1.5036920241 0.2425793576 1.7160953325
| 20> C -1.8597139509 -0.5945872858 2.8479402239
| 21> C -2.9751409645 0.0368559543 3.6543339201
| 22> O -3.6413543528 0.0869026591 0.4858466761
| 23> C -4.5808573655 0.3100915317 -0.580508739
| 24> C -4.5900881916 -0.8196771147 -1.5895317196
| 25> H 6.0921723576 0.4199669272 -1.0439231828
| 26> H 6.026321155 -0.3542827884 0.544146157
| 27> H 6.4521662685 -1.306903084 -0.8880737239
| 28> H 4.0895229322 -1.7400726104 -0.2027713348
| 29> H 4.1549538022 -0.9625677036 -1.8070037425
| 30> H 1.3989948027 3.1821110504 1.4234616807
| 31> H 0.468003506 1.6776477461 1.6404568248
| 32> H 3.4968491007 1.9287768898 2.0175625675
| 33> H 2.3079258516 1.8799301043 3.3331416152
| 34> H 2.5358111925 0.4665485326 2.2904975608
| 35> H 0.3339738378 -2.825290843 -1.0574949944
| 36> H 0.0259948208 -1.1666482046 -1.6795727725
| 37> H -2.1462111903 -1.5831496554 2.4794789394
| 38> H -0.9377014081 -0.6709736567 3.427125034
| 39> H -2.6904465828 1.0371554774 3.9686589961
| 40> H -3.8816282726 0.1010515248 3.0587836088
| 41> H -3.1650078581 -0.5739839311 4.5313073644
| 42> H -5.5393163428 0.3981806641 -0.0668913994
| 43> H -4.3303634078 1.2581247256 -1.066254342
| 44> H -4.7133196915 -1.7761199394 -1.0876222755
| 45> H -5.4079549866 -0.6693123882 -2.2869624761
| 46> H -3.6538093007 -0.8312968178 -2.1458527835
| 47> *
| 48>
| 49>                          ****END OF INPUT****

CARTESIAN COORDINATES (ANGSTROEM)
---------------------------------
  C      5.836843   -0.494516   -0.515919
  C      4.377268   -0.833167   -0.742137
  O      3.585075    0.258412   -0.237911
  P      2.057206    0.428930   -0.651249
  S      1.770570    0.387843   -2.586624
  O      1.713675    1.816000   -0.000134
  C      1.450607    2.092347    1.396459
  C      2.521869    1.555152    2.319507
  S      1.118719   -1.133668    0.453664
  C     -0.002024   -1.822798   -0.804469
  S     -1.696941   -2.003189   -0.208466
  P     -2.070081    0.039709    0.257201
  S     -1.352412    1.376628   -0.984017
  O     -1.503692    0.242579    1.716095
  C     -1.859714   -0.594587    2.847940
  C     -2.975141    0.036856    3.654334
  O     -3.641354    0.086903    0.485847
  C     -4.580857    0.310092   -0.580509
  C     -4.590088   -0.819677   -1.589532
  H      6.092172    0.419967   -1.043923
  H      6.026321   -0.354283    0.544146
  H      6.452166   -1.306903   -0.888074
  H      4.089523   -1.740073   -0.202771
  H      4.154954   -0.962568   -1.807004
  H      1.398995    3.182111    1.423462
  H      0.468004    1.677648    1.640457
  H      3.496849    1.928777    2.017563
  H      2.307926    1.879930    3.333142
  H      2.535811    0.466549    2.290498
  H      0.333974   -2.825291   -1.057495
  H      0.025995   -1.166648   -1.679573
  H     -2.146211   -1.583150    2.479479
  H     -0.937701   -0.670974    3.427125
  H     -2.690447    1.037155    3.968659
  H     -3.881628    0.101052    3.058784
  H     -3.165008   -0.573984    4.531307
  H     -5.539316    0.398181   -0.066891
  H     -4.330363    1.258125   -1.066254
  H     -4.713320   -1.776120   -1.087622
  H     -5.407955   -0.669312   -2.286962
  H     -3.653809   -0.831297   -2.145853

 Total Charge           Charge          ....    0
 Multiplicity           Mult            ....    1
 Number of Electrons    NEL             ....  202
 Basis Dimension        Dim             ....  539

ORBITAL ENERGIES
----------------

  NO   OCC          E(Eh)            E(eV)
   0   2.0000     -88.576556     -2410.2906
   1   2.0000     -88.572154     -2410.1708
   2   2.0000     -88.515043     -2408.6168
   3   2.0000     -88.508162     -2408.4295
   4   2.0000     -76.913451     -2092.9214
   5   2.0000     -76.906407     -2092.7297
   6   2.0000     -18.995029      -516.8810
   7   2.0000     -18.992588      -516.8146
   8   2.0000     -18.982214      -516.5323
   9   2.0000     -18.981913      -516.5241
  10   2.0000     -10.104544      -274.9586
  11   2.0000     -10.103568      -274.9321
  12   2.0000     -10.100841      -274.8579
  13   2.0000     -10.093133      -274.6481
  14   2.0000     -10.090635      -274.5801
  15   2.0000     -10.034379      -273.0493
  16   2.0000     -10.029658      -272.9209
  17   2.0000     -10.029577      -272.9187
  18   2.0000     -10.028074      -272.8778
  19   2.0000      -7.871088      -214.1832
  20   2.0000      -7.866557      -214.0599
  21   2.0000      -7.809460      -212.5062
  22   2.0000      -7.803067      -212.3323
  23   2.0000      -6.591760      -179.3709
  24   2.0000      -6.584652      -179.1775
  25   2.0000      -5.817993      -158.3156
  26   2.0000      -5.814765      -158.2278
  27   2.0000      -5.813359      -158.1895
  28   2.0000      -5.810362      -158.1080
  29   2.0000      -5.808316      -158.0523
  30   2.0000      -5.803777      -157.9288
  31   2.0000      -5.757350      -156.6654
  32   2.0000      -5.750812      -156.4875
  33   2.0000      -5.749606      -156.4547
  34   2.0000      -5.749439      -156.4502
  35   2.0000      -5.743483      -156.2881
  36   2.0000      -5.742804      -156.2697
  37   2.0000      -4.737611      -128.9169
  38   2.0000      -4.736773      -128.8942
  39   2.0000      -4.735093      -128.8484
  40   2.0000      -4.730298      -128.7180
  41   2.0000      -4.729729      -128.7025
  42   2.0000      -4.728147      -128.6594
  43   2.0000      -1.052788       -28.6478
  44   2.0000      -1.041609       -28.3436
  45   2.0000      -1.012675       -27.5563
  46   2.0000      -1.001251       -27.2454
  47   2.0000      -0.798274       -21.7221
  48   2.0000      -0.757308       -20.6074
  49   2.0000      -0.749599       -20.3976
  50   2.0000      -0.736590       -20.0436
  51   2.0000      -0.730697       -19.8833
  52   2.0000      -0.710331       -19.3291
  53   2.0000      -0.682880       -18.5821
  54   2.0000      -0.661856       -18.0100
  55   2.0000      -0.627016       -17.0620
  56   2.0000      -0.620351       -16.8806
  57   2.0000      -0.611363       -16.6360
  58   2.0000      -0.595572       -16.2063
  59   2.0000      -0.593342       -16.1456
  60   2.0000      -0.529093       -14.3974
  61   2.0000      -0.519083       -14.1250
  62   2.0000      -0.495705       -13.4888
  63   2.0000      -0.487324       -13.2608
  64   2.0000      -0.470086       -12.7917
  65   2.0000      -0.466121       -12.6838
  66   2.0000      -0.459923       -12.5151
  67   2.0000      -0.448555       -12.2058
  68   2.0000      -0.446097       -12.1389
  69   2.0000      -0.438469       -11.9313
  70   2.0000      -0.428246       -11.6532
  71   2.0000      -0.418654       -11.3922
  72   2.0000      -0.411330       -11.1929
  73   2.0000      -0.397386       -10.8134
  74   2.0000      -0.391044       -10.6409
  75   2.0000      -0.382706       -10.4139
  76   2.0000      -0.377213       -10.2645
  77   2.0000      -0.374074       -10.1791
  78   2.0000      -0.369845       -10.0640
  79   2.0000      -0.368565       -10.0292
  80   2.0000      -0.364626        -9.9220
  81   2.0000      -0.361936        -9.8488
  82   2.0000      -0.358494        -9.7551
  83   2.0000      -0.353476        -9.6186
  84   2.0000      -0.346220        -9.4211
  85   2.0000      -0.330845        -9.0028
  86   2.0000      -0.319080        -8.6826
  87   2.0000      -0.313017        -8.5176
  88   2.0000      -0.308400        -8.3920
  89   2.0000      -0.307464        -8.3665
  90   2.0000      -0.297648        -8.0994
  91   2.0000      -0.289215        -7.8699
  92   2.0000      -0.281484        -7.6596
  93   2.0000      -0.278391        -7.5754
  94   2.0000      -0.267225        -7.2716
  95   2.0000      -0.247021        -6.7218
  96   2.0000      -0.231516        -6.2999
  97   2.0000      -0.221282        -6.0214
  98   2.0000      -0.212776        -5.7899
  99   2.0000      -0.205043        -5.5795
 100   2.0000      -0.194892        -5.3033
 101   0.0000      -0.042926        -1.1681
 102   0.0000      -0.031584        -0.8594
 103   0.0000      -0.007743        -0.2107
 104   0.0000       0.012346         0.3359
 105   0.0000       0.019337         0.5262

MULLIKEN ATOMIC CHARGES
-----------------------
   0 C :   -0.443452
   1 C :   -0.160071
   2 O :   -0.249219
   3 P :    0.694918
   4 S :   -0.459889
   5 O :   -0.269401
   6 C :   -0.169382
   7 C :   -0.444191
   8 S :   -0.202429
   9 C :   -0.237943
  10 S :   -0.159001
  11 P :    0.628466
  12 S :   -0.380564
  13 O :   -0.266823
  14 C :   -0.114938
  15 C :   -0.455391
  16 O :   -0.297709
  17 C :   -0.160717
  18 C :   -0.451953
  19 H :    0.159713
  20 H :    0.149062
  21 H :    0.144631
  22 H :    0.150012
  23 H :    0.171150
  24 H :    0.152587
  25 H :    0.189847
  26 H :    0.163881
  27 H :    0.149173
  28 H :    0.155239
  29 H :    0.190552
  30 H :    0.226943
  31 H :    0.163497
  32 H :    0.157109
  33 H :    0.154395
  34 H :    0.166418
  35 H :    0.146762
  36 H :    0.146800
  37 H :    0.176559
  38 H :    0.152434
  39 H :    0.149069
  40 H :    0.183854
Sum of atomic charges:   -0.0000000

LOEWDIN ATOMIC CHARGES
----------------------
   0 C :   -0.386844
   1 C :    0.012862
   2 O :   -0.678931
   3 P :    0.378373
   4 S :   -0.109424
   5 O :   -0.649734
   6 C :    0.022909
   7 C :   -0.401315
   8 S :    0.133309
   9 C :   -0.418507
  10 S :    0.123693
  11 P :    0.377073
  12 S :   -0.047497
  13 O :   -0.683981
  14 C :    0.016672
  15 C :   -0.393199
  16 O :   -0.673786
  17 C :    0.022059
  18 C :   -0.408612
  19 H :    0.161943
  20 H :    0.157448
  21 H :    0.158776
  22 H :    0.170229
  23 H :    0.180786
  24 H :    0.183950
  25 H :    0.193850
  26 H :    0.165155
  27 H :    0.159230
  28 H :    0.161302
  29 H :    0.179500
  30 H :    0.201986
  31 H :    0.177552
  32 H :    0.179985
  33 H :    0.160586
  34 H :    0.166552
  35 H :    0.158652
  36 H :    0.178877
  37 H :    0.181674
  38 H :    0.159253
  39 H :    0.159942
  40 H :    0.167652

  Mayer bond orders larger than 0.100000
B(  0-C ,  1-C ) :   0.9546 B(  0-C , 19-H ) :   0.9724 B(  0-C , 20-H ) :   0.9726
B(  0-C , 21-H ) :   0.9653 B(  1-C ,  2-O ) :   0.7813 B(  1-C , 22-H ) :   0.9432
B(  1-C , 23-H ) :   0.9491 B(  2-O ,  3-P ) :   1.0599 B(  3-P ,  4-S ) :   1.7954
B(  3-P ,  5-O ) :   1.2269 B(  3-P ,  8-S ) :   0.9643 B(  5-O ,  6-C ) :   0.7995
B(  6-C ,  7-C ) :   0.9042 B(  6-C , 24-H ) :   0.9588 B(  6-C , 25-H ) :   0.9557
B(  7-C , 26-H ) :   0.9680 B(  7-C , 27-H ) :   0.9588 B(  7-C , 28-H ) :   0.9631
B(  8-S ,  9-C ) :   0.8974 B(  9-C , 10-S ) :   0.9195 B(  9-C , 29-H ) :   0.9161
B(  9-C , 30-H ) :   0.9029 B( 10-S , 11-P ) :   1.0126 B( 11-P , 12-S ) :   1.8709
B( 11-P , 13-O ) :   1.1100 B( 11-P , 16-O ) :   1.0461 B( 13-O , 14-C ) :   0.7436
B( 14-C , 15-C ) :   0.9385 B( 14-C , 31-H ) :   0.9628 B( 14-C , 32-H ) :   0.9628
B( 15-C , 33-H ) :   0.9718 B( 15-C , 34-H ) :   0.9667 B( 15-C , 35-H ) :   0.9659
B( 16-O , 17-C ) :   0.8212 B( 17-C , 18-C ) :   0.9147 B( 17-C , 36-H ) :   0.9615
B( 17-C , 37-H ) :   0.9676 B( 18-C , 38-H ) :   0.9673 B( 18-C , 39-H ) :   0.9566
B( 18-C , 40-H ) :   0.9623

Dispersion correction           -0.021926728
FINAL SINGLE POINT ENERGY     -2932.454189470548

DIPOLE MOMENT
-------------

Method             : SCF
Type of density    : Electron Density
Multiplicity       :   1
Irrep              :   0
Energy             : -2932.4789198498683618 Eh
Relativity type    :
Basis              : AO
                                X                 Y                 Z
Electronic contribution:     -1.389509126       1.307243762     -13.091534482
Nuclear contribution   :      0.878652525      -2.323984676      14.908575236
                        -----------------------------------------
Total Dipole Moment    :     -0.510856601      -1.016740914       1.817040754
                        -----------------------------------------
Magnitude (a.u.)       :      2.143915496
Magnitude (Debye)      :      5.449400120

Rotational constants in cm-1:             0.013293             0.005116             0.004638
Rotational constants in MHz :           398.499729           153.387480           139.057903

                             ****ORCA TERMINATED NORMALLY****
TOTAL RUN TIME: 0 days 0 hours 1 minutes 25 seconds 104 msec
