                         Program Version 6.0.0  -   RELEASE  -
|  1> ! r2scan-3c def2/J RI DEFGRID2 scfconv6 printgap
|  2> %output
|  3>     printlevel normal
|  4> end
|  5> %cpcm
|  6>     smd true
|  7>     smdsolvent "water"
|  8> end
|  9> * xyz 0 1
| 10> C 5.8368426388 -0.4945162638 -0.5159185148
| 11> C 4.3772684092 -0.8331667274 -0.7421371167
| 12> O 3.5850747883 0.258411858 -0.2379105152
| 13> P 2.0572056501 0.4289301625 -0.6512486249
| 14> S 1.7705702266 0.3878425829 -2.5866239797
| 15> O 1.7136747132 1.8160000959 -0.0001343013
| 16> C 1.4506071133 2.0923469657 1.3964587499
| 17> C 2.5218693505 1.5551516123 2.3195073422
| 18> S 1.1187193693 -1.133668024 0.4536635978
| 19> C -0.0020244004 -1.8227978499 -0.8044688781
| 20> S -1.696940955 -2.0031892298 -0.2084662975
| 21> P -2.0700812969 0.0397090875 0.2572013089
| 22> S -1.3524123643 1.3766275313 -0.9840166164
| 23> O -1.5036920241 0.2425793576 1.7160953325
| 24> C -1.8597139509 -0.5945872858 2.8479402239
| 25> C -2.9751409645 0.0368559543 3.6543339201
| 26> O -3.6413543528 0.0869026591 0.4858466761
| 27> C -4.5808573655 0.3100915317 -0.580508739
| 28> C -4.5900881916 -0.8196771147 -1.5895317196
| 29> H 6.0921723576 0.4199669272 -1.0439231828
| 30> H 6.026321155 -0.3542827884 0.544146157
| 31> H 6.4521662685 -1.306903084 -0.8880737239
| 32> H 4.0895229322 -1.7400726104 -0.2027713348
| 33> H 4.1549538022 -0.9625677036 -1.8070037425
| 34> H 1.3989948027 3.1821110504 1.4234616807
| 35> H 0.468003506 1.6776477461 1.6404568248
| 36> H 3.4968491007 1.9287768898 2.0175625675
| 37> H 2.3079258516 1.8799301043 3.3331416152
| 38> H 2.5358111925 0.4665485326 2.2904975608
| 39> H 0.3339738378 -2.825290843 -1.0574949944
| 40> H 0.0259948208 -1.1666482046 -1.6795727725
| 41> H -2.1462111903 -1.5831496554 2.4794789394
| 42> H -0.9377014081 -0.6709736567 3.427125034
| 43> H -2.6904465828 1.0371554774 3.9686589961
| 44> H -3.8816282726 0.1010515248 3.0587836088
| 45> H -3.1650078581 -0.5739839311 4.5313073644
| 46> H -5.5393163428 0.3981806641 -0.0668913994
| 47> H -4.3303634078 1.2581247256 -1.066254342
| 48> H -4.7133196915 -1.7761199394 -1.0876222755
| 49> H -5.4079549866 -0.6693123882 -2.2869624761
| 50> H -3.6538093007 -0.8312968178 -2.1458527835
| 51> *
| 52>
| 53>                          ****END OF INPUT****

CARTESIAN COORDINATES (ANGSTROEM)
---------------------------------
  C      5.836843   -0.494516   -0.515919
  C      4.377268   -0.833167   -0.742137
  O      3.585075    0.258412   -0.237911
  P      2.057206    0.428930   -0.651249
  S      1.770570    0.387843   -2.586624
  O      1.713675    1.816000   -0.000134
  C      1.450607    2.092347    1.396459
  C      2.521869    1.555152    2.319507
  S      1.118719   -1.133668    0.453664
  C     -0.002024   -1.822798   -0.804469
  S     -1.696941   -2.003189   -0.208466
  P     -2.070081    0.039709    0.257201
  S     -1.352412    1.376628   -0.984017
  O     -1.503692    0.242579    1.716095
  C     -1.859714   -0.594587    2.847940
  C     -2.975141    0.036856    3.654334
  O     -3.641354    0.086903    0.485847
  C     -4.580857    0.310092   -0.580509
  C     -4.590088   -0.819677   -1.589532
  H      6.092172    0.419967   -1.043923
  H      6.026321   -0.354283    0.544146
  H      6.452166   -1.306903   -0.888074
  H      4.089523   -1.740073   -0.202771
  H      4.154954   -0.962568   -1.807004
  H      1.398995    3.182111    1.423462
  H      0.468004    1.677648    1.640457
  H      3.496849    1.928777    2.017563
  H      2.307926    1.879930    3.333142
  H      2.535811    0.466549    2.290498
  H      0.333974   -2.825291   -1.057495
  H      0.025995   -1.166648   -1.679573
  H     -2.146211   -1.583150    2.479479
  H     -0.937701   -0.670974    3.427125
  H     -2.690447    1.037155    3.968659
  H     -3.881628    0.101052    3.058784
  H     -3.165008   -0.573984    4.531307
  H     -5.539316    0.398181   -0.066891
  H     -4.330363    1.258125   -1.066254
  H     -4.713320   -1.776120   -1.087622
  H     -5.407955   -0.669312   -2.286962
  H     -3.653809   -0.831297   -2.145853

 Total Charge           Charge          ....    0
 Multiplicity           Mult            ....    1
 Number of Electrons    NEL             ....  202
 Basis Dimension        Dim             ....  539

ORBITAL ENERGIES
----------------

  NO   OCC          E(Eh)            E(eV)
   0   2.0000     -88.578476     -2410.3429
   1   2.0000     -88.577304     -2410.3110
   2   2.0000     -88.523798     -2408.8550
   3   2.0000     -88.523242     -2408.8399
   4   2.0000     -76.917870     -2093.0417
   5   2.0000     -76.917711     -2093.0373
   6   2.0000     -18.994691      -516.8718
   7   2.0000     -18.992088      -516.8010
   8   2.0000     -18.991799      -516.7931
   9   2.0000     -18.989731      -516.7368
  10   2.0000     -10.102613      -274.9061
  11   2.0000     -10.091041      -274.5912
  12   2.0000     -10.090677      -274.5813
  13   2.0000     -10.090266      -274.5701
  14   2.0000     -10.087041      -274.4823
  15   2.0000     -10.021170      -272.6899
  16   2.0000     -10.018657      -272.6215
  17   2.0000     -10.018456      -272.6161
  18   2.0000     -10.018072      -272.6056
  19   2.0000      -7.872837      -214.2308
  20   2.0000      -7.871487      -214.1941
  21   2.0000      -7.818856      -212.7619
  22   2.0000      -7.818683      -212.7572
  23   2.0000      -6.596163      -179.4907
  24   2.0000      -6.596011      -179.4866
  25   2.0000      -5.819787      -158.3645
  26   2.0000      -5.818342      -158.3251
  27   2.0000      -5.816558      -158.2766
  28   2.0000      -5.815340      -158.2434
  29   2.0000      -5.810014      -158.0985
  30   2.0000      -5.808654      -158.0615
  31   2.0000      -5.766592      -156.9169
  32   2.0000      -5.766278      -156.9084
  33   2.0000      -5.759135      -156.7140
  34   2.0000      -5.758975      -156.7097
  35   2.0000      -5.758886      -156.7073
  36   2.0000      -5.758423      -156.6947
  37   2.0000      -4.741947      -129.0349
  38   2.0000      -4.741622      -129.0261
  39   2.0000      -4.741156      -129.0134
  40   2.0000      -4.741005      -129.0093
  41   2.0000      -4.739657      -128.9726
  42   2.0000      -4.739655      -128.9726
  43   2.0000      -1.052052       -28.6278
  44   2.0000      -1.050485       -28.5851
  45   2.0000      -1.011128       -27.5142
  46   2.0000      -1.009369       -27.4663
  47   2.0000      -0.799781       -21.7631
  48   2.0000      -0.754552       -20.5324
  49   2.0000      -0.745683       -20.2911
  50   2.0000      -0.726163       -19.7599
  51   2.0000      -0.725646       -19.7458
  52   2.0000      -0.710514       -19.3341
  53   2.0000      -0.687055       -18.6957
  54   2.0000      -0.669540       -18.2191
  55   2.0000      -0.627844       -17.0845
  56   2.0000      -0.620043       -16.8722
  57   2.0000      -0.602253       -16.3881
  58   2.0000      -0.593407       -16.1474
  59   2.0000      -0.590714       -16.0741
  60   2.0000      -0.527070       -14.3423
  61   2.0000      -0.517138       -14.0720
  62   2.0000      -0.490418       -13.3450
  63   2.0000      -0.488758       -13.2998
  64   2.0000      -0.468912       -12.7597
  65   2.0000      -0.464816       -12.6483
  66   2.0000      -0.458004       -12.4629
  67   2.0000      -0.444492       -12.0953
  68   2.0000      -0.440010       -11.9733
  69   2.0000      -0.437395       -11.9021
  70   2.0000      -0.425702       -11.5839
  71   2.0000      -0.416678       -11.3384
  72   2.0000      -0.403368       -10.9762
  73   2.0000      -0.396442       -10.7877
  74   2.0000      -0.388539       -10.5727
  75   2.0000      -0.379571       -10.3286
  76   2.0000      -0.378966       -10.3122
  77   2.0000      -0.370060       -10.0698
  78   2.0000      -0.364200        -9.9104
  79   2.0000      -0.362171        -9.8552
  80   2.0000      -0.357207        -9.7201
  81   2.0000      -0.352870        -9.6021
  82   2.0000      -0.352500        -9.5920
  83   2.0000      -0.346700        -9.4342
  84   2.0000      -0.343654        -9.3513
  85   2.0000      -0.325944        -8.8694
  86   2.0000      -0.318090        -8.6557
  87   2.0000      -0.311070        -8.4646
  88   2.0000      -0.305683        -8.3181
  89   2.0000      -0.301883        -8.2147
  90   2.0000      -0.301457        -8.2031
  91   2.0000      -0.286866        -7.8060
  92   2.0000      -0.285307        -7.7636
  93   2.0000      -0.277858        -7.5609
  94   2.0000      -0.272482        -7.4146
  95   2.0000      -0.249358        -6.7854
  96   2.0000      -0.240463        -6.5433
  97   2.0000      -0.234008        -6.3677
  98   2.0000      -0.222837        -6.0637
  99   2.0000      -0.217283        -5.9126
 100   2.0000      -0.208532        -5.6745
 101   0.0000      -0.046004        -1.2518
 102   0.0000      -0.039468        -1.0740
 103   0.0000      -0.011689        -0.3181
 104   0.0000       0.012101         0.3293
 105   0.0000       0.014324         0.3898

MULLIKEN ATOMIC CHARGES
-----------------------
   0 C :   -0.482077
   1 C :   -0.148059
   2 O :   -0.276440
   3 P :    0.703163
   4 S :   -0.523035
   5 O :   -0.299904
   6 C :   -0.163366
   7 C :   -0.476063
   8 S :   -0.190757
   9 C :   -0.237328
  10 S :   -0.155417
  11 P :    0.658755
  12 S :   -0.454298
  13 O :   -0.292225
  14 C :   -0.097056
  15 C :   -0.500578
  16 O :   -0.315746
  17 C :   -0.157739
  18 C :   -0.487845
  19 H :    0.165430
  20 H :    0.164655
  21 H :    0.168531
  22 H :    0.169192
  23 H :    0.171265
  24 H :    0.176387
  25 H :    0.188675
  26 H :    0.171873
  27 H :    0.177410
  28 H :    0.161140
  29 H :    0.231936
  30 H :    0.218446
  31 H :    0.173227
  32 H :    0.179655
  33 H :    0.166740
  34 H :    0.169155
  35 H :    0.170446
  36 H :    0.175423
  37 H :    0.179218
  38 H :    0.168732
  39 H :    0.173014
  40 H :    0.175466
Sum of atomic charges:   -0.0000000

LOEWDIN ATOMIC CHARGES
----------------------
   0 C :   -0.389967
   1 C :    0.018023
   2 O :   -0.692614
   3 P :    0.379043
   4 S :   -0.158732
   5 O :   -0.674232
   6 C :    0.026701
   7 C :   -0.399919
   8 S :    0.147260
   9 C :   -0.413115
  10 S :    0.134247
  11 P :    0.383309
  12 S :   -0.099792
  13 O :   -0.694318
  14 C :    0.024791
  15 C :   -0.396213
  16 O :   -0.677958
  17 C :    0.026643
  18 C :   -0.411537
  19 H :    0.162458
  20 H :    0.162319
  21 H :    0.168232
  22 H :    0.178671
  23 H :    0.180829
  24 H :    0.193109
  25 H :    0.193893
  26 H :    0.166407
  27 H :    0.171088
  28 H :    0.162043
  29 H :    0.195469
  30 H :    0.198536
  31 H :    0.182207
  32 H :    0.189601
  33 H :    0.163244
  34 H :    0.165284
  35 H :    0.168366
  36 H :    0.191019
  37 H :    0.181571
  38 H :    0.163691
  39 H :    0.168425
  40 H :    0.161920

  Mayer bond orders larger than 0.100000
B(  0-C ,  1-C ) :   0.9515 B(  0-C , 19-H ) :   0.9705 B(  0-C , 20-H ) :   0.9689
B(  0-C , 21-H ) :   0.9591 B(  1-C ,  2-O ) :   0.7747 B(  1-C , 22-H ) :   0.9340
B(  1-C , 23-H ) :   0.9474 B(  2-O ,  3-P ) :   1.0634 B(  3-P ,  4-S ) :   1.7654
B(  3-P ,  5-O ) :   1.2274 B(  3-P ,  8-S ) :   0.9964 B(  5-O ,  6-C ) :   0.7883
B(  6-C ,  7-C ) :   0.9041 B(  6-C , 24-H ) :   0.9474 B(  6-C , 25-H ) :   0.9479
B(  7-C , 26-H ) :   0.9683 B(  7-C , 27-H ) :   0.9500 B(  7-C , 28-H ) :   0.9591
B(  8-S ,  9-C ) :   0.8873 B(  9-C , 10-S ) :   0.9143 B(  9-C , 29-H ) :   0.9008
B(  9-C , 30-H ) :   0.9076 B( 10-S , 11-P ) :   1.0278 B( 11-P , 12-S ) :   1.8222
B( 11-P , 13-O ) :   1.1262 B( 11-P , 16-O ) :   1.0578 B( 13-O , 14-C ) :   0.7331
B( 14-C , 15-C ) :   0.9291 B( 14-C , 31-H ) :   0.9550 B( 14-C , 32-H ) :   0.9524
B( 15-C , 33-H ) :   0.9706 B( 15-C , 34-H ) :   0.9670 B( 15-C , 35-H ) :   0.9592
B( 16-O , 17-C ) :   0.8105 B( 17-C , 18-C ) :   0.9024 B( 17-C , 36-H ) :   0.9510
B( 17-C , 37-H ) :   0.9673 B( 18-C , 38-H ) :   0.9643 B( 18-C , 39-H ) :   0.9516
B( 18-C , 40-H ) :   0.9652

Dispersion correction           -0.021926728
FINAL SINGLE POINT ENERGY     -2932.464923285967

DIPOLE MOMENT
-------------

Method             : SCF
Type of density    : Electron Density
Multiplicity       :   1
Irrep              :   0
Energy             : -2932.4896536652877330 Eh
Relativity type    :
Basis              : AO
                                X                 Y                 Z
Electronic contribution:     -1.587002324       0.516425366     -12.242859815
Nuclear contribution   :      0.878652525      -2.323984676      14.908575236
                        -----------------------------------------
Total Dipole Moment    :     -0.708349799      -1.807559310       2.665715422
                        -----------------------------------------
Magnitude (a.u.)       :      3.297736922
Magnitude (Debye)      :      8.382181112

Rotational constants in cm-1:             0.013293             0.005116             0.004638
Rotational constants in MHz :           398.499729           153.387480           139.057903

                             ****ORCA TERMINATED NORMALLY****
TOTAL RUN TIME: 0 days 0 hours 2 minutes 6 seconds 940 msec
