                         Program Version 6.0.0  -   RELEASE  -
|  1> ! wb97x-v def2-tzvp def2/J RIJCOSX DEFGRID2 scfconv7 GCP(DFT/TZ) printgap
|  2> %output
|  3>     printlevel normal
|  4> end
|  5> * xyz 0 1
|  6> C 1.2675110019713878 -0.6975788044857235 -3.385032843555696e-06
|  7> C -5.405967770872087e-06 0.1050624130616967 3.5532784775218203e-06
|  8> C -8.871711660830366e-05 1.4418688831442608 6.620344689878815e-06
|  9> C -1.2674225469047415 -0.6977355911129751 5.549984729908447e-06
| 10> H 1.3058394007666798 -1.3538561580612092 0.8784761894569345
| 11> H 1.3057364978076371 -1.354019525527569 -0.8783643477018502
| 12> H 2.1554840465117495 -0.06031936040983933 -0.00011092418621201831
| 13> H -0.9291256285427446 2.006586622161832 1.5876672823545378e-05
| 14> H 0.9288775281747791 2.0067029704554384 -1.3650987797901241e-05
| 15> H -1.3055676388388844 -1.3541826310868816 0.8783653094149131
| 16> H -2.1554747084098143 -0.060586414564296635 0.00011321323329229403
| 17> H -1.3056689322124222 -1.3540166346857023 -0.8784748578650197
| 18> *
| 19>
| 20>                          ****END OF INPUT****

CARTESIAN COORDINATES (ANGSTROEM)
---------------------------------
  C      1.267511   -0.697579   -0.000003
  C     -0.000005    0.105062    0.000004
  C     -0.000089    1.441869    0.000007
  C     -1.267423   -0.697736    0.000006
  H      1.305839   -1.353856    0.878476
  H      1.305736   -1.354020   -0.878364
  H      2.155484   -0.060319   -0.000111
  H     -0.929126    2.006587    0.000016
  H      0.928878    2.006703   -0.000014
  H     -1.305568   -1.354183    0.878365
  H     -2.155475   -0.060586    0.000113
  H     -1.305669   -1.354017   -0.878475

 Total Charge           Charge          ....    0
 Multiplicity           Mult            ....    1
 Number of Electrons    NEL             ....   32
 Basis Dimension        Dim             ....  172

ORBITAL ENERGIES
----------------

  NO   OCC          E(Eh)            E(eV)
   0   2.0000     -12.057293      -328.0956
   1   2.0000     -12.040314      -327.6336
   2   2.0000     -12.039908      -327.6226
   3   2.0000     -12.028255      -327.3055
   4   2.0000      -1.324937       -36.0534
   5   2.0000      -1.188731       -32.3470
   6   2.0000      -1.184472       -32.2311
   7   2.0000      -0.990067       -26.9411
   8   2.0000      -0.895786       -24.3756
   9   2.0000      -0.894011       -24.3273
  10   2.0000      -0.848374       -23.0854
  11   2.0000      -0.810227       -22.0474
  12   2.0000      -0.808618       -22.0036
  13   2.0000      -0.804425       -21.8895
  14   2.0000      -0.783082       -21.3087
  15   2.0000      -0.636436       -17.3183
  16   0.0000      -0.189960        -5.1691
  17   0.0000      -0.014227        -0.3871
  18   0.0000      -0.010138        -0.2759
  19   0.0000      -0.000855        -0.0233
  20   0.0000       0.022523         0.6129

MULLIKEN ATOMIC CHARGES
-----------------------
   0 C :   -0.317436
   1 C :    0.035868
   2 C :   -0.295683
   3 C :   -0.317428
   4 H :    0.113127
   5 H :    0.113120
   6 H :    0.111471
   7 H :    0.109624
   8 H :    0.109623
   9 H :    0.113122
  10 H :    0.111470
  11 H :    0.113122
Sum of atomic charges:    0.0000000

LOEWDIN ATOMIC CHARGES
----------------------
   0 C :   -0.258935
   1 C :   -0.259875
   2 C :   -0.207184
   3 C :   -0.258934
   4 H :    0.125176
   5 H :    0.125175
   6 H :    0.123728
   7 H :    0.118385
   8 H :    0.118385
   9 H :    0.125175
  10 H :    0.123728
  11 H :    0.125176

  Mayer bond orders larger than 0.100000
B(  0-C ,  1-C ) :   0.9688 B(  0-C ,  4-H ) :   0.9710 B(  0-C ,  5-H ) :   0.9710
B(  0-C ,  6-H ) :   0.9836 B(  1-C ,  2-C ) :   1.9249 B(  1-C ,  3-C ) :   0.9688
B(  2-C ,  7-H ) :   0.9692 B(  2-C ,  8-H ) :   0.9692 B(  3-C ,  9-H ) :   0.9710
B(  3-C , 10-H ) :   0.9836 B(  3-C , 11-H ) :   0.9710

FINAL SINGLE POINT ENERGY      -157.225511709084

DIPOLE MOMENT
-------------

Method             : SCF
Type of density    : Electron Density
Multiplicity       :   1
Irrep              :   0
Energy             :  -157.2329949436840195 Eh
Relativity type    :
Basis              : AO
                                X                 Y                 Z
Electronic contribution:     -0.000076414       1.242474243       0.000009807
Nuclear contribution   :      0.000089895      -1.467640151      -0.000014355
                        -----------------------------------------
Total Dipole Moment    :      0.000013481      -0.225165907      -0.000004547
                        -----------------------------------------
Magnitude (a.u.)       :      0.225165908
Magnitude (Debye)      :      0.572326254

Rotational constants in cm-1:             0.304167             0.282457             0.154825
Rotational constants in MHz :          9118.701903          8467.833311          4641.524765

                             ****ORCA TERMINATED NORMALLY****
TOTAL RUN TIME: 0 days 0 hours 0 minutes 50 seconds 733 msec
