                         Program Version 6.0.0  -   RELEASE  -
|  1> ! wb97x-v def2-tzvp def2/J RIJCOSX DEFGRID2 scfconv7 GCP(DFT/TZ) printgap
|  2> %output
|  3>     printlevel normal
|  4> end
|  5> %cpcm
|  6>     smd true
|  7>     smdsolvent "water"
|  8> end
|  9> * xyz 0 1
| 10> C 1.2675110019713878 -0.6975788044857235 -3.385032843555696e-06
| 11> C -5.405967770872087e-06 0.1050624130616967 3.5532784775218203e-06
| 12> C -8.871711660830366e-05 1.4418688831442608 6.620344689878815e-06
| 13> C -1.2674225469047415 -0.6977355911129751 5.549984729908447e-06
| 14> H 1.3058394007666798 -1.3538561580612092 0.8784761894569345
| 15> H 1.3057364978076371 -1.354019525527569 -0.8783643477018502
| 16> H 2.1554840465117495 -0.06031936040983933 -0.00011092418621201831
| 17> H -0.9291256285427446 2.006586622161832 1.5876672823545378e-05
| 18> H 0.9288775281747791 2.0067029704554384 -1.3650987797901241e-05
| 19> H -1.3055676388388844 -1.3541826310868816 0.8783653094149131
| 20> H -2.1554747084098143 -0.060586414564296635 0.00011321323329229403
| 21> H -1.3056689322124222 -1.3540166346857023 -0.8784748578650197
| 22> *
| 23>
| 24>                          ****END OF INPUT****

CARTESIAN COORDINATES (ANGSTROEM)
---------------------------------
  C      1.267511   -0.697579   -0.000003
  C     -0.000005    0.105062    0.000004
  C     -0.000089    1.441869    0.000007
  C     -1.267423   -0.697736    0.000006
  H      1.305839   -1.353856    0.878476
  H      1.305736   -1.354020   -0.878364
  H      2.155484   -0.060319   -0.000111
  H     -0.929126    2.006587    0.000016
  H      0.928878    2.006703   -0.000014
  H     -1.305568   -1.354183    0.878365
  H     -2.155475   -0.060586    0.000113
  H     -1.305669   -1.354017   -0.878475

 Total Charge           Charge          ....    0
 Multiplicity           Mult            ....    1
 Number of Electrons    NEL             ....   32
 Basis Dimension        Dim             ....  172

ORBITAL ENERGIES
----------------

  NO   OCC          E(Eh)            E(eV)
   0   2.0000     -12.055961      -328.0594
   1   2.0000     -12.031090      -327.3826
   2   2.0000     -12.030711      -327.3723
   3   2.0000     -12.024352      -327.1992
   4   2.0000      -1.321319       -35.9549
   5   2.0000      -1.181148       -32.1407
   6   2.0000      -1.179874       -32.1060
   7   2.0000      -0.984969       -26.8024
   8   2.0000      -0.890555       -24.2332
   9   2.0000      -0.889019       -24.1914
  10   2.0000      -0.840638       -22.8749
  11   2.0000      -0.801319       -21.8050
  12   2.0000      -0.800901       -21.7936
  13   2.0000      -0.796595       -21.6765
  14   2.0000      -0.777562       -21.1585
  15   2.0000      -0.635307       -17.2876
  16   0.0000      -0.188820        -5.1380
  17   0.0000      -0.007661        -0.2085
  18   0.0000      -0.000321        -0.0087
  19   0.0000       0.006865         0.1868
  20   0.0000       0.031991         0.8705

MULLIKEN ATOMIC CHARGES
-----------------------
   0 C :   -0.362230
   1 C :    0.021062
   2 C :   -0.400978
   3 C :   -0.362222
   4 H :    0.135319
   5 H :    0.135313
   6 H :    0.132645
   7 H :    0.148910
   8 H :    0.148908
   9 H :    0.135315
  10 H :    0.132645
  11 H :    0.135314
Sum of atomic charges:    0.0000000

LOEWDIN ATOMIC CHARGES
----------------------
   0 C :   -0.262819
   1 C :   -0.264676
   2 C :   -0.234813
   3 C :   -0.262819
   4 H :    0.130903
   5 H :    0.130902
   6 H :    0.127122
   7 H :    0.123636
   8 H :    0.123636
   9 H :    0.130902
  10 H :    0.127122
  11 H :    0.130903

  Mayer bond orders larger than 0.100000
B(  0-C ,  1-C ) :   0.9667 B(  0-C ,  4-H ) :   0.9661 B(  0-C ,  5-H ) :   0.9661
B(  0-C ,  6-H ) :   0.9802 B(  1-C ,  2-C ) :   1.8945 B(  1-C ,  3-C ) :   0.9667
B(  2-C ,  7-H ) :   0.9687 B(  2-C ,  8-H ) :   0.9687 B(  3-C ,  9-H ) :   0.9661
B(  3-C , 10-H ) :   0.9802 B(  3-C , 11-H ) :   0.9661

FINAL SINGLE POINT ENERGY      -157.223851659245

DIPOLE MOMENT
-------------

Method             : SCF
Type of density    : Electron Density
Multiplicity       :   1
Irrep              :   0
Energy             :  -157.2313348938446325 Eh
Relativity type    :
Basis              : AO
                                X                 Y                 Z
Electronic contribution:     -0.000068488       1.107306764       0.000007987
Nuclear contribution   :      0.000089895      -1.467640151      -0.000014355
                        -----------------------------------------
Total Dipole Moment    :      0.000021406      -0.360333387      -0.000006368
                        -----------------------------------------
Magnitude (a.u.)       :      0.360333387
Magnitude (Debye)      :      0.915894683

Rotational constants in cm-1:             0.304167             0.282457             0.154825
Rotational constants in MHz :          9118.701903          8467.833311          4641.524765

                             ****ORCA TERMINATED NORMALLY****
TOTAL RUN TIME: 0 days 0 hours 0 minutes 50 seconds 944 msec
