                         Program Version 6.0.0  -   RELEASE  -
|  1> ! pbe def2-sv(p) def2/J RI DEFGRID1 loosescf d4 GCP(DFT/SV(P)) printgap
|  2> %output
|  3>     printlevel normal
|  4> end
|  5> * xyz 0 1
|  6> C 4.5466750403 1.2294774445 -1.7946700655
|  7> C 4.9697816195 0.4987052441 -0.5367765073
|  8> O 3.9344655706 -0.3607387175 -0.0273349401
|  9> P 2.5736471419 0.2066171089 0.5642909596
| 10> S 2.7582889736 1.8435462156 1.6174841683
| 11> O 2.0519065162 -0.9798523223 1.4627361753
| 12> C 1.5479755911 -2.2671065091 1.0378857952
| 13> C 2.4675170618 -2.982592866 0.0738788746
| 14> S 1.2655121067 0.3232947849 -1.1186799657
| 15> C 0.1462391825 1.5616257553 -0.4235157612
| 16> S -0.8761329661 0.9373785372 0.9428597616
| 17> P -2.2103087613 -0.2797650306 -0.1687266062
| 18> S -1.6040091049 -1.9436914722 -0.989944637
| 19> O -2.7516813943 0.8277411322 -1.1886984454
| 20> C -3.3309659508 0.4589571752 -2.456746742
| 21> C -4.7128982021 -0.1349195171 -2.2777026045
| 22> O -3.3544947868 -0.578334974 0.8849918065
| 23> C -4.0792642164 0.4690667128 1.578098794
| 24> C -5.480758246 -0.036236088 1.8533108618
| 25> H 3.7679861814 1.9534618106 -1.5599895766
| 26> H 5.4018820505 1.7552367446 -2.2069092142
| 27> H 4.1645008242 0.5274358331 -2.53146354
| 28> H 5.2429165352 1.2114334986 0.2476546027
| 29> H 5.8006242969 -0.182278617 -0.7262157244
| 30> H 1.4407918241 -2.8130722854 1.9764316555
| 31> H 0.5605753849 -2.1222693105 0.5887473074
| 32> H 3.4642172623 -3.0740022949 0.4973961569
| 33> H 2.0626035027 -3.9704439186 -0.1240411989
| 34> H 2.5272611724 -2.4356301787 -0.865151947
| 35> H -0.4925184013 1.9111908374 -1.2296125
| 36> H 0.7340043355 2.3750469626 0.0046168272
| 37> H -3.3589429446 1.3930093837 -3.019519646
| 38> H -2.6650284565 -0.2561184304 -2.9496689659
| 39> H -4.6440965622 -1.051276276 -1.6916126903
| 40> H -5.3651462552 0.5681184722 -1.7657393739
| 41> H -5.1326680822 -0.370438293 -3.2505713899
| 42> H -3.5407407742 0.680978089 2.5045512178
| 43> H -4.0894328497 1.3663826928 0.9542989799
| 44> H -6.0269287026 0.7173109607 2.4115522035
| 45> H -6.0000491434 -0.2408304254 0.9211133764
| 46> H -5.4356090909 -0.9525271141 2.4348154235
| 47> *
| 48>
| 49>                          ****END OF INPUT****

CARTESIAN COORDINATES (ANGSTROEM)
---------------------------------
  C      4.546675    1.229477   -1.794670
  C      4.969782    0.498705   -0.536777
  O      3.934466   -0.360739   -0.027335
  P      2.573647    0.206617    0.564291
  S      2.758289    1.843546    1.617484
  O      2.051907   -0.979852    1.462736
  C      1.547976   -2.267107    1.037886
  C      2.467517   -2.982593    0.073879
  S      1.265512    0.323295   -1.118680
  C      0.146239    1.561626   -0.423516
  S     -0.876133    0.937379    0.942860
  P     -2.210309   -0.279765   -0.168727
  S     -1.604009   -1.943691   -0.989945
  O     -2.751681    0.827741   -1.188698
  C     -3.330966    0.458957   -2.456747
  C     -4.712898   -0.134920   -2.277703
  O     -3.354495   -0.578335    0.884992
  C     -4.079264    0.469067    1.578099
  C     -5.480758   -0.036236    1.853311
  H      3.767986    1.953462   -1.559990
  H      5.401882    1.755237   -2.206909
  H      4.164501    0.527436   -2.531464
  H      5.242917    1.211433    0.247655
  H      5.800624   -0.182279   -0.726216
  H      1.440792   -2.813072    1.976432
  H      0.560575   -2.122269    0.588747
  H      3.464217   -3.074002    0.497396
  H      2.062604   -3.970444   -0.124041
  H      2.527261   -2.435630   -0.865152
  H     -0.492518    1.911191   -1.229612
  H      0.734004    2.375047    0.004617
  H     -3.358943    1.393009   -3.019520
  H     -2.665028   -0.256118   -2.949669
  H     -4.644097   -1.051276   -1.691613
  H     -5.365146    0.568118   -1.765739
  H     -5.132668   -0.370438   -3.250571
  H     -3.540741    0.680978    2.504551
  H     -4.089433    1.366383    0.954299
  H     -6.026929    0.717311    2.411552
  H     -6.000049   -0.240830    0.921113
  H     -5.435609   -0.952527    2.434815

 Total Charge           Charge          ....    0
 Multiplicity           Mult            ....    1
 Number of Electrons    NEL             ....  202
 Basis Dimension        Dim             ....  334

ORBITAL ENERGIES
----------------

  NO   OCC          E(Eh)            E(eV)
   0   2.0000     -88.042462     -2395.7572
   1   2.0000     -88.039620     -2395.6799
   2   2.0000     -87.989041     -2394.3035
   3   2.0000     -87.980306     -2394.0658
   4   2.0000     -76.428445     -2079.7237
   5   2.0000     -76.422017     -2079.5488
   6   2.0000     -18.800383      -511.5844
   7   2.0000     -18.797812      -511.5145
   8   2.0000     -18.789591      -511.2908
   9   2.0000     -18.780717      -511.0493
  10   2.0000      -9.960999      -271.0526
  11   2.0000      -9.957840      -270.9666
  12   2.0000      -9.955519      -270.9034
  13   2.0000      -9.950090      -270.7557
  14   2.0000      -9.939241      -270.4605
  15   2.0000      -9.894799      -269.2512
  16   2.0000      -9.892255      -269.1819
  17   2.0000      -9.881880      -268.8996
  18   2.0000      -9.876785      -268.7610
  19   2.0000      -7.687523      -209.1881
  20   2.0000      -7.684405      -209.1033
  21   2.0000      -7.634018      -207.7322
  22   2.0000      -7.625663      -207.5048
  23   2.0000      -6.426301      -174.8685
  24   2.0000      -6.419245      -174.6765
  25   2.0000      -5.715449      -155.5253
  26   2.0000      -5.712138      -155.4352
  27   2.0000      -5.712059      -155.4330
  28   2.0000      -5.709012      -155.3501
  29   2.0000      -5.704421      -155.2252
  30   2.0000      -5.701450      -155.1443
  31   2.0000      -5.662984      -154.0976
  32   2.0000      -5.654592      -153.8693
  33   2.0000      -5.654531      -153.8676
  34   2.0000      -5.654203      -153.8587
  35   2.0000      -5.646226      -153.6416
  36   2.0000      -5.645803      -153.6301
  37   2.0000      -4.649405      -126.5167
  38   2.0000      -4.647799      -126.4731
  39   2.0000      -4.646523      -126.4383
  40   2.0000      -4.641977      -126.3146
  41   2.0000      -4.641026      -126.2887
  42   2.0000      -4.639622      -126.2505
  43   2.0000      -0.991048       -26.9678
  44   2.0000      -0.980428       -26.6788
  45   2.0000      -0.951669       -25.8962
  46   2.0000      -0.938016       -25.5247
  47   2.0000      -0.762948       -20.7609
  48   2.0000      -0.723960       -19.7000
  49   2.0000      -0.707461       -19.2510
  50   2.0000      -0.697798       -18.9881
  51   2.0000      -0.684358       -18.6223
  52   2.0000      -0.673001       -18.3133
  53   2.0000      -0.652881       -17.7658
  54   2.0000      -0.636743       -17.3266
  55   2.0000      -0.597679       -16.2637
  56   2.0000      -0.590967       -16.0810
  57   2.0000      -0.577766       -15.7218
  58   2.0000      -0.568779       -15.4773
  59   2.0000      -0.563135       -15.3237
  60   2.0000      -0.510410       -13.8890
  61   2.0000      -0.487917       -13.2769
  62   2.0000      -0.485832       -13.2202
  63   2.0000      -0.464894       -12.6504
  64   2.0000      -0.459013       -12.4904
  65   2.0000      -0.447576       -12.1792
  66   2.0000      -0.441920       -12.0253
  67   2.0000      -0.438555       -11.9337
  68   2.0000      -0.426050       -11.5934
  69   2.0000      -0.412578       -11.2268
  70   2.0000      -0.407918       -11.1000
  71   2.0000      -0.401990       -10.9387
  72   2.0000      -0.394005       -10.7214
  73   2.0000      -0.388168       -10.5626
  74   2.0000      -0.377235       -10.2651
  75   2.0000      -0.373503       -10.1635
  76   2.0000      -0.365686        -9.9508
  77   2.0000      -0.362265        -9.8577
  78   2.0000      -0.359402        -9.7798
  79   2.0000      -0.353108        -9.6086
  80   2.0000      -0.348564        -9.4849
  81   2.0000      -0.344497        -9.3742
  82   2.0000      -0.343185        -9.3385
  83   2.0000      -0.338044        -9.1986
  84   2.0000      -0.332246        -9.0409
  85   2.0000      -0.323463        -8.8019
  86   2.0000      -0.315749        -8.5920
  87   2.0000      -0.306385        -8.3372
  88   2.0000      -0.289325        -7.8729
  89   2.0000      -0.287028        -7.8104
  90   2.0000      -0.284484        -7.7412
  91   2.0000      -0.276043        -7.5115
  92   2.0000      -0.272840        -7.4244
  93   2.0000      -0.260605        -7.0914
  94   2.0000      -0.258073        -7.0225
  95   2.0000      -0.241709        -6.5772
  96   2.0000      -0.215962        -5.8766
  97   2.0000      -0.207438        -5.6447
  98   2.0000      -0.202515        -5.5107
  99   2.0000      -0.199287        -5.4229
 100   2.0000      -0.194007        -5.2792
 101   0.0000      -0.043936        -1.1956
 102   0.0000      -0.022753        -0.6191
 103   0.0000      -0.007802        -0.2123
 104   0.0000       0.002141         0.0583
 105   0.0000       0.016587         0.4513

MULLIKEN ATOMIC CHARGES
-----------------------
   0 C :   -0.314334
   1 C :   -0.000813
   2 O :   -0.374376
   3 P :    0.608153
   4 S :   -0.326935
   5 O :   -0.354544
   6 C :   -0.017178
   7 C :   -0.306478
   8 S :   -0.092162
   9 C :   -0.359843
  10 S :   -0.071217
  11 P :    0.608385
  12 S :   -0.297008
  13 O :   -0.392061
  14 C :   -0.010670
  15 C :   -0.320130
  16 O :   -0.370856
  17 C :   -0.029491
  18 C :   -0.283446
  19 H :    0.123809
  20 H :    0.112025
  21 H :    0.116551
  22 H :    0.113614
  23 H :    0.104533
  24 H :    0.103583
  25 H :    0.130297
  26 H :    0.116660
  27 H :    0.113789
  28 H :    0.115365
  29 H :    0.185066
  30 H :    0.195175
  31 H :    0.105158
  32 H :    0.115686
  33 H :    0.134032
  34 H :    0.116471
  35 H :    0.116720
  36 H :    0.118681
  37 H :    0.110298
  38 H :    0.113857
  39 H :    0.118578
  40 H :    0.125056
Sum of atomic charges:   -0.0000000

LOEWDIN ATOMIC CHARGES
----------------------
   0 C :   -0.370715
   1 C :   -0.117348
   2 O :   -0.241307
   3 P :    0.575084
   4 S :   -0.318797
   5 O :   -0.231743
   6 C :   -0.120786
   7 C :   -0.364283
   8 S :    0.079949
   9 C :   -0.482442
  10 S :    0.090300
  11 P :    0.564262
  12 S :   -0.294844
  13 O :   -0.254611
  14 C :   -0.122815
  15 C :   -0.365901
  16 O :   -0.244434
  17 C :   -0.120433
  18 C :   -0.350596
  19 H :    0.119847
  20 H :    0.130485
  21 H :    0.123240
  22 H :    0.112628
  23 H :    0.118530
  24 H :    0.120629
  25 H :    0.102704
  26 H :    0.124828
  27 H :    0.132101
  28 H :    0.117034
  29 H :    0.131977
  30 H :    0.129330
  31 H :    0.117533
  32 H :    0.111283
  33 H :    0.126407
  34 H :    0.122623
  35 H :    0.133315
  36 H :    0.117303
  37 H :    0.109650
  38 H :    0.131769
  39 H :    0.126416
  40 H :    0.131827

  Mayer bond orders larger than 0.100000
B(  0-C ,  1-C ) :   1.1655 B(  0-C , 19-H ) :   0.9348 B(  0-C , 20-H ) :   0.9374
B(  0-C , 21-H ) :   0.9446 B(  1-C ,  2-O ) :   0.9076 B(  1-C , 22-H ) :   0.9163
B(  1-C , 23-H ) :   0.9341 B(  2-O ,  3-P ) :   1.0929 B(  3-P ,  4-S ) :   1.6080
B(  3-P ,  5-O ) :   1.1634 B(  3-P ,  8-S ) :   0.9360 B(  4-S ,  8-S ) :   0.1086
B(  5-O ,  6-C ) :   0.8902 B(  6-C ,  7-C ) :   1.1738 B(  6-C , 24-H ) :   0.9336
B(  6-C , 25-H ) :   0.8953 B(  7-C , 26-H ) :   0.9443 B(  7-C , 27-H ) :   0.9359
B(  7-C , 28-H ) :   0.9393 B(  8-S ,  9-C ) :   1.0124 B(  9-C , 10-S ) :   0.9991
B(  9-C , 29-H ) :   0.8956 B(  9-C , 30-H ) :   0.8706 B( 10-S , 11-P ) :   0.9764
B( 10-S , 12-S ) :   0.1056 B( 11-P , 12-S ) :   1.6466 B( 11-P , 13-O ) :   1.0523
B( 11-P , 16-O ) :   1.1244 B( 13-O , 14-C ) :   0.9019 B( 14-C , 15-C ) :   1.1647
B( 14-C , 31-H ) :   0.9329 B( 14-C , 32-H ) :   0.9106 B( 15-C , 33-H ) :   0.9334
B( 15-C , 34-H ) :   0.9437 B( 15-C , 35-H ) :   0.9383 B( 16-O , 17-C ) :   0.8915
B( 17-C , 18-C ) :   1.1638 B( 17-C , 36-H ) :   0.9305 B( 17-C , 37-H ) :   0.9161
B( 18-C , 38-H ) :   0.9404 B( 18-C , 39-H ) :   0.9483 B( 18-C , 40-H ) :   0.9482

Dispersion correction           -0.064928536
FINAL SINGLE POINT ENERGY     -2929.519951983883

DIPOLE MOMENT
-------------

Method             : SCF
Type of density    : Electron Density
Multiplicity       :   1
Irrep              :   0
Energy             : -2929.6401954912971632 Eh
Relativity type    :
Basis              : AO
                                X                 Y                 Z
Electronic contribution:     10.147210611       3.104617831       8.195745193
Nuclear contribution   :    -11.238696189      -2.807620111      -9.149165912
                        -----------------------------------------
Total Dipole Moment    :     -1.091485577       0.296997720      -0.953420719
                        -----------------------------------------
Magnitude (a.u.)       :      1.479378072
Magnitude (Debye)      :      3.760280224

Rotational constants in cm-1:             0.014263             0.004295             0.004209
Rotational constants in MHz :           427.600907           128.770198           126.181076

                             ****ORCA TERMINATED NORMALLY****
TOTAL RUN TIME: 0 days 0 hours 0 minutes 20 seconds 740 msec
