                         Program Version 6.0.0  -   RELEASE  -
|  1> ! pbe def2-sv(p) def2/J RI DEFGRID1 loosescf d4 GCP(DFT/SV(P)) printgap
|  2> %output
|  3>     printlevel normal
|  4> end
|  5> * xyz 0 1
|  6> C 2.0299310377 2.0638618755 -2.3510323986
|  7> C 1.7871249666 0.6147323851 -1.9839527139
|  8> O 1.1713585955 0.5111188826 -0.6764417658
|  9> P 2.0788653542 0.1557353932 0.5869905007
| 10> S 3.6807084599 1.2559983063 0.8306035397
| 11> O 2.3938175205 -1.3861261231 0.3223518482
| 12> C 3.4860344524 -2.0623557708 0.9685277186
| 13> C 3.1278769636 -2.4737761968 2.3824930159
| 14> S 0.7005464413 0.3061713713 2.1543217086
| 15> C -0.4585064951 -1.1025174931 1.8978182011
| 16> S -0.6501423977 -1.6674706624 0.1962996838
| 17> P -1.8332744879 -0.0898516186 -0.5802676148
| 18> S -1.7532954946 0.1434887477 -2.5226781101
| 19> O -1.4365727875 1.1501842675 0.3159621277
| 20> C -1.5071757031 2.497170463 -0.1817416139
| 21> C -2.9397907726 2.9835290657 -0.2262981406
| 22> O -3.2770130235 -0.395802478 0.037023166
| 23> C -4.061499642 -1.5232309052 -0.3904843298
| 24> C -5.0216759057 -1.1327140705 -1.4977341213
| 25> H 2.4780077273 2.106456995 -3.3385936668
| 26> H 1.0913033216 2.6115887845 -2.3624749835
| 27> H 2.7024598397 2.5275375223 -1.632294612
| 28> H 2.7213091507 0.0471175091 -1.9815197487
| 29> H 1.0768934109 0.1447277259 -2.6683021873
| 30> H 3.6761150485 -2.9279698271 0.3326216667
| 31> H 4.3566912194 -1.3976292978 0.9653658066
| 32> H 2.2491644765 -3.1132447394 2.3762327262
| 33> H 3.9610623578 -3.0167854923 2.8169920369
| 34> H 2.9288016109 -1.5908751371 2.9888419218
| 35> H -1.4138162383 -0.758351278 2.2880261281
| 36> H -0.0870934641 -1.9569573751 2.4578400399
| 37> H -0.8966917354 3.0727904392 0.5164251703
| 38> H -1.0559777839 2.527121264 -1.178977076
| 39> H -2.9588473437 4.0237105844 -0.5356701222
| 40> H -3.5043191177 2.3876845882 -0.9425778729
| 41> H -3.3991037965 2.8863940104 0.7535876912
| 42> H -3.3904774193 -2.3248169337 -0.717805111
| 43> H -4.5999714702 -1.8418783637 0.5041373556
| 44> H -5.6629789646 -0.3207260479 -1.1664862882
| 45> H -4.4716225324 -0.80841032 -2.3784677434
| 46> H -5.6337410322 -1.9896951335 -1.759577793
| 47> *
| 48>
| 49>                          ****END OF INPUT****

CARTESIAN COORDINATES (ANGSTROEM)
---------------------------------
  C      2.029931    2.063862   -2.351032
  C      1.787125    0.614732   -1.983953
  O      1.171359    0.511119   -0.676442
  P      2.078865    0.155735    0.586991
  S      3.680708    1.255998    0.830604
  O      2.393818   -1.386126    0.322352
  C      3.486034   -2.062356    0.968528
  C      3.127877   -2.473776    2.382493
  S      0.700546    0.306171    2.154322
  C     -0.458506   -1.102517    1.897818
  S     -0.650142   -1.667471    0.196300
  P     -1.833274   -0.089852   -0.580268
  S     -1.753295    0.143489   -2.522678
  O     -1.436573    1.150184    0.315962
  C     -1.507176    2.497170   -0.181742
  C     -2.939791    2.983529   -0.226298
  O     -3.277013   -0.395802    0.037023
  C     -4.061500   -1.523231   -0.390484
  C     -5.021676   -1.132714   -1.497734
  H      2.478008    2.106457   -3.338594
  H      1.091303    2.611589   -2.362475
  H      2.702460    2.527538   -1.632295
  H      2.721309    0.047118   -1.981520
  H      1.076893    0.144728   -2.668302
  H      3.676115   -2.927970    0.332622
  H      4.356691   -1.397629    0.965366
  H      2.249164   -3.113245    2.376233
  H      3.961062   -3.016785    2.816992
  H      2.928802   -1.590875    2.988842
  H     -1.413816   -0.758351    2.288026
  H     -0.087093   -1.956957    2.457840
  H     -0.896692    3.072790    0.516425
  H     -1.055978    2.527121   -1.178977
  H     -2.958847    4.023711   -0.535670
  H     -3.504319    2.387685   -0.942578
  H     -3.399104    2.886394    0.753588
  H     -3.390477   -2.324817   -0.717805
  H     -4.599971   -1.841878    0.504137
  H     -5.662979   -0.320726   -1.166486
  H     -4.471623   -0.808410   -2.378468
  H     -5.633741   -1.989695   -1.759578

 Total Charge           Charge          ....    0
 Multiplicity           Mult            ....    1
 Number of Electrons    NEL             ....  202
 Basis Dimension        Dim             ....  334

ORBITAL ENERGIES
----------------

  NO   OCC          E(Eh)            E(eV)
   0   2.0000     -88.047513     -2395.8946
   1   2.0000     -88.042468     -2395.7573
   2   2.0000     -87.994045     -2394.4397
   3   2.0000     -87.982115     -2394.1151
   4   2.0000     -76.431108     -2079.7962
   5   2.0000     -76.423884     -2079.5996
   6   2.0000     -18.793426      -511.3951
   7   2.0000     -18.793059      -511.3851
   8   2.0000     -18.790953      -511.3278
   9   2.0000     -18.783252      -511.1183
  10   2.0000      -9.965934      -271.1868
  11   2.0000      -9.956404      -270.9275
  12   2.0000      -9.951348      -270.7899
  13   2.0000      -9.950356      -270.7629
  14   2.0000      -9.940116      -270.4843
  15   2.0000      -9.887744      -269.0592
  16   2.0000      -9.883537      -268.9447
  17   2.0000      -9.882987      -268.9297
  18   2.0000      -9.872646      -268.6484
  19   2.0000      -7.692584      -209.3259
  20   2.0000      -7.687536      -209.1885
  21   2.0000      -7.638941      -207.8662
  22   2.0000      -7.627321      -207.5499
  23   2.0000      -6.428426      -174.9264
  24   2.0000      -6.421364      -174.7342
  25   2.0000      -5.720951      -155.6750
  26   2.0000      -5.716989      -155.5672
  27   2.0000      -5.716098      -155.5429
  28   2.0000      -5.711711      -155.4236
  29   2.0000      -5.709036      -155.3508
  30   2.0000      -5.704127      -155.2172
  31   2.0000      -5.667827      -154.2294
  32   2.0000      -5.659782      -154.0105
  33   2.0000      -5.658900      -153.9865
  34   2.0000      -5.656264      -153.9148
  35   2.0000      -5.647936      -153.6881
  36   2.0000      -5.647440      -153.6746
  37   2.0000      -4.650849      -126.5560
  38   2.0000      -4.650413      -126.5442
  39   2.0000      -4.648904      -126.5031
  40   2.0000      -4.643861      -126.3659
  41   2.0000      -4.643320      -126.3512
  42   2.0000      -4.641769      -126.3090
  43   2.0000      -0.990168       -26.9438
  44   2.0000      -0.981244       -26.7010
  45   2.0000      -0.947472       -25.7820
  46   2.0000      -0.938693       -25.5431
  47   2.0000      -0.765772       -20.8377
  48   2.0000      -0.721099       -19.6221
  49   2.0000      -0.706393       -19.2219
  50   2.0000      -0.686558       -18.6822
  51   2.0000      -0.684653       -18.6304
  52   2.0000      -0.674086       -18.3428
  53   2.0000      -0.658292       -17.9130
  54   2.0000      -0.637874       -17.3574
  55   2.0000      -0.598065       -16.2742
  56   2.0000      -0.592367       -16.1191
  57   2.0000      -0.576064       -15.6755
  58   2.0000      -0.567915       -15.4537
  59   2.0000      -0.560144       -15.2423
  60   2.0000      -0.505072       -13.7437
  61   2.0000      -0.496619       -13.5137
  62   2.0000      -0.478506       -13.0208
  63   2.0000      -0.466533       -12.6950
  64   2.0000      -0.461487       -12.5577
  65   2.0000      -0.442711       -12.0468
  66   2.0000      -0.439395       -11.9565
  67   2.0000      -0.433679       -11.8010
  68   2.0000      -0.425523       -11.5791
  69   2.0000      -0.416450       -11.3322
  70   2.0000      -0.412541       -11.2258
  71   2.0000      -0.401519       -10.9259
  72   2.0000      -0.396450       -10.7879
  73   2.0000      -0.389435       -10.5971
  74   2.0000      -0.375590       -10.2203
  75   2.0000      -0.370936       -10.0937
  76   2.0000      -0.366921        -9.9844
  77   2.0000      -0.359610        -9.7855
  78   2.0000      -0.353522        -9.6198
  79   2.0000      -0.350206        -9.5296
  80   2.0000      -0.347569        -9.4578
  81   2.0000      -0.346412        -9.4263
  82   2.0000      -0.338085        -9.1998
  83   2.0000      -0.335805        -9.1377
  84   2.0000      -0.331355        -9.0166
  85   2.0000      -0.320752        -8.7281
  86   2.0000      -0.309887        -8.4325
  87   2.0000      -0.298135        -8.1127
  88   2.0000      -0.295415        -8.0387
  89   2.0000      -0.292877        -7.9696
  90   2.0000      -0.285282        -7.7629
  91   2.0000      -0.273146        -7.4327
  92   2.0000      -0.270328        -7.3560
  93   2.0000      -0.264847        -7.2068
  94   2.0000      -0.259521        -7.0619
  95   2.0000      -0.228285        -6.2120
  96   2.0000      -0.216893        -5.9020
  97   2.0000      -0.216177        -5.8825
  98   2.0000      -0.206142        -5.6094
  99   2.0000      -0.200204        -5.4478
 100   2.0000      -0.196304        -5.3417
 101   0.0000      -0.043414        -1.1814
 102   0.0000      -0.031107        -0.8465
 103   0.0000      -0.020783        -0.5655
 104   0.0000      -0.000488        -0.0133
 105   0.0000       0.014899         0.4054

MULLIKEN ATOMIC CHARGES
-----------------------
   0 C :   -0.299041
   1 C :   -0.006633
   2 O :   -0.377566
   3 P :    0.620110
   4 S :   -0.325674
   5 O :   -0.378014
   6 C :   -0.007233
   7 C :   -0.321919
   8 S :   -0.083059
   9 C :   -0.329216
  10 S :   -0.077753
  11 P :    0.628047
  12 S :   -0.322204
  13 O :   -0.366485
  14 C :   -0.028211
  15 C :   -0.298614
  16 O :   -0.372560
  17 C :   -0.012369
  18 C :   -0.291595
  19 H :    0.104710
  20 H :    0.120015
  21 H :    0.123357
  22 H :    0.096022
  23 H :    0.116033
  24 H :    0.104775
  25 H :    0.112724
  26 H :    0.113388
  27 H :    0.114652
  28 H :    0.129092
  29 H :    0.183954
  30 H :    0.189179
  31 H :    0.109831
  32 H :    0.132454
  33 H :    0.112281
  34 H :    0.121035
  35 H :    0.114694
  36 H :    0.097634
  37 H :    0.104062
  38 H :    0.113347
  39 H :    0.129368
  40 H :    0.107384
Sum of atomic charges:   -0.0000000

LOEWDIN ATOMIC CHARGES
----------------------
   0 C :   -0.360767
   1 C :   -0.121634
   2 O :   -0.248968
   3 P :    0.559490
   4 S :   -0.323635
   5 O :   -0.247139
   6 C :   -0.123391
   7 C :   -0.366369
   8 S :    0.092063
   9 C :   -0.469191
  10 S :    0.107496
  11 P :    0.580485
  12 S :   -0.302401
  13 O :   -0.230187
  14 C :   -0.117324
  15 C :   -0.362339
  16 O :   -0.253188
  17 C :   -0.120063
  18 C :   -0.363990
  19 H :    0.128523
  20 H :    0.121698
  21 H :    0.123202
  22 H :    0.106357
  23 H :    0.111605
  24 H :    0.118134
  25 H :    0.108718
  26 H :    0.119972
  27 H :    0.132248
  28 H :    0.123079
  29 H :    0.135718
  30 H :    0.134465
  31 H :    0.120312
  32 H :    0.110025
  33 H :    0.130648
  34 H :    0.122316
  35 H :    0.125797
  36 H :    0.103520
  37 H :    0.117123
  38 H :    0.125127
  39 H :    0.123942
  40 H :    0.128523

  Mayer bond orders larger than 0.100000
B(  0-C ,  1-C ) :   1.1740 B(  0-C , 19-H ) :   0.9395 B(  0-C , 20-H ) :   0.9402
B(  0-C , 21-H ) :   0.9333 B(  1-C ,  2-O ) :   0.8802 B(  1-C , 22-H ) :   0.9110
B(  1-C , 23-H ) :   0.9106 B(  2-O ,  3-P ) :   1.0987 B(  3-P ,  4-S ) :   1.6339
B(  3-P ,  5-O ) :   1.0649 B(  3-P ,  8-S ) :   1.0107 B(  5-O ,  6-C ) :   0.9148
B(  6-C ,  7-C ) :   1.1627 B(  6-C , 24-H ) :   0.9330 B(  6-C , 25-H ) :   0.9059
B(  7-C , 26-H ) :   0.9425 B(  7-C , 27-H ) :   0.9388 B(  7-C , 28-H ) :   0.9368
B(  8-S ,  9-C ) :   0.9484 B(  9-C , 10-S ) :   1.0218 B(  9-C , 29-H ) :   0.9032
B(  9-C , 30-H ) :   0.9030 B( 10-S , 11-P ) :   0.9577 B( 11-P , 12-S ) :   1.6238
B( 11-P , 13-O ) :   1.1241 B( 11-P , 16-O ) :   1.0792 B( 13-O , 14-C ) :   0.8941
B( 14-C , 15-C ) :   1.1610 B( 14-C , 31-H ) :   0.9317 B( 14-C , 32-H ) :   0.9042
B( 15-C , 33-H ) :   0.9400 B( 15-C , 34-H ) :   0.9367 B( 15-C , 35-H ) :   0.9463
B( 16-O , 17-C ) :   0.9118 B( 17-C , 18-C ) :   1.1661 B( 17-C , 36-H ) :   0.9131
B( 17-C , 37-H ) :   0.9362 B( 18-C , 38-H ) :   0.9467 B( 18-C , 39-H ) :   0.9317
B( 18-C , 40-H ) :   0.9398

Dispersion correction           -0.068576186
FINAL SINGLE POINT ENERGY     -2929.515802107479

DIPOLE MOMENT
-------------

Method             : SCF
Type of density    : Electron Density
Multiplicity       :   1
Irrep              :   0
Energy             : -2929.6340020533457391 Eh
Relativity type    :
Basis              : AO
                                X                 Y                 Z
Electronic contribution:      8.517459749      -1.148465115       4.814019036
Nuclear contribution   :     -9.518583495       0.208236540      -4.399478225
                        -----------------------------------------
Total Dipole Moment    :     -1.001123746      -0.940228575       0.414540811
                        -----------------------------------------
Magnitude (a.u.)       :      1.434615841
Magnitude (Debye)      :      3.646503676

Rotational constants in cm-1:             0.012627             0.005676             0.005006
Rotational constants in MHz :           378.546697           170.173133           150.088575

                             ****ORCA TERMINATED NORMALLY****
TOTAL RUN TIME: 0 days 0 hours 0 minutes 21 seconds 938 msec
