                         Program Version 6.0.0  -   RELEASE  -
|  1> ! pbe def2-sv(p) def2/J RI DEFGRID1 loosescf d4 GCP(DFT/SV(P)) printgap
|  2> %output
|  3>     printlevel normal
|  4> end
|  5> * xyz 0 1
|  6> C 0.8666945735 1.381183337 -0.6142923452
|  7> C 1.5873692053 0.1565448604 -0.0379719922
|  8> H 2.5538738074 0.0452573573 -0.5499023288
|  9> C 0.760300972 -1.1105824333 -0.3259435202
| 10> H 1.2003514675 -1.9344667338 0.2536980841
| 11> C -0.6942835008 -0.9160506633 0.1585978015
| 12> H -1.3276325036 -1.7356592466 -0.196565696
| 13> C -1.2472142217 0.3925867611 -0.4470423741
| 14> H -1.2350749972 0.2808383066 -1.5547722452
| 15> O -0.4457808956 1.4989148141 -0.1026120959
| 16> O -2.5301003134 0.6125397627 0.0142885897
| 17> O -0.7813869101 -0.9480094478 1.5545890539
| 18> O 0.8326738867 -1.3534709015 -1.7087327557
| 19> O 1.7597127278 0.2451911963 1.3561221787
| 20> H 0.8368128529 1.285081974 -1.7076081959
| 21> H 1.3690815663 2.3068454672 -0.3328263076
| 22> H -2.7445259058 1.5536376894 -0.0836309776
| 23> H -0.158436969 -0.2954169651 1.9193559073
| 24> H 0.5224819995 -2.2494956725 -1.9013223524
| 25> H 2.3058182267 1.0154916003 1.5699358552
| 26> *
| 27>
| 28>                          ****END OF INPUT****

CARTESIAN COORDINATES (ANGSTROEM)
---------------------------------
  C      0.866695    1.381183   -0.614292
  C      1.587369    0.156545   -0.037972
  H      2.553874    0.045257   -0.549902
  C      0.760301   -1.110582   -0.325944
  H      1.200351   -1.934467    0.253698
  C     -0.694284   -0.916051    0.158598
  H     -1.327633   -1.735659   -0.196566
  C     -1.247214    0.392587   -0.447042
  H     -1.235075    0.280838   -1.554772
  O     -0.445781    1.498915   -0.102612
  O     -2.530100    0.612540    0.014289
  O     -0.781387   -0.948009    1.554589
  O      0.832674   -1.353471   -1.708733
  O      1.759713    0.245191    1.356122
  H      0.836813    1.285082   -1.707608
  H      1.369082    2.306845   -0.332826
  H     -2.744526    1.553638   -0.083631
  H     -0.158437   -0.295417    1.919356
  H      0.522482   -2.249496   -1.901322
  H      2.305818    1.015492    1.569936

 Total Charge           Charge          ....    0
 Multiplicity           Mult            ....    1
 Number of Electrons    NEL             ....   80
 Basis Dimension        Dim             ....  160

ORBITAL ENERGIES
----------------

  NO   OCC          E(Eh)            E(eV)
   0   2.0000     -18.774224      -510.8726
   1   2.0000     -18.764903      -510.6190
   2   2.0000     -18.764279      -510.6020
   3   2.0000     -18.746461      -510.1171
   4   2.0000     -18.727771      -509.6086
   5   2.0000      -9.973824      -271.4015
   6   2.0000      -9.952182      -270.8127
   7   2.0000      -9.945298      -270.6253
   8   2.0000      -9.940343      -270.4905
   9   2.0000      -9.929502      -270.1955
  10   2.0000      -0.978222       -26.6188
  11   2.0000      -0.950188       -25.8559
  12   2.0000      -0.938068       -25.5261
  13   2.0000      -0.908297       -24.7160
  14   2.0000      -0.902927       -24.5699
  15   2.0000      -0.700425       -19.0595
  16   2.0000      -0.668565       -18.1926
  17   2.0000      -0.598214       -16.2782
  18   2.0000      -0.570665       -15.5286
  19   2.0000      -0.529420       -14.4063
  20   2.0000      -0.492727       -13.4078
  21   2.0000      -0.486027       -13.2255
  22   2.0000      -0.466538       -12.6951
  23   2.0000      -0.450473       -12.2580
  24   2.0000      -0.425738       -11.5849
  25   2.0000      -0.424263       -11.5448
  26   2.0000      -0.396837       -10.7985
  27   2.0000      -0.379133       -10.3167
  28   2.0000      -0.373210       -10.1556
  29   2.0000      -0.354001        -9.6329
  30   2.0000      -0.315829        -8.5941
  31   2.0000      -0.306855        -8.3500
  32   2.0000      -0.302084        -8.2201
  33   2.0000      -0.294573        -8.0157
  34   2.0000      -0.268588        -7.3087
  35   2.0000      -0.247518        -6.7353
  36   2.0000      -0.238908        -6.5010
  37   2.0000      -0.228050        -6.2056
  38   2.0000      -0.216420        -5.8891
  39   2.0000      -0.186991        -5.0883
  40   0.0000       0.007285         0.1982
  41   0.0000       0.017101         0.4653
  42   0.0000       0.046546         1.2666
  43   0.0000       0.072014         1.9596
  44   0.0000       0.077743         2.1155

MULLIKEN ATOMIC CHARGES
-----------------------
   0 C :    0.050734
   1 C :    0.016739
   2 H :    0.074508
   3 C :    0.001804
   4 H :    0.082194
   5 C :    0.077282
   6 H :    0.061559
   7 C :    0.177160
   8 H :    0.033336
   9 O :   -0.327625
  10 O :   -0.375609
  11 O :   -0.424514
  12 O :   -0.412429
  13 O :   -0.421987
  14 H :    0.082930
  15 H :    0.082703
  16 H :    0.301943
  17 H :    0.300054
  18 H :    0.310219
  19 H :    0.308998
Sum of atomic charges:    0.0000000

LOEWDIN ATOMIC CHARGES
----------------------
   0 C :   -0.125477
   1 C :   -0.079701
   2 H :    0.108625
   3 C :   -0.073378
   4 H :    0.107929
   5 C :   -0.086173
   6 H :    0.113457
   7 C :   -0.004706
   8 H :    0.075332
   9 O :   -0.168399
  10 O :   -0.296306
  11 O :   -0.312594
  12 O :   -0.317553
  13 O :   -0.309019
  14 H :    0.111541
  15 H :    0.110748
  16 H :    0.287274
  17 H :    0.272352
  18 H :    0.294008
  19 H :    0.292040

  Mayer bond orders larger than 0.100000
B(  0-C ,  1-C ) :   1.0610 B(  0-C ,  9-O ) :   1.0294 B(  0-C , 14-H ) :   0.8884
B(  0-C , 15-H ) :   0.9236 B(  1-C ,  2-H ) :   0.8914 B(  1-C ,  3-C ) :   1.0087
B(  1-C , 13-O ) :   1.0267 B(  3-C ,  4-H ) :   0.9060 B(  3-C ,  5-C ) :   0.9574
B(  3-C , 12-O ) :   1.0590 B(  5-C ,  6-H ) :   0.8921 B(  5-C ,  7-C ) :   0.9507
B(  5-C , 11-O ) :   1.0727 B(  7-C ,  8-H ) :   0.8842 B(  7-C ,  9-O ) :   0.9984
B(  7-C , 10-O ) :   1.1992 B( 10-O , 16-H ) :   0.8412 B( 11-O , 17-H ) :   0.8162
B( 12-O , 18-H ) :   0.8458 B( 13-O , 19-H ) :   0.8427

Dispersion correction           -0.019777756
FINAL SINGLE POINT ENERGY      -571.412400396680

DIPOLE MOMENT
-------------

Method             : SCF
Type of density    : Electron Density
Multiplicity       :   1
Irrep              :   0
Energy             :  -571.5208262984488101 Eh
Relativity type    :
Basis              : AO
                                X                 Y                 Z
Electronic contribution:     -2.061609778       0.218687274       1.791838663
Nuclear contribution   :      3.100047206       0.256106262      -2.407393976
                        -----------------------------------------
Total Dipole Moment    :      1.038437428       0.474793536      -0.615555313
                        -----------------------------------------
Magnitude (a.u.)       :      1.297185236
Magnitude (Debye)      :      3.297182839

Rotational constants in cm-1:             0.057588             0.040547             0.038660
Rotational constants in MHz :          1726.431295          1215.560346          1159.004509

                             ****ORCA TERMINATED NORMALLY****
TOTAL RUN TIME: 0 days 0 hours 0 minutes 11 seconds 510 msec
