                         Program Version 6.0.0  -   RELEASE  -
|  1> ! pbe def2-sv(p) def2/J RI DEFGRID1 loosescf d4 GCP(DFT/SV(P)) printgap
|  2> %output
|  3>     printlevel normal
|  4> end
|  5> * xyz 0 1
|  6> C 2.9787292256 2.554619721 -0.3957584679
|  7> C 3.4836853884 1.5312857925 0.600608746
|  8> O 2.3659999234 0.8154285561 1.1944979975
|  9> P 2.0934690539 -0.7148635129 0.9355754819
| 10> S 0.5755331247 -1.3829361107 1.9678106659
| 11> O 3.5056395811 -1.3569243019 1.289921369
| 12> C 3.6813151276 -2.7549625984 1.5829016165
| 13> C 3.3955670673 -3.6387612082 0.3862888135
| 14> S 1.9608226883 -0.9446461114 -1.1846926598
| 15> C 0.1944632374 -0.651874241 -1.3089128722
| 16> S -0.2096696498 1.1071453554 -0.9703873516
| 17> P -2.2323663056 0.7768005286 -0.5464979978
| 18> S -3.1731152279 -0.5343945518 -1.667056641
| 19> O -2.9106037955 2.2156404444 -0.5191252182
| 20> C -3.5040125032 2.8059097278 -1.6903431759
| 21> C -2.4589630509 3.1988689549 -2.7140853128
| 22> O -2.1157619887 0.4566959131 0.9995733473
| 23> C -3.2334728843 -0.0215827647 1.7813801054
| 24> C -3.2304310444 -1.5353973198 1.8567062744
| 25> H 2.2529473206 3.209704618 0.0777377361
| 26> H 3.8177741873 3.1432306496 -0.752511718
| 27> H 2.498900346 2.0656909069 -1.240505791
| 28> H 3.987752889 2.0094553358 1.4418378335
| 29> H 4.1571901421 0.8129831654 0.1287453
| 30> H 4.7248176384 -2.8224257986 1.8938964812
| 31> H 3.0260281593 -3.0158748792 2.4196568157
| 32> H 2.3337675384 -3.6122203556 0.1466840386
| 33> H 3.9593032688 -3.3002399716 -0.4792407153
| 34> H 3.6753571106 -4.6602598396 0.6231518338
| 35> H -0.3243736008 -1.270423557 -0.5734293268
| 36> H -0.1093489938 -0.9038440933 -2.3224132548
| 37> H -4.212230637 2.0883381075 -2.1172023284
| 38> H -4.0397192511 3.6735881965 -1.3031910801
| 39> H -1.6994996533 3.8275087538 -2.2561365982
| 40> H -1.9798624295 2.3072125044 -3.1165574713
| 41> H -2.9360082393 3.7394605127 -3.5251808207
| 42> H -3.0819459874 0.4234556264 2.7660716478
| 43> H -4.1634065459 0.3530474794 1.3445958041
| 44> H -4.0091314753 -1.8624532242 2.5378508092
| 45> H -3.4129614658 -1.9653876678 0.8740378801
| 46> H -2.264863023 -1.8835072851 2.2175797944
| 47> *
| 48>
| 49>                          ****END OF INPUT****

CARTESIAN COORDINATES (ANGSTROEM)
---------------------------------
  C      2.978729    2.554620   -0.395758
  C      3.483685    1.531286    0.600609
  O      2.366000    0.815429    1.194498
  P      2.093469   -0.714864    0.935575
  S      0.575533   -1.382936    1.967811
  O      3.505640   -1.356924    1.289921
  C      3.681315   -2.754963    1.582902
  C      3.395567   -3.638761    0.386289
  S      1.960823   -0.944646   -1.184693
  C      0.194463   -0.651874   -1.308913
  S     -0.209670    1.107145   -0.970387
  P     -2.232366    0.776801   -0.546498
  S     -3.173115   -0.534395   -1.667057
  O     -2.910604    2.215640   -0.519125
  C     -3.504013    2.805910   -1.690343
  C     -2.458963    3.198869   -2.714085
  O     -2.115762    0.456696    0.999573
  C     -3.233473   -0.021583    1.781380
  C     -3.230431   -1.535397    1.856706
  H      2.252947    3.209705    0.077738
  H      3.817774    3.143231   -0.752512
  H      2.498900    2.065691   -1.240506
  H      3.987753    2.009455    1.441838
  H      4.157190    0.812983    0.128745
  H      4.724818   -2.822426    1.893896
  H      3.026028   -3.015875    2.419657
  H      2.333768   -3.612220    0.146684
  H      3.959303   -3.300240   -0.479241
  H      3.675357   -4.660260    0.623152
  H     -0.324374   -1.270424   -0.573429
  H     -0.109349   -0.903844   -2.322413
  H     -4.212231    2.088338   -2.117202
  H     -4.039719    3.673588   -1.303191
  H     -1.699500    3.827509   -2.256137
  H     -1.979862    2.307213   -3.116557
  H     -2.936008    3.739461   -3.525181
  H     -3.081946    0.423456    2.766072
  H     -4.163407    0.353047    1.344596
  H     -4.009131   -1.862453    2.537851
  H     -3.412961   -1.965388    0.874038
  H     -2.264863   -1.883507    2.217580

 Total Charge           Charge          ....    0
 Multiplicity           Mult            ....    1
 Number of Electrons    NEL             ....  202
 Basis Dimension        Dim             ....  334

ORBITAL ENERGIES
----------------

  NO   OCC          E(Eh)            E(eV)
   0   2.0000     -88.049262     -2395.9422
   1   2.0000     -88.039114     -2395.6661
   2   2.0000     -87.986851     -2394.2439
   3   2.0000     -87.983270     -2394.1465
   4   2.0000     -76.427455     -2079.6968
   5   2.0000     -76.421867     -2079.5447
   6   2.0000     -18.795918      -511.4629
   7   2.0000     -18.790037      -511.3029
   8   2.0000     -18.789848      -511.2978
   9   2.0000     -18.780477      -511.0428
  10   2.0000      -9.956963      -270.9427
  11   2.0000      -9.955840      -270.9122
  12   2.0000      -9.953881      -270.8589
  13   2.0000      -9.950021      -270.7538
  14   2.0000      -9.945042      -270.6183
  15   2.0000      -9.886488      -269.0250
  16   2.0000      -9.884922      -268.9824
  17   2.0000      -9.883193      -268.9354
  18   2.0000      -9.869995      -268.5762
  19   2.0000      -7.694054      -209.3659
  20   2.0000      -7.684215      -209.0981
  21   2.0000      -7.631900      -207.6745
  22   2.0000      -7.628303      -207.5767
  23   2.0000      -6.424936      -174.8314
  24   2.0000      -6.419528      -174.6842
  25   2.0000      -5.721748      -155.6967
  26   2.0000      -5.718633      -155.6119
  27   2.0000      -5.712068      -155.4333
  28   2.0000      -5.711191      -155.4094
  29   2.0000      -5.708996      -155.3497
  30   2.0000      -5.700890      -155.1291
  31   2.0000      -5.660830      -154.0390
  32   2.0000      -5.657079      -153.9369
  33   2.0000      -5.652377      -153.8090
  34   2.0000      -5.652145      -153.8027
  35   2.0000      -5.648974      -153.7164
  36   2.0000      -5.648574      -153.7055
  37   2.0000      -4.647767      -126.4722
  38   2.0000      -4.646637      -126.4414
  39   2.0000      -4.645233      -126.4032
  40   2.0000      -4.642058      -126.3168
  41   2.0000      -4.641221      -126.2941
  42   2.0000      -4.640093      -126.2634
  43   2.0000      -0.989183       -26.9170
  44   2.0000      -0.981279       -26.7019
  45   2.0000      -0.945132       -25.7184
  46   2.0000      -0.938788       -25.5457
  47   2.0000      -0.764699       -20.8085
  48   2.0000      -0.720984       -19.6190
  49   2.0000      -0.708518       -19.2798
  50   2.0000      -0.690857       -18.7992
  51   2.0000      -0.683963       -18.6116
  52   2.0000      -0.672718       -18.3056
  53   2.0000      -0.650175       -17.6922
  54   2.0000      -0.634894       -17.2764
  55   2.0000      -0.598227       -16.2786
  56   2.0000      -0.589284       -16.0352
  57   2.0000      -0.576166       -15.6783
  58   2.0000      -0.567544       -15.4437
  59   2.0000      -0.555994       -15.1294
  60   2.0000      -0.503969       -13.7137
  61   2.0000      -0.495369       -13.4797
  62   2.0000      -0.473710       -12.8903
  63   2.0000      -0.464921       -12.6511
  64   2.0000      -0.450456       -12.2575
  65   2.0000      -0.447295       -12.1715
  66   2.0000      -0.443469       -12.0674
  67   2.0000      -0.433693       -11.8014
  68   2.0000      -0.432396       -11.7661
  69   2.0000      -0.417862       -11.3706
  70   2.0000      -0.412396       -11.2219
  71   2.0000      -0.395622       -10.7654
  72   2.0000      -0.390744       -10.6327
  73   2.0000      -0.383365       -10.4319
  74   2.0000      -0.374437       -10.1889
  75   2.0000      -0.369938       -10.0665
  76   2.0000      -0.369594       -10.0572
  77   2.0000      -0.357886        -9.7386
  78   2.0000      -0.353279        -9.6132
  79   2.0000      -0.349409        -9.5079
  80   2.0000      -0.345415        -9.3992
  81   2.0000      -0.344354        -9.3704
  82   2.0000      -0.339096        -9.2273
  83   2.0000      -0.334791        -9.1101
  84   2.0000      -0.330686        -8.9984
  85   2.0000      -0.316507        -8.6126
  86   2.0000      -0.305996        -8.3266
  87   2.0000      -0.300631        -8.1806
  88   2.0000      -0.296234        -8.0609
  89   2.0000      -0.291277        -7.9261
  90   2.0000      -0.280946        -7.6449
  91   2.0000      -0.273378        -7.4390
  92   2.0000      -0.268097        -7.2953
  93   2.0000      -0.264338        -7.1930
  94   2.0000      -0.259324        -7.0566
  95   2.0000      -0.232418        -6.3244
  96   2.0000      -0.220985        -6.0133
  97   2.0000      -0.204917        -5.5761
  98   2.0000      -0.203931        -5.5493
  99   2.0000      -0.201738        -5.4896
 100   2.0000      -0.197156        -5.3649
 101   0.0000      -0.042860        -1.1663
 102   0.0000      -0.033293        -0.9059
 103   0.0000      -0.007540        -0.2052
 104   0.0000       0.006733         0.1832
 105   0.0000       0.012993         0.3535

MULLIKEN ATOMIC CHARGES
-----------------------
   0 C :   -0.286308
   1 C :   -0.015698
   2 O :   -0.349328
   3 P :    0.604605
   4 S :   -0.303677
   5 O :   -0.381469
   6 C :    0.001169
   7 C :   -0.319518
   8 S :   -0.107504
   9 C :   -0.346969
  10 S :   -0.088480
  11 P :    0.608744
  12 S :   -0.348947
  13 O :   -0.372578
  14 C :   -0.005993
  15 C :   -0.315658
  16 O :   -0.352840
  17 C :    0.004749
  18 C :   -0.307031
  19 H :    0.122719
  20 H :    0.108254
  21 H :    0.123953
  22 H :    0.112303
  23 H :    0.104797
  24 H :    0.105435
  25 H :    0.112856
  26 H :    0.130099
  27 H :    0.117292
  28 H :    0.115406
  29 H :    0.205384
  30 H :    0.187287
  31 H :    0.111760
  32 H :    0.104827
  33 H :    0.116626
  34 H :    0.126091
  35 H :    0.112762
  36 H :    0.107700
  37 H :    0.097271
  38 H :    0.102437
  39 H :    0.125174
  40 H :    0.132299
Sum of atomic charges:   -0.0000000

LOEWDIN ATOMIC CHARGES
----------------------
   0 C :   -0.361150
   1 C :   -0.111220
   2 O :   -0.234599
   3 P :    0.571712
   4 S :   -0.290680
   5 O :   -0.249787
   6 C :   -0.115488
   7 C :   -0.371165
   8 S :    0.081600
   9 C :   -0.477097
  10 S :    0.089055
  11 P :    0.570578
  12 S :   -0.332990
  13 O :   -0.245322
  14 C :   -0.120420
  15 C :   -0.369285
  16 O :   -0.235152
  17 C :   -0.109536
  18 C :   -0.366244
  19 H :    0.129457
  20 H :    0.128813
  21 H :    0.114422
  22 H :    0.122352
  23 H :    0.107621
  24 H :    0.119022
  25 H :    0.113384
  26 H :    0.122403
  27 H :    0.123057
  28 H :    0.132328
  29 H :    0.123756
  30 H :    0.134689
  31 H :    0.110107
  32 H :    0.118403
  33 H :    0.124294
  34 H :    0.120964
  35 H :    0.130915
  36 H :    0.120726
  37 H :    0.107361
  38 H :    0.126182
  39 H :    0.122839
  40 H :    0.124093

  Mayer bond orders larger than 0.100000
B(  0-C ,  1-C ) :   1.1660 B(  0-C , 19-H ) :   0.9449 B(  0-C , 20-H ) :   0.9382
B(  0-C , 21-H ) :   0.9320 B(  1-C ,  2-O ) :   0.8906 B(  1-C , 22-H ) :   0.9337
B(  1-C , 23-H ) :   0.9178 B(  2-O ,  3-P ) :   1.1470 B(  3-P ,  4-S ) :   1.6463
B(  3-P ,  5-O ) :   1.0893 B(  3-P ,  8-S ) :   0.9232 B(  4-S ,  8-S ) :   0.1095
B(  5-O ,  6-C ) :   0.9053 B(  6-C ,  7-C ) :   1.1664 B(  6-C , 24-H ) :   0.9344
B(  6-C , 25-H ) :   0.9184 B(  7-C , 26-H ) :   0.9349 B(  7-C , 27-H ) :   0.9437
B(  7-C , 28-H ) :   0.9371 B(  8-S ,  9-C ) :   1.0193 B(  9-C , 10-S ) :   0.9699
B(  9-C , 29-H ) :   0.8610 B(  9-C , 30-H ) :   0.9006 B( 10-S , 11-P ) :   0.9787
B( 10-S , 12-S ) :   0.1125 B( 11-P , 12-S ) :   1.5778 B( 11-P , 13-O ) :   1.1080
B( 11-P , 16-O ) :   1.1460 B( 13-O , 14-C ) :   0.9096 B( 14-C , 15-C ) :   1.1647
B( 14-C , 31-H ) :   0.9137 B( 14-C , 32-H ) :   0.9336 B( 15-C , 33-H ) :   0.9457
B( 15-C , 34-H ) :   0.9347 B( 15-C , 35-H ) :   0.9384 B( 16-O , 17-C ) :   0.8922
B( 17-C , 18-C ) :   1.1708 B( 17-C , 36-H ) :   0.9339 B( 17-C , 37-H ) :   0.9185
B( 18-C , 38-H ) :   0.9390 B( 18-C , 39-H ) :   0.9342 B( 18-C , 40-H ) :   0.9386

Dispersion correction           -0.064931277
FINAL SINGLE POINT ENERGY     -2929.518922490355

DIPOLE MOMENT
-------------

Method             : SCF
Type of density    : Electron Density
Multiplicity       :   1
Irrep              :   0
Energy             : -2929.6381810658567701 Eh
Relativity type    :
Basis              : AO
                                X                 Y                 Z
Electronic contribution:     -1.259716546      -1.726072283       1.266782148
Nuclear contribution   :      2.225561034       2.238322367      -1.389486265
                        -----------------------------------------
Total Dipole Moment    :      0.965844488       0.512250084      -0.122704117
                        -----------------------------------------
Magnitude (a.u.)       :      1.100141820
Magnitude (Debye)      :      2.796338277

Rotational constants in cm-1:             0.012075             0.005059             0.004365
Rotational constants in MHz :           362.003480           151.658515           130.862793

                             ****ORCA TERMINATED NORMALLY****
TOTAL RUN TIME: 0 days 0 hours 0 minutes 20 seconds 632 msec
