                         Program Version 6.0.1  -  RELEASE   -
|  1> ! r2scan-3c def2/J RI DEFGRID2 scfconv6 printgap
|  2> %output
|  3>     printlevel normal
|  4> end
|  5> * xyz 0 1
|  6> C 5.4435989605 -1.5595571848 -2.023889396
|  7> C 4.726807037 -2.5357949978 -1.1050682848
|  8> O 3.309190113 -2.5467460337 -1.3719455846
|  9> C 2.5450459693 -1.6690581086 -0.7610202921
| 10> O 2.9396800177 -0.842611442 0.036616961
| 11> C 1.0898914512 -1.8330476224 -1.1417994307
| 12> C 0.3046629653 -0.607490112 -0.6963107349
| 13> H 0.5195716834 0.273210969 -1.3064185321
| 14> C 0.5955230994 -0.2892469671 0.7605992157
| 15> O 0.4738359341 -1.1024363358 1.6526270027
| 16> O 0.9025997902 0.9764766955 0.9200944054
| 17> C 1.2358334202 1.4467039848 2.2404155519
| 18> C 0.7667834533 2.8818143356 2.3814565303
| 19> S -1.4818405699 -0.9695608495 -0.807872388
| 20> P -2.1667255226 0.8791115986 -0.0125514102
| 21> S -1.4046867632 2.4983542933 -0.7919458324
| 22> O -3.7480438032 0.7282193058 -0.1697141791
| 23> C -4.3686952427 0.7953809517 -1.4609413486
| 24> O -2.0129148104 0.8187088526 1.5621477978
| 25> C -2.5691827921 -0.2378919948 2.3731445188
| 26> H 5.2352779107 -1.801357256 -3.0622972771
| 27> H 5.1120307245 -0.5433063674 -1.8223944253
| 28> H 6.5124923064 -1.6217977627 -1.8487680161
| 29> H 4.8822677359 -2.2686381082 -0.0560431637
| 30> H 5.0440002753 -3.5621979861 -1.2888395991
| 31> H 0.7145294521 -2.7166467078 -0.6176074323
| 32> H 0.9937894255 -2.0031798515 -2.2130079535
| 33> H 0.7605595267 0.786114624 2.9718618695
| 34> H 2.3226821863 1.3655288288 2.3337986557
| 35> H 1.0462829244 3.2558837348 3.3604727459
| 36> H 1.2222363784 3.4981460346 1.6118383892
| 37> H -0.3135548068 2.9349957671 2.2687483053
| 38> H -3.9827277158 1.6509720953 -2.0167694296
| 39> H -5.4316672546 0.9143609892 -1.2674376831
| 40> H -4.1755106372 -0.1250199783 -2.0107974243
| 41> H -2.7500819266 0.2093593594 3.3471762654
| 42> H -1.8381652113 -1.043584984 2.4527818533
| 43> H -3.4972171044 -0.6033043031 1.9397952737
| 44> *
| 45>
| 46>                          ****END OF INPUT****

CARTESIAN COORDINATES (ANGSTROEM)
---------------------------------
  C      5.443599   -1.559557   -2.023889
  C      4.726807   -2.535795   -1.105068
  O      3.309190   -2.546746   -1.371946
  C      2.545046   -1.669058   -0.761020
  O      2.939680   -0.842611    0.036617
  C      1.089891   -1.833048   -1.141799
  C      0.304663   -0.607490   -0.696311
  H      0.519572    0.273211   -1.306419
  C      0.595523   -0.289247    0.760599
  O      0.473836   -1.102436    1.652627
  O      0.902600    0.976477    0.920094
  C      1.235833    1.446704    2.240416
  C      0.766783    2.881814    2.381457
  S     -1.481841   -0.969561   -0.807872
  P     -2.166726    0.879112   -0.012551
  S     -1.404687    2.498354   -0.791946
  O     -3.748044    0.728219   -0.169714
  C     -4.368695    0.795381   -1.460941
  O     -2.012915    0.818709    1.562148
  C     -2.569183   -0.237892    2.373145
  H      5.235278   -1.801357   -3.062297
  H      5.112031   -0.543306   -1.822394
  H      6.512492   -1.621798   -1.848768
  H      4.882268   -2.268638   -0.056043
  H      5.044000   -3.562198   -1.288840
  H      0.714529   -2.716647   -0.617607
  H      0.993789   -2.003180   -2.213008
  H      0.760560    0.786115    2.971862
  H      2.322682    1.365529    2.333799
  H      1.046283    3.255884    3.360473
  H      1.222236    3.498146    1.611838
  H     -0.313555    2.934996    2.268748
  H     -3.982728    1.650972   -2.016769
  H     -5.431667    0.914361   -1.267438
  H     -4.175511   -0.125020   -2.010797
  H     -2.750082    0.209359    3.347176
  H     -1.838165   -1.043585    2.452782
  H     -3.497217   -0.603304    1.939795

 Total Charge           Charge          ....    0
 Multiplicity           Mult            ....    1
 Number of Electrons    NEL             ....  174
 Basis Dimension        Dim             ....  510

ORBITAL ENERGIES
----------------

  NO   OCC          E(Eh)            E(eV)
   0   2.0000     -88.576311     -2410.2840
   1   2.0000     -88.514723     -2408.6081
   2   2.0000     -76.913214     -2092.9150
   3   2.0000     -19.011198      -517.3210
   4   2.0000     -18.994747      -516.8733
   5   2.0000     -18.993775      -516.8469
   6   2.0000     -18.987012      -516.6629
   7   2.0000     -18.944308      -515.5008
   8   2.0000     -18.921395      -514.8773
   9   2.0000     -10.169867      -276.7361
  10   2.0000     -10.152455      -276.2623
  11   2.0000     -10.101471      -274.8750
  12   2.0000     -10.094763      -274.6925
  13   2.0000     -10.091069      -274.5919
  14   2.0000     -10.088642      -274.5259
  15   2.0000     -10.078162      -274.2407
  16   2.0000     -10.066464      -273.9224
  17   2.0000     -10.036338      -273.1026
  18   2.0000     -10.013581      -272.4834
  19   2.0000      -7.870424      -214.1651
  20   2.0000      -7.809468      -212.5064
  21   2.0000      -6.591471      -179.3630
  22   2.0000      -5.817093      -158.2911
  23   2.0000      -5.814542      -158.2217
  24   2.0000      -5.807548      -158.0314
  25   2.0000      -5.757336      -156.6651
  26   2.0000      -5.749561      -156.4535
  27   2.0000      -5.749448      -156.4504
  28   2.0000      -4.737368      -128.9103
  29   2.0000      -4.736562      -128.8884
  30   2.0000      -4.734705      -128.8379
  31   2.0000      -1.088603       -29.6224
  32   2.0000      -1.066906       -29.0320
  33   2.0000      -1.050749       -28.5923
  34   2.0000      -1.009764       -27.4771
  35   2.0000      -0.993162       -27.0253
  36   2.0000      -0.971901       -26.4468
  37   2.0000      -0.809953       -22.0399
  38   2.0000      -0.760732       -20.7006
  39   2.0000      -0.735866       -20.0239
  40   2.0000      -0.731780       -19.9127
  41   2.0000      -0.699965       -19.0470
  42   2.0000      -0.677314       -18.4307
  43   2.0000      -0.656332       -17.8597
  44   2.0000      -0.645292       -17.5593
  45   2.0000      -0.628706       -17.1080
  46   2.0000      -0.582739       -15.8571
  47   2.0000      -0.540936       -14.7196
  48   2.0000      -0.534837       -14.5537
  49   2.0000      -0.518500       -14.1091
  50   2.0000      -0.497228       -13.5303
  51   2.0000      -0.494532       -13.4569
  52   2.0000      -0.486333       -13.2338
  53   2.0000      -0.464866       -12.6497
  54   2.0000      -0.457783       -12.4569
  55   2.0000      -0.456545       -12.4232
  56   2.0000      -0.445584       -12.1250
  57   2.0000      -0.445325       -12.1179
  58   2.0000      -0.434855       -11.8330
  59   2.0000      -0.427230       -11.6255
  60   2.0000      -0.423552       -11.5254
  61   2.0000      -0.413606       -11.2548
  62   2.0000      -0.412501       -11.2247
  63   2.0000      -0.399493       -10.8708
  64   2.0000      -0.390390       -10.6230
  65   2.0000      -0.379910       -10.3379
  66   2.0000      -0.367159        -9.9909
  67   2.0000      -0.362699        -9.8695
  68   2.0000      -0.358996        -9.7688
  69   2.0000      -0.354469        -9.6456
  70   2.0000      -0.348344        -9.4789
  71   2.0000      -0.343509        -9.3474
  72   2.0000      -0.330945        -9.0055
  73   2.0000      -0.324669        -8.8347
  74   2.0000      -0.321077        -8.7369
  75   2.0000      -0.318416        -8.6645
  76   2.0000      -0.313337        -8.5263
  77   2.0000      -0.301652        -8.2084
  78   2.0000      -0.286723        -7.8021
  79   2.0000      -0.285783        -7.7766
  80   2.0000      -0.277497        -7.5511
  81   2.0000      -0.261650        -7.1199
  82   2.0000      -0.251680        -6.8486
  83   2.0000      -0.246762        -6.7147
  84   2.0000      -0.230663        -6.2767
  85   2.0000      -0.211781        -5.7629
  86   2.0000      -0.208777        -5.6811
  87   0.0000      -0.043640        -1.1875
  88   0.0000      -0.026881        -0.7315
  89   0.0000      -0.020926        -0.5694
  90   0.0000       0.005844         0.1590
  91   0.0000       0.022888         0.6228

MULLIKEN ATOMIC CHARGES
-----------------------
   0 C :   -0.465728
   1 C :   -0.141874
   2 O :   -0.166667
   3 C :    0.393596
   4 O :   -0.405020
   5 C :   -0.382055
   6 C :   -0.054992
   7 H :    0.253296
   8 C :    0.228612
   9 O :   -0.400230
  10 O :   -0.092406
  11 C :   -0.172949
  12 C :   -0.454375
  13 S :   -0.190972
  14 P :    0.734176
  15 S :   -0.421729
  16 O :   -0.353394
  17 C :   -0.292218
  18 O :   -0.298863
  19 C :   -0.286855
  20 H :    0.153996
  21 H :    0.172735
  22 H :    0.150233
  23 H :    0.170579
  24 H :    0.152065
  25 H :    0.200631
  26 H :    0.181751
  27 H :    0.171555
  28 H :    0.156520
  29 H :    0.139650
  30 H :    0.152219
  31 H :    0.175138
  32 H :    0.178823
  33 H :    0.153173
  34 H :    0.154494
  35 H :    0.152184
  36 H :    0.195654
  37 H :    0.159249
Sum of atomic charges:    0.0000000

LOEWDIN ATOMIC CHARGES
----------------------
   0 C :   -0.387641
   1 C :    0.032244
   2 O :   -0.575661
   3 C :    0.379722
   4 O :   -0.419160
   5 C :   -0.207819
   6 C :   -0.190791
   7 H :    0.204894
   8 C :    0.327005
   9 O :   -0.449008
  10 O :   -0.577391
  11 C :    0.033918
  12 C :   -0.390992
  13 S :    0.190639
  14 P :    0.377748
  15 S :   -0.074391
  16 O :   -0.683822
  17 C :   -0.055835
  18 O :   -0.653865
  19 C :   -0.048065
  20 H :    0.158290
  21 H :    0.165576
  22 H :    0.160941
  23 H :    0.189423
  24 H :    0.179999
  25 H :    0.203080
  26 H :    0.188851
  27 H :    0.190637
  28 H :    0.180321
  29 H :    0.155213
  30 H :    0.161044
  31 H :    0.167980
  32 H :    0.178693
  33 H :    0.177832
  34 H :    0.167839
  35 H :    0.178425
  36 H :    0.190198
  37 H :    0.173931

  Mayer bond orders larger than 0.100000
B(  0-C ,  1-C ) :   0.9426 B(  0-C , 20-H ) :   0.9731 B(  0-C , 21-H ) :   0.9697
B(  0-C , 22-H ) :   0.9637 B(  1-C ,  2-O ) :   0.7973 B(  1-C , 23-H ) :   0.9661
B(  1-C , 24-H ) :   0.9612 B(  2-O ,  3-C ) :   1.1420 B(  3-C ,  4-O ) :   1.7598
B(  3-C ,  5-C ) :   1.0109 B(  4-O ,  8-C ) :   0.1028 B(  5-C ,  6-C ) :   0.9297
B(  5-C , 25-H ) :   0.9371 B(  5-C , 26-H ) :   0.9398 B(  6-C ,  7-H ) :   0.9848
B(  6-C ,  8-C ) :   0.7904 B(  6-C ,  9-O ) :  -0.1022 B(  6-C , 13-S ) :   0.8450
B(  8-C ,  9-O ) :   1.8701 B(  8-C , 10-O ) :   1.1609 B( 10-O , 11-C ) :   0.7841
B( 11-C , 12-C ) :   0.9424 B( 11-C , 27-H ) :   0.9861 B( 11-C , 28-H ) :   0.9472
B( 12-C , 29-H ) :   0.9682 B( 12-C , 30-H ) :   0.9658 B( 12-C , 31-H ) :   0.9691
B( 13-S , 14-P ) :   0.9930 B( 14-P , 15-S ) :   1.8727 B( 14-P , 16-O ) :   1.0439
B( 14-P , 18-O ) :   1.1045 B( 16-O , 17-C ) :   0.8293 B( 17-C , 32-H ) :   0.9586
B( 17-C , 33-H ) :   0.9665 B( 17-C , 34-H ) :   0.9576 B( 18-O , 19-C ) :   0.7974
B( 19-C , 35-H ) :   0.9665 B( 19-C , 36-H ) :   0.9468 B( 19-C , 37-H ) :   0.9634

Dispersion correction           -0.017484768
FINAL SINGLE POINT ENERGY     -1981.455574332116

DIPOLE MOMENT
-------------

Method             : SCF
Type of density    : Electron Density
Multiplicity       :   1
Irrep              :   0
Energy             : -1981.4750964335539720 Eh
Relativity type    :
Basis              : AO
                                X                 Y                 Z
Electronic contribution:    -13.454334950       1.140952355      -3.079949121
Nuclear contribution   :     13.658710611      -2.172772811       2.700925808
                        -----------------------------------------
Total Dipole Moment    :      0.204375661      -1.031820456      -0.379023314
                        -----------------------------------------
Magnitude (a.u.)       :      1.118070452
Magnitude (Debye)      :      2.841909240

Rotational constants in cm-1:             0.016301             0.005797             0.005195
Rotational constants in MHz :           488.696944           173.794011           155.747821

                             ****ORCA TERMINATED NORMALLY****
TOTAL RUN TIME: 0 days 0 hours 1 minutes 18 seconds 120 msec
