                         Program Version 6.0.1  -  RELEASE   -
|  1> ! r2scan-3c def2/J RI DEFGRID2 scfconv6 printgap
|  2> %output
|  3>     printlevel normal
|  4> end
|  5> %cpcm
|  6>     smd true
|  7>     smdsolvent "water"
|  8> end
|  9> * xyz 0 1
| 10> C 5.4435989605 -1.5595571848 -2.023889396
| 11> C 4.726807037 -2.5357949978 -1.1050682848
| 12> O 3.309190113 -2.5467460337 -1.3719455846
| 13> C 2.5450459693 -1.6690581086 -0.7610202921
| 14> O 2.9396800177 -0.842611442 0.036616961
| 15> C 1.0898914512 -1.8330476224 -1.1417994307
| 16> C 0.3046629653 -0.607490112 -0.6963107349
| 17> H 0.5195716834 0.273210969 -1.3064185321
| 18> C 0.5955230994 -0.2892469671 0.7605992157
| 19> O 0.4738359341 -1.1024363358 1.6526270027
| 20> O 0.9025997902 0.9764766955 0.9200944054
| 21> C 1.2358334202 1.4467039848 2.2404155519
| 22> C 0.7667834533 2.8818143356 2.3814565303
| 23> S -1.4818405699 -0.9695608495 -0.807872388
| 24> P -2.1667255226 0.8791115986 -0.0125514102
| 25> S -1.4046867632 2.4983542933 -0.7919458324
| 26> O -3.7480438032 0.7282193058 -0.1697141791
| 27> C -4.3686952427 0.7953809517 -1.4609413486
| 28> O -2.0129148104 0.8187088526 1.5621477978
| 29> C -2.5691827921 -0.2378919948 2.3731445188
| 30> H 5.2352779107 -1.801357256 -3.0622972771
| 31> H 5.1120307245 -0.5433063674 -1.8223944253
| 32> H 6.5124923064 -1.6217977627 -1.8487680161
| 33> H 4.8822677359 -2.2686381082 -0.0560431637
| 34> H 5.0440002753 -3.5621979861 -1.2888395991
| 35> H 0.7145294521 -2.7166467078 -0.6176074323
| 36> H 0.9937894255 -2.0031798515 -2.2130079535
| 37> H 0.7605595267 0.786114624 2.9718618695
| 38> H 2.3226821863 1.3655288288 2.3337986557
| 39> H 1.0462829244 3.2558837348 3.3604727459
| 40> H 1.2222363784 3.4981460346 1.6118383892
| 41> H -0.3135548068 2.9349957671 2.2687483053
| 42> H -3.9827277158 1.6509720953 -2.0167694296
| 43> H -5.4316672546 0.9143609892 -1.2674376831
| 44> H -4.1755106372 -0.1250199783 -2.0107974243
| 45> H -2.7500819266 0.2093593594 3.3471762654
| 46> H -1.8381652113 -1.043584984 2.4527818533
| 47> H -3.4972171044 -0.6033043031 1.9397952737
| 48> *
| 49>
| 50>                          ****END OF INPUT****

CARTESIAN COORDINATES (ANGSTROEM)
---------------------------------
  C      5.443599   -1.559557   -2.023889
  C      4.726807   -2.535795   -1.105068
  O      3.309190   -2.546746   -1.371946
  C      2.545046   -1.669058   -0.761020
  O      2.939680   -0.842611    0.036617
  C      1.089891   -1.833048   -1.141799
  C      0.304663   -0.607490   -0.696311
  H      0.519572    0.273211   -1.306419
  C      0.595523   -0.289247    0.760599
  O      0.473836   -1.102436    1.652627
  O      0.902600    0.976477    0.920094
  C      1.235833    1.446704    2.240416
  C      0.766783    2.881814    2.381457
  S     -1.481841   -0.969561   -0.807872
  P     -2.166726    0.879112   -0.012551
  S     -1.404687    2.498354   -0.791946
  O     -3.748044    0.728219   -0.169714
  C     -4.368695    0.795381   -1.460941
  O     -2.012915    0.818709    1.562148
  C     -2.569183   -0.237892    2.373145
  H      5.235278   -1.801357   -3.062297
  H      5.112031   -0.543306   -1.822394
  H      6.512492   -1.621798   -1.848768
  H      4.882268   -2.268638   -0.056043
  H      5.044000   -3.562198   -1.288840
  H      0.714529   -2.716647   -0.617607
  H      0.993789   -2.003180   -2.213008
  H      0.760560    0.786115    2.971862
  H      2.322682    1.365529    2.333799
  H      1.046283    3.255884    3.360473
  H      1.222236    3.498146    1.611838
  H     -0.313555    2.934996    2.268748
  H     -3.982728    1.650972   -2.016769
  H     -5.431667    0.914361   -1.267438
  H     -4.175511   -0.125020   -2.010797
  H     -2.750082    0.209359    3.347176
  H     -1.838165   -1.043585    2.452782
  H     -3.497217   -0.603304    1.939795

 Total Charge           Charge          ....    0
 Multiplicity           Mult            ....    1
 Number of Electrons    NEL             ....  174
 Basis Dimension        Dim             ....  510

ORBITAL ENERGIES
----------------

  NO   OCC          E(Eh)            E(eV)
   0   2.0000     -88.583912     -2410.4908
   1   2.0000     -88.528390     -2408.9800
   2   2.0000     -76.922502     -2093.1677
   3   2.0000     -19.010573      -517.3040
   4   2.0000     -19.004582      -517.1410
   5   2.0000     -19.000925      -517.0415
   6   2.0000     -18.998366      -516.9718
   7   2.0000     -18.953307      -515.7457
   8   2.0000     -18.944338      -515.5016
   9   2.0000     -10.175415      -276.8871
  10   2.0000     -10.171437      -276.7789
  11   2.0000     -10.096109      -274.7291
  12   2.0000     -10.087384      -274.4917
  13   2.0000     -10.084399      -274.4104
  14   2.0000     -10.084171      -274.4042
  15   2.0000     -10.083852      -274.3956
  16   2.0000     -10.061459      -273.7862
  17   2.0000     -10.019799      -272.6526
  18   2.0000     -10.017339      -272.5857
  19   2.0000      -7.877938      -214.3696
  20   2.0000      -7.823486      -212.8879
  21   2.0000      -6.600835      -179.6179
  22   2.0000      -5.824610      -158.4957
  23   2.0000      -5.822068      -158.4265
  24   2.0000      -5.815059      -158.2358
  25   2.0000      -5.771237      -157.0433
  26   2.0000      -5.763663      -156.8372
  27   2.0000      -5.763428      -156.8308
  28   2.0000      -4.746678      -129.1637
  29   2.0000      -4.745887      -129.1422
  30   2.0000      -4.744200      -129.0962
  31   2.0000      -1.090556       -29.6756
  32   2.0000      -1.084400       -29.5080
  33   2.0000      -1.055994       -28.7351
  34   2.0000      -1.014222       -27.5984
  35   2.0000      -1.000436       -27.2232
  36   2.0000      -0.993438       -27.0328
  37   2.0000      -0.814380       -22.1604
  38   2.0000      -0.754928       -20.5426
  39   2.0000      -0.742541       -20.2056
  40   2.0000      -0.732197       -19.9241
  41   2.0000      -0.698952       -19.0194
  42   2.0000      -0.673285       -18.3210
  43   2.0000      -0.660788       -17.9810
  44   2.0000      -0.650247       -17.6941
  45   2.0000      -0.625618       -17.0239
  46   2.0000      -0.585359       -15.9284
  47   2.0000      -0.544110       -14.8060
  48   2.0000      -0.530398       -14.4329
  49   2.0000      -0.524711       -14.2781
  50   2.0000      -0.500924       -13.6308
  51   2.0000      -0.495656       -13.4875
  52   2.0000      -0.489223       -13.3124
  53   2.0000      -0.471291       -12.8245
  54   2.0000      -0.463734       -12.6189
  55   2.0000      -0.458195       -12.4681
  56   2.0000      -0.452566       -12.3150
  57   2.0000      -0.447782       -12.1848
  58   2.0000      -0.441603       -12.0166
  59   2.0000      -0.429575       -11.6893
  60   2.0000      -0.419739       -11.4217
  61   2.0000      -0.418043       -11.3755
  62   2.0000      -0.411531       -11.1983
  63   2.0000      -0.398161       -10.8345
  64   2.0000      -0.387968       -10.5571
  65   2.0000      -0.379568       -10.3286
  66   2.0000      -0.367833       -10.0092
  67   2.0000      -0.365571        -9.9477
  68   2.0000      -0.362217        -9.8564
  69   2.0000      -0.356746        -9.7075
  70   2.0000      -0.344186        -9.3658
  71   2.0000      -0.341763        -9.2998
  72   2.0000      -0.334534        -9.1031
  73   2.0000      -0.329830        -8.9751
  74   2.0000      -0.325721        -8.8633
  75   2.0000      -0.317637        -8.6433
  76   2.0000      -0.312735        -8.5100
  77   2.0000      -0.308436        -8.3930
  78   2.0000      -0.291451        -7.9308
  79   2.0000      -0.287166        -7.8142
  80   2.0000      -0.281718        -7.6659
  81   2.0000      -0.276649        -7.5280
  82   2.0000      -0.264057        -7.1854
  83   2.0000      -0.260859        -7.0983
  84   2.0000      -0.246523        -6.7082
  85   2.0000      -0.226761        -6.1705
  86   2.0000      -0.222734        -6.0609
  87   0.0000      -0.051943        -1.4134
  88   0.0000      -0.036265        -0.9868
  89   0.0000      -0.029347        -0.7986
  90   0.0000      -0.001923        -0.0523
  91   0.0000       0.017315         0.4712

MULLIKEN ATOMIC CHARGES
-----------------------
   0 C :   -0.494179
   1 C :   -0.143968
   2 O :   -0.177982
   3 C :    0.429414
   4 O :   -0.475018
   5 C :   -0.392776
   6 C :   -0.055484
   7 H :    0.272066
   8 C :    0.226263
   9 O :   -0.460285
  10 O :   -0.122956
  11 C :   -0.160705
  12 C :   -0.496022
  13 S :   -0.186494
  14 P :    0.758869
  15 S :   -0.475841
  16 O :   -0.375044
  17 C :   -0.304572
  18 O :   -0.326839
  19 C :   -0.297447
  20 H :    0.167266
  21 H :    0.170198
  22 H :    0.172393
  23 H :    0.175390
  24 H :    0.177665
  25 H :    0.228810
  26 H :    0.214652
  27 H :    0.182046
  28 H :    0.177881
  29 H :    0.168232
  30 H :    0.163909
  31 H :    0.169959
  32 H :    0.179573
  33 H :    0.181858
  34 H :    0.176060
  35 H :    0.182728
  36 H :    0.188012
  37 H :    0.182369
Sum of atomic charges:    0.0000000

LOEWDIN ATOMIC CHARGES
----------------------
   0 C :   -0.390551
   1 C :    0.037946
   2 O :   -0.573964
   3 C :    0.390960
   4 O :   -0.466036
   5 C :   -0.200147
   6 C :   -0.187409
   7 H :    0.210122
   8 C :    0.327265
   9 O :   -0.491748
  10 O :   -0.592030
  11 C :    0.036927
  12 C :   -0.392901
  13 S :    0.201344
  14 P :    0.380072
  15 S :   -0.115571
  16 O :   -0.690851
  17 C :   -0.050078
  18 O :   -0.669238
  19 C :   -0.041119
  20 H :    0.162821
  21 H :    0.163113
  22 H :    0.169002
  23 H :    0.191095
  24 H :    0.191126
  25 H :    0.211039
  26 H :    0.205020
  27 H :    0.194435
  28 H :    0.188730
  29 H :    0.166818
  30 H :    0.162524
  31 H :    0.163867
  32 H :    0.178992
  33 H :    0.190221
  34 H :    0.176691
  35 H :    0.191090
  36 H :    0.187423
  37 H :    0.183000

  Mayer bond orders larger than 0.100000
B(  0-C ,  1-C ) :   0.9401 B(  0-C , 20-H ) :   0.9694 B(  0-C , 21-H ) :   0.9683
B(  0-C , 22-H ) :   0.9588 B(  1-C ,  2-O ) :   0.7800 B(  1-C , 23-H ) :   0.9618
B(  1-C , 24-H ) :   0.9516 B(  2-O ,  3-C ) :   1.1617 B(  3-C ,  4-O ) :   1.7104
B(  3-C ,  5-C ) :   1.0091 B(  4-O ,  8-C ) :   0.1055 B(  5-C ,  6-C ) :   0.9265
B(  5-C , 25-H ) :   0.9425 B(  5-C , 26-H ) :   0.9141 B(  6-C ,  7-H ) :   0.9671
B(  6-C ,  8-C ) :   0.8061 B(  6-C , 13-S ) :   0.8353 B(  8-C ,  9-O ) :   1.8038
B(  8-C , 10-O ) :   1.1564 B( 10-O , 11-C ) :   0.7722 B( 11-C , 12-C ) :   0.9377
B( 11-C , 27-H ) :   0.9746 B( 11-C , 28-H ) :   0.9345 B( 12-C , 29-H ) :   0.9611
B( 12-C , 30-H ) :   0.9664 B( 12-C , 31-H ) :   0.9701 B( 13-S , 14-P ) :   1.0034
B( 14-P , 15-S ) :   1.8370 B( 14-P , 16-O ) :   1.0564 B( 14-P , 18-O ) :   1.1074
B( 16-O , 17-C ) :   0.8193 B( 17-C , 32-H ) :   0.9546 B( 17-C , 33-H ) :   0.9561
B( 17-C , 34-H ) :   0.9499 B( 18-O , 19-C ) :   0.7877 B( 19-C , 35-H ) :   0.9550
B( 19-C , 36-H ) :   0.9455 B( 19-C , 37-H ) :   0.9547

Dispersion correction           -0.017484768
FINAL SINGLE POINT ENERGY     -1981.470213067226

DIPOLE MOMENT
-------------

Method             : SCF
Type of density    : Electron Density
Multiplicity       :   1
Irrep              :   0
Energy             : -1981.4897351686643105 Eh
Relativity type    :
Basis              : AO
                                X                 Y                 Z
Electronic contribution:    -13.602638360       0.672058493      -3.387477715
Nuclear contribution   :     13.658710611      -2.172772811       2.700925808
                        -----------------------------------------
Total Dipole Moment    :      0.056072251      -1.500714317      -0.686551907
                        -----------------------------------------
Magnitude (a.u.)       :      1.651254396
Magnitude (Debye)      :      4.197155121

Rotational constants in cm-1:             0.016301             0.005797             0.005195
Rotational constants in MHz :           488.696944           173.794011           155.747821

                             ****ORCA TERMINATED NORMALLY****
TOTAL RUN TIME: 0 days 0 hours 1 minutes 44 seconds 906 msec
