                         Program Version 6.0.0  -   RELEASE  -
|  1> ! pbe def2-sv(p) def2/J RI DEFGRID1 loosescf d4 GCP(DFT/SV(P)) printgap
|  2> %output
|  3>     printlevel normal
|  4> end
|  5> * xyz 0 1
|  6> C 4.350896697 -1.733993054 -1.2057353812
|  7> C 4.6688692243 -0.487179118 -0.4052429005
|  8> O 3.610038995 -0.1348589008 0.5000979643
|  9> P 2.1782537778 0.3510393569 0.0020713485
| 10> S 2.2278171091 1.5080823337 -1.5849081094
| 11> O 1.5947173491 0.9472409132 1.3503269521
| 12> C 1.7385862314 2.3338686568 1.7101215134
| 13> C 3.1864467766 2.7244858347 1.9161693907
| 14> S 1.0693912507 -1.4343174093 -0.1094248786
| 15> C 0.0236316208 -1.0981641952 -1.5763402474
| 16> S -1.705449613 -1.5262679585 -1.3103671671
| 17> P -2.320931968 0.1423906587 -0.1268034686
| 18> S -1.1494058819 1.7099432949 -0.18117389
| 19> O -2.6259524935 -0.4138413524 1.3348390452
| 20> C -1.6152405549 -0.7613933871 2.2977501996
| 21> C -1.4183586834 -2.2644352762 2.3501873082
| 22> O -3.7566936592 0.4833980216 -0.6600131348
| 23> C -4.8005182742 -0.49167035 -0.9167791941
| 24> C -5.6097024263 -0.7837207297 0.3292947086
| 25> H 4.0576632148 -2.5448349746 -0.5436911033
| 26> H 3.5354368157 -1.5301294993 -1.898795663
| 27> H 5.2276229241 -2.0287429805 -1.7733994845
| 28> H 4.8466069099 0.3610447029 -1.0742201944
| 29> H 5.5308804824 -0.6351849628 0.2465280777
| 30> H 1.2718449797 2.9402019235 0.9261958714
| 31> H 1.1574252854 2.4249126446 2.6289926538
| 32> H 3.6561749453 2.0550229563 2.6321564385
| 33> H 3.724332183 2.6659731623 0.9704433301
| 34> H 3.2330907854 3.7443407948 2.2849574036
| 35> H 0.3608501662 -1.7343020763 -2.3905228379
| 36> H 0.1160522619 -0.0400652357 -1.8333492929
| 37> H -0.6828458092 -0.2419427065 2.0519814049
| 38> H -1.9934211856 -0.3793011543 3.2481696789
| 39> H -2.3631171919 -2.7551743765 2.5653833247
| 40> H -1.0319579013 -2.6372675107 1.4043967783
| 41> H -0.7045915222 -2.4988886191 3.1331431633
| 42> H -5.4118313506 -0.0183337618 -1.6870271284
| 43> H -4.3406360106 -1.4000853663 -1.3149752382
| 44> H -4.9896840403 -1.2608545408 1.0825564112
| 45> H -6.0096671843 0.1398519504 0.7390322153
| 46> H -6.4301540309 -1.4451745317 0.0689041089
| 47> *
| 48>
| 49>                          ****END OF INPUT****

CARTESIAN COORDINATES (ANGSTROEM)
---------------------------------
  C      4.350897   -1.733993   -1.205735
  C      4.668869   -0.487179   -0.405243
  O      3.610039   -0.134859    0.500098
  P      2.178254    0.351039    0.002071
  S      2.227817    1.508082   -1.584908
  O      1.594717    0.947241    1.350327
  C      1.738586    2.333869    1.710122
  C      3.186447    2.724486    1.916169
  S      1.069391   -1.434317   -0.109425
  C      0.023632   -1.098164   -1.576340
  S     -1.705450   -1.526268   -1.310367
  P     -2.320932    0.142391   -0.126803
  S     -1.149406    1.709943   -0.181174
  O     -2.625952   -0.413841    1.334839
  C     -1.615241   -0.761393    2.297750
  C     -1.418359   -2.264435    2.350187
  O     -3.756694    0.483398   -0.660013
  C     -4.800518   -0.491670   -0.916779
  C     -5.609702   -0.783721    0.329295
  H      4.057663   -2.544835   -0.543691
  H      3.535437   -1.530129   -1.898796
  H      5.227623   -2.028743   -1.773399
  H      4.846607    0.361045   -1.074220
  H      5.530880   -0.635185    0.246528
  H      1.271845    2.940202    0.926196
  H      1.157425    2.424913    2.628993
  H      3.656175    2.055023    2.632156
  H      3.724332    2.665973    0.970443
  H      3.233091    3.744341    2.284957
  H      0.360850   -1.734302   -2.390523
  H      0.116052   -0.040065   -1.833349
  H     -0.682846   -0.241943    2.051981
  H     -1.993421   -0.379301    3.248170
  H     -2.363117   -2.755174    2.565383
  H     -1.031958   -2.637268    1.404397
  H     -0.704592   -2.498889    3.133143
  H     -5.411831   -0.018334   -1.687027
  H     -4.340636   -1.400085   -1.314975
  H     -4.989684   -1.260855    1.082556
  H     -6.009667    0.139852    0.739032
  H     -6.430154   -1.445175    0.068904

 Total Charge           Charge          ....    0
 Multiplicity           Mult            ....    1
 Number of Electrons    NEL             ....  202
 Basis Dimension        Dim             ....  334

ORBITAL ENERGIES
----------------

  NO   OCC          E(Eh)            E(eV)
   0   2.0000     -88.045426     -2395.8378
   1   2.0000     -88.042324     -2395.7534
   2   2.0000     -87.987221     -2394.2540
   3   2.0000     -87.979773     -2394.0513
   4   2.0000     -76.425088     -2079.6324
   5   2.0000     -76.423798     -2079.5973
   6   2.0000     -18.793138      -511.3873
   7   2.0000     -18.789090      -511.2771
   8   2.0000     -18.786974      -511.2195
   9   2.0000     -18.785710      -511.1852
  10   2.0000      -9.960763      -271.0461
  11   2.0000      -9.955731      -270.9092
  12   2.0000      -9.950907      -270.7779
  13   2.0000      -9.946106      -270.6473
  14   2.0000      -9.945766      -270.6381
  15   2.0000      -9.888058      -269.0677
  16   2.0000      -9.883636      -268.9474
  17   2.0000      -9.879631      -268.8384
  18   2.0000      -9.879378      -268.8315
  19   2.0000      -7.690388      -209.2661
  20   2.0000      -7.687216      -209.1798
  21   2.0000      -7.632053      -207.6787
  22   2.0000      -7.624695      -207.4785
  23   2.0000      -6.422421      -174.7630
  24   2.0000      -6.421387      -174.7348
  25   2.0000      -5.718301      -155.6029
  26   2.0000      -5.715049      -155.5144
  27   2.0000      -5.714701      -155.5049
  28   2.0000      -5.711839      -155.4271
  29   2.0000      -5.707540      -155.3101
  30   2.0000      -5.704071      -155.2157
  31   2.0000      -5.660939      -154.0420
  32   2.0000      -5.653740      -153.8461
  33   2.0000      -5.652835      -153.8214
  34   2.0000      -5.652121      -153.8020
  35   2.0000      -5.645249      -153.6150
  36   2.0000      -5.644768      -153.6019
  37   2.0000      -4.644637      -126.3870
  38   2.0000      -4.644108      -126.3726
  39   2.0000      -4.644092      -126.3722
  40   2.0000      -4.643318      -126.3511
  41   2.0000      -4.643191      -126.3477
  42   2.0000      -4.641664      -126.3061
  43   2.0000      -0.986284       -26.8381
  44   2.0000      -0.983757       -26.7694
  45   2.0000      -0.942829       -25.6557
  46   2.0000      -0.941640       -25.6233
  47   2.0000      -0.761791       -20.7294
  48   2.0000      -0.721025       -19.6201
  49   2.0000      -0.709814       -19.3150
  50   2.0000      -0.688485       -18.7346
  51   2.0000      -0.684657       -18.6305
  52   2.0000      -0.674112       -18.3435
  53   2.0000      -0.648618       -17.6498
  54   2.0000      -0.634692       -17.2708
  55   2.0000      -0.601470       -16.3668
  56   2.0000      -0.589967       -16.0538
  57   2.0000      -0.574424       -15.6309
  58   2.0000      -0.569527       -15.4976
  59   2.0000      -0.560287       -15.2462
  60   2.0000      -0.500831       -13.6283
  61   2.0000      -0.489008       -13.3066
  62   2.0000      -0.478288       -13.0149
  63   2.0000      -0.469004       -12.7622
  64   2.0000      -0.449505       -12.2316
  65   2.0000      -0.445693       -12.1279
  66   2.0000      -0.444136       -12.0856
  67   2.0000      -0.437738       -11.9115
  68   2.0000      -0.428882       -11.6705
  69   2.0000      -0.415545       -11.3075
  70   2.0000      -0.404743       -11.0136
  71   2.0000      -0.394981       -10.7480
  72   2.0000      -0.391868       -10.6633
  73   2.0000      -0.388195       -10.5633
  74   2.0000      -0.381595       -10.3837
  75   2.0000      -0.379844       -10.3361
  76   2.0000      -0.364691        -9.9237
  77   2.0000      -0.355833        -9.6827
  78   2.0000      -0.352143        -9.5823
  79   2.0000      -0.348783        -9.4909
  80   2.0000      -0.345908        -9.4126
  81   2.0000      -0.345042        -9.3891
  82   2.0000      -0.339558        -9.2398
  83   2.0000      -0.337504        -9.1839
  84   2.0000      -0.332489        -9.0475
  85   2.0000      -0.317968        -8.6523
  86   2.0000      -0.309888        -8.4325
  87   2.0000      -0.294829        -8.0227
  88   2.0000      -0.292201        -7.9512
  89   2.0000      -0.288259        -7.8439
  90   2.0000      -0.280839        -7.6420
  91   2.0000      -0.277361        -7.5474
  92   2.0000      -0.268663        -7.3107
  93   2.0000      -0.264006        -7.1840
  94   2.0000      -0.258222        -7.0266
  95   2.0000      -0.233088        -6.3426
  96   2.0000      -0.218009        -5.9323
  97   2.0000      -0.214478        -5.8363
  98   2.0000      -0.202602        -5.5131
  99   2.0000      -0.196317        -5.3421
 100   2.0000      -0.188540        -5.1304
 101   0.0000      -0.044602        -1.2137
 102   0.0000      -0.035436        -0.9643
 103   0.0000      -0.013589        -0.3698
 104   0.0000       0.008395         0.2284
 105   0.0000       0.017300         0.4708

MULLIKEN ATOMIC CHARGES
-----------------------
   0 C :   -0.311418
   1 C :   -0.002081
   2 O :   -0.372735
   3 P :    0.621993
   4 S :   -0.316293
   5 O :   -0.359090
   6 C :   -0.001524
   7 C :   -0.305008
   8 S :   -0.109171
   9 C :   -0.333321
  10 S :   -0.141746
  11 P :    0.609185
  12 S :   -0.301703
  13 O :   -0.379168
  14 C :   -0.025249
  15 C :   -0.296843
  16 O :   -0.352928
  17 C :   -0.024743
  18 C :   -0.294615
  19 H :    0.118697
  20 H :    0.119190
  21 H :    0.111982
  22 H :    0.109255
  23 H :    0.104052
  24 H :    0.122486
  25 H :    0.102647
  26 H :    0.114347
  27 H :    0.122393
  28 H :    0.111498
  29 H :    0.181770
  30 H :    0.215140
  31 H :    0.129917
  32 H :    0.102397
  33 H :    0.107402
  34 H :    0.126005
  35 H :    0.107402
  36 H :    0.115792
  37 H :    0.115417
  38 H :    0.126001
  39 H :    0.122232
  40 H :    0.110437
Sum of atomic charges:    0.0000000

LOEWDIN ATOMIC CHARGES
----------------------
   0 C :   -0.369506
   1 C :   -0.119527
   2 O :   -0.245874
   3 P :    0.575193
   4 S :   -0.306720
   5 O :   -0.236443
   6 C :   -0.116162
   7 C :   -0.366811
   8 S :    0.089365
   9 C :   -0.474898
  10 S :    0.062561
  11 P :    0.563039
  12 S :   -0.289490
  13 O :   -0.247671
  14 C :   -0.122089
  15 C :   -0.363436
  16 O :   -0.232263
  17 C :   -0.111629
  18 C :   -0.361666
  19 H :    0.124059
  20 H :    0.118904
  21 H :    0.130087
  22 H :    0.109551
  23 H :    0.118183
  24 H :    0.111403
  25 H :    0.118256
  26 H :    0.125176
  27 H :    0.121387
  28 H :    0.130346
  29 H :    0.135058
  30 H :    0.126987
  31 H :    0.109316
  32 H :    0.117331
  33 H :    0.121102
  34 H :    0.111875
  35 H :    0.129502
  36 H :    0.124415
  37 H :    0.104971
  38 H :    0.125738
  39 H :    0.130598
  40 H :    0.129781

  Mayer bond orders larger than 0.100000
B(  0-C ,  1-C ) :   1.1665 B(  0-C , 19-H ) :   0.9432 B(  0-C , 20-H ) :   0.9375
B(  0-C , 21-H ) :   0.9378 B(  1-C ,  2-O ) :   0.9146 B(  1-C , 22-H ) :   0.9156
B(  1-C , 23-H ) :   0.9341 B(  2-O ,  3-P ) :   1.0984 B(  3-P ,  4-S ) :   1.5929
B(  3-P ,  5-O ) :   1.1288 B(  3-P ,  8-S ) :   0.9599 B(  4-S ,  8-S ) :   0.1140
B(  5-O ,  6-C ) :   0.9015 B(  6-C ,  7-C ) :   1.1620 B(  6-C , 24-H ) :   0.9175
B(  6-C , 25-H ) :   0.9356 B(  7-C , 26-H ) :   0.9446 B(  7-C , 27-H ) :   0.9349
B(  7-C , 28-H ) :   0.9386 B(  8-S ,  9-C ) :   0.9848 B(  9-C , 10-S ) :   1.0236
B(  9-C , 29-H ) :   0.9079 B(  9-C , 30-H ) :   0.8474 B( 10-S , 11-P ) :   0.9191
B( 10-S , 12-S ) :   0.1089 B( 11-P , 12-S ) :   1.6702 B( 11-P , 13-O ) :   1.0851
B( 11-P , 16-O ) :   1.1512 B( 13-O , 14-C ) :   0.8968 B( 14-C , 15-C ) :   1.1684
B( 14-C , 31-H ) :   0.8958 B( 14-C , 32-H ) :   0.9352 B( 15-C , 33-H ) :   0.9471
B( 15-C , 34-H ) :   0.9305 B( 15-C , 35-H ) :   0.9410 B( 16-O , 17-C ) :   0.8983
B( 17-C , 18-C ) :   1.1629 B( 17-C , 36-H ) :   0.9359 B( 17-C , 37-H ) :   0.9148
B( 18-C , 38-H ) :   0.9384 B( 18-C , 39-H ) :   0.9464 B( 18-C , 40-H ) :   0.9381

Dispersion correction           -0.067013214
FINAL SINGLE POINT ENERGY     -2929.518524571382

DIPOLE MOMENT
-------------

Method             : SCF
Type of density    : Electron Density
Multiplicity       :   1
Irrep              :   0
Energy             : -2929.6372722632972909 Eh
Relativity type    :
Basis              : AO
                                X                 Y                 Z
Electronic contribution:     -2.752922734       5.696545826     -10.342566688
Nuclear contribution   :      2.686658295      -6.832604560      10.998955109
                        -----------------------------------------
Total Dipole Moment    :     -0.066264439      -1.136058734       0.656388420
                        -----------------------------------------
Magnitude (a.u.)       :      1.313722262
Magnitude (Debye)      :      3.339216618

Rotational constants in cm-1:             0.013870             0.004880             0.004614
Rotational constants in MHz :           415.819186           146.313384           138.331196

                             ****ORCA TERMINATED NORMALLY****
TOTAL RUN TIME: 0 days 0 hours 0 minutes 21 seconds 725 msec
