                         Program Version 6.0.0  -   RELEASE  -
|  1> ! pbe def2-sv(p) def2/J RI DEFGRID1 loosescf d4 GCP(DFT/SV(P)) printgap
|  2> %output
|  3>     printlevel normal
|  4> end
|  5> * xyz 0 1
|  6> C 3.501343412 -3.1873922604 -0.8616269758
|  7> C 3.2397008823 -2.0073236152 -1.7742946691
|  8> O 3.450032783 -0.7486782982 -1.0850390702
|  9> P 2.3598339421 0.0413564947 -0.2761108561
| 10> S 2.9935861675 1.7929145117 0.310349461
| 11> O 1.9773338281 -0.9709617877 0.8939083425
| 12> C 1.386043847 -0.593868771 2.1486882555
| 13> C 2.0592015758 -1.3891929 3.2494468303
| 14> S 0.6763027989 0.0378026231 -1.6113309115
| 15> C -0.0022833987 1.640627616 -1.1347110287
| 16> S -0.6993699196 1.6331164613 0.5354502504
| 17> P -2.3049936905 0.2984754069 0.1148466779
| 18> S -3.1047389586 0.453643827 -1.6728262259
| 19> O -3.2442107229 0.4772233974 1.3771308451
| 20> C -3.6960691127 1.7344801792 1.9132441905
| 21> C -4.3671036811 2.6087295472 0.8740124082
| 22> O -1.7612577263 -1.1479014194 0.4640877521
| 23> C -1.77976019 -2.2721164225 -0.4439988446
| 24> C -0.6118871958 -3.1758463129 -0.107956735
| 25> H 3.4009874973 -4.1043987432 -1.4337348883
| 26> H 4.5072219131 -3.1262437273 -0.4555077034
| 27> H 2.7924904023 -3.1992876051 -0.0385854149
| 28> H 2.221396342 -2.0240153877 -2.1727831256
| 29> H 3.9537816766 -1.9763185329 -2.5990630741
| 30> H 1.5217575508 0.4825477007 2.2987831633
| 31> H 0.3166723044 -0.8172767083 2.0919307735
| 32> H 3.1182089188 -1.1480587219 3.2880211297
| 33> H 1.6006215937 -1.1369021294 4.1998950814
| 34> H 1.9454340934 -2.4537366108 3.0663014668
| 35> H -0.7863477344 1.8699611647 -1.8564870131
| 36> H 0.7861837008 2.392532264 -1.1393127822
| 37> H -4.3949371554 1.4406168819 2.6984156959
| 38> H -2.8368876778 2.2468359768 2.3553444119
| 39> H -3.646936987 2.9127265986 0.1154227937
| 40> H -5.1731452325 2.0661560219 0.385525005
| 41> H -4.7693895409 3.4953015965 1.3535544421
| 42> H -2.7330766545 -2.7870209742 -0.305148018
| 43> H -1.7213001051 -1.9034567224 -1.4732272015
| 44> H 0.325035464 -2.6407578139 -0.2366531756
| 45> H -0.6878972144 -3.5150838132 0.9211744199
| 46> H -0.6257651919 -4.0328926228 -0.7730145589
| 47> *
| 48>
| 49>                          ****END OF INPUT****

CARTESIAN COORDINATES (ANGSTROEM)
---------------------------------
  C      3.501343   -3.187392   -0.861627
  C      3.239701   -2.007324   -1.774295
  O      3.450033   -0.748678   -1.085039
  P      2.359834    0.041356   -0.276111
  S      2.993586    1.792915    0.310349
  O      1.977334   -0.970962    0.893908
  C      1.386044   -0.593869    2.148688
  C      2.059202   -1.389193    3.249447
  S      0.676303    0.037803   -1.611331
  C     -0.002283    1.640628   -1.134711
  S     -0.699370    1.633116    0.535450
  P     -2.304994    0.298475    0.114847
  S     -3.104739    0.453644   -1.672826
  O     -3.244211    0.477223    1.377131
  C     -3.696069    1.734480    1.913244
  C     -4.367104    2.608730    0.874012
  O     -1.761258   -1.147901    0.464088
  C     -1.779760   -2.272116   -0.443999
  C     -0.611887   -3.175846   -0.107957
  H      3.400987   -4.104399   -1.433735
  H      4.507222   -3.126244   -0.455508
  H      2.792490   -3.199288   -0.038585
  H      2.221396   -2.024015   -2.172783
  H      3.953782   -1.976319   -2.599063
  H      1.521758    0.482548    2.298783
  H      0.316672   -0.817277    2.091931
  H      3.118209   -1.148059    3.288021
  H      1.600622   -1.136902    4.199895
  H      1.945434   -2.453737    3.066301
  H     -0.786348    1.869961   -1.856487
  H      0.786184    2.392532   -1.139313
  H     -4.394937    1.440617    2.698416
  H     -2.836888    2.246836    2.355344
  H     -3.646937    2.912727    0.115423
  H     -5.173145    2.066156    0.385525
  H     -4.769390    3.495302    1.353554
  H     -2.733077   -2.787021   -0.305148
  H     -1.721300   -1.903457   -1.473227
  H      0.325035   -2.640758   -0.236653
  H     -0.687897   -3.515084    0.921174
  H     -0.625765   -4.032893   -0.773015

 Total Charge           Charge          ....    0
 Multiplicity           Mult            ....    1
 Number of Electrons    NEL             ....  202
 Basis Dimension        Dim             ....  334

ORBITAL ENERGIES
----------------

  NO   OCC          E(Eh)            E(eV)
   0   2.0000     -88.046119     -2395.8567
   1   2.0000     -88.043656     -2395.7897
   2   2.0000     -87.989402     -2394.3134
   3   2.0000     -87.989035     -2394.3034
   4   2.0000     -76.429991     -2079.7658
   5   2.0000     -76.429616     -2079.7556
   6   2.0000     -18.798263      -511.5267
   7   2.0000     -18.794804      -511.4326
   8   2.0000     -18.793308      -511.3919
   9   2.0000     -18.790832      -511.3245
  10   2.0000      -9.965656      -271.1793
  11   2.0000      -9.960040      -271.0265
  12   2.0000      -9.955213      -270.8951
  13   2.0000      -9.950863      -270.7767
  14   2.0000      -9.946623      -270.6614
  15   2.0000      -9.892478      -269.1880
  16   2.0000      -9.886805      -269.0337
  17   2.0000      -9.885035      -268.9855
  18   2.0000      -9.884929      -268.9826
  19   2.0000      -7.690664      -209.2736
  20   2.0000      -7.688163      -209.2056
  21   2.0000      -7.634377      -207.7420
  22   2.0000      -7.634291      -207.7396
  23   2.0000      -6.427036      -174.8885
  24   2.0000      -6.426931      -174.8857
  25   2.0000      -5.718386      -155.6052
  26   2.0000      -5.715976      -155.5396
  27   2.0000      -5.715189      -155.5182
  28   2.0000      -5.712741      -155.4516
  29   2.0000      -5.707857      -155.3187
  30   2.0000      -5.705233      -155.2473
  31   2.0000      -5.663385      -154.1085
  32   2.0000      -5.663234      -154.1044
  33   2.0000      -5.654970      -153.8796
  34   2.0000      -5.654793      -153.8747
  35   2.0000      -5.654641      -153.8706
  36   2.0000      -5.654331      -153.8622
  37   2.0000      -4.649821      -126.5281
  38   2.0000      -4.649303      -126.5140
  39   2.0000      -4.648944      -126.5042
  40   2.0000      -4.648721      -126.4981
  41   2.0000      -4.647397      -126.4621
  42   2.0000      -4.647392      -126.4620
  43   2.0000      -0.990743       -26.9595
  44   2.0000      -0.988952       -26.9108
  45   2.0000      -0.947902       -25.7937
  46   2.0000      -0.945540       -25.7295
  47   2.0000      -0.766635       -20.8612
  48   2.0000      -0.725648       -19.7459
  49   2.0000      -0.716227       -19.4895
  50   2.0000      -0.693764       -18.8783
  51   2.0000      -0.688039       -18.7225
  52   2.0000      -0.675217       -18.3736
  53   2.0000      -0.651678       -17.7331
  54   2.0000      -0.642127       -17.4732
  55   2.0000      -0.600279       -16.3344
  56   2.0000      -0.594832       -16.1862
  57   2.0000      -0.577024       -15.7016
  58   2.0000      -0.571416       -15.5490
  59   2.0000      -0.562690       -15.3116
  60   2.0000      -0.510475       -13.8907
  61   2.0000      -0.500465       -13.6183
  62   2.0000      -0.486276       -13.2322
  63   2.0000      -0.473272       -12.8784
  64   2.0000      -0.461971       -12.5709
  65   2.0000      -0.451089       -12.2747
  66   2.0000      -0.440077       -11.9751
  67   2.0000      -0.433201       -11.7880
  68   2.0000      -0.430115       -11.7040
  69   2.0000      -0.420489       -11.4421
  70   2.0000      -0.411947       -11.2096
  71   2.0000      -0.401079       -10.9139
  72   2.0000      -0.392635       -10.6841
  73   2.0000      -0.389806       -10.6072
  74   2.0000      -0.386635       -10.5209
  75   2.0000      -0.374971       -10.2035
  76   2.0000      -0.367707       -10.0058
  77   2.0000      -0.358578        -9.7574
  78   2.0000      -0.356552        -9.7023
  79   2.0000      -0.354606        -9.6493
  80   2.0000      -0.351144        -9.5551
  81   2.0000      -0.349515        -9.5108
  82   2.0000      -0.346950        -9.4410
  83   2.0000      -0.339829        -9.2472
  84   2.0000      -0.334743        -9.1088
  85   2.0000      -0.322148        -8.7661
  86   2.0000      -0.318011        -8.6535
  87   2.0000      -0.301885        -8.2147
  88   2.0000      -0.297559        -8.0970
  89   2.0000      -0.292933        -7.9711
  90   2.0000      -0.290211        -7.8970
  91   2.0000      -0.280646        -7.6368
  92   2.0000      -0.276714        -7.5298
  93   2.0000      -0.265084        -7.2133
  94   2.0000      -0.257754        -7.0138
  95   2.0000      -0.236690        -6.4407
  96   2.0000      -0.216328        -5.8866
  97   2.0000      -0.215520        -5.8646
  98   2.0000      -0.208022        -5.6606
  99   2.0000      -0.202302        -5.5049
 100   2.0000      -0.201038        -5.4705
 101   0.0000      -0.050644        -1.3781
 102   0.0000      -0.030110        -0.8193
 103   0.0000      -0.009685        -0.2635
 104   0.0000      -0.002007        -0.0546
 105   0.0000       0.003302         0.0898

MULLIKEN ATOMIC CHARGES
-----------------------
   0 C :   -0.305507
   1 C :   -0.025227
   2 O :   -0.356904
   3 P :    0.619055
   4 S :   -0.307616
   5 O :   -0.384221
   6 C :   -0.031750
   7 C :   -0.275836
   8 S :   -0.127042
   9 C :   -0.344961
  10 S :   -0.101644
  11 P :    0.607757
  12 S :   -0.329646
  13 O :   -0.364378
  14 C :   -0.011614
  15 C :   -0.310104
  16 O :   -0.365107
  17 C :    0.002854
  18 C :   -0.321758
  19 H :    0.111889
  20 H :    0.122106
  21 H :    0.141048
  22 H :    0.118207
  23 H :    0.117272
  24 H :    0.112642
  25 H :    0.116904
  26 H :    0.116306
  27 H :    0.109978
  28 H :    0.111779
  29 H :    0.193981
  30 H :    0.194800
  31 H :    0.110368
  32 H :    0.115081
  33 H :    0.125133
  34 H :    0.126974
  35 H :    0.112534
  36 H :    0.104496
  37 H :    0.113504
  38 H :    0.136643
  39 H :    0.114022
  40 H :    0.107982
Sum of atomic charges:   -0.0000000

LOEWDIN ATOMIC CHARGES
----------------------
   0 C :   -0.361446
   1 C :   -0.110268
   2 O :   -0.234354
   3 P :    0.571599
   4 S :   -0.301013
   5 O :   -0.244692
   6 C :   -0.128383
   7 C :   -0.351871
   8 S :    0.066045
   9 C :   -0.482314
  10 S :    0.085056
  11 P :    0.570172
  12 S :   -0.314055
  13 O :   -0.239431
  14 C :   -0.114714
  15 C :   -0.369087
  16 O :   -0.240347
  17 C :   -0.116252
  18 C :   -0.360228
  19 H :    0.130872
  20 H :    0.130961
  21 H :    0.127113
  22 H :    0.105208
  23 H :    0.125582
  24 H :    0.104460
  25 H :    0.108253
  26 H :    0.126981
  27 H :    0.130087
  28 H :    0.122860
  29 H :    0.130186
  30 H :    0.130812
  31 H :    0.122071
  32 H :    0.108965
  33 H :    0.121001
  34 H :    0.130232
  35 H :    0.130560
  36 H :    0.113883
  37 H :    0.104296
  38 H :    0.117301
  39 H :    0.125028
  40 H :    0.128871

  Mayer bond orders larger than 0.100000
B(  0-C ,  1-C ) :   1.1637 B(  0-C , 19-H ) :   0.9380 B(  0-C , 20-H ) :   0.9447
B(  0-C , 21-H ) :   0.9348 B(  1-C ,  2-O ) :   0.8965 B(  1-C , 22-H ) :   0.9128
B(  1-C , 23-H ) :   0.9347 B(  2-O ,  3-P ) :   1.1540 B(  3-P ,  4-S ) :   1.6471
B(  3-P ,  5-O ) :   1.0765 B(  3-P ,  8-S ) :   0.9217 B(  4-S ,  8-S ) :   0.1058
B(  5-O ,  6-C ) :   0.8929 B(  6-C ,  7-C ) :   1.1568 B(  6-C , 24-H ) :   0.9046
B(  6-C , 25-H ) :   0.9181 B(  7-C , 26-H ) :   0.9489 B(  7-C , 27-H ) :   0.9421
B(  7-C , 28-H ) :   0.9503 B(  8-S ,  9-C ) :   1.0157 B(  9-C , 10-S ) :   1.0042
B(  9-C , 29-H ) :   0.8756 B(  9-C , 30-H ) :   0.8768 B( 10-S , 11-P ) :   0.9338
B( 10-S , 12-S ) :   0.1104 B( 11-P , 12-S ) :   1.6054 B( 11-P , 13-O ) :   1.1328
B( 11-P , 16-O ) :   1.1156 B( 13-O , 14-C ) :   0.9140 B( 14-C , 15-C ) :   1.1642
B( 14-C , 31-H ) :   0.9338 B( 14-C , 32-H ) :   0.9259 B( 15-C , 33-H ) :   0.9334
B( 15-C , 34-H ) :   0.9431 B( 15-C , 35-H ) :   0.9353 B( 16-O , 17-C ) :   0.8966
B( 17-C , 18-C ) :   1.1624 B( 17-C , 36-H ) :   0.9345 B( 17-C , 37-H ) :   0.9043
B( 18-C , 38-H ) :   0.9256 B( 18-C , 39-H ) :   0.9468 B( 18-C , 40-H ) :   0.9407

Dispersion correction           -0.066774050
FINAL SINGLE POINT ENERGY     -2929.521030052163

DIPOLE MOMENT
-------------

Method             : SCF
Type of density    : Electron Density
Multiplicity       :   1
Irrep              :   0
Energy             : -2929.6404172060160818 Eh
Relativity type    :
Basis              : AO
                                X                 Y                 Z
Electronic contribution:      0.566217433      16.141542477      -9.288551988
Nuclear contribution   :     -0.869985361     -17.300856133       9.893698809
                        -----------------------------------------
Total Dipole Moment    :     -0.303767927      -1.159313656       0.605146820
                        -----------------------------------------
Magnitude (a.u.)       :      1.342566862
Magnitude (Debye)      :      3.412533766

Rotational constants in cm-1:             0.012004             0.005331             0.005022
Rotational constants in MHz :           359.871224           159.834064           150.567435

                             ****ORCA TERMINATED NORMALLY****
TOTAL RUN TIME: 0 days 0 hours 0 minutes 21 seconds 991 msec
