                         Program Version 6.0.0  -   RELEASE  -
|  1> ! pbe def2-sv(p) def2/J RI DEFGRID1 loosescf d4 GCP(DFT/SV(P)) printgap
|  2> %output
|  3>     printlevel normal
|  4> end
|  5> * xyz 0 1
|  6> C 2.5782137964 -3.1837809694 -1.5555105081
|  7> C 2.8165105931 -2.6175238031 -0.170291646
|  8> O 3.2773629684 -1.2455649083 -0.2397435457
|  9> P 2.3232097551 0.0135062081 -0.0958175893
| 10> S 3.3792411783 1.6564902653 -0.0965121738
| 11> O 1.4126733021 -0.2680039147 1.1918091399
| 12> C 1.8976829743 0.0161777102 2.5241844324
| 13> C 1.4751719205 1.3982230088 2.9807257486
| 14> S 0.8636145126 -0.1817995189 -1.6049236961
| 15> C 0.2065420523 1.4996936511 -1.4715564255
| 16> S -0.7017462135 1.8001929536 0.0613715016
| 17> P -2.2183473215 0.3580524247 -0.292836995
| 18> S -2.885003762 0.2235099628 -2.1246085321
| 19> O -3.363887537 0.7796671666 0.7136506589
| 20> C -3.1629395145 1.2933576328 2.0512779643
| 21> C -2.5507820967 0.2637926402 2.978008039
| 22> O -1.5704684168 -0.9813724831 0.2905992744
| 23> C -1.6522667682 -2.250075948 -0.3778476644
| 24> C -2.9762818118 -2.9259805097 -0.0843245516
| 25> H 3.4766363611 -3.0811136154 -2.1576114056
| 26> H 2.3224930357 -4.2352963692 -1.4701566371
| 27> H 1.7647137844 -2.6578003806 -2.0514868911
| 28> H 3.6254163338 -3.1456776493 0.3376293157
| 29> H 1.9088294399 -2.6564810344 0.4372670783
| 30> H 1.4523029156 -0.7617751274 3.1473667702
| 31> H 2.9878676246 -0.0803084959 2.5361507707
| 32> H 0.3968363883 1.506874155 2.9108669003
| 33> H 1.7885457754 1.5435701965 4.0094755926
| 34> H 1.9387187152 2.1590801456 2.3568864358
| 35> H -0.4605472031 1.6357195966 -2.3227839795
| 36> H 1.0319085163 2.2119652208 -1.4914457442
| 37> H -2.5346446307 2.1861142679 1.9846691257
| 38> H -4.1689203219 1.5744023537 2.367263043
| 39> H -1.5626972483 -0.0194490128 2.6218048515
| 40> H -2.4651923415 0.6882876441 3.9736122083
| 41> H -3.1766075861 -0.6238178122 3.0191102789
| 42> H -1.5255853804 -2.096667115 -1.4542369813
| 43> H -0.8090599075 -2.8213892896 0.0133568295
| 44> H -3.7913675145 -2.3069790648 -0.4575754054
| 45> H -3.0077747273 -3.8899978571 -0.5817287817
| 46> H -3.1019115727 -3.0663034666 0.9857509378
| 47> *
| 48>
| 49>                          ****END OF INPUT****

CARTESIAN COORDINATES (ANGSTROEM)
---------------------------------
  C      2.578214   -3.183781   -1.555511
  C      2.816511   -2.617524   -0.170292
  O      3.277363   -1.245565   -0.239744
  P      2.323210    0.013506   -0.095818
  S      3.379241    1.656490   -0.096512
  O      1.412673   -0.268004    1.191809
  C      1.897683    0.016178    2.524184
  C      1.475172    1.398223    2.980726
  S      0.863615   -0.181800   -1.604924
  C      0.206542    1.499694   -1.471556
  S     -0.701746    1.800193    0.061372
  P     -2.218347    0.358052   -0.292837
  S     -2.885004    0.223510   -2.124609
  O     -3.363888    0.779667    0.713651
  C     -3.162940    1.293358    2.051278
  C     -2.550782    0.263793    2.978008
  O     -1.570468   -0.981372    0.290599
  C     -1.652267   -2.250076   -0.377848
  C     -2.976282   -2.925981   -0.084325
  H      3.476636   -3.081114   -2.157611
  H      2.322493   -4.235296   -1.470157
  H      1.764714   -2.657800   -2.051487
  H      3.625416   -3.145678    0.337629
  H      1.908829   -2.656481    0.437267
  H      1.452303   -0.761775    3.147367
  H      2.987868   -0.080308    2.536151
  H      0.396836    1.506874    2.910867
  H      1.788546    1.543570    4.009476
  H      1.938719    2.159080    2.356886
  H     -0.460547    1.635720   -2.322784
  H      1.031909    2.211965   -1.491446
  H     -2.534645    2.186114    1.984669
  H     -4.168920    1.574402    2.367263
  H     -1.562697   -0.019449    2.621805
  H     -2.465192    0.688288    3.973612
  H     -3.176608   -0.623818    3.019110
  H     -1.525585   -2.096667   -1.454237
  H     -0.809060   -2.821389    0.013357
  H     -3.791368   -2.306979   -0.457575
  H     -3.007775   -3.889998   -0.581729
  H     -3.101912   -3.066303    0.985751

 Total Charge           Charge          ....    0
 Multiplicity           Mult            ....    1
 Number of Electrons    NEL             ....  202
 Basis Dimension        Dim             ....  334

ORBITAL ENERGIES
----------------

  NO   OCC          E(Eh)            E(eV)
   0   2.0000     -88.045817     -2395.8485
   1   2.0000     -88.042131     -2395.7482
   2   2.0000     -87.986824     -2394.2432
   3   2.0000     -87.986345     -2394.2302
   4   2.0000     -76.427719     -2079.7040
   5   2.0000     -76.427378     -2079.6947
   6   2.0000     -18.798332      -511.5286
   7   2.0000     -18.796652      -511.4829
   8   2.0000     -18.790844      -511.3249
   9   2.0000     -18.788981      -511.2742
  10   2.0000      -9.964524      -271.1485
  11   2.0000      -9.964420      -271.1456
  12   2.0000      -9.956549      -270.9315
  13   2.0000      -9.956388      -270.9271
  14   2.0000      -9.951254      -270.7874
  15   2.0000      -9.895189      -269.2618
  16   2.0000      -9.894160      -269.2338
  17   2.0000      -9.884619      -268.9742
  18   2.0000      -9.881469      -268.8884
  19   2.0000      -7.690740      -209.2757
  20   2.0000      -7.687233      -209.1803
  21   2.0000      -7.632037      -207.6783
  22   2.0000      -7.631662      -207.6681
  23   2.0000      -6.425365      -174.8431
  24   2.0000      -6.425176      -174.8379
  25   2.0000      -5.718585      -155.6106
  26   2.0000      -5.715419      -155.5245
  27   2.0000      -5.715060      -155.5147
  28   2.0000      -5.711886      -155.4283
  29   2.0000      -5.707543      -155.3101
  30   2.0000      -5.704063      -155.2154
  31   2.0000      -5.661076      -154.0457
  32   2.0000      -5.660670      -154.0347
  33   2.0000      -5.652788      -153.8202
  34   2.0000      -5.652406      -153.8098
  35   2.0000      -5.651895      -153.7959
  36   2.0000      -5.651545      -153.7864
  37   2.0000      -4.648468      -126.4912
  38   2.0000      -4.647962      -126.4775
  39   2.0000      -4.646730      -126.4440
  40   2.0000      -4.646718      -126.4436
  41   2.0000      -4.645706      -126.4161
  42   2.0000      -4.645701      -126.4160
  43   2.0000      -0.988124       -26.8882
  44   2.0000      -0.985969       -26.8296
  45   2.0000      -0.946863       -25.7655
  46   2.0000      -0.945353       -25.7244
  47   2.0000      -0.768354       -20.9080
  48   2.0000      -0.725530       -19.7427
  49   2.0000      -0.714990       -19.4559
  50   2.0000      -0.696965       -18.9654
  51   2.0000      -0.692295       -18.8383
  52   2.0000      -0.676029       -18.3957
  53   2.0000      -0.653501       -17.7827
  54   2.0000      -0.640665       -17.4334
  55   2.0000      -0.599186       -16.3047
  56   2.0000      -0.591019       -16.0825
  57   2.0000      -0.583279       -15.8718
  58   2.0000      -0.577469       -15.7137
  59   2.0000      -0.562085       -15.2951
  60   2.0000      -0.512992       -13.9592
  61   2.0000      -0.498623       -13.5682
  62   2.0000      -0.481296       -13.0967
  63   2.0000      -0.478337       -13.0162
  64   2.0000      -0.460886       -12.5413
  65   2.0000      -0.452702       -12.3186
  66   2.0000      -0.447267       -12.1707
  67   2.0000      -0.436586       -11.8801
  68   2.0000      -0.432963       -11.7815
  69   2.0000      -0.416530       -11.3344
  70   2.0000      -0.412614       -11.2278
  71   2.0000      -0.396204       -10.7813
  72   2.0000      -0.393944       -10.7198
  73   2.0000      -0.388653       -10.5758
  74   2.0000      -0.383175       -10.4267
  75   2.0000      -0.375260       -10.2113
  76   2.0000      -0.371352       -10.1050
  77   2.0000      -0.363542        -9.8925
  78   2.0000      -0.359763        -9.7896
  79   2.0000      -0.358867        -9.7653
  80   2.0000      -0.356538        -9.7019
  81   2.0000      -0.349670        -9.5150
  82   2.0000      -0.348448        -9.4818
  83   2.0000      -0.343661        -9.3515
  84   2.0000      -0.336222        -9.1491
  85   2.0000      -0.320419        -8.7190
  86   2.0000      -0.313497        -8.5307
  87   2.0000      -0.307949        -8.3797
  88   2.0000      -0.306410        -8.3378
  89   2.0000      -0.285134        -7.7589
  90   2.0000      -0.283817        -7.7231
  91   2.0000      -0.279792        -7.6135
  92   2.0000      -0.276880        -7.5343
  93   2.0000      -0.274010        -7.4562
  94   2.0000      -0.258485        -7.0337
  95   2.0000      -0.230703        -6.2777
  96   2.0000      -0.219046        -5.9605
  97   2.0000      -0.213102        -5.7988
  98   2.0000      -0.203291        -5.5318
  99   2.0000      -0.201120        -5.4728
 100   2.0000      -0.198956        -5.4139
 101   0.0000      -0.047995        -1.3060
 102   0.0000      -0.024083        -0.6553
 103   0.0000      -0.005866        -0.1596
 104   0.0000      -0.001811        -0.0493
 105   0.0000       0.003654         0.0994

MULLIKEN ATOMIC CHARGES
-----------------------
   0 C :   -0.304317
   1 C :   -0.038709
   2 O :   -0.366651
   3 P :    0.619812
   4 S :   -0.313947
   5 O :   -0.378490
   6 C :   -0.012102
   7 C :   -0.299942
   8 S :   -0.099034
   9 C :   -0.342063
  10 S :   -0.101829
  11 P :    0.620274
  12 S :   -0.315386
  13 O :   -0.366438
  14 C :   -0.031212
  15 C :   -0.328663
  16 O :   -0.374370
  17 C :   -0.020155
  18 C :   -0.293765
  19 H :    0.127879
  20 H :    0.112568
  21 H :    0.137777
  22 H :    0.112486
  23 H :    0.117211
  24 H :    0.102000
  25 H :    0.106046
  26 H :    0.119783
  27 H :    0.105221
  28 H :    0.128778
  29 H :    0.196325
  30 H :    0.191010
  31 H :    0.125802
  32 H :    0.117042
  33 H :    0.152974
  34 H :    0.114020
  35 H :    0.121007
  36 H :    0.115057
  37 H :    0.100265
  38 H :    0.125466
  39 H :    0.108708
  40 H :    0.109562
Sum of atomic charges:    0.0000000

LOEWDIN ATOMIC CHARGES
----------------------
   0 C :   -0.361641
   1 C :   -0.118464
   2 O :   -0.244034
   3 P :    0.569565
   4 S :   -0.309608
   5 O :   -0.254245
   6 C :   -0.115945
   7 C :   -0.365813
   8 S :    0.099818
   9 C :   -0.478564
  10 S :    0.086735
  11 P :    0.573906
  12 S :   -0.309961
  13 O :   -0.241556
  14 C :   -0.114215
  15 C :   -0.369473
  16 O :   -0.244750
  17 C :   -0.127132
  18 C :   -0.362123
  19 H :    0.133057
  20 H :    0.131486
  21 H :    0.119306
  22 H :    0.122517
  23 H :    0.109168
  24 H :    0.114878
  25 H :    0.109829
  26 H :    0.118429
  27 H :    0.127331
  28 H :    0.124817
  29 H :    0.133134
  30 H :    0.131562
  31 H :    0.108792
  32 H :    0.125335
  33 H :    0.126678
  34 H :    0.130937
  35 H :    0.128166
  36 H :    0.104982
  37 H :    0.110600
  38 H :    0.125832
  39 H :    0.129265
  40 H :    0.121400

  Mayer bond orders larger than 0.100000
B(  0-C ,  1-C ) :   1.1702 B(  0-C , 19-H ) :   0.9452 B(  0-C , 20-H ) :   0.9380
B(  0-C , 21-H ) :   0.9325 B(  1-C ,  2-O ) :   0.9035 B(  1-C , 22-H ) :   0.9326
B(  1-C , 23-H ) :   0.9113 B(  2-O ,  3-P ) :   1.1190 B(  3-P ,  4-S ) :   1.6390
B(  3-P ,  5-O ) :   1.0773 B(  3-P ,  8-S ) :   0.9598 B(  4-S ,  8-S ) :   0.1020
B(  5-O ,  6-C ) :   0.8970 B(  6-C ,  7-C ) :   1.1763 B(  6-C , 24-H ) :   0.9317
B(  6-C , 25-H ) :   0.9158 B(  7-C , 26-H ) :   0.9394 B(  7-C , 27-H ) :   0.9379
B(  7-C , 28-H ) :   0.9298 B(  8-S ,  9-C ) :   1.0038 B(  9-C , 10-S ) :   1.0158
B(  9-C , 29-H ) :   0.8814 B(  9-C , 30-H ) :   0.8771 B( 10-S , 11-P ) :   0.9550
B( 11-P , 12-S ) :   1.6212 B( 11-P , 13-O ) :   1.1345 B( 11-P , 16-O ) :   1.0736
B( 13-O , 14-C ) :   0.9080 B( 14-C , 15-C ) :   1.1680 B( 14-C , 31-H ) :   0.9171
B( 14-C , 32-H ) :   0.9341 B( 15-C , 33-H ) :   0.9204 B( 15-C , 34-H ) :   0.9358
B( 15-C , 35-H ) :   0.9417 B( 16-O , 17-C ) :   0.9041 B( 17-C , 18-C ) :   1.1636
B( 17-C , 36-H ) :   0.9040 B( 17-C , 37-H ) :   0.9277 B( 18-C , 38-H ) :   0.9377
B( 18-C , 39-H ) :   0.9407 B( 18-C , 40-H ) :   0.9467

Dispersion correction           -0.067939540
FINAL SINGLE POINT ENERGY     -2929.515345519236

DIPOLE MOMENT
-------------

Method             : SCF
Type of density    : Electron Density
Multiplicity       :   1
Irrep              :   0
Energy             : -2929.6339470764919497 Eh
Relativity type    :
Basis              : AO
                                X                 Y                 Z
Electronic contribution:      3.624818753      15.794706391     -16.348067466
Nuclear contribution   :     -3.784594813     -17.286689636      18.042335223
                        -----------------------------------------
Total Dipole Moment    :     -0.159776060      -1.491983245       1.694267757
                        -----------------------------------------
Magnitude (a.u.)       :      2.263202516
Magnitude (Debye)      :      5.752603628

Rotational constants in cm-1:             0.010690             0.006114             0.005439
Rotational constants in MHz :           320.479689           183.294485           163.049205

                             ****ORCA TERMINATED NORMALLY****
TOTAL RUN TIME: 0 days 0 hours 0 minutes 22 seconds 379 msec
