                         Program Version 6.0.0  -   RELEASE  -
|  1> ! pbe def2-sv(p) def2/J RI DEFGRID1 loosescf d4 GCP(DFT/SV(P)) printgap
|  2> %output
|  3>     printlevel normal
|  4> end
|  5> * xyz 0 1
|  6> C 5.6272510324 -0.3678981644 -0.9129533709
|  7> C 4.4721704396 -1.2468821229 -1.343787197
|  8> O 3.374535084 -1.1900649751 -0.4095237097
|  9> P 2.4838303428 0.1082321373 -0.2227465575
| 10> S 2.1282920369 1.107474605 -1.8791728436
| 11> O 3.2640415308 0.9077682186 0.9057090565
| 12> C 3.0227167112 2.2988994755 1.1769374086
| 13> C 1.6691668058 2.5218003533 1.818553398
| 14> S 0.8667074826 -0.7950144526 0.7689088078
| 15> C 0.0008566818 -1.3211119985 -0.7569413498
| 16> S -1.6782301071 -1.8523668502 -0.4107119369
| 17> P -2.5670300985 0.051035745 0.0266055916
| 18> S -1.4865555826 1.6264121683 -0.3926823548
| 19> O -3.0966728953 -0.1297153206 1.5179114994
| 20> C -2.2635993285 -0.3851074053 2.6629285971
| 21> C -1.7262895915 0.9029472634 3.2531591233
| 22> O -3.9222987162 0.1002633234 -0.7654442682
| 23> C -4.957351068 -0.9158724733 -0.686810003
| 24> C -4.9493687162 -1.7726639883 -1.9369705025
| 25> H 5.9181095715 -0.6037638152 0.1072508503
| 26> H 6.4701017767 -0.529701693 -1.5776320707
| 27> H 5.3337230936 0.6797833348 -0.9625633478
| 28> H 4.7480894955 -2.3020917339 -1.3563053013
| 29> H 4.102607612 -0.9432331911 -2.3286600346
| 30> H 3.8377923929 2.5806928241 1.8449396325
| 31> H 3.0980089072 2.8558915356 0.2372497147
| 32> H 1.555649607 1.8794044703 2.6883423012
| 33> H 1.5774558297 3.560047711 2.1207899063
| 34> H 0.8761588375 2.2984877181 1.1037210502
| 35> H 0.515051707 -2.1780918533 -1.1862082709
| 36> H -0.0142726591 -0.4740987002 -1.4474638813
| 37> H -2.9250190447 -0.8979112969 3.363916916
| 38> H -1.4441954823 -1.0514582605 2.3738115975
| 39> H -1.0950697789 1.411553842 2.5286136161
| 40> H -2.5457112877 1.5632376746 3.5231419749
| 41> H -1.1395581594 0.6739123065 4.1365545827
| 42> H -4.8033845804 -1.5162121275 0.2109700592
| 43> H -5.8867740832 -0.3510670308 -0.5986736765
| 44> H -5.0326453738 -1.1432724918 -2.8187247871
| 45> H -4.0291931687 -2.3482233039 -1.9995919925
| 46> H -5.7932235471 -2.4543750859 -1.9031468592
| 47> *
| 48>
| 49>                          ****END OF INPUT****

CARTESIAN COORDINATES (ANGSTROEM)
---------------------------------
  C      5.627251   -0.367898   -0.912953
  C      4.472170   -1.246882   -1.343787
  O      3.374535   -1.190065   -0.409524
  P      2.483830    0.108232   -0.222747
  S      2.128292    1.107475   -1.879173
  O      3.264042    0.907768    0.905709
  C      3.022717    2.298899    1.176937
  C      1.669167    2.521800    1.818553
  S      0.866707   -0.795014    0.768909
  C      0.000857   -1.321112   -0.756941
  S     -1.678230   -1.852367   -0.410712
  P     -2.567030    0.051036    0.026606
  S     -1.486556    1.626412   -0.392682
  O     -3.096673   -0.129715    1.517911
  C     -2.263599   -0.385107    2.662929
  C     -1.726290    0.902947    3.253159
  O     -3.922299    0.100263   -0.765444
  C     -4.957351   -0.915872   -0.686810
  C     -4.949369   -1.772664   -1.936971
  H      5.918110   -0.603764    0.107251
  H      6.470102   -0.529702   -1.577632
  H      5.333723    0.679783   -0.962563
  H      4.748089   -2.302092   -1.356305
  H      4.102608   -0.943233   -2.328660
  H      3.837792    2.580693    1.844940
  H      3.098009    2.855892    0.237250
  H      1.555650    1.879404    2.688342
  H      1.577456    3.560048    2.120790
  H      0.876159    2.298488    1.103721
  H      0.515052   -2.178092   -1.186208
  H     -0.014273   -0.474099   -1.447464
  H     -2.925019   -0.897911    3.363917
  H     -1.444195   -1.051458    2.373812
  H     -1.095070    1.411554    2.528614
  H     -2.545711    1.563238    3.523142
  H     -1.139558    0.673912    4.136555
  H     -4.803385   -1.516212    0.210970
  H     -5.886774   -0.351067   -0.598674
  H     -5.032645   -1.143272   -2.818725
  H     -4.029193   -2.348223   -1.999592
  H     -5.793224   -2.454375   -1.903147

 Total Charge           Charge          ....    0
 Multiplicity           Mult            ....    1
 Number of Electrons    NEL             ....  202
 Basis Dimension        Dim             ....  334

ORBITAL ENERGIES
----------------

  NO   OCC          E(Eh)            E(eV)
   0   2.0000     -88.048330     -2395.9169
   1   2.0000     -88.039221     -2395.6690
   2   2.0000     -87.985424     -2394.2051
   3   2.0000     -87.982739     -2394.1320
   4   2.0000     -76.425977     -2079.6566
   5   2.0000     -76.424065     -2079.6045
   6   2.0000     -18.793041      -511.3846
   7   2.0000     -18.792475      -511.3693
   8   2.0000     -18.791747      -511.3494
   9   2.0000     -18.787001      -511.2203
  10   2.0000      -9.959174      -271.0029
  11   2.0000      -9.953591      -270.8510
  12   2.0000      -9.953209      -270.8406
  13   2.0000      -9.950224      -270.7594
  14   2.0000      -9.949506      -270.7398
  15   2.0000      -9.888299      -269.0743
  16   2.0000      -9.883101      -268.9329
  17   2.0000      -9.879307      -268.8296
  18   2.0000      -9.878355      -268.8037
  19   2.0000      -7.693086      -209.3395
  20   2.0000      -7.684338      -209.1015
  21   2.0000      -7.630246      -207.6296
  22   2.0000      -7.627565      -207.5566
  23   2.0000      -6.423346      -174.7881
  24   2.0000      -6.421710      -174.7436
  25   2.0000      -5.720927      -155.6743
  26   2.0000      -5.717476      -155.5804
  27   2.0000      -5.712224      -155.4375
  28   2.0000      -5.710280      -155.3846
  29   2.0000      -5.709234      -155.3562
  30   2.0000      -5.700914      -155.1298
  31   2.0000      -5.659055      -153.9907
  32   2.0000      -5.656761      -153.9283
  33   2.0000      -5.650912      -153.7691
  34   2.0000      -5.650517      -153.7584
  35   2.0000      -5.647884      -153.6867
  36   2.0000      -5.647734      -153.6827
  37   2.0000      -4.646040      -126.4252
  38   2.0000      -4.645275      -126.4044
  39   2.0000      -4.644220      -126.3756
  40   2.0000      -4.643559      -126.3577
  41   2.0000      -4.643383      -126.3529
  42   2.0000      -4.642278      -126.3228
  43   2.0000      -0.988577       -26.9005
  44   2.0000      -0.985266       -26.8104
  45   2.0000      -0.944889       -25.7117
  46   2.0000      -0.944021       -25.6881
  47   2.0000      -0.763391       -20.7729
  48   2.0000      -0.722217       -19.6525
  49   2.0000      -0.710803       -19.3419
  50   2.0000      -0.689487       -18.7619
  51   2.0000      -0.685144       -18.6437
  52   2.0000      -0.674205       -18.3461
  53   2.0000      -0.649864       -17.6837
  54   2.0000      -0.635268       -17.2865
  55   2.0000      -0.599127       -16.3031
  56   2.0000      -0.584746       -15.9117
  57   2.0000      -0.577195       -15.7063
  58   2.0000      -0.570758       -15.5311
  59   2.0000      -0.562253       -15.2997
  60   2.0000      -0.505121       -13.7450
  61   2.0000      -0.492020       -13.3886
  62   2.0000      -0.477138       -12.9836
  63   2.0000      -0.471710       -12.8359
  64   2.0000      -0.451218       -12.2783
  65   2.0000      -0.447152       -12.1676
  66   2.0000      -0.441881       -12.0242
  67   2.0000      -0.436986       -11.8910
  68   2.0000      -0.430605       -11.7174
  69   2.0000      -0.416315       -11.3285
  70   2.0000      -0.405876       -11.0445
  71   2.0000      -0.398731       -10.8500
  72   2.0000      -0.392226       -10.6730
  73   2.0000      -0.389895       -10.6096
  74   2.0000      -0.382130       -10.3983
  75   2.0000      -0.380241       -10.3469
  76   2.0000      -0.360766        -9.8170
  77   2.0000      -0.355438        -9.6720
  78   2.0000      -0.353097        -9.6083
  79   2.0000      -0.350294        -9.5320
  80   2.0000      -0.347241        -9.4489
  81   2.0000      -0.345035        -9.3889
  82   2.0000      -0.341521        -9.2933
  83   2.0000      -0.333239        -9.0679
  84   2.0000      -0.331984        -9.0337
  85   2.0000      -0.315788        -8.5930
  86   2.0000      -0.311570        -8.4783
  87   2.0000      -0.298914        -8.1339
  88   2.0000      -0.293468        -7.9857
  89   2.0000      -0.292286        -7.9535
  90   2.0000      -0.280838        -7.6420
  91   2.0000      -0.277743        -7.5578
  92   2.0000      -0.272249        -7.4083
  93   2.0000      -0.264873        -7.2076
  94   2.0000      -0.260150        -7.0790
  95   2.0000      -0.235563        -6.4100
  96   2.0000      -0.221587        -6.0297
  97   2.0000      -0.207877        -5.6566
  98   2.0000      -0.202804        -5.5186
  99   2.0000      -0.194600        -5.2953
 100   2.0000      -0.192257        -5.2316
 101   0.0000      -0.048740        -1.3263
 102   0.0000      -0.033219        -0.9039
 103   0.0000      -0.010459        -0.2846
 104   0.0000       0.008356         0.2274
 105   0.0000       0.016005         0.4355

MULLIKEN ATOMIC CHARGES
-----------------------
   0 C :   -0.306881
   1 C :   -0.003978
   2 O :   -0.371007
   3 P :    0.616182
   4 S :   -0.322758
   5 O :   -0.371112
   6 C :    0.007255
   7 C :   -0.364116
   8 S :   -0.101373
   9 C :   -0.336507
  10 S :   -0.126605
  11 P :    0.595181
  12 S :   -0.280691
  13 O :   -0.376621
  14 C :   -0.015621
  15 C :   -0.312538
  16 O :   -0.352845
  17 C :   -0.019091
  18 C :   -0.290833
  19 H :    0.117595
  20 H :    0.111455
  21 H :    0.122315
  22 H :    0.103660
  23 H :    0.108885
  24 H :    0.102999
  25 H :    0.111097
  26 H :    0.115063
  27 H :    0.113045
  28 H :    0.173506
  29 H :    0.180574
  30 H :    0.209718
  31 H :    0.102949
  32 H :    0.111280
  33 H :    0.150227
  34 H :    0.113263
  35 H :    0.106412
  36 H :    0.106356
  37 H :    0.114201
  38 H :    0.124417
  39 H :    0.124413
  40 H :    0.110527
Sum of atomic charges:   -0.0000000

LOEWDIN ATOMIC CHARGES
----------------------
   0 C :   -0.364208
   1 C :   -0.118973
   2 O :   -0.247001
   3 P :    0.573366
   4 S :   -0.309828
   5 O :   -0.241363
   6 C :   -0.118164
   7 C :   -0.375450
   8 S :    0.078378
   9 C :   -0.477813
  10 S :    0.070328
  11 P :    0.560135
  12 S :   -0.275800
  13 O :   -0.246965
  14 C :   -0.117787
  15 C :   -0.365208
  16 O :   -0.233753
  17 C :   -0.112371
  18 C :   -0.360342
  19 H :    0.126797
  20 H :    0.129956
  21 H :    0.123032
  22 H :    0.118047
  23 H :    0.109427
  24 H :    0.117615
  25 H :    0.111190
  26 H :    0.122079
  27 H :    0.131785
  28 H :    0.123889
  29 H :    0.133776
  30 H :    0.123983
  31 H :    0.117113
  32 H :    0.096908
  33 H :    0.127975
  34 H :    0.126524
  35 H :    0.128035
  36 H :    0.109137
  37 H :    0.123706
  38 H :    0.131387
  39 H :    0.120415
  40 H :    0.130044

  Mayer bond orders larger than 0.100000
B(  0-C ,  1-C ) :   1.1648 B(  0-C , 19-H ) :   0.9463 B(  0-C , 20-H ) :   0.9389
B(  0-C , 21-H ) :   0.9382 B(  1-C ,  2-O ) :   0.9116 B(  1-C , 22-H ) :   0.9350
B(  1-C , 23-H ) :   0.9149 B(  2-O ,  3-P ) :   1.1166 B(  3-P ,  4-S ) :   1.6030
B(  3-P ,  5-O ) :   1.1134 B(  3-P ,  8-S ) :   0.9675 B(  4-S ,  8-S ) :   0.1148
B(  5-O ,  6-C ) :   0.9043 B(  6-C ,  7-C ) :   1.1630 B(  6-C , 24-H ) :   0.9325
B(  6-C , 25-H ) :   0.9147 B(  7-C , 26-H ) :   0.9424 B(  7-C , 27-H ) :   0.9368
B(  7-C , 28-H ) :   0.9154 B(  8-S ,  9-C ) :   0.9760 B(  9-C , 10-S ) :   1.0251
B(  9-C , 29-H ) :   0.9037 B(  9-C , 30-H ) :   0.8560 B( 10-S , 11-P ) :   0.9123
B( 10-S , 12-S ) :   0.1167 B( 11-P , 12-S ) :   1.6779 B( 11-P , 13-O ) :   1.0851
B( 11-P , 16-O ) :   1.1482 B( 13-O , 14-C ) :   0.9113 B( 14-C , 15-C ) :   1.1666
B( 14-C , 31-H ) :   0.9351 B( 14-C , 32-H ) :   0.9055 B( 15-C , 33-H ) :   0.9266
B( 15-C , 34-H ) :   0.9445 B( 15-C , 35-H ) :   0.9384 B( 16-O , 17-C ) :   0.8911
B( 17-C , 18-C ) :   1.1642 B( 17-C , 36-H ) :   0.9196 B( 17-C , 37-H ) :   0.9350
B( 18-C , 38-H ) :   0.9462 B( 18-C , 39-H ) :   0.9383 B( 18-C , 40-H ) :   0.9394

Dispersion correction           -0.064805273
FINAL SINGLE POINT ENERGY     -2929.517416953635

DIPOLE MOMENT
-------------

Method             : SCF
Type of density    : Electron Density
Multiplicity       :   1
Irrep              :   0
Energy             : -2929.6369925719591265 Eh
Relativity type    :
Basis              : AO
                                X                 Y                 Z
Electronic contribution:     -3.231197150      -1.504020014      -6.962916150
Nuclear contribution   :      3.191823685       0.516215207       7.811117127
                        -----------------------------------------
Total Dipole Moment    :     -0.039373465      -0.987804807       0.848200978
                        -----------------------------------------
Magnitude (a.u.)       :      1.302594912
Magnitude (Debye)      :      3.310933141

Rotational constants in cm-1:             0.013730             0.004538             0.004103
Rotational constants in MHz :           411.609253           136.037088           123.014824

                             ****ORCA TERMINATED NORMALLY****
TOTAL RUN TIME: 0 days 0 hours 0 minutes 20 seconds 937 msec
