                         Program Version 6.0.0  -   RELEASE  -
|  1> ! pbe def2-sv(p) def2/J RI DEFGRID1 loosescf d4 GCP(DFT/SV(P)) printgap
|  2> %output
|  3>     printlevel normal
|  4> end
|  5> * xyz 0 1
|  6> C 3.4897337384 2.1964398424 -0.836166274
|  7> C 2.1559018999 1.490145514 -0.9466167797
|  8> O 1.6959841175 1.0658048849 0.3621113342
|  9> P 1.8952524147 -0.3986071045 0.908707558
| 10> S 1.4683016587 -0.5736126008 2.8066923392
| 11> O 3.4009420347 -0.7130101537 0.5156842035
| 12> C 4.0244728084 -1.9548890829 0.9044849233
| 13> C 5.5226386121 -1.7910091489 0.7491642714
| 14> S 0.8208991032 -1.6964653639 -0.4033824438
| 15> C -0.7441491945 -1.7003111564 0.5188362935
| 16> S -1.3822044609 -0.0496476651 0.901416434
| 17> P -2.1494802033 0.4394602007 -1.0349805909
| 18> S -0.9011317182 0.5128940672 -2.5355604244
| 19> O -2.9379087636 1.7922859208 -0.7527829883
| 20> C -2.30460356 3.0802284086 -0.842492776
| 21> C -1.4245453592 3.3647331823 0.3583788632
| 22> O -3.3101994324 -0.5945162468 -1.3016208461
| 23> C -4.5421382886 -0.6702131256 -0.5349521466
| 24> C -4.5074772738 -1.8323903435 0.4377765344
| 25> H 4.250004058 1.5095622286 -0.4742737021
| 26> H 3.7743257985 2.5652909239 -1.8165075179
| 27> H 3.4111348933 3.0309663952 -0.1448891912
| 28> H 2.2119982449 0.6201655543 -1.6065453932
| 29> H 1.375927266 2.1597755507 -1.3149599717
| 30> H 3.748512031 -2.1717805407 1.9416370597
| 31> H 3.6384500579 -2.7469656361 0.2570929865
| 32> H 5.7658510291 -1.5492175291 -0.2815081174
| 33> H 5.8798250084 -0.993031967 1.3940836004
| 34> H 6.0116186186 -2.7194324617 1.0249037321
| 35> H -0.5850649676 -2.1858712596 1.4808089422
| 36> H -1.4578750541 -2.2479773872 -0.0934467479
| 37> H -1.7252579474 3.1168689618 -1.7710683899
| 38> H -3.1395323436 3.7801964381 -0.8991930232
| 39> H -1.0507669399 4.3817430475 0.2959751927
| 40> H -1.9905184001 3.2454083511 1.2788716397
| 41> H -0.5776782435 2.6798870339 0.3855008589
| 42> H -4.6997350142 0.2780933178 -0.0197175128
| 43> H -5.3161919038 -0.8122384339 -1.2908430839
| 44> H -3.7713946845 -1.66201827 1.2197089899
| 45> H -5.4865464951 -1.9334446005 0.8956883461
| 46> H -4.2662662663 -2.7534342269 -0.086409451
| 47> *
| 48>
| 49>                          ****END OF INPUT****

CARTESIAN COORDINATES (ANGSTROEM)
---------------------------------
  C      3.489734    2.196440   -0.836166
  C      2.155902    1.490146   -0.946617
  O      1.695984    1.065805    0.362111
  P      1.895252   -0.398607    0.908708
  S      1.468302   -0.573613    2.806692
  O      3.400942   -0.713010    0.515684
  C      4.024473   -1.954889    0.904485
  C      5.522639   -1.791009    0.749164
  S      0.820899   -1.696465   -0.403382
  C     -0.744149   -1.700311    0.518836
  S     -1.382204   -0.049648    0.901416
  P     -2.149480    0.439460   -1.034981
  S     -0.901132    0.512894   -2.535560
  O     -2.937909    1.792286   -0.752783
  C     -2.304604    3.080228   -0.842493
  C     -1.424545    3.364733    0.358379
  O     -3.310199   -0.594516   -1.301621
  C     -4.542138   -0.670213   -0.534952
  C     -4.507477   -1.832390    0.437777
  H      4.250004    1.509562   -0.474274
  H      3.774326    2.565291   -1.816508
  H      3.411135    3.030966   -0.144889
  H      2.211998    0.620166   -1.606545
  H      1.375927    2.159776   -1.314960
  H      3.748512   -2.171781    1.941637
  H      3.638450   -2.746966    0.257093
  H      5.765851   -1.549218   -0.281508
  H      5.879825   -0.993032    1.394084
  H      6.011619   -2.719432    1.024904
  H     -0.585065   -2.185871    1.480809
  H     -1.457875   -2.247977   -0.093447
  H     -1.725258    3.116869   -1.771068
  H     -3.139532    3.780196   -0.899193
  H     -1.050767    4.381743    0.295975
  H     -1.990518    3.245408    1.278872
  H     -0.577678    2.679887    0.385501
  H     -4.699735    0.278093   -0.019718
  H     -5.316192   -0.812238   -1.290843
  H     -3.771395   -1.662018    1.219709
  H     -5.486546   -1.933445    0.895688
  H     -4.266266   -2.753434   -0.086409

 Total Charge           Charge          ....    0
 Multiplicity           Mult            ....    1
 Number of Electrons    NEL             ....  202
 Basis Dimension        Dim             ....  334

ORBITAL ENERGIES
----------------

  NO   OCC          E(Eh)            E(eV)
   0   2.0000     -88.041579     -2395.7332
   1   2.0000     -88.035127     -2395.5576
   2   2.0000     -87.982619     -2394.1288
   3   2.0000     -87.982120     -2394.1152
   4   2.0000     -76.424926     -2079.6280
   5   2.0000     -76.423521     -2079.5897
   6   2.0000     -18.794806      -511.4327
   7   2.0000     -18.794144      -511.4147
   8   2.0000     -18.792977      -511.3829
   9   2.0000     -18.788813      -511.2696
  10   2.0000      -9.958901      -270.9955
  11   2.0000      -9.956508      -270.9304
  12   2.0000      -9.953455      -270.8473
  13   2.0000      -9.953379      -270.8452
  14   2.0000      -9.946815      -270.6666
  15   2.0000      -9.890814      -269.1427
  16   2.0000      -9.889498      -269.1069
  17   2.0000      -9.883545      -268.9449
  18   2.0000      -9.880742      -268.8687
  19   2.0000      -7.685661      -209.1375
  20   2.0000      -7.680241      -208.9900
  21   2.0000      -7.627780      -207.5625
  22   2.0000      -7.627456      -207.5536
  23   2.0000      -6.422529      -174.7659
  24   2.0000      -6.420901      -174.7216
  25   2.0000      -5.713412      -155.4698
  26   2.0000      -5.710334      -155.3861
  27   2.0000      -5.708070      -155.3245
  28   2.0000      -5.704850      -155.2369
  29   2.0000      -5.702732      -155.1792
  30   2.0000      -5.697170      -155.0279
  31   2.0000      -5.656756      -153.9281
  32   2.0000      -5.656459      -153.9201
  33   2.0000      -5.648499      -153.7035
  34   2.0000      -5.648018      -153.6904
  35   2.0000      -5.647737      -153.6827
  36   2.0000      -5.647558      -153.6779
  37   2.0000      -4.645705      -126.4160
  38   2.0000      -4.644202      -126.3752
  39   2.0000      -4.643859      -126.3658
  40   2.0000      -4.642674      -126.3336
  41   2.0000      -4.642512      -126.3292
  42   2.0000      -4.641026      -126.2888
  43   2.0000      -0.989186       -26.9171
  44   2.0000      -0.987687       -26.8763
  45   2.0000      -0.946508       -25.7558
  46   2.0000      -0.943608       -25.6769
  47   2.0000      -0.760929       -20.7059
  48   2.0000      -0.720229       -19.5984
  49   2.0000      -0.711313       -19.3558
  50   2.0000      -0.691080       -18.8052
  51   2.0000      -0.690185       -18.7809
  52   2.0000      -0.671762       -18.2796
  53   2.0000      -0.647490       -17.6191
  54   2.0000      -0.637056       -17.3352
  55   2.0000      -0.592735       -16.1291
  56   2.0000      -0.585708       -15.9379
  57   2.0000      -0.580609       -15.7992
  58   2.0000      -0.566350       -15.4112
  59   2.0000      -0.563245       -15.3267
  60   2.0000      -0.507943       -13.8218
  61   2.0000      -0.502705       -13.6793
  62   2.0000      -0.478299       -13.0152
  63   2.0000      -0.475875       -12.9492
  64   2.0000      -0.459132       -12.4936
  65   2.0000      -0.446764       -12.1571
  66   2.0000      -0.442913       -12.0523
  67   2.0000      -0.435852       -11.8601
  68   2.0000      -0.429036       -11.6747
  69   2.0000      -0.415511       -11.3066
  70   2.0000      -0.408201       -11.1077
  71   2.0000      -0.394731       -10.7412
  72   2.0000      -0.387042       -10.5320
  73   2.0000      -0.381016       -10.3680
  74   2.0000      -0.375904       -10.2289
  75   2.0000      -0.373711       -10.1692
  76   2.0000      -0.366380        -9.9697
  77   2.0000      -0.361283        -9.8310
  78   2.0000      -0.358170        -9.7463
  79   2.0000      -0.352517        -9.5925
  80   2.0000      -0.351721        -9.5708
  81   2.0000      -0.347728        -9.4622
  82   2.0000      -0.343159        -9.3378
  83   2.0000      -0.338194        -9.2027
  84   2.0000      -0.330930        -9.0051
  85   2.0000      -0.319993        -8.7075
  86   2.0000      -0.314808        -8.5664
  87   2.0000      -0.304199        -8.2777
  88   2.0000      -0.300078        -8.1655
  89   2.0000      -0.292755        -7.9663
  90   2.0000      -0.289587        -7.8801
  91   2.0000      -0.271925        -7.3994
  92   2.0000      -0.270782        -7.3684
  93   2.0000      -0.262200        -7.1348
  94   2.0000      -0.256145        -6.9700
  95   2.0000      -0.238627        -6.4934
  96   2.0000      -0.216633        -5.8949
  97   2.0000      -0.207010        -5.6330
  98   2.0000      -0.201664        -5.4876
  99   2.0000      -0.196262        -5.3406
 100   2.0000      -0.185467        -5.0468
 101   0.0000      -0.042197        -1.1482
 102   0.0000      -0.026404        -0.7185
 103   0.0000      -0.001956        -0.0532
 104   0.0000       0.003825         0.1041
 105   0.0000       0.016650         0.4531

MULLIKEN ATOMIC CHARGES
-----------------------
   0 C :   -0.284803
   1 C :   -0.017942
   2 O :   -0.351538
   3 P :    0.600761
   4 S :   -0.320134
   5 O :   -0.384123
   6 C :   -0.010169
   7 C :   -0.283757
   8 S :   -0.085511
   9 C :   -0.351989
  10 S :   -0.085664
  11 P :    0.600430
  12 S :   -0.308371
  13 O :   -0.383858
  14 C :   -0.005561
  15 C :   -0.345943
  16 O :   -0.367303
  17 C :   -0.010512
  18 C :   -0.306999
  19 H :    0.119439
  20 H :    0.109123
  21 H :    0.114511
  22 H :    0.110431
  23 H :    0.112326
  24 H :    0.105680
  25 H :    0.104389
  26 H :    0.116866
  27 H :    0.122575
  28 H :    0.113512
  29 H :    0.192093
  30 H :    0.184414
  31 H :    0.110315
  32 H :    0.104650
  33 H :    0.112986
  34 H :    0.118512
  35 H :    0.162377
  36 H :    0.114101
  37 H :    0.112276
  38 H :    0.127419
  39 H :    0.113893
  40 H :    0.121099
Sum of atomic charges:    0.0000000

LOEWDIN ATOMIC CHARGES
----------------------
   0 C :   -0.359726
   1 C :   -0.116549
   2 O :   -0.231051
   3 P :    0.567277
   4 S :   -0.319759
   5 O :   -0.248507
   6 C :   -0.120672
   7 C :   -0.350885
   8 S :    0.066444
   9 C :   -0.478451
  10 S :    0.091392
  11 P :    0.562141
  12 S :   -0.303772
  13 O :   -0.248220
  14 C :   -0.119313
  15 C :   -0.373003
  16 O :   -0.244243
  17 C :   -0.110304
  18 C :   -0.363888
  19 H :    0.124191
  20 H :    0.129429
  21 H :    0.126524
  22 H :    0.108054
  23 H :    0.112894
  24 H :    0.109647
  25 H :    0.109115
  26 H :    0.126183
  27 H :    0.129287
  28 H :    0.131657
  29 H :    0.133379
  30 H :    0.131169
  31 H :    0.108400
  32 H :    0.118307
  33 H :    0.131626
  34 H :    0.126623
  35 H :    0.127685
  36 H :    0.114248
  37 H :    0.122719
  38 H :    0.120975
  39 H :    0.132172
  40 H :    0.126806

  Mayer bond orders larger than 0.100000
B(  0-C ,  1-C ) :   1.1575 B(  0-C , 19-H ) :   0.9415 B(  0-C , 20-H ) :   0.9407
B(  0-C , 21-H ) :   0.9465 B(  1-C ,  2-O ) :   0.8815 B(  1-C , 22-H ) :   0.9187
B(  1-C , 23-H ) :   0.9232 B(  2-O ,  3-P ) :   1.1357 B(  3-P ,  4-S ) :   1.6351
B(  3-P ,  5-O ) :   1.0761 B(  3-P ,  8-S ) :   0.9632 B(  4-S ,  8-S ) :   0.1121
B(  5-O ,  6-C ) :   0.9045 B(  6-C ,  7-C ) :   1.1593 B(  6-C , 24-H ) :   0.9100
B(  6-C , 25-H ) :   0.9271 B(  7-C , 26-H ) :   0.9506 B(  7-C , 27-H ) :   0.9506
B(  7-C , 28-H ) :   0.9418 B(  8-S ,  9-C ) :   1.0035 B(  9-C , 10-S ) :   0.9937
B(  9-C , 29-H ) :   0.8920 B(  9-C , 30-H ) :   0.8942 B( 10-S , 11-P ) :   0.9450
B( 10-S , 12-S ) :   0.1129 B( 11-P , 12-S ) :   1.6695 B( 11-P , 13-O ) :   1.0789
B( 11-P , 16-O ) :   1.1173 B( 13-O , 14-C ) :   0.9068 B( 14-C , 15-C ) :   1.1639
B( 14-C , 31-H ) :   0.9116 B( 14-C , 32-H ) :   0.9329 B( 15-C , 33-H ) :   0.9385
B( 15-C , 34-H ) :   0.9439 B( 15-C , 35-H ) :   0.9222 B( 16-O , 17-C ) :   0.8952
B( 17-C , 18-C ) :   1.1683 B( 17-C , 36-H ) :   0.9177 B( 17-C , 37-H ) :   0.9352
B( 18-C , 38-H ) :   0.9327 B( 18-C , 39-H ) :   0.9387 B( 18-C , 40-H ) :   0.9433

Dispersion correction           -0.065596124
FINAL SINGLE POINT ENERGY     -2929.519640732435

DIPOLE MOMENT
-------------

Method             : SCF
Type of density    : Electron Density
Multiplicity       :   1
Irrep              :   0
Energy             : -2929.6387963601641786 Eh
Relativity type    :
Basis              : AO
                                X                 Y                 Z
Electronic contribution:     -6.136594849      -5.268705712      -0.578894520
Nuclear contribution   :      5.839733776       5.285533000       0.424863834
                        -----------------------------------------
Total Dipole Moment    :     -0.296861073       0.016827287      -0.154030687
                        -----------------------------------------
Magnitude (a.u.)       :      0.334865804
Magnitude (Debye)      :      0.851161231

Rotational constants in cm-1:             0.012537             0.005138             0.004575
Rotational constants in MHz :           375.863676           154.030993           137.147892

                             ****ORCA TERMINATED NORMALLY****
TOTAL RUN TIME: 0 days 0 hours 0 minutes 21 seconds 98 msec
