                         Program Version 6.0.0  -   RELEASE  -
|  1> ! r2scan-3c def2/J RI DEFGRID2 scfconv6 printgap
|  2> %output
|  3>     printlevel normal
|  4> end
|  5> * xyz 0 1
|  6> C 0.7856596944 -2.848808268 1.4670747683
|  7> C 1.6748987307 -1.7332367911 1.9788159931
|  8> O 1.3381537587 -0.482508572 1.3350801196
|  9> P 2.1882470942 0.1241225462 0.1494248832
| 10> S 3.0992249914 -1.1352765691 -1.0507891847
| 11> O 3.1714574622 1.0799078999 0.9557823082
| 12> C 4.252521366 1.7831826 0.3103791657
| 13> C 5.2575580626 2.1730205746 1.3754298114
| 14> S 0.8257462221 1.4721550151 -0.7265833635
| 15> C 0.1916599491 0.3647926316 -2.0139870289
| 16> S -0.6339908 -1.1029567255 -1.3419983968
| 17> P -2.1689667966 -0.1008600811 -0.3025789203
| 18> S -2.8805705079 1.5398542491 -1.1137350749
| 19> O -1.5630146266 0.0065923538 1.1525851676
| 20> C -2.05294053 0.9477509562 2.1356571058
| 21> C -1.1263628937 2.1433939165 2.2313006764
| 22> O -3.2578126538 -1.2392394725 -0.0811326731
| 23> C -4.195400527 -1.614003817 -1.1107271397
| 24> C -5.3871098934 -2.2699058941 -0.4427123189
| 25> H -0.259726993 -2.5645654818 1.5619415397
| 26> H 0.9969181969 -3.0482215385 0.4183161006
| 27> H 0.9704117099 -3.7485166154 2.0451318221
| 28> H 2.7292020883 -1.9603417567 1.7977241572
| 29> H 1.514896134 -1.5493278113 3.0422826923
| 30> H 4.698539569 1.1222751902 -0.4405978754
| 31> H 3.835871211 2.6625025443 -0.1876546837
| 32> H 5.6570048851 1.284699838 1.8565695052
| 33> H 6.0688240392 2.72560378 0.9131701382
| 34> H 4.7787895217 2.7952247641 2.1259204045
| 35> H 1.0158104743 -0.0010972801 -2.6253671716
| 36> H -0.5149869899 0.9504085354 -2.600888037
| 37> H -3.0655836748 1.2591667899 1.8644995111
| 38> H -2.0782475152 0.384805263 3.069959472
| 39> H -1.1538220826 2.7164255755 1.3065406459
| 40> H -1.4428050407 2.7776466211 3.0530985921
| 41> H -0.1053933166 1.8100564334 2.402180459
| 42> H -4.4891028312 -0.7128305461 -1.6597128836
| 43> H -3.6906040208 -2.3021852714 -1.7935181779
| 44> H -6.0935489818 -2.5829657756 -1.2043733165
| 45> H -5.0623529524 -3.1361520821 0.1262565743
| 46> H -5.8726169844 -1.5682337975 0.2297389854
| 47> *
| 48>
| 49>                          ****END OF INPUT****

CARTESIAN COORDINATES (ANGSTROEM)
---------------------------------
  C      0.785660   -2.848808    1.467075
  C      1.674899   -1.733237    1.978816
  O      1.338154   -0.482509    1.335080
  P      2.188247    0.124123    0.149425
  S      3.099225   -1.135277   -1.050789
  O      3.171457    1.079908    0.955782
  C      4.252521    1.783183    0.310379
  C      5.257558    2.173021    1.375430
  S      0.825746    1.472155   -0.726583
  C      0.191660    0.364793   -2.013987
  S     -0.633991   -1.102957   -1.341998
  P     -2.168967   -0.100860   -0.302579
  S     -2.880571    1.539854   -1.113735
  O     -1.563015    0.006592    1.152585
  C     -2.052941    0.947751    2.135657
  C     -1.126363    2.143394    2.231301
  O     -3.257813   -1.239239   -0.081133
  C     -4.195401   -1.614004   -1.110727
  C     -5.387110   -2.269906   -0.442712
  H     -0.259727   -2.564565    1.561942
  H      0.996918   -3.048222    0.418316
  H      0.970412   -3.748517    2.045132
  H      2.729202   -1.960342    1.797724
  H      1.514896   -1.549328    3.042283
  H      4.698540    1.122275   -0.440598
  H      3.835871    2.662503   -0.187655
  H      5.657005    1.284700    1.856570
  H      6.068824    2.725604    0.913170
  H      4.778790    2.795225    2.125920
  H      1.015810   -0.001097   -2.625367
  H     -0.514987    0.950409   -2.600888
  H     -3.065584    1.259167    1.864500
  H     -2.078248    0.384805    3.069959
  H     -1.153822    2.716426    1.306541
  H     -1.442805    2.777647    3.053099
  H     -0.105393    1.810056    2.402180
  H     -4.489103   -0.712831   -1.659713
  H     -3.690604   -2.302185   -1.793518
  H     -6.093549   -2.582966   -1.204373
  H     -5.062353   -3.136152    0.126257
  H     -5.872617   -1.568234    0.229739

 Total Charge           Charge          ....    0
 Multiplicity           Mult            ....    1
 Number of Electrons    NEL             ....  202
 Basis Dimension        Dim             ....  539

ORBITAL ENERGIES
----------------

  NO   OCC          E(Eh)            E(eV)
   0   2.0000     -88.575754     -2410.2688
   1   2.0000     -88.575753     -2410.2688
   2   2.0000     -88.519645     -2408.7420
   3   2.0000     -88.519554     -2408.7395
   4   2.0000     -76.912634     -2092.8992
   5   2.0000     -76.912551     -2092.8969
   6   2.0000     -18.990475      -516.7571
   7   2.0000     -18.990424      -516.7557
   8   2.0000     -18.986503      -516.6490
   9   2.0000     -18.986473      -516.6482
  10   2.0000     -10.106320      -275.0070
  11   2.0000     -10.096945      -274.7519
  12   2.0000     -10.096942      -274.7518
  13   2.0000     -10.096909      -274.7508
  14   2.0000     -10.096838      -274.7489
  15   2.0000     -10.032546      -272.9995
  16   2.0000     -10.032490      -272.9979
  17   2.0000     -10.021246      -272.6920
  18   2.0000     -10.021137      -272.6890
  19   2.0000      -7.870127      -214.1570
  20   2.0000      -7.870124      -214.1570
  21   2.0000      -7.814460      -212.6423
  22   2.0000      -7.814366      -212.6397
  23   2.0000      -6.591153      -179.3544
  24   2.0000      -6.591080      -179.3524
  25   2.0000      -5.817037      -158.2896
  26   2.0000      -5.817030      -158.2894
  27   2.0000      -5.813975      -158.2063
  28   2.0000      -5.813965      -158.2060
  29   2.0000      -5.807204      -158.0221
  30   2.0000      -5.807196      -158.0218
  31   2.0000      -5.762083      -156.7942
  32   2.0000      -5.761978      -156.7914
  33   2.0000      -5.754816      -156.5965
  34   2.0000      -5.754721      -156.5939
  35   2.0000      -5.754407      -156.5854
  36   2.0000      -5.754323      -156.5831
  37   2.0000      -4.736551      -128.8881
  38   2.0000      -4.736476      -128.8861
  39   2.0000      -4.736068      -128.8750
  40   2.0000      -4.735993      -128.8729
  41   2.0000      -4.734992      -128.8457
  42   2.0000      -4.734919      -128.8437
  43   2.0000      -1.047961       -28.5165
  44   2.0000      -1.046857       -28.4864
  45   2.0000      -1.008088       -27.4315
  46   2.0000      -1.006834       -27.3973
  47   2.0000      -0.803434       -21.8626
  48   2.0000      -0.759622       -20.6704
  49   2.0000      -0.749435       -20.3932
  50   2.0000      -0.729770       -19.8581
  51   2.0000      -0.728712       -19.8293
  52   2.0000      -0.707424       -19.2500
  53   2.0000      -0.682352       -18.5677
  54   2.0000      -0.668953       -18.2031
  55   2.0000      -0.628960       -17.1149
  56   2.0000      -0.619063       -16.8456
  57   2.0000      -0.603075       -16.4105
  58   2.0000      -0.599598       -16.3159
  59   2.0000      -0.588543       -16.0151
  60   2.0000      -0.532936       -14.5019
  61   2.0000      -0.528797       -14.3893
  62   2.0000      -0.494601       -13.4588
  63   2.0000      -0.492349       -13.3975
  64   2.0000      -0.475552       -12.9404
  65   2.0000      -0.460234       -12.5236
  66   2.0000      -0.455088       -12.3836
  67   2.0000      -0.450859       -12.2685
  68   2.0000      -0.448350       -12.2002
  69   2.0000      -0.434153       -11.8139
  70   2.0000      -0.421076       -11.4581
  71   2.0000      -0.404101       -10.9961
  72   2.0000      -0.399482       -10.8705
  73   2.0000      -0.397931       -10.8283
  74   2.0000      -0.396572       -10.7913
  75   2.0000      -0.392089       -10.6693
  76   2.0000      -0.386415       -10.5149
  77   2.0000      -0.368824       -10.0362
  78   2.0000      -0.367578       -10.0023
  79   2.0000      -0.366300        -9.9675
  80   2.0000      -0.361245        -9.8300
  81   2.0000      -0.359891        -9.7931
  82   2.0000      -0.354345        -9.6422
  83   2.0000      -0.352267        -9.5857
  84   2.0000      -0.348643        -9.4871
  85   2.0000      -0.329202        -8.9580
  86   2.0000      -0.315854        -8.5948
  87   2.0000      -0.314666        -8.5625
  88   2.0000      -0.311985        -8.4895
  89   2.0000      -0.307349        -8.3634
  90   2.0000      -0.296057        -8.0561
  91   2.0000      -0.294692        -8.0190
  92   2.0000      -0.282105        -7.6765
  93   2.0000      -0.277201        -7.5430
  94   2.0000      -0.273676        -7.4471
  95   2.0000      -0.245264        -6.6740
  96   2.0000      -0.230764        -6.2794
  97   2.0000      -0.226708        -6.1690
  98   2.0000      -0.219154        -5.9635
  99   2.0000      -0.212825        -5.7913
 100   2.0000      -0.211892        -5.7659
 101   0.0000      -0.048235        -1.3125
 102   0.0000      -0.026209        -0.7132
 103   0.0000       0.000637         0.0173
 104   0.0000       0.003595         0.0978
 105   0.0000       0.011514         0.3133

MULLIKEN ATOMIC CHARGES
-----------------------
   0 C :   -0.473184
   1 C :   -0.123262
   2 O :   -0.255704
   3 P :    0.691248
   4 S :   -0.486261
   5 O :   -0.283416
   6 C :   -0.152170
   7 C :   -0.443043
   8 S :   -0.127385
   9 C :   -0.244007
  10 S :   -0.126796
  11 P :    0.689638
  12 S :   -0.485462
  13 O :   -0.255481
  14 C :   -0.122642
  15 C :   -0.473845
  16 O :   -0.283416
  17 C :   -0.150376
  18 C :   -0.444036
  19 H :    0.164612
  20 H :    0.178544
  21 H :    0.141322
  22 H :    0.158086
  23 H :    0.147117
  24 H :    0.170330
  25 H :    0.151123
  26 H :    0.155946
  27 H :    0.146650
  28 H :    0.153185
  29 H :    0.207874
  30 H :    0.208177
  31 H :    0.157718
  32 H :    0.147120
  33 H :    0.178643
  34 H :    0.141322
  35 H :    0.164739
  36 H :    0.170201
  37 H :    0.150906
  38 H :    0.146654
  39 H :    0.153186
  40 H :    0.156146
Sum of atomic charges:   -0.0000000

LOEWDIN ATOMIC CHARGES
----------------------
   0 C :   -0.403786
   1 C :    0.027703
   2 O :   -0.663445
   3 P :    0.373884
   4 S :   -0.134087
   5 O :   -0.665534
   6 C :    0.018932
   7 C :   -0.386300
   8 S :    0.178477
   9 C :   -0.417723
  10 S :    0.178432
  11 P :    0.373694
  12 S :   -0.133746
  13 O :   -0.663943
  14 C :    0.027804
  15 C :   -0.403602
  16 O :   -0.665516
  17 C :    0.019022
  18 C :   -0.386465
  19 H :    0.164179
  20 H :    0.166946
  21 H :    0.155871
  22 H :    0.177405
  23 H :    0.176951
  24 H :    0.180695
  25 H :    0.171469
  26 H :    0.160415
  27 H :    0.159840
  28 H :    0.159479
  29 H :    0.189955
  30 H :    0.189775
  31 H :    0.177288
  32 H :    0.176980
  33 H :    0.166971
  34 H :    0.155877
  35 H :    0.164217
  36 H :    0.180823
  37 H :    0.171414
  38 H :    0.159825
  39 H :    0.159416
  40 H :    0.160410

  Mayer bond orders larger than 0.100000
B(  0-C ,  1-C ) :   0.9438 B(  0-C , 19-H ) :   0.9688 B(  0-C , 20-H ) :   0.9628
B(  0-C , 21-H ) :   0.9633 B(  1-C ,  2-O ) :   0.7566 B(  1-C , 22-H ) :   0.9643
B(  1-C , 23-H ) :   0.9607 B(  2-O ,  3-P ) :   1.1731 B(  3-P ,  4-S ) :   1.7412
B(  3-P ,  5-O ) :   1.0874 B(  3-P ,  8-S ) :   1.0659 B(  5-O ,  6-C ) :   0.7794
B(  6-C ,  7-C ) :   0.9572 B(  6-C , 24-H ) :   0.9512 B(  6-C , 25-H ) :   0.9443
B(  7-C , 26-H ) :   0.9725 B(  7-C , 27-H ) :   0.9647 B(  7-C , 28-H ) :   0.9717
B(  8-S ,  9-C ) :   0.9072 B(  9-C , 10-S ) :   0.9073 B(  9-C , 29-H ) :   0.9102
B(  9-C , 30-H ) :   0.9105 B( 10-S , 11-P ) :   1.0672 B( 11-P , 12-S ) :   1.7422
B( 11-P , 13-O ) :   1.1737 B( 11-P , 16-O ) :   1.0855 B( 13-O , 14-C ) :   0.7562
B( 14-C , 15-C ) :   0.9438 B( 14-C , 31-H ) :   0.9643 B( 14-C , 32-H ) :   0.9607
B( 15-C , 33-H ) :   0.9628 B( 15-C , 34-H ) :   0.9633 B( 15-C , 35-H ) :   0.9688
B( 16-O , 17-C ) :   0.7777 B( 17-C , 18-C ) :   0.9581 B( 17-C , 36-H ) :   0.9516
B( 17-C , 37-H ) :   0.9446 B( 18-C , 38-H ) :   0.9647 B( 18-C , 39-H ) :   0.9718
B( 18-C , 40-H ) :   0.9725

Dispersion correction           -0.021619156
FINAL SINGLE POINT ENERGY     -2932.465888053093

DIPOLE MOMENT
-------------

Method             : SCF
Type of density    : Electron Density
Multiplicity       :   1
Irrep              :   0
Energy             : -2932.4904428585241476 Eh
Relativity type    :
Basis              : AO
                                X                 Y                 Z
Electronic contribution:      1.395990687       2.396297083     -13.688202271
Nuclear contribution   :     -1.499631981      -2.572167356      14.664348809
                        -----------------------------------------
Total Dipole Moment    :     -0.103641294      -0.175870273       0.976146538
                        -----------------------------------------
Magnitude (a.u.)       :      0.997263222
Magnitude (Debye)      :      2.534841663

Rotational constants in cm-1:             0.013477             0.004902             0.004655
Rotational constants in MHz :           404.023114           146.952008           139.567866

                             ****ORCA TERMINATED NORMALLY****
TOTAL RUN TIME: 0 days 0 hours 1 minutes 19 seconds 954 msec
