                         Program Version 6.0.0  -   RELEASE  -
|  1> ! r2scan-3c def2/J RI DEFGRID2 scfconv6 printgap
|  2> %output
|  3>     printlevel normal
|  4> end
|  5> %cpcm
|  6>     smd true
|  7>     smdsolvent "water"
|  8> end
|  9> * xyz 0 1
| 10> C 0.7856596944 -2.848808268 1.4670747683
| 11> C 1.6748987307 -1.7332367911 1.9788159931
| 12> O 1.3381537587 -0.482508572 1.3350801196
| 13> P 2.1882470942 0.1241225462 0.1494248832
| 14> S 3.0992249914 -1.1352765691 -1.0507891847
| 15> O 3.1714574622 1.0799078999 0.9557823082
| 16> C 4.252521366 1.7831826 0.3103791657
| 17> C 5.2575580626 2.1730205746 1.3754298114
| 18> S 0.8257462221 1.4721550151 -0.7265833635
| 19> C 0.1916599491 0.3647926316 -2.0139870289
| 20> S -0.6339908 -1.1029567255 -1.3419983968
| 21> P -2.1689667966 -0.1008600811 -0.3025789203
| 22> S -2.8805705079 1.5398542491 -1.1137350749
| 23> O -1.5630146266 0.0065923538 1.1525851676
| 24> C -2.05294053 0.9477509562 2.1356571058
| 25> C -1.1263628937 2.1433939165 2.2313006764
| 26> O -3.2578126538 -1.2392394725 -0.0811326731
| 27> C -4.195400527 -1.614003817 -1.1107271397
| 28> C -5.3871098934 -2.2699058941 -0.4427123189
| 29> H -0.259726993 -2.5645654818 1.5619415397
| 30> H 0.9969181969 -3.0482215385 0.4183161006
| 31> H 0.9704117099 -3.7485166154 2.0451318221
| 32> H 2.7292020883 -1.9603417567 1.7977241572
| 33> H 1.514896134 -1.5493278113 3.0422826923
| 34> H 4.698539569 1.1222751902 -0.4405978754
| 35> H 3.835871211 2.6625025443 -0.1876546837
| 36> H 5.6570048851 1.284699838 1.8565695052
| 37> H 6.0688240392 2.72560378 0.9131701382
| 38> H 4.7787895217 2.7952247641 2.1259204045
| 39> H 1.0158104743 -0.0010972801 -2.6253671716
| 40> H -0.5149869899 0.9504085354 -2.600888037
| 41> H -3.0655836748 1.2591667899 1.8644995111
| 42> H -2.0782475152 0.384805263 3.069959472
| 43> H -1.1538220826 2.7164255755 1.3065406459
| 44> H -1.4428050407 2.7776466211 3.0530985921
| 45> H -0.1053933166 1.8100564334 2.402180459
| 46> H -4.4891028312 -0.7128305461 -1.6597128836
| 47> H -3.6906040208 -2.3021852714 -1.7935181779
| 48> H -6.0935489818 -2.5829657756 -1.2043733165
| 49> H -5.0623529524 -3.1361520821 0.1262565743
| 50> H -5.8726169844 -1.5682337975 0.2297389854
| 51> *
| 52>
| 53>                          ****END OF INPUT****

CARTESIAN COORDINATES (ANGSTROEM)
---------------------------------
  C      0.785660   -2.848808    1.467075
  C      1.674899   -1.733237    1.978816
  O      1.338154   -0.482509    1.335080
  P      2.188247    0.124123    0.149425
  S      3.099225   -1.135277   -1.050789
  O      3.171457    1.079908    0.955782
  C      4.252521    1.783183    0.310379
  C      5.257558    2.173021    1.375430
  S      0.825746    1.472155   -0.726583
  C      0.191660    0.364793   -2.013987
  S     -0.633991   -1.102957   -1.341998
  P     -2.168967   -0.100860   -0.302579
  S     -2.880571    1.539854   -1.113735
  O     -1.563015    0.006592    1.152585
  C     -2.052941    0.947751    2.135657
  C     -1.126363    2.143394    2.231301
  O     -3.257813   -1.239239   -0.081133
  C     -4.195401   -1.614004   -1.110727
  C     -5.387110   -2.269906   -0.442712
  H     -0.259727   -2.564565    1.561942
  H      0.996918   -3.048222    0.418316
  H      0.970412   -3.748517    2.045132
  H      2.729202   -1.960342    1.797724
  H      1.514896   -1.549328    3.042283
  H      4.698540    1.122275   -0.440598
  H      3.835871    2.662503   -0.187655
  H      5.657005    1.284700    1.856570
  H      6.068824    2.725604    0.913170
  H      4.778790    2.795225    2.125920
  H      1.015810   -0.001097   -2.625367
  H     -0.514987    0.950409   -2.600888
  H     -3.065584    1.259167    1.864500
  H     -2.078248    0.384805    3.069959
  H     -1.153822    2.716426    1.306541
  H     -1.442805    2.777647    3.053099
  H     -0.105393    1.810056    2.402180
  H     -4.489103   -0.712831   -1.659713
  H     -3.690604   -2.302185   -1.793518
  H     -6.093549   -2.582966   -1.204373
  H     -5.062353   -3.136152    0.126257
  H     -5.872617   -1.568234    0.229739

 Total Charge           Charge          ....    0
 Multiplicity           Mult            ....    1
 Number of Electrons    NEL             ....  202
 Basis Dimension        Dim             ....  539

ORBITAL ENERGIES
----------------

  NO   OCC          E(Eh)            E(eV)
   0   2.0000     -88.580088     -2410.3867
   1   2.0000     -88.580079     -2410.3865
   2   2.0000     -88.527290     -2408.9500
   3   2.0000     -88.527258     -2408.9492
   4   2.0000     -76.918547     -2093.0601
   5   2.0000     -76.918515     -2093.0592
   6   2.0000     -18.993824      -516.8482
   7   2.0000     -18.993723      -516.8455
   8   2.0000     -18.991257      -516.7784
   9   2.0000     -18.991134      -516.7750
  10   2.0000     -10.106102      -275.0010
  11   2.0000     -10.090089      -274.5653
  12   2.0000     -10.090063      -274.5646
  13   2.0000     -10.088914      -274.5333
  14   2.0000     -10.088800      -274.5302
  15   2.0000     -10.019296      -272.6389
  16   2.0000     -10.019241      -272.6374
  17   2.0000     -10.015692      -272.5408
  18   2.0000     -10.015651      -272.5397
  19   2.0000      -7.874479      -214.2755
  20   2.0000      -7.874469      -214.2752
  21   2.0000      -7.822382      -212.8578
  22   2.0000      -7.822348      -212.8569
  23   2.0000      -6.597093      -179.5160
  24   2.0000      -6.597073      -179.5155
  25   2.0000      -5.821374      -158.4076
  26   2.0000      -5.821359      -158.4072
  27   2.0000      -5.818305      -158.3241
  28   2.0000      -5.818303      -158.3241
  29   2.0000      -5.811592      -158.1415
  30   2.0000      -5.811578      -158.1411
  31   2.0000      -5.769952      -157.0084
  32   2.0000      -5.769907      -157.0072
  33   2.0000      -5.762730      -156.8119
  34   2.0000      -5.762695      -156.8109
  35   2.0000      -5.762337      -156.8012
  36   2.0000      -5.762313      -156.8005
  37   2.0000      -4.742451      -129.0487
  38   2.0000      -4.742430      -129.0481
  39   2.0000      -4.742020      -129.0369
  40   2.0000      -4.741998      -129.0363
  41   2.0000      -4.740987      -129.0088
  42   2.0000      -4.740966      -129.0082
  43   2.0000      -1.051745       -28.6194
  44   2.0000      -1.050551       -28.5870
  45   2.0000      -1.011216       -27.5166
  46   2.0000      -1.009935       -27.4817
  47   2.0000      -0.806096       -21.9350
  48   2.0000      -0.757725       -20.6188
  49   2.0000      -0.744604       -20.2617
  50   2.0000      -0.722567       -19.6621
  51   2.0000      -0.722010       -19.6469
  52   2.0000      -0.708138       -19.2694
  53   2.0000      -0.686895       -18.6914
  54   2.0000      -0.675341       -18.3770
  55   2.0000      -0.628985       -17.1156
  56   2.0000      -0.616001       -16.7622
  57   2.0000      -0.597132       -16.2488
  58   2.0000      -0.593730       -16.1562
  59   2.0000      -0.587009       -15.9733
  60   2.0000      -0.530517       -14.4361
  61   2.0000      -0.526730       -14.3331
  62   2.0000      -0.493640       -13.4326
  63   2.0000      -0.490766       -13.3544
  64   2.0000      -0.476732       -12.9725
  65   2.0000      -0.457116       -12.4388
  66   2.0000      -0.453287       -12.3346
  67   2.0000      -0.445650       -12.1268
  68   2.0000      -0.443341       -12.0639
  69   2.0000      -0.436732       -11.8841
  70   2.0000      -0.420886       -11.4529
  71   2.0000      -0.403308       -10.9746
  72   2.0000      -0.398218       -10.8361
  73   2.0000      -0.397458       -10.8154
  74   2.0000      -0.394137       -10.7250
  75   2.0000      -0.388316       -10.5666
  76   2.0000      -0.383407       -10.4330
  77   2.0000      -0.366954        -9.9853
  78   2.0000      -0.358161        -9.7460
  79   2.0000      -0.357955        -9.7405
  80   2.0000      -0.356035        -9.6882
  81   2.0000      -0.354231        -9.6391
  82   2.0000      -0.349748        -9.5171
  83   2.0000      -0.348529        -9.4839
  84   2.0000      -0.343317        -9.3421
  85   2.0000      -0.327371        -8.9082
  86   2.0000      -0.314119        -8.5476
  87   2.0000      -0.312115        -8.4931
  88   2.0000      -0.310489        -8.4488
  89   2.0000      -0.306978        -8.3533
  90   2.0000      -0.295844        -8.0503
  91   2.0000      -0.295721        -8.0470
  92   2.0000      -0.283151        -7.7049
  93   2.0000      -0.277728        -7.5574
  94   2.0000      -0.275143        -7.4870
  95   2.0000      -0.249235        -6.7820
  96   2.0000      -0.236763        -6.4426
  97   2.0000      -0.234896        -6.3919
  98   2.0000      -0.226863        -6.1733
  99   2.0000      -0.220908        -6.0112
 100   2.0000      -0.219459        -5.9718
 101   0.0000      -0.053307        -1.4505
 102   0.0000      -0.032653        -0.8885
 103   0.0000      -0.004266        -0.1161
 104   0.0000      -0.000907        -0.0247
 105   0.0000       0.009326         0.2538

MULLIKEN ATOMIC CHARGES
-----------------------
   0 C :   -0.497052
   1 C :   -0.127554
   2 O :   -0.284281
   3 P :    0.721160
   4 S :   -0.528805
   5 O :   -0.312601
   6 C :   -0.145355
   7 C :   -0.484504
   8 S :   -0.137277
   9 C :   -0.256577
  10 S :   -0.136696
  11 P :    0.719665
  12 S :   -0.528085
  13 O :   -0.283810
  14 C :   -0.127266
  15 C :   -0.497656
  16 O :   -0.312454
  17 C :   -0.144399
  18 C :   -0.485145
  19 H :    0.165632
  20 H :    0.171380
  21 H :    0.167516
  22 H :    0.170529
  23 H :    0.175478
  24 H :    0.171474
  25 H :    0.170572
  26 H :    0.166126
  27 H :    0.169266
  28 H :    0.165616
  29 H :    0.230525
  30 H :    0.230743
  31 H :    0.170339
  32 H :    0.175478
  33 H :    0.171526
  34 H :    0.167538
  35 H :    0.165674
  36 H :    0.171119
  37 H :    0.171081
  38 H :    0.169253
  39 H :    0.165630
  40 H :    0.166193
Sum of atomic charges:   -0.0000000

LOEWDIN ATOMIC CHARGES
----------------------
   0 C :   -0.406127
   1 C :    0.032222
   2 O :   -0.679375
   3 P :    0.378153
   4 S :   -0.161336
   5 O :   -0.678666
   6 C :    0.023380
   7 C :   -0.390073
   8 S :    0.173958
   9 C :   -0.411121
  10 S :    0.173866
  11 P :    0.378016
  12 S :   -0.160973
  13 O :   -0.679872
  14 C :    0.032343
  15 C :   -0.405938
  16 O :   -0.678613
  17 C :    0.023392
  18 C :   -0.390297
  19 H :    0.163340
  20 H :    0.162343
  21 H :    0.165416
  22 H :    0.181752
  23 H :    0.188746
  24 H :    0.181385
  25 H :    0.179282
  26 H :    0.162535
  27 H :    0.168720
  28 H :    0.162959
  29 H :    0.197084
  30 H :    0.196882
  31 H :    0.181687
  32 H :    0.188764
  33 H :    0.162400
  34 H :    0.165422
  35 H :    0.163350
  36 H :    0.181418
  37 H :    0.179505
  38 H :    0.168676
  39 H :    0.162914
  40 H :    0.162482

  Mayer bond orders larger than 0.100000
B(  0-C ,  1-C ) :   0.9331 B(  0-C , 19-H ) :   0.9670 B(  0-C , 20-H ) :   0.9652
B(  0-C , 21-H ) :   0.9590 B(  1-C ,  2-O ) :   0.7440 B(  1-C , 22-H ) :   0.9610
B(  1-C , 23-H ) :   0.9502 B(  2-O ,  3-P ) :   1.1752 B(  3-P ,  4-S ) :   1.7076
B(  3-P ,  5-O ) :   1.0927 B(  3-P ,  8-S ) :   1.0804 B(  5-O ,  6-C ) :   0.7725
B(  6-C ,  7-C ) :   0.9530 B(  6-C , 24-H ) :   0.9484 B(  6-C , 25-H ) :   0.9357
B(  7-C , 26-H ) :   0.9701 B(  7-C , 27-H ) :   0.9587 B(  7-C , 28-H ) :   0.9688
B(  8-S ,  9-C ) :   0.8986 B(  9-C , 10-S ) :   0.8986 B(  9-C , 29-H ) :   0.9041
B(  9-C , 30-H ) :   0.9043 B( 10-S , 11-P ) :   1.0817 B( 11-P , 12-S ) :   1.7083
B( 11-P , 13-O ) :   1.1761 B( 11-P , 16-O ) :   1.0907 B( 13-O , 14-C ) :   0.7434
B( 14-C , 15-C ) :   0.9331 B( 14-C , 31-H ) :   0.9611 B( 14-C , 32-H ) :   0.9502
B( 15-C , 33-H ) :   0.9653 B( 15-C , 34-H ) :   0.9590 B( 15-C , 35-H ) :   0.9670
B( 16-O , 17-C ) :   0.7704 B( 17-C , 18-C ) :   0.9538 B( 17-C , 36-H ) :   0.9488
B( 17-C , 37-H ) :   0.9360 B( 18-C , 38-H ) :   0.9588 B( 18-C , 39-H ) :   0.9688
B( 18-C , 40-H ) :   0.9700

Dispersion correction           -0.021619156
FINAL SINGLE POINT ENERGY     -2932.473515730627

DIPOLE MOMENT
-------------

Method             : SCF
Type of density    : Electron Density
Multiplicity       :   1
Irrep              :   0
Energy             : -2932.4980705360576394 Eh
Relativity type    :
Basis              : AO
                                X                 Y                 Z
Electronic contribution:      1.375118070       2.362587820     -13.508161996
Nuclear contribution   :     -1.499631981      -2.572167356      14.664348809
                        -----------------------------------------
Total Dipole Moment    :     -0.124513911      -0.209579536       1.156186813
                        -----------------------------------------
Magnitude (a.u.)       :      1.181607059
Magnitude (Debye)      :      3.003406459

Rotational constants in cm-1:             0.013477             0.004902             0.004655
Rotational constants in MHz :           404.023114           146.952008           139.567866

                             ****ORCA TERMINATED NORMALLY****
TOTAL RUN TIME: 0 days 0 hours 1 minutes 50 seconds 795 msec
