                         Program Version 6.0.1  -  RELEASE   -
|  1> ! r2scan-3c def2/J RI DEFGRID2 scfconv6 printgap
|  2> %output
|  3>     printlevel normal
|  4> end
|  5> * xyz 0 1
|  6> C 3.5553705703 -3.9822683392 -0.922368673
|  7> C 4.162808616 -2.6690002538 -1.3890503821
|  8> O 3.1635666866 -1.8366838067 -2.0124611817
|  9> C 2.4260111539 -1.0637816304 -1.246396564
| 10> O 2.5402074935 -0.9697596012 -0.0415606249
| 11> C 1.4148588587 -0.271914915 -2.0494969787
| 12> C 0.4097806691 0.3666489694 -1.1010592255
| 13> H -0.2433204303 1.0625253696 -1.6373148118
| 14> C 1.1505608686 1.1595443927 -0.0327880121
| 15> O 2.0712252695 1.8935896647 -0.3144918322
| 16> O 0.652082442 0.998273572 1.173658046
| 17> C 1.2813844578 1.7191777931 2.2527802364
| 18> C 0.8013544756 3.1597048702 2.3151728874
| 19> S -0.6471427334 -0.9180042128 -0.3585801336
| 20> P -2.2859683589 0.3231343354 0.2126839657
| 21> S -2.1086009996 2.2603503283 0.0038626559
| 22> O -3.5108103207 -0.196224446 -0.6415589054
| 23> C -3.9150224302 -1.5797541563 -0.6473758669
| 24> O -2.6955076913 -0.2106800217 1.6608952568
| 25> C -1.886911897 -0.0285562274 2.8261723737
| 26> H 2.8055270447 -3.7947289022 -0.1569922894
| 27> H 3.0878021198 -4.4956294423 -1.7577622105
| 28> H 4.3359004782 -4.6103780372 -0.5060735529
| 29> H 4.9082850644 -2.8273411913 -2.1682010454
| 30> H 4.598384196 -2.12099016 -0.5487874899
| 31> H 0.9275312747 -0.9230186891 -2.774013697
| 32> H 1.9547156695 0.5132210968 -2.583895588
| 33> H 1.0039730118 1.1630164244 3.1482166388
| 34> H 2.3630505708 1.6761514688 2.0980698607
| 35> H 1.2058912982 3.6339369686 3.2027884776
| 36> H 1.1352499915 3.7045049629 1.4352350583
| 37> H -0.2849538375 3.1978855106 2.3466705291
| 38> H -3.0428264046 -2.221458572 -0.7760873811
| 39> H -4.5942947726 -1.6759847089 -1.4903638295
| 40> H -4.4198352212 -1.8160077374 0.2868046004
| 41> H -1.7055431758 1.0327082664 2.9951625038
| 42> H -0.9394948008 -0.5538193095 2.7077256487
| 43> H -2.462503515 -0.4527333397 3.6455154217
| 44> *
| 45>
| 46>                          ****END OF INPUT****

CARTESIAN COORDINATES (ANGSTROEM)
---------------------------------
  C      3.555371   -3.982268   -0.922369
  C      4.162809   -2.669000   -1.389050
  O      3.163567   -1.836684   -2.012461
  C      2.426011   -1.063782   -1.246397
  O      2.540207   -0.969760   -0.041561
  C      1.414859   -0.271915   -2.049497
  C      0.409781    0.366649   -1.101059
  H     -0.243320    1.062525   -1.637315
  C      1.150561    1.159544   -0.032788
  O      2.071225    1.893590   -0.314492
  O      0.652082    0.998274    1.173658
  C      1.281384    1.719178    2.252780
  C      0.801354    3.159705    2.315173
  S     -0.647143   -0.918004   -0.358580
  P     -2.285968    0.323134    0.212684
  S     -2.108601    2.260350    0.003863
  O     -3.510810   -0.196224   -0.641559
  C     -3.915022   -1.579754   -0.647376
  O     -2.695508   -0.210680    1.660895
  C     -1.886912   -0.028556    2.826172
  H      2.805527   -3.794729   -0.156992
  H      3.087802   -4.495629   -1.757762
  H      4.335900   -4.610378   -0.506074
  H      4.908285   -2.827341   -2.168201
  H      4.598384   -2.120990   -0.548787
  H      0.927531   -0.923019   -2.774014
  H      1.954716    0.513221   -2.583896
  H      1.003973    1.163016    3.148217
  H      2.363051    1.676151    2.098070
  H      1.205891    3.633937    3.202788
  H      1.135250    3.704505    1.435235
  H     -0.284954    3.197886    2.346671
  H     -3.042826   -2.221459   -0.776087
  H     -4.594295   -1.675985   -1.490364
  H     -4.419835   -1.816008    0.286805
  H     -1.705543    1.032708    2.995163
  H     -0.939495   -0.553819    2.707726
  H     -2.462504   -0.452733    3.645515

 Total Charge           Charge          ....    0
 Multiplicity           Mult            ....    1
 Number of Electrons    NEL             ....  174
 Basis Dimension        Dim             ....  510

ORBITAL ENERGIES
----------------

  NO   OCC          E(Eh)            E(eV)
   0   2.0000     -88.571371     -2410.1495
   1   2.0000     -88.517191     -2408.6752
   2   2.0000     -76.912856     -2092.9052
   3   2.0000     -19.009678      -517.2796
   4   2.0000     -18.995204      -516.8858
   5   2.0000     -18.991971      -516.7978
   6   2.0000     -18.990581      -516.7600
   7   2.0000     -18.942875      -515.4618
   8   2.0000     -18.924809      -514.9702
   9   2.0000     -10.166918      -276.6559
  10   2.0000     -10.154832      -276.3270
  11   2.0000     -10.100417      -274.8463
  12   2.0000     -10.096236      -274.7326
  13   2.0000     -10.095311      -274.7074
  14   2.0000     -10.091835      -274.6128
  15   2.0000     -10.087222      -274.4873
  16   2.0000     -10.063995      -273.8552
  17   2.0000     -10.035981      -273.0929
  18   2.0000     -10.017644      -272.5940
  19   2.0000      -7.865719      -214.0371
  20   2.0000      -7.811913      -212.5730
  21   2.0000      -6.591054      -179.3517
  22   2.0000      -5.812568      -158.1680
  23   2.0000      -5.809722      -158.0906
  24   2.0000      -5.802702      -157.8995
  25   2.0000      -5.759866      -156.7339
  26   2.0000      -5.752193      -156.5251
  27   2.0000      -5.751628      -156.5098
  28   2.0000      -4.736782      -128.8944
  29   2.0000      -4.736118      -128.8763
  30   2.0000      -4.734511      -128.8326
  31   2.0000      -1.087195       -29.5841
  32   2.0000      -1.071023       -29.1440
  33   2.0000      -1.050868       -28.5956
  34   2.0000      -1.009353       -27.4659
  35   2.0000      -0.992372       -27.0038
  36   2.0000      -0.975466       -26.5438
  37   2.0000      -0.809000       -22.0140
  38   2.0000      -0.759286       -20.6612
  39   2.0000      -0.735691       -20.0192
  40   2.0000      -0.733847       -19.9690
  41   2.0000      -0.698044       -18.9947
  42   2.0000      -0.679249       -18.4833
  43   2.0000      -0.656561       -17.8659
  44   2.0000      -0.647824       -17.6282
  45   2.0000      -0.632044       -17.1988
  46   2.0000      -0.594566       -16.1790
  47   2.0000      -0.541723       -14.7410
  48   2.0000      -0.533790       -14.5252
  49   2.0000      -0.521119       -14.1804
  50   2.0000      -0.501400       -13.6438
  51   2.0000      -0.492034       -13.3889
  52   2.0000      -0.484472       -13.1832
  53   2.0000      -0.463321       -12.6076
  54   2.0000      -0.457914       -12.4605
  55   2.0000      -0.454049       -12.3553
  56   2.0000      -0.450561       -12.2604
  57   2.0000      -0.439850       -11.9689
  58   2.0000      -0.435891       -11.8612
  59   2.0000      -0.432968       -11.7817
  60   2.0000      -0.422143       -11.4871
  61   2.0000      -0.418957       -11.4004
  62   2.0000      -0.413091       -11.2408
  63   2.0000      -0.402140       -10.9428
  64   2.0000      -0.389891       -10.6095
  65   2.0000      -0.382771       -10.4157
  66   2.0000      -0.380289       -10.3482
  67   2.0000      -0.364754        -9.9255
  68   2.0000      -0.361573        -9.8389
  69   2.0000      -0.352190        -9.5836
  70   2.0000      -0.346362        -9.4250
  71   2.0000      -0.339726        -9.2444
  72   2.0000      -0.333563        -9.0767
  73   2.0000      -0.329660        -8.9705
  74   2.0000      -0.319523        -8.6947
  75   2.0000      -0.318390        -8.6638
  76   2.0000      -0.314766        -8.5652
  77   2.0000      -0.305953        -8.3254
  78   2.0000      -0.291515        -7.9325
  79   2.0000      -0.286507        -7.7962
  80   2.0000      -0.276578        -7.5261
  81   2.0000      -0.266775        -7.2593
  82   2.0000      -0.255367        -6.9489
  83   2.0000      -0.249066        -6.7774
  84   2.0000      -0.218790        -5.9536
  85   2.0000      -0.217358        -5.9146
  86   2.0000      -0.210103        -5.7172
  87   0.0000      -0.044051        -1.1987
  88   0.0000      -0.023073        -0.6278
  89   0.0000      -0.011573        -0.3149
  90   0.0000       0.006315         0.1718
  91   0.0000       0.014002         0.3810

MULLIKEN ATOMIC CHARGES
-----------------------
   0 C :   -0.468726
   1 C :   -0.135126
   2 O :   -0.162341
   3 C :    0.398634
   4 O :   -0.390516
   5 C :   -0.480271
   6 C :    0.063145
   7 H :    0.239090
   8 C :    0.226799
   9 O :   -0.392531
  10 O :   -0.128780
  11 C :   -0.143503
  12 C :   -0.475676
  13 S :   -0.222165
  14 P :    0.705972
  15 S :   -0.427258
  16 O :   -0.285474
  17 C :   -0.283785
  18 O :   -0.297627
  19 C :   -0.300716
  20 H :    0.173172
  21 H :    0.153760
  22 H :    0.149795
  23 H :    0.152079
  24 H :    0.169467
  25 H :    0.193592
  26 H :    0.202909
  27 H :    0.145302
  28 H :    0.170629
  29 H :    0.145391
  30 H :    0.182426
  31 H :    0.161067
  32 H :    0.156789
  33 H :    0.157183
  34 H :    0.166073
  35 H :    0.162943
  36 H :    0.168952
  37 H :    0.149323
Sum of atomic charges:    0.0000000

LOEWDIN ATOMIC CHARGES
----------------------
   0 C :   -0.388033
   1 C :    0.031840
   2 O :   -0.573436
   3 C :    0.367388
   4 O :   -0.427295
   5 C :   -0.207086
   6 C :   -0.195333
   7 H :    0.209348
   8 C :    0.343606
   9 O :   -0.423438
  10 O :   -0.622556
  11 C :    0.029965
  12 C :   -0.396797
  13 S :    0.207070
  14 P :    0.394468
  15 S :   -0.069228
  16 O :   -0.660520
  17 C :   -0.054827
  18 O :   -0.670045
  19 C :   -0.049862
  20 H :    0.165916
  21 H :    0.157981
  22 H :    0.160538
  23 H :    0.179826
  24 H :    0.189102
  25 H :    0.190153
  26 H :    0.206184
  27 H :    0.175481
  28 H :    0.191534
  29 H :    0.155966
  30 H :    0.170778
  31 H :    0.161827
  32 H :    0.171009
  33 H :    0.179667
  34 H :    0.171627
  35 H :    0.174258
  36 H :    0.176860
  37 H :    0.176063

  Mayer bond orders larger than 0.100000
B(  0-C ,  1-C ) :   0.9394 B(  0-C , 20-H ) :   0.9703 B(  0-C , 21-H ) :   0.9728
B(  0-C , 22-H ) :   0.9641 B(  1-C ,  2-O ) :   0.8033 B(  1-C , 23-H ) :   0.9613
B(  1-C , 24-H ) :   0.9678 B(  2-O ,  3-C ) :   1.1342 B(  3-C ,  4-O ) :   1.7895
B(  3-C ,  5-C ) :   0.9672 B(  4-O ,  8-C ) :   0.1353 B(  5-C ,  6-C ) :   0.9079
B(  5-C ,  9-O ) :   0.1146 B(  5-C , 25-H ) :   0.9730 B(  5-C , 26-H ) :   0.9176
B(  6-C ,  7-H ) :   0.9093 B(  6-C ,  8-C ) :   0.8062 B(  6-C , 13-S ) :   0.8217
B(  8-C ,  9-O ) :   1.8819 B(  8-C , 10-O ) :   1.1557 B( 10-O , 11-C ) :   0.7814
B( 11-C , 12-C ) :   0.9142 B( 11-C , 27-H ) :   0.9672 B( 11-C , 28-H ) :   0.9664
B( 12-C , 29-H ) :   0.9691 B( 12-C , 30-H ) :   0.9704 B( 12-C , 31-H ) :   0.9657
B( 13-S , 14-P ) :   0.9867 B( 14-P , 15-S ) :   1.8153 B( 14-P , 16-O ) :   1.1640
B( 14-P , 18-O ) :   1.0262 B( 16-O , 17-C ) :   0.8083 B( 17-C , 32-H ) :   0.9546
B( 17-C , 33-H ) :   0.9670 B( 17-C , 34-H ) :   0.9635 B( 18-O , 19-C ) :   0.8370
B( 19-C , 35-H ) :   0.9550 B( 19-C , 36-H ) :   0.9505 B( 19-C , 37-H ) :   0.9679

Dispersion correction           -0.017566180
FINAL SINGLE POINT ENERGY     -1981.453534246762

DIPOLE MOMENT
-------------

Method             : SCF
Type of density    : Electron Density
Multiplicity       :   1
Irrep              :   0
Energy             : -1981.4731287857089228 Eh
Relativity type    :
Basis              : AO
                                X                 Y                 Z
Electronic contribution:    -11.786665852       7.291701392      -6.447277313
Nuclear contribution   :     12.131273260      -9.252607502       6.822675507
                        -----------------------------------------
Total Dipole Moment    :      0.344607408      -1.960906110       0.375398194
                        -----------------------------------------
Magnitude (a.u.)       :      2.026038213
Magnitude (Debye)      :      5.149779879

Rotational constants in cm-1:             0.013609             0.006776             0.005523
Rotational constants in MHz :           407.978339           203.131490           165.587902

                             ****ORCA TERMINATED NORMALLY****
TOTAL RUN TIME: 0 days 0 hours 1 minutes 23 seconds 86 msec
