                         Program Version 6.0.1  -  RELEASE   -
|  1> ! r2scan-3c def2/J RI DEFGRID2 scfconv6 printgap
|  2> %output
|  3>     printlevel normal
|  4> end
|  5> %cpcm
|  6>     smd true
|  7>     smdsolvent "water"
|  8> end
|  9> * xyz 0 1
| 10> C 3.5553705703 -3.9822683392 -0.922368673
| 11> C 4.162808616 -2.6690002538 -1.3890503821
| 12> O 3.1635666866 -1.8366838067 -2.0124611817
| 13> C 2.4260111539 -1.0637816304 -1.246396564
| 14> O 2.5402074935 -0.9697596012 -0.0415606249
| 15> C 1.4148588587 -0.271914915 -2.0494969787
| 16> C 0.4097806691 0.3666489694 -1.1010592255
| 17> H -0.2433204303 1.0625253696 -1.6373148118
| 18> C 1.1505608686 1.1595443927 -0.0327880121
| 19> O 2.0712252695 1.8935896647 -0.3144918322
| 20> O 0.652082442 0.998273572 1.173658046
| 21> C 1.2813844578 1.7191777931 2.2527802364
| 22> C 0.8013544756 3.1597048702 2.3151728874
| 23> S -0.6471427334 -0.9180042128 -0.3585801336
| 24> P -2.2859683589 0.3231343354 0.2126839657
| 25> S -2.1086009996 2.2603503283 0.0038626559
| 26> O -3.5108103207 -0.196224446 -0.6415589054
| 27> C -3.9150224302 -1.5797541563 -0.6473758669
| 28> O -2.6955076913 -0.2106800217 1.6608952568
| 29> C -1.886911897 -0.0285562274 2.8261723737
| 30> H 2.8055270447 -3.7947289022 -0.1569922894
| 31> H 3.0878021198 -4.4956294423 -1.7577622105
| 32> H 4.3359004782 -4.6103780372 -0.5060735529
| 33> H 4.9082850644 -2.8273411913 -2.1682010454
| 34> H 4.598384196 -2.12099016 -0.5487874899
| 35> H 0.9275312747 -0.9230186891 -2.774013697
| 36> H 1.9547156695 0.5132210968 -2.583895588
| 37> H 1.0039730118 1.1630164244 3.1482166388
| 38> H 2.3630505708 1.6761514688 2.0980698607
| 39> H 1.2058912982 3.6339369686 3.2027884776
| 40> H 1.1352499915 3.7045049629 1.4352350583
| 41> H -0.2849538375 3.1978855106 2.3466705291
| 42> H -3.0428264046 -2.221458572 -0.7760873811
| 43> H -4.5942947726 -1.6759847089 -1.4903638295
| 44> H -4.4198352212 -1.8160077374 0.2868046004
| 45> H -1.7055431758 1.0327082664 2.9951625038
| 46> H -0.9394948008 -0.5538193095 2.7077256487
| 47> H -2.462503515 -0.4527333397 3.6455154217
| 48> *
| 49>
| 50>                          ****END OF INPUT****

CARTESIAN COORDINATES (ANGSTROEM)
---------------------------------
  C      3.555371   -3.982268   -0.922369
  C      4.162809   -2.669000   -1.389050
  O      3.163567   -1.836684   -2.012461
  C      2.426011   -1.063782   -1.246397
  O      2.540207   -0.969760   -0.041561
  C      1.414859   -0.271915   -2.049497
  C      0.409781    0.366649   -1.101059
  H     -0.243320    1.062525   -1.637315
  C      1.150561    1.159544   -0.032788
  O      2.071225    1.893590   -0.314492
  O      0.652082    0.998274    1.173658
  C      1.281384    1.719178    2.252780
  C      0.801354    3.159705    2.315173
  S     -0.647143   -0.918004   -0.358580
  P     -2.285968    0.323134    0.212684
  S     -2.108601    2.260350    0.003863
  O     -3.510810   -0.196224   -0.641559
  C     -3.915022   -1.579754   -0.647376
  O     -2.695508   -0.210680    1.660895
  C     -1.886912   -0.028556    2.826172
  H      2.805527   -3.794729   -0.156992
  H      3.087802   -4.495629   -1.757762
  H      4.335900   -4.610378   -0.506074
  H      4.908285   -2.827341   -2.168201
  H      4.598384   -2.120990   -0.548787
  H      0.927531   -0.923019   -2.774014
  H      1.954716    0.513221   -2.583896
  H      1.003973    1.163016    3.148217
  H      2.363051    1.676151    2.098070
  H      1.205891    3.633937    3.202788
  H      1.135250    3.704505    1.435235
  H     -0.284954    3.197886    2.346671
  H     -3.042826   -2.221459   -0.776087
  H     -4.594295   -1.675985   -1.490364
  H     -4.419835   -1.816008    0.286805
  H     -1.705543    1.032708    2.995163
  H     -0.939495   -0.553819    2.707726
  H     -2.462504   -0.452733    3.645515

 Total Charge           Charge          ....    0
 Multiplicity           Mult            ....    1
 Number of Electrons    NEL             ....  174
 Basis Dimension        Dim             ....  510

ORBITAL ENERGIES
----------------

  NO   OCC          E(Eh)            E(eV)
   0   2.0000     -88.576957     -2410.3015
   1   2.0000     -88.529297     -2409.0046
   2   2.0000     -76.920581     -2093.1154
   3   2.0000     -19.009935      -517.2866
   4   2.0000     -19.003355      -517.1076
   5   2.0000     -18.997336      -516.9438
   6   2.0000     -18.995995      -516.9073
   7   2.0000     -18.952654      -515.7279
   8   2.0000     -18.945750      -515.5401
   9   2.0000     -10.172991      -276.8212
  10   2.0000     -10.171334      -276.7761
  11   2.0000     -10.095283      -274.7066
  12   2.0000     -10.086923      -274.4791
  13   2.0000     -10.084944      -274.4253
  14   2.0000     -10.084422      -274.4111
  15   2.0000     -10.082672      -274.3635
  16   2.0000     -10.059455      -273.7317
  17   2.0000     -10.019717      -272.6504
  18   2.0000     -10.016554      -272.5643
  19   2.0000      -7.871249      -214.1876
  20   2.0000      -7.824379      -212.9122
  21   2.0000      -6.598854      -179.5639
  22   2.0000      -5.818138      -158.3196
  23   2.0000      -5.815275      -158.2417
  24   2.0000      -5.808179      -158.0486
  25   2.0000      -5.772198      -157.0695
  26   2.0000      -5.764655      -156.8642
  27   2.0000      -5.764161      -156.8508
  28   2.0000      -4.744531      -129.1052
  29   2.0000      -4.743861      -129.0870
  30   2.0000      -4.742454      -129.0487
  31   2.0000      -1.089986       -29.6600
  32   2.0000      -1.083815       -29.4921
  33   2.0000      -1.054329       -28.6897
  34   2.0000      -1.012000       -27.5379
  35   2.0000      -1.000555       -27.2265
  36   2.0000      -0.993849       -27.0440
  37   2.0000      -0.812022       -22.0962
  38   2.0000      -0.753179       -20.4950
  39   2.0000      -0.737721       -20.0744
  40   2.0000      -0.730927       -19.8895
  41   2.0000      -0.695539       -18.9266
  42   2.0000      -0.672429       -18.2977
  43   2.0000      -0.658138       -17.9088
  44   2.0000      -0.651459       -17.7271
  45   2.0000      -0.628242       -17.0953
  46   2.0000      -0.593189       -16.1415
  47   2.0000      -0.541130       -14.7249
  48   2.0000      -0.528529       -14.3820
  49   2.0000      -0.522978       -14.2309
  50   2.0000      -0.503620       -13.7042
  51   2.0000      -0.490765       -13.3544
  52   2.0000      -0.485555       -13.2126
  53   2.0000      -0.467628       -12.7248
  54   2.0000      -0.458931       -12.4881
  55   2.0000      -0.455634       -12.3984
  56   2.0000      -0.451909       -12.2971
  57   2.0000      -0.449140       -12.2217
  58   2.0000      -0.439177       -11.9506
  59   2.0000      -0.428029       -11.6473
  60   2.0000      -0.418049       -11.3757
  61   2.0000      -0.416468       -11.3327
  62   2.0000      -0.412910       -11.2359
  63   2.0000      -0.400414       -10.8958
  64   2.0000      -0.387104       -10.5336
  65   2.0000      -0.384330       -10.4582
  66   2.0000      -0.373360       -10.1596
  67   2.0000      -0.365475        -9.9451
  68   2.0000      -0.358116        -9.7448
  69   2.0000      -0.351566        -9.5666
  70   2.0000      -0.345064        -9.3897
  71   2.0000      -0.339210        -9.2304
  72   2.0000      -0.336792        -9.1646
  73   2.0000      -0.331551        -9.0220
  74   2.0000      -0.319614        -8.6972
  75   2.0000      -0.317596        -8.6422
  76   2.0000      -0.308366        -8.3911
  77   2.0000      -0.308070        -8.3830
  78   2.0000      -0.292420        -7.9571
  79   2.0000      -0.288719        -7.8564
  80   2.0000      -0.279796        -7.6136
  81   2.0000      -0.279145        -7.5959
  82   2.0000      -0.268918        -7.3176
  83   2.0000      -0.260602        -7.0913
  84   2.0000      -0.231772        -6.3068
  85   2.0000      -0.230186        -6.2637
  86   2.0000      -0.221745        -6.0340
  87   0.0000      -0.050769        -1.3815
  88   0.0000      -0.028616        -0.7787
  89   0.0000      -0.024989        -0.6800
  90   0.0000       0.002657         0.0723
  91   0.0000       0.007700         0.2095

MULLIKEN ATOMIC CHARGES
-----------------------
   0 C :   -0.496585
   1 C :   -0.137436
   2 O :   -0.172576
   3 C :    0.430887
   4 O :   -0.455248
   5 C :   -0.520243
   6 C :    0.079991
   7 H :    0.264185
   8 C :    0.218974
   9 O :   -0.459280
  10 O :   -0.145984
  11 C :   -0.131217
  12 C :   -0.512409
  13 S :   -0.219421
  14 P :    0.726200
  15 S :   -0.486125
  16 O :   -0.327606
  17 C :   -0.292079
  18 O :   -0.323255
  19 C :   -0.303784
  20 H :    0.170554
  21 H :    0.167571
  22 H :    0.172583
  23 H :    0.177469
  24 H :    0.174485
  25 H :    0.227750
  26 H :    0.235067
  27 H :    0.182704
  28 H :    0.173782
  29 H :    0.172070
  30 H :    0.174499
  31 H :    0.169549
  32 H :    0.170239
  33 H :    0.182094
  34 H :    0.184533
  35 H :    0.175944
  36 H :    0.174670
  37 H :    0.177449
Sum of atomic charges:    0.0000000

LOEWDIN ATOMIC CHARGES
----------------------
   0 C :   -0.390535
   1 C :    0.037268
   2 O :   -0.573239
   3 C :    0.374305
   4 O :   -0.473473
   5 C :   -0.199307
   6 C :   -0.192351
   7 H :    0.217430
   8 C :    0.343453
   9 O :   -0.476320
  10 O :   -0.622706
  11 C :    0.035671
  12 C :   -0.398930
  13 S :    0.216723
  14 P :    0.396039
  15 S :   -0.112541
  16 O :   -0.685145
  17 C :   -0.046369
  18 O :   -0.679231
  19 C :   -0.042034
  20 H :    0.163435
  21 H :    0.162718
  22 H :    0.168970
  23 H :    0.190907
  24 H :    0.190822
  25 H :    0.204473
  26 H :    0.215591
  27 H :    0.191369
  28 H :    0.191889
  29 H :    0.166533
  30 H :    0.164210
  31 H :    0.163418
  32 H :    0.177810
  33 H :    0.190307
  34 H :    0.180456
  35 H :    0.179506
  36 H :    0.180798
  37 H :    0.188080

  Mayer bond orders larger than 0.100000
B(  0-C ,  1-C ) :   0.9367 B(  0-C , 20-H ) :   0.9686 B(  0-C , 21-H ) :   0.9692
B(  0-C , 22-H ) :   0.9589 B(  1-C ,  2-O ) :   0.7857 B(  1-C , 23-H ) :   0.9516
B(  1-C , 24-H ) :   0.9628 B(  2-O ,  3-C ) :   1.1496 B(  3-C ,  4-O ) :   1.7387
B(  3-C ,  5-C ) :   0.9437 B(  4-O ,  8-C ) :   0.1327 B(  5-C ,  6-C ) :   0.8771
B(  5-C , 25-H ) :   0.9619 B(  5-C , 26-H ) :   0.9266 B(  6-C ,  7-H ) :   0.8989
B(  6-C ,  8-C ) :   0.8076 B(  6-C , 13-S ) :   0.8117 B(  8-C ,  9-O ) :   1.8234
B(  8-C , 10-O ) :   1.1663 B( 10-O , 11-C ) :   0.7672 B( 11-C , 12-C ) :   0.9007
B( 11-C , 27-H ) :   0.9547 B( 11-C , 28-H ) :   0.9590 B( 12-C , 29-H ) :   0.9618
B( 12-C , 30-H ) :   0.9727 B( 12-C , 31-H ) :   0.9679 B( 13-S , 14-P ) :   0.9988
B( 14-P , 15-S ) :   1.7913 B( 14-P , 16-O ) :   1.1678 B( 14-P , 18-O ) :   1.0378
B( 16-O , 17-C ) :   0.8005 B( 17-C , 32-H ) :   0.9458 B( 17-C , 33-H ) :   0.9566
B( 17-C , 34-H ) :   0.9542 B( 18-O , 19-C ) :   0.8283 B( 19-C , 35-H ) :   0.9488
B( 19-C , 36-H ) :   0.9449 B( 19-C , 37-H ) :   0.9578

Dispersion correction           -0.017566180
FINAL SINGLE POINT ENERGY     -1981.469250603456

DIPOLE MOMENT
-------------

Method             : SCF
Type of density    : Electron Density
Multiplicity       :   1
Irrep              :   0
Energy             : -1981.4888451424035338 Eh
Relativity type    :
Basis              : AO
                                X                 Y                 Z
Electronic contribution:    -11.806906814       6.528056470      -6.363481810
Nuclear contribution   :     12.131273260      -9.252607502       6.822675507
                        -----------------------------------------
Total Dipole Moment    :      0.324366446      -2.724551032       0.459193698
                        -----------------------------------------
Magnitude (a.u.)       :      2.781950892
Magnitude (Debye)      :      7.071157214

Rotational constants in cm-1:             0.013609             0.006776             0.005523
Rotational constants in MHz :           407.978339           203.131490           165.587902

                             ****ORCA TERMINATED NORMALLY****
TOTAL RUN TIME: 0 days 0 hours 1 minutes 50 seconds 279 msec
