                         Program Version 6.0.0  -   RELEASE  -
|  1> ! pbe def2-sv(p) def2/J RI DEFGRID1 loosescf d4 GCP(DFT/SV(P)) printgap
|  2> %output
|  3>     printlevel normal
|  4> end
|  5> * xyz 0 1
|  6> C 1.8164650454 -0.8791171628 2.7097538396
|  7> C 3.1327243759 -1.2970729342 2.0853779673
|  8> O 3.5058646999 -0.4429204298 0.99400597
|  9> P 2.8185046802 -0.5157860911 -0.4401444804
| 10> S 2.4520686957 -2.3328336277 -1.0701933173
| 11> O 3.8842711032 0.2028040019 -1.3517962503
| 12> C 4.1251780243 1.6275228832 -1.4451937889
| 13> C 4.3766986156 2.2695972727 -0.0986244708
| 14> S 1.151907221 0.8248386375 -0.4023698524
| 15> C -0.1626010476 -0.2932903704 -0.9449924262
| 16> S -1.1988529302 -0.9252726589 0.4069437115
| 17> P -2.9099116488 0.330630506 0.181645163
| 18> S -2.9045721255 1.5335733175 -1.3731521418
| 19> O -3.1433798007 1.0116480834 1.5899686176
| 20> C -2.5582563622 2.2733574007 1.9584559217
| 21> C -1.0909019072 2.1394424332 2.3139375518
| 22> O -4.139690509 -0.6614658334 0.2909931009
| 23> C -4.7136499887 -1.3066320472 -0.8582492516
| 24> C -3.7764983549 -2.3204587539 -1.4849317123
| 25> H 1.8356516562 0.180014606 2.9534109629
| 26> H 0.9935220339 -1.0727866789 2.0230867192
| 27> H 1.652168249 -1.4535626431 3.6156631038
| 28> H 3.0801404075 -2.3286929435 1.7218884418
| 29> H 3.9594439988 -1.1964005396 2.7904333921
| 30> H 5.0006263224 1.688445552 -2.093450226
| 31> H 3.265022688 2.0861060136 -1.9399140072
| 32> H 5.1881784395 1.7618605076 0.4158197355
| 33> H 4.6393164134 3.3125222159 -0.246732023
| 34> H 3.478925683 2.2145826833 0.5144746836
| 35> H 0.2986666674 -1.1565290537 -1.4283221332
| 36> H -0.7962365909 0.2689333786 -1.6337401933
| 37> H -2.6973202291 2.9800860605 1.1334934905
| 38> H -3.1498989407 2.5917127745 2.8183610076
| 39> H -0.5034131275 1.9168299635 1.4242167043
| 40> H -0.7396173697 3.0748842507 2.7373688944
| 41> H -0.9544974323 1.3409820213 3.0389742195
| 42> H -5.612849479 -1.78355161 -0.4657125677
| 43> H -4.9910219639 -0.5378397828 -1.5868633246
| 44> H -4.3092767561 -2.8746642944 -2.2511642814
| 45> H -2.9275529385 -1.8159320114 -1.9449529788
| 46> H -3.4080314087 -3.0122139646 -0.7312837925
| 47> *
| 48>
| 49>                          ****END OF INPUT****

CARTESIAN COORDINATES (ANGSTROEM)
---------------------------------
  C      1.816465   -0.879117    2.709754
  C      3.132724   -1.297073    2.085378
  O      3.505865   -0.442920    0.994006
  P      2.818505   -0.515786   -0.440144
  S      2.452069   -2.332834   -1.070193
  O      3.884271    0.202804   -1.351796
  C      4.125178    1.627523   -1.445194
  C      4.376699    2.269597   -0.098624
  S      1.151907    0.824839   -0.402370
  C     -0.162601   -0.293290   -0.944992
  S     -1.198853   -0.925273    0.406944
  P     -2.909912    0.330631    0.181645
  S     -2.904572    1.533573   -1.373152
  O     -3.143380    1.011648    1.589969
  C     -2.558256    2.273357    1.958456
  C     -1.090902    2.139442    2.313938
  O     -4.139691   -0.661466    0.290993
  C     -4.713650   -1.306632   -0.858249
  C     -3.776498   -2.320459   -1.484932
  H      1.835652    0.180015    2.953411
  H      0.993522   -1.072787    2.023087
  H      1.652168   -1.453563    3.615663
  H      3.080140   -2.328693    1.721888
  H      3.959444   -1.196401    2.790433
  H      5.000626    1.688446   -2.093450
  H      3.265023    2.086106   -1.939914
  H      5.188178    1.761861    0.415820
  H      4.639316    3.312522   -0.246732
  H      3.478926    2.214583    0.514475
  H      0.298667   -1.156529   -1.428322
  H     -0.796237    0.268933   -1.633740
  H     -2.697320    2.980086    1.133493
  H     -3.149899    2.591713    2.818361
  H     -0.503413    1.916830    1.424217
  H     -0.739617    3.074884    2.737369
  H     -0.954497    1.340982    3.038974
  H     -5.612849   -1.783552   -0.465713
  H     -4.991022   -0.537840   -1.586863
  H     -4.309277   -2.874664   -2.251164
  H     -2.927553   -1.815932   -1.944953
  H     -3.408031   -3.012214   -0.731284

 Total Charge           Charge          ....    0
 Multiplicity           Mult            ....    1
 Number of Electrons    NEL             ....  202
 Basis Dimension        Dim             ....  334

ORBITAL ENERGIES
----------------

  NO   OCC          E(Eh)            E(eV)
   0   2.0000     -88.048364     -2395.9178
   1   2.0000     -88.046669     -2395.8717
   2   2.0000     -87.997268     -2394.5274
   3   2.0000     -87.989598     -2394.3187
   4   2.0000     -76.430466     -2079.7787
   5   2.0000     -76.429255     -2079.7458
   6   2.0000     -18.793960      -511.4096
   7   2.0000     -18.793249      -511.3903
   8   2.0000     -18.791122      -511.3324
   9   2.0000     -18.790943      -511.3276
  10   2.0000      -9.960585      -271.0413
  11   2.0000      -9.954416      -270.8734
  12   2.0000      -9.954100      -270.8648
  13   2.0000      -9.952622      -270.8246
  14   2.0000      -9.951527      -270.7948
  15   2.0000      -9.892976      -269.2016
  16   2.0000      -9.884849      -268.9804
  17   2.0000      -9.884475      -268.9703
  18   2.0000      -9.883659      -268.9480
  19   2.0000      -7.692405      -209.3210
  20   2.0000      -7.690855      -209.2788
  21   2.0000      -7.642040      -207.9505
  22   2.0000      -7.634725      -207.7514
  23   2.0000      -6.427964      -174.9138
  24   2.0000      -6.426780      -174.8816
  25   2.0000      -5.720181      -155.6540
  26   2.0000      -5.718636      -155.6120
  27   2.0000      -5.716852      -155.5635
  28   2.0000      -5.715383      -155.5235
  29   2.0000      -5.709708      -155.3691
  30   2.0000      -5.708028      -155.3234
  31   2.0000      -5.670724      -154.3082
  32   2.0000      -5.663666      -154.1162
  33   2.0000      -5.662655      -154.0887
  34   2.0000      -5.662485      -154.0841
  35   2.0000      -5.655353      -153.8900
  36   2.0000      -5.654822      -153.8755
  37   2.0000      -4.650075      -126.5350
  38   2.0000      -4.649918      -126.5307
  39   2.0000      -4.649401      -126.5166
  40   2.0000      -4.648598      -126.4948
  41   2.0000      -4.648472      -126.4913
  42   2.0000      -4.647264      -126.4585
  43   2.0000      -0.990750       -26.9597
  44   2.0000      -0.988941       -26.9105
  45   2.0000      -0.947447       -25.7813
  46   2.0000      -0.946359       -25.7517
  47   2.0000      -0.762524       -20.7493
  48   2.0000      -0.724025       -19.7017
  49   2.0000      -0.714688       -19.4477
  50   2.0000      -0.692937       -18.8558
  51   2.0000      -0.684591       -18.6287
  52   2.0000      -0.682248       -18.5649
  53   2.0000      -0.654653       -17.8140
  54   2.0000      -0.641491       -17.4559
  55   2.0000      -0.607778       -16.5385
  56   2.0000      -0.600237       -16.3333
  57   2.0000      -0.577981       -15.7277
  58   2.0000      -0.570616       -15.5273
  59   2.0000      -0.560412       -15.2496
  60   2.0000      -0.497864       -13.5476
  61   2.0000      -0.495856       -13.4929
  62   2.0000      -0.475426       -12.9370
  63   2.0000      -0.469060       -12.7638
  64   2.0000      -0.461793       -12.5660
  65   2.0000      -0.451466       -12.2850
  66   2.0000      -0.443971       -12.0811
  67   2.0000      -0.440143       -11.9769
  68   2.0000      -0.433402       -11.7935
  69   2.0000      -0.422813       -11.5053
  70   2.0000      -0.409875       -11.1533
  71   2.0000      -0.402267       -10.9462
  72   2.0000      -0.398486       -10.8434
  73   2.0000      -0.391278       -10.6472
  74   2.0000      -0.388055       -10.5595
  75   2.0000      -0.374832       -10.1997
  76   2.0000      -0.369008       -10.0412
  77   2.0000      -0.358387        -9.7522
  78   2.0000      -0.357002        -9.7145
  79   2.0000      -0.353414        -9.6169
  80   2.0000      -0.352131        -9.5820
  81   2.0000      -0.347234        -9.4487
  82   2.0000      -0.343175        -9.3383
  83   2.0000      -0.341228        -9.2853
  84   2.0000      -0.339092        -9.2272
  85   2.0000      -0.320068        -8.7095
  86   2.0000      -0.311133        -8.4664
  87   2.0000      -0.301677        -8.2091
  88   2.0000      -0.297434        -8.0936
  89   2.0000      -0.294790        -8.0216
  90   2.0000      -0.290231        -7.8976
  91   2.0000      -0.276129        -7.5139
  92   2.0000      -0.269997        -7.3470
  93   2.0000      -0.266945        -7.2640
  94   2.0000      -0.259680        -7.0662
  95   2.0000      -0.230967        -6.2849
  96   2.0000      -0.223895        -6.0925
  97   2.0000      -0.217476        -5.9178
  98   2.0000      -0.212690        -5.7876
  99   2.0000      -0.208348        -5.6694
 100   2.0000      -0.204410        -5.5623
 101   0.0000      -0.046356        -1.2614
 102   0.0000      -0.040995        -1.1155
 103   0.0000      -0.020530        -0.5586
 104   0.0000       0.002917         0.0794
 105   0.0000       0.008992         0.2447

MULLIKEN ATOMIC CHARGES
-----------------------
   0 C :   -0.332151
   1 C :   -0.000800
   2 O :   -0.371875
   3 P :    0.601218
   4 S :   -0.305302
   5 O :   -0.358746
   6 C :   -0.004775
   7 C :   -0.317071
   8 S :   -0.123928
   9 C :   -0.349400
  10 S :   -0.094503
  11 P :    0.599303
  12 S :   -0.328780
  13 O :   -0.354595
  14 C :    0.000360
  15 C :   -0.330395
  16 O :   -0.358486
  17 C :    0.001089
  18 C :   -0.316629
  19 H :    0.117970
  20 H :    0.140830
  21 H :    0.111570
  22 H :    0.112639
  23 H :    0.103728
  24 H :    0.114428
  25 H :    0.115805
  26 H :    0.126772
  27 H :    0.117056
  28 H :    0.125253
  29 H :    0.195648
  30 H :    0.195160
  31 H :    0.110124
  32 H :    0.107527
  33 H :    0.137882
  34 H :    0.109384
  35 H :    0.121915
  36 H :    0.108733
  37 H :    0.111891
  38 H :    0.114123
  39 H :    0.123644
  40 H :    0.123382
Sum of atomic charges:    0.0000000

LOEWDIN ATOMIC CHARGES
----------------------
   0 C :   -0.370422
   1 C :   -0.118690
   2 O :   -0.242640
   3 P :    0.569587
   4 S :   -0.298588
   5 O :   -0.235770
   6 C :   -0.114049
   7 C :   -0.367111
   8 S :    0.083196
   9 C :   -0.491806
  10 S :    0.094912
  11 P :    0.571149
  12 S :   -0.308232
  13 O :   -0.234701
  14 C :   -0.115387
  15 C :   -0.370723
  16 O :   -0.236149
  17 C :   -0.115611
  18 C :   -0.368709
  19 H :    0.124448
  20 H :    0.111707
  21 H :    0.130950
  22 H :    0.110999
  23 H :    0.118063
  24 H :    0.124696
  25 H :    0.111440
  26 H :    0.130961
  27 H :    0.133152
  28 H :    0.117368
  29 H :    0.125513
  30 H :    0.123612
  31 H :    0.109797
  32 H :    0.119944
  33 H :    0.109905
  34 H :    0.129829
  35 H :    0.126909
  36 H :    0.120840
  37 H :    0.111345
  38 H :    0.131266
  39 H :    0.120218
  40 H :    0.126783

  Mayer bond orders larger than 0.100000
B(  0-C ,  1-C ) :   1.1606 B(  0-C , 19-H ) :   0.9440 B(  0-C , 20-H ) :   0.9272
B(  0-C , 21-H ) :   0.9379 B(  1-C ,  2-O ) :   0.9126 B(  1-C , 22-H ) :   0.9130
B(  1-C , 23-H ) :   0.9334 B(  2-O ,  3-P ) :   1.0894 B(  3-P ,  4-S ) :   1.6301
B(  3-P ,  5-O ) :   1.1486 B(  3-P ,  8-S ) :   0.9384 B(  4-S ,  8-S ) :   0.1114
B(  4-S , 29-H ) :   0.1128 B(  5-O ,  6-C ) :   0.9025 B(  6-C ,  7-C ) :   1.1688
B(  6-C , 24-H ) :   0.9333 B(  6-C , 25-H ) :   0.9212 B(  7-C , 26-H ) :   0.9421
B(  7-C , 27-H ) :   0.9347 B(  7-C , 28-H ) :   0.9371 B(  8-S ,  9-C ) :   1.0159
B(  9-C , 10-S ) :   1.0143 B(  9-C , 29-H ) :   0.8503 B(  9-C , 30-H ) :   0.8518
B( 10-S , 11-P ) :   0.9479 B( 10-S , 12-S ) :   0.1220 B( 11-P , 12-S ) :   1.5872
B( 11-P , 13-O ) :   1.1333 B( 11-P , 16-O ) :   1.1293 B( 12-S , 30-H ) :   0.1093
B( 13-O , 14-C ) :   0.9159 B( 14-C , 15-C ) :   1.1612 B( 14-C , 31-H ) :   0.9154
B( 14-C , 32-H ) :   0.9341 B( 15-C , 33-H ) :   0.9286 B( 15-C , 34-H ) :   0.9377
B( 15-C , 35-H ) :   0.9429 B( 16-O , 17-C ) :   0.9145 B( 17-C , 18-C ) :   1.1634
B( 17-C , 36-H ) :   0.9344 B( 17-C , 37-H ) :   0.9191 B( 18-C , 38-H ) :   0.9376
B( 18-C , 39-H ) :   0.9403 B( 18-C , 40-H ) :   0.9426

Dispersion correction           -0.063898841
FINAL SINGLE POINT ENERGY     -2929.518903537884

DIPOLE MOMENT
-------------

Method             : SCF
Type of density    : Electron Density
Multiplicity       :   1
Irrep              :   0
Energy             : -2929.6400664825459899 Eh
Relativity type    :
Basis              : AO
                                X                 Y                 Z
Electronic contribution:     -2.996832626      -5.236767949      -9.615371565
Nuclear contribution   :      3.195508864       5.995503590      10.517413671
                        -----------------------------------------
Total Dipole Moment    :      0.198676239       0.758735640       0.902042106
                        -----------------------------------------
Magnitude (a.u.)       :      1.195337601
Magnitude (Debye)      :      3.038306723

Rotational constants in cm-1:             0.012326             0.004369             0.004096
Rotational constants in MHz :           369.527477           130.976779           122.792092

                             ****ORCA TERMINATED NORMALLY****
TOTAL RUN TIME: 0 days 0 hours 0 minutes 21 seconds 24 msec
