                         Program Version 6.0.0  -   RELEASE  -
|  1> ! pbe def2-sv(p) def2/J RI DEFGRID1 loosescf d4 GCP(DFT/SV(P)) printgap
|  2> %output
|  3>     printlevel normal
|  4> end
|  5> * xyz 0 1
|  6> C 3.6986934564 -1.8705713192 -2.2600273511
|  7> C 3.9778171066 -0.3904103821 -2.1025506284
|  8> O 3.547537319 0.1109800913 -0.8241210206
|  9> P 2.0163742911 0.1670829978 -0.4042047501
| 10> S 0.7946467191 0.7030208652 -1.839156493
| 11> O 2.0147864033 1.2058052633 0.7820850517
| 12> C 3.1069739596 1.4751176369 1.6945904085
| 13> C 3.4563612172 0.2860890861 2.5644533202
| 14> S 1.6671423928 -1.7451117535 0.4595329712
| 15> C 0.0467855148 -1.4433699425 1.2046056381
| 16> S -1.3266740285 -1.4716833395 0.0125623646
| 17> P -2.0995879269 0.5019466386 0.2473839539
| 18> S -1.1099755325 1.6365562661 1.5011242161
| 19> O -3.6395275588 0.2397594783 0.576682219
| 20> C -4.1403881101 -0.6636481323 1.5768312905
| 21> C -3.749728446 -0.255613355 2.9825688448
| 22> O -2.2337521108 1.2362708838 -1.1353334381
| 23> C -3.1325733702 0.8853272435 -2.2143693888
| 24> C -2.8170016113 -0.4688020341 -2.8131106592
| 25> H 2.6239327552 -2.042403496 -2.3011374785
| 26> H 4.1459771511 -2.2228083445 -3.1839059755
| 27> H 4.1108242041 -2.4271248539 -1.4221907767
| 28> H 3.4704508949 0.1820657923 -2.8853374157
| 29> H 5.0472702434 -0.1754632065 -2.1169741204
| 30> H 3.9680399522 1.7969913802 1.105966486
| 31> H 2.7255052781 2.3087731504 2.2871169548
| 32> H 2.5774265157 -0.0628069135 3.1009891653
| 33> H 3.8508777477 -0.5264880167 1.9586056536
| 34> H 4.2110583651 0.5911051126 3.2828117512
| 35> H 0.0426508842 -0.4682060939 1.7028362222
| 36> H -0.1074008135 -2.2571423178 1.9080691587
| 37> H -5.222293644 -0.6224750662 1.4381701158
| 38> H -3.775521214 -1.6692022919 1.3475887291
| 39> H -2.6694546177 -0.307660499 3.1058047661
| 40> H -4.0644694959 0.7660165084 3.1806722469
| 41> H -4.2229940877 -0.9235324632 3.6948879094
| 42> H -4.1548832518 0.9250423915 -1.832813749
| 43> H -2.969403454 1.6867670212 -2.936715984
| 44> H -1.7627340691 -0.5180958358 -3.0784053848
| 45> H -3.0393594815 -1.2643562675 -2.1035329997
| 46> H -3.4179228999 -0.6116906365 -3.7055839239
| 47> *
| 48>
| 49>                          ****END OF INPUT****

CARTESIAN COORDINATES (ANGSTROEM)
---------------------------------
  C      3.698693   -1.870571   -2.260027
  C      3.977817   -0.390410   -2.102551
  O      3.547537    0.110980   -0.824121
  P      2.016374    0.167083   -0.404205
  S      0.794647    0.703021   -1.839156
  O      2.014786    1.205805    0.782085
  C      3.106974    1.475118    1.694590
  C      3.456361    0.286089    2.564453
  S      1.667142   -1.745112    0.459533
  C      0.046786   -1.443370    1.204606
  S     -1.326674   -1.471683    0.012562
  P     -2.099588    0.501947    0.247384
  S     -1.109976    1.636556    1.501124
  O     -3.639528    0.239759    0.576682
  C     -4.140388   -0.663648    1.576831
  C     -3.749728   -0.255613    2.982569
  O     -2.233752    1.236271   -1.135333
  C     -3.132573    0.885327   -2.214369
  C     -2.817002   -0.468802   -2.813111
  H      2.623933   -2.042403   -2.301137
  H      4.145977   -2.222808   -3.183906
  H      4.110824   -2.427125   -1.422191
  H      3.470451    0.182066   -2.885337
  H      5.047270   -0.175463   -2.116974
  H      3.968040    1.796991    1.105966
  H      2.725505    2.308773    2.287117
  H      2.577427   -0.062807    3.100989
  H      3.850878   -0.526488    1.958606
  H      4.211058    0.591105    3.282812
  H      0.042651   -0.468206    1.702836
  H     -0.107401   -2.257142    1.908069
  H     -5.222294   -0.622475    1.438170
  H     -3.775521   -1.669202    1.347589
  H     -2.669455   -0.307660    3.105805
  H     -4.064469    0.766017    3.180672
  H     -4.222994   -0.923532    3.694888
  H     -4.154883    0.925042   -1.832814
  H     -2.969403    1.686767   -2.936716
  H     -1.762734   -0.518096   -3.078405
  H     -3.039359   -1.264356   -2.103533
  H     -3.417923   -0.611691   -3.705584

 Total Charge           Charge          ....    0
 Multiplicity           Mult            ....    1
 Number of Electrons    NEL             ....  202
 Basis Dimension        Dim             ....  334

ORBITAL ENERGIES
----------------

  NO   OCC          E(Eh)            E(eV)
   0   2.0000     -88.038065     -2395.6375
   1   2.0000     -88.037696     -2395.6275
   2   2.0000     -87.974352     -2393.9038
   3   2.0000     -87.974128     -2393.8977
   4   2.0000     -76.420086     -2079.4962
   5   2.0000     -76.418733     -2079.4594
   6   2.0000     -18.791599      -511.3454
   7   2.0000     -18.784533      -511.1531
   8   2.0000     -18.782127      -511.0876
   9   2.0000     -18.780484      -511.0429
  10   2.0000      -9.952529      -270.8221
  11   2.0000      -9.951562      -270.7958
  12   2.0000      -9.951529      -270.7949
  13   2.0000      -9.951018      -270.7810
  14   2.0000      -9.948746      -270.7191
  15   2.0000      -9.884353      -268.9669
  16   2.0000      -9.884294      -268.9653
  17   2.0000      -9.881380      -268.8860
  18   2.0000      -9.879705      -268.8404
  19   2.0000      -7.683069      -209.0669
  20   2.0000      -7.682103      -209.0407
  21   2.0000      -7.619626      -207.3406
  22   2.0000      -7.619065      -207.3253
  23   2.0000      -6.417360      -174.6252
  24   2.0000      -6.415626      -174.5780
  25   2.0000      -5.710781      -155.3982
  26   2.0000      -5.709957      -155.3758
  27   2.0000      -5.707657      -155.3132
  28   2.0000      -5.706569      -155.2836
  29   2.0000      -5.700110      -155.1079
  30   2.0000      -5.699270      -155.0850
  31   2.0000      -5.648668      -153.7081
  32   2.0000      -5.648010      -153.6902
  33   2.0000      -5.640212      -153.4780
  34   2.0000      -5.639879      -153.4689
  35   2.0000      -5.639607      -153.4615
  36   2.0000      -5.638999      -153.4450
  37   2.0000      -4.640623      -126.2778
  38   2.0000      -4.638987      -126.2333
  39   2.0000      -4.638432      -126.2181
  40   2.0000      -4.637472      -126.1920
  41   2.0000      -4.637336      -126.1883
  42   2.0000      -4.635893      -126.1491
  43   2.0000      -0.983849       -26.7719
  44   2.0000      -0.979648       -26.6576
  45   2.0000      -0.939853       -25.5747
  46   2.0000      -0.934411       -25.4266
  47   2.0000      -0.756977       -20.5984
  48   2.0000      -0.715113       -19.4592
  49   2.0000      -0.707163       -19.2429
  50   2.0000      -0.689066       -18.7504
  51   2.0000      -0.684987       -18.6394
  52   2.0000      -0.675058       -18.3693
  53   2.0000      -0.646606       -17.5950
  54   2.0000      -0.628441       -17.1007
  55   2.0000      -0.591541       -16.0966
  56   2.0000      -0.583965       -15.8905
  57   2.0000      -0.576784       -15.6951
  58   2.0000      -0.574827       -15.6418
  59   2.0000      -0.557116       -15.1599
  60   2.0000      -0.492815       -13.4102
  61   2.0000      -0.492167       -13.3925
  62   2.0000      -0.467136       -12.7114
  63   2.0000      -0.464865       -12.6496
  64   2.0000      -0.451220       -12.2783
  65   2.0000      -0.446074       -12.1383
  66   2.0000      -0.439249       -11.9526
  67   2.0000      -0.432130       -11.7589
  68   2.0000      -0.423259       -11.5175
  69   2.0000      -0.423154       -11.5146
  70   2.0000      -0.409322       -11.1382
  71   2.0000      -0.401235       -10.9181
  72   2.0000      -0.395566       -10.7639
  73   2.0000      -0.386031       -10.5044
  74   2.0000      -0.376611       -10.2481
  75   2.0000      -0.364736        -9.9250
  76   2.0000      -0.354767        -9.6537
  77   2.0000      -0.351822        -9.5736
  78   2.0000      -0.349720        -9.5164
  79   2.0000      -0.348941        -9.4952
  80   2.0000      -0.346188        -9.4203
  81   2.0000      -0.340450        -9.2641
  82   2.0000      -0.337382        -9.1806
  83   2.0000      -0.334055        -9.0901
  84   2.0000      -0.331007        -9.0072
  85   2.0000      -0.317305        -8.6343
  86   2.0000      -0.309386        -8.4188
  87   2.0000      -0.293184        -7.9779
  88   2.0000      -0.291111        -7.9215
  89   2.0000      -0.289893        -7.8884
  90   2.0000      -0.282191        -7.6788
  91   2.0000      -0.269296        -7.3279
  92   2.0000      -0.266683        -7.2568
  93   2.0000      -0.256966        -6.9924
  94   2.0000      -0.251660        -6.8480
  95   2.0000      -0.234196        -6.3728
  96   2.0000      -0.216934        -5.9031
  97   2.0000      -0.196805        -5.3553
  98   2.0000      -0.191677        -5.2158
  99   2.0000      -0.184829        -5.0294
 100   2.0000      -0.181016        -4.9257
 101   0.0000      -0.034769        -0.9461
 102   0.0000      -0.028369        -0.7720
 103   0.0000      -0.010871        -0.2958
 104   0.0000       0.004001         0.1089
 105   0.0000       0.020126         0.5477

MULLIKEN ATOMIC CHARGES
-----------------------
   0 C :   -0.327399
   1 C :    0.002509
   2 O :   -0.386237
   3 P :    0.607493
   4 S :   -0.301107
   5 O :   -0.351628
   6 C :    0.010592
   7 C :   -0.320991
   8 S :   -0.107845
   9 C :   -0.349795
  10 S :   -0.114737
  11 P :    0.619680
  12 S :   -0.298578
  13 O :   -0.384614
  14 C :   -0.005419
  15 C :   -0.302822
  16 O :   -0.343770
  17 C :    0.003572
  18 C :   -0.332430
  19 H :    0.134408
  20 H :    0.115334
  21 H :    0.117776
  22 H :    0.112978
  23 H :    0.103247
  24 H :    0.107254
  25 H :    0.112838
  26 H :    0.122437
  27 H :    0.124388
  28 H :    0.111252
  29 H :    0.197835
  30 H :    0.176854
  31 H :    0.102515
  32 H :    0.102226
  33 H :    0.118155
  34 H :    0.122928
  35 H :    0.106154
  36 H :    0.107209
  37 H :    0.110747
  38 H :    0.143799
  39 H :    0.121440
  40 H :    0.111752
Sum of atomic charges:    0.0000000

LOEWDIN ATOMIC CHARGES
----------------------
   0 C :   -0.373549
   1 C :   -0.117772
   2 O :   -0.248809
   3 P :    0.568316
   4 S :   -0.305142
   5 O :   -0.229867
   6 C :   -0.106285
   7 C :   -0.369529
   8 S :    0.075133
   9 C :   -0.489514
  10 S :    0.076330
  11 P :    0.569582
  12 S :   -0.290814
  13 O :   -0.251269
  14 C :   -0.120902
  15 C :   -0.367485
  16 O :   -0.221329
  17 C :   -0.108743
  18 C :   -0.370768
  19 H :    0.123865
  20 H :    0.132595
  21 H :    0.122997
  22 H :    0.112930
  23 H :    0.117759
  24 H :    0.114032
  25 H :    0.123892
  26 H :    0.126090
  27 H :    0.118383
  28 H :    0.130162
  29 H :    0.119381
  30 H :    0.134688
  31 H :    0.117546
  32 H :    0.100655
  33 H :    0.118086
  34 H :    0.129950
  35 H :    0.127254
  36 H :    0.112188
  37 H :    0.123579
  38 H :    0.131756
  39 H :    0.114012
  40 H :    0.130613

  Mayer bond orders larger than 0.100000
B(  0-C ,  1-C ) :   1.1660 B(  0-C , 19-H ) :   0.9309 B(  0-C , 20-H ) :   0.9371
B(  0-C , 21-H ) :   0.9434 B(  1-C ,  2-O ) :   0.9051 B(  1-C , 22-H ) :   0.9153
B(  1-C , 23-H ) :   0.9336 B(  2-O ,  3-P ) :   1.0678 B(  3-P ,  4-S ) :   1.6671
B(  3-P ,  5-O ) :   1.1316 B(  3-P ,  8-S ) :   0.9436 B(  4-S ,  8-S ) :   0.1127
B(  5-O ,  6-C ) :   0.9000 B(  6-C ,  7-C ) :   1.1700 B(  6-C , 24-H ) :   0.9278
B(  6-C , 25-H ) :   0.9333 B(  7-C , 26-H ) :   0.9447 B(  7-C , 27-H ) :   0.9378
B(  7-C , 28-H ) :   0.9359 B(  8-S ,  9-C ) :   0.9992 B(  9-C , 10-S ) :   0.9984
B(  9-C , 29-H ) :   0.8351 B(  9-C , 30-H ) :   0.9113 B( 10-S , 11-P ) :   0.9321
B( 10-S , 12-S ) :   0.1190 B( 11-P , 12-S ) :   1.6367 B( 11-P , 13-O ) :   1.0595
B( 11-P , 16-O ) :   1.1491 B( 12-S , 29-H ) :   0.1300 B( 13-O , 14-C ) :   0.9243
B( 14-C , 15-C ) :   1.1649 B( 14-C , 31-H ) :   0.9337 B( 14-C , 32-H ) :   0.9153
B( 15-C , 33-H ) :   0.9343 B( 15-C , 34-H ) :   0.9453 B( 15-C , 35-H ) :   0.9366
B( 16-O , 17-C ) :   0.9009 B( 17-C , 18-C ) :   1.1683 B( 17-C , 36-H ) :   0.9270
B( 17-C , 37-H ) :   0.9330 B( 18-C , 38-H ) :   0.9362 B( 18-C , 39-H ) :   0.9352
B( 18-C , 40-H ) :   0.9361

Dispersion correction           -0.068130605
FINAL SINGLE POINT ENERGY     -2929.507334089943

DIPOLE MOMENT
-------------

Method             : SCF
Type of density    : Electron Density
Multiplicity       :   1
Irrep              :   0
Energy             : -2929.6248261013238334 Eh
Relativity type    :
Basis              : AO
                                X                 Y                 Z
Electronic contribution:     -1.136090053       6.777179732      -2.305809733
Nuclear contribution   :      1.352040944      -7.888821602       2.516792836
                        -----------------------------------------
Total Dipole Moment    :      0.215950891      -1.111641870       0.210983103
                        -----------------------------------------
Magnitude (a.u.)       :      1.151909851
Magnitude (Debye)      :      2.927922155

Rotational constants in cm-1:             0.012321             0.005608             0.004900
Rotational constants in MHz :           369.373670           168.114934           146.901330

                             ****ORCA TERMINATED NORMALLY****
TOTAL RUN TIME: 0 days 0 hours 0 minutes 21 seconds 324 msec
