                         Program Version 6.0.0  -   RELEASE  -
|  1> ! r2scan-3c def2/J RI DEFGRID2 scfconv6 printgap
|  2> %output
|  3>     printlevel normal
|  4> end
|  5> %cpcm
|  6>     smd true
|  7>     smdsolvent "water"
|  8> end
|  9> * xyz 0 1
| 10> C -2.1291560114 -1.2591446308 -0.1437322741
| 11> C -1.5045564303 -1.24752e-05 0.4155394044
| 12> C -2.1284428483 1.259473229 -0.1436914104
| 13> I 0.6670253414 -4.01046e-05 -0.0106801214
| 14> H -2.0472288824 -1.285131817 -1.2284118818
| 15> H -1.6574818001 -2.1510668507 0.2623535123
| 16> H -3.1848130731 -1.2767602296 0.1227874613
| 17> H -1.5428746224 -3.79333e-05 1.5044816644
| 18> H -3.1844766774 1.2769843761 0.1213178927
| 19> H -2.0448711537 1.286227481 -1.2282283739
| 20> H -1.6573817126 2.1510673693 0.2637357479
| 21> *
| 22>
| 23>                          ****END OF INPUT****

CARTESIAN COORDINATES (ANGSTROEM)
---------------------------------
  C     -2.129156   -1.259145   -0.143732
  C     -1.504556   -0.000012    0.415539
  C     -2.128443    1.259473   -0.143691
  I      0.667025   -0.000040   -0.010680
  H     -2.047229   -1.285132   -1.228412
  H     -1.657482   -2.151067    0.262354
  H     -3.184813   -1.276760    0.122787
  H     -1.542875   -0.000038    1.504482
  H     -3.184477    1.276984    0.121318
  H     -2.044871    1.286227   -1.228228
  H     -1.657382    2.151067    0.263736

 Total Charge           Charge          ....    0
 Multiplicity           Mult            ....    1
 Number of Electrons    NEL             ....   50
 Basis Dimension        Dim             ....  128

ORBITAL ENERGIES
----------------

  NO   OCC          E(Eh)            E(eV)
   0   2.0000     -10.083870      -274.3961
   1   2.0000     -10.021122      -272.6886
   2   2.0000     -10.021111      -272.6883
   3   2.0000      -6.798408      -184.9941
   4   2.0000      -4.815368      -131.0328
   5   2.0000      -4.801540      -130.6565
   6   2.0000      -4.801522      -130.6561
   7   2.0000      -1.850996       -50.3682
   8   2.0000      -1.847449       -50.2716
   9   2.0000      -1.847382       -50.2698
  10   2.0000      -1.836266       -49.9673
  11   2.0000      -1.836254       -49.9670
  12   2.0000      -0.769437       -20.9375
  13   2.0000      -0.656504       -17.8644
  14   2.0000      -0.641484       -17.4557
  15   2.0000      -0.537498       -14.6261
  16   2.0000      -0.428284       -11.6542
  17   2.0000      -0.407479       -11.0881
  18   2.0000      -0.381127       -10.3710
  19   2.0000      -0.355471        -9.6729
  20   2.0000      -0.320129        -8.7112
  21   2.0000      -0.319192        -8.6857
  22   2.0000      -0.284795        -7.7497
  23   2.0000      -0.232295        -6.3211
  24   2.0000      -0.231874        -6.3096
  25   0.0000      -0.051293        -1.3958
  26   0.0000       0.104781         2.8512
  27   0.0000       0.131082         3.5669
  28   0.0000       0.138397         3.7660
  29   0.0000       0.145485         3.9589

MULLIKEN ATOMIC CHARGES
-----------------------
   0 C :   -0.466535
   1 C :   -0.036243
   2 C :   -0.466535
   3 I :   -0.243877
   4 H :    0.170774
   5 H :    0.169728
   6 H :    0.167599
   7 H :    0.196982
   8 H :    0.167540
   9 H :    0.170832
  10 H :    0.169733
Sum of atomic charges:    0.0000000

LOEWDIN ATOMIC CHARGES
----------------------
   0 C :   -0.427908
   1 C :   -0.311530
   2 C :   -0.427937
   3 I :    0.005091
   4 H :    0.163079
   5 H :    0.162588
   6 H :    0.168616
   7 H :    0.173745
   8 H :    0.168596
   9 H :    0.163082
  10 H :    0.162578

  Mayer bond orders larger than 0.100000
B(  0-C ,  1-C ) :   0.9137 B(  0-C ,  4-H ) :   0.9741 B(  0-C ,  5-H ) :   0.9646
B(  0-C ,  6-H ) :   0.9463 B(  1-C ,  2-C ) :   0.9137 B(  1-C ,  3-I ) :   0.8948
B(  1-C ,  7-H ) :   0.9337 B(  2-C ,  8-H ) :   0.9463 B(  2-C ,  9-H ) :   0.9741
B(  2-C , 10-H ) :   0.9646

Dispersion correction           -0.002597241
FINAL SINGLE POINT ENERGY      -416.235760297043

DIPOLE MOMENT
-------------

Method             : SCF
Type of density    : Electron Density
Multiplicity       :   1
Irrep              :   0
Energy             :  -416.2382344201249680 Eh
Relativity type    :
Basis              : AO
                                X                 Y                 Z
Electronic contribution:     61.459580656      -0.004032938      -0.413007214
Nuclear contribution   :    -62.766940161       0.004112838       0.604157685
                        -----------------------------------------
Total Dipole Moment    :     -1.307359505       0.000079901       0.191150472
                        -----------------------------------------
Magnitude (a.u.)       :      1.321259772
Magnitude (Debye)      :      3.358375445

Rotational constants in cm-1:             0.271371             0.071005             0.059488
Rotational constants in MHz :          8135.488368          2128.690894          1783.405339

                             ****ORCA TERMINATED NORMALLY****
TOTAL RUN TIME: 0 days 0 hours 0 minutes 14 seconds 868 msec
