                         Program Version 6.0.0  -   RELEASE  -
|  1> ! r2scan-3c def2/J RI DEFGRID2 scfconv6 printgap
|  2> %output
|  3>     printlevel normal
|  4> end
|  5> * xyz 0 1
|  6> C -2.6164369279 0.5524468417 0.0003471129
|  7> C -1.2355777253 -0.0392777217 -0.0001878399
|  8> C -1.1487799545 -1.4318731846 -0.0001217366
|  9> C 0.0689261458 -2.0768113144 -4.11468e-05
| 10> C 1.2381713983 -1.3357633094 7.3343e-05
| 11> C 1.1678061616 0.0473498409 7.4477e-06
| 12> C -0.0669388831 0.7160240575 -0.0004970357
| 13> C -0.0035411621 2.2156768745 -0.0001224759
| 14> O 2.2944820477 0.8191913334 0.0002370291
| 15> H -3.1600001957 0.2102266619 0.8795256512
| 16> H -2.6126591749 1.6359798269 0.0023175036
| 17> H -3.1597852839 0.2129124138 -0.8800779412
| 18> H -2.0612962396 -2.0097060833 7.27907e-05
| 19> H 0.1159409422 -3.1553237554 0.0001158817
| 20> H 2.1992514152 -1.830100218 0.0002887841
| 21> H 0.565312208 2.5534473256 -0.8654746419
| 22> H -0.9816696426 2.6807259115 -0.0202649625
| 23> H 0.529950727 2.5549600327 0.8871085808
| 24> H 3.0829385488 0.2573448682 -0.0009113615
| 25> *
| 26>
| 27>                          ****END OF INPUT****

CARTESIAN COORDINATES (ANGSTROEM)
---------------------------------
  C     -2.616437    0.552447    0.000347
  C     -1.235578   -0.039278   -0.000188
  C     -1.148780   -1.431873   -0.000122
  C      0.068926   -2.076811   -0.000041
  C      1.238171   -1.335763    0.000073
  C      1.167806    0.047350    0.000007
  C     -0.066939    0.716024   -0.000497
  C     -0.003541    2.215677   -0.000122
  O      2.294482    0.819191    0.000237
  H     -3.160000    0.210227    0.879526
  H     -2.612659    1.635980    0.002318
  H     -3.159785    0.212912   -0.880078
  H     -2.061296   -2.009706    0.000073
  H      0.115941   -3.155324    0.000116
  H      2.199251   -1.830100    0.000289
  H      0.565312    2.553447   -0.865475
  H     -0.981670    2.680726   -0.020265
  H      0.529951    2.554960    0.887109
  H      3.082939    0.257345   -0.000911

 Total Charge           Charge          ....    0
 Multiplicity           Mult            ....    1
 Number of Electrons    NEL             ....   66
 Basis Dimension        Dim             ....  226

ORBITAL ENERGIES
----------------

  NO   OCC          E(Eh)            E(eV)
   0   2.0000     -18.983264      -516.5609
   1   2.0000     -10.088864      -274.5320
   2   2.0000     -10.038943      -273.1735
   3   2.0000     -10.035043      -273.0674
   4   2.0000     -10.028394      -272.8865
   5   2.0000     -10.026505      -272.8351
   6   2.0000     -10.023998      -272.7669
   7   2.0000     -10.019664      -272.6489
   8   2.0000     -10.017603      -272.5928
   9   2.0000      -1.026342       -27.9282
  10   2.0000      -0.822652       -22.3855
  11   2.0000      -0.744318       -20.2539
  12   2.0000      -0.725557       -19.7434
  13   2.0000      -0.661785       -18.0081
  14   2.0000      -0.639260       -17.3952
  15   2.0000      -0.580738       -15.8027
  16   2.0000      -0.548025       -14.9125
  17   2.0000      -0.492573       -13.4036
  18   2.0000      -0.455712       -12.4005
  19   2.0000      -0.447925       -12.1887
  20   2.0000      -0.404639       -11.0108
  21   2.0000      -0.395441       -10.7605
  22   2.0000      -0.379589       -10.3292
  23   2.0000      -0.372243       -10.1292
  24   2.0000      -0.367277        -9.9941
  25   2.0000      -0.354602        -9.6492
  26   2.0000      -0.352932        -9.6038
  27   2.0000      -0.339589        -9.2407
  28   2.0000      -0.313807        -8.5391
  29   2.0000      -0.299455        -8.1486
  30   2.0000      -0.295669        -8.0455
  31   2.0000      -0.217964        -5.9311
  32   2.0000      -0.197078        -5.3628
  33   0.0000      -0.020020        -0.5448
  34   0.0000      -0.013436        -0.3656
  35   0.0000       0.056645         1.5414
  36   0.0000       0.086578         2.3559
  37   0.0000       0.096642         2.6298

MULLIKEN ATOMIC CHARGES
-----------------------
   0 C :   -0.540993
   1 C :    0.233599
   2 C :   -0.261972
   3 C :   -0.133973
   4 C :   -0.374957
   5 C :    0.449007
   6 C :   -0.095945
   7 C :   -0.528880
   8 O :   -0.409539
   9 H :    0.162287
  10 H :    0.139603
  11 H :    0.162465
  12 H :    0.144857
  13 H :    0.144409
  14 H :    0.132945
  15 H :    0.167971
  16 H :    0.132330
  17 H :    0.168445
  18 H :    0.308342
Sum of atomic charges:    0.0000000

LOEWDIN ATOMIC CHARGES
----------------------
   0 C :   -0.388543
   1 C :   -0.085584
   2 C :   -0.186697
   3 C :   -0.157549
   4 C :   -0.180585
   5 C :    0.190427
   6 C :   -0.073709
   7 C :   -0.371299
   8 O :   -0.513039
   9 H :    0.165992
  10 H :    0.154485
  11 H :    0.165981
  12 H :    0.167531
  13 H :    0.166904
  14 H :    0.166707
  15 H :    0.171821
  16 H :    0.151856
  17 H :    0.171359
  18 H :    0.283940

  Mayer bond orders larger than 0.100000
B(  0-C ,  1-C ) :   0.7569 B(  0-C ,  9-H ) :   0.9774 B(  0-C , 10-H ) :   0.9920
B(  0-C , 11-H ) :   0.9776 B(  1-C ,  2-C ) :   1.3177 B(  1-C ,  6-C ) :   1.5137
B(  2-C ,  3-C ) :   1.4654 B(  2-C , 12-H ) :   0.9344 B(  3-C ,  4-C ) :   1.3763
B(  3-C , 13-H ) :   0.9410 B(  4-C ,  5-C ) :   1.2988 B(  4-C , 14-H ) :   0.9544
B(  5-C ,  6-C ) :   1.4573 B(  5-C ,  8-O ) :   0.9110 B(  6-C ,  7-C ) :   0.8418
B(  7-C , 15-H ) :   0.9788 B(  7-C , 16-H ) :   0.9815 B(  7-C , 17-H ) :   0.9783
B(  8-O , 18-H ) :   0.8845

Dispersion correction           -0.006305412
FINAL SINGLE POINT ENERGY      -386.001845131213

DIPOLE MOMENT
-------------

Method             : SCF
Type of density    : Electron Density
Multiplicity       :   1
Irrep              :   0
Energy             :  -386.0030709517526475 Eh
Relativity type    :
Basis              : AO
                                X                 Y                 Z
Electronic contribution:      5.303904671      -3.102681202      -0.002173996
Nuclear contribution   :     -5.109052241       2.930283312       0.002536836
                        -----------------------------------------
Total Dipole Moment    :      0.194852430      -0.172397890       0.000362840
                        -----------------------------------------
Magnitude (a.u.)       :      0.260170393
Magnitude (Debye)      :      0.661300585

Rotational constants in cm-1:             0.076409             0.058810             0.033645
Rotational constants in MHz :          2290.676405          1763.086321          1008.638968

                             ****ORCA TERMINATED NORMALLY****
TOTAL RUN TIME: 0 days 0 hours 0 minutes 23 seconds 2 msec
