                         Program Version 6.0.0  -   RELEASE  -
|  1> ! r2scan-3c def2/J RI DEFGRID2 scfconv6 printgap
|  2> %output
|  3>     printlevel normal
|  4> end
|  5> %cpcm
|  6>     smd true
|  7>     smdsolvent "water"
|  8> end
|  9> * xyz 0 1
| 10> C -2.6164369279 0.5524468417 0.0003471129
| 11> C -1.2355777253 -0.0392777217 -0.0001878399
| 12> C -1.1487799545 -1.4318731846 -0.0001217366
| 13> C 0.0689261458 -2.0768113144 -4.11468e-05
| 14> C 1.2381713983 -1.3357633094 7.3343e-05
| 15> C 1.1678061616 0.0473498409 7.4477e-06
| 16> C -0.0669388831 0.7160240575 -0.0004970357
| 17> C -0.0035411621 2.2156768745 -0.0001224759
| 18> O 2.2944820477 0.8191913334 0.0002370291
| 19> H -3.1600001957 0.2102266619 0.8795256512
| 20> H -2.6126591749 1.6359798269 0.0023175036
| 21> H -3.1597852839 0.2129124138 -0.8800779412
| 22> H -2.0612962396 -2.0097060833 7.27907e-05
| 23> H 0.1159409422 -3.1553237554 0.0001158817
| 24> H 2.1992514152 -1.830100218 0.0002887841
| 25> H 0.565312208 2.5534473256 -0.8654746419
| 26> H -0.9816696426 2.6807259115 -0.0202649625
| 27> H 0.529950727 2.5549600327 0.8871085808
| 28> H 3.0829385488 0.2573448682 -0.0009113615
| 29> *
| 30>
| 31>                          ****END OF INPUT****

CARTESIAN COORDINATES (ANGSTROEM)
---------------------------------
  C     -2.616437    0.552447    0.000347
  C     -1.235578   -0.039278   -0.000188
  C     -1.148780   -1.431873   -0.000122
  C      0.068926   -2.076811   -0.000041
  C      1.238171   -1.335763    0.000073
  C      1.167806    0.047350    0.000007
  C     -0.066939    0.716024   -0.000497
  C     -0.003541    2.215677   -0.000122
  O      2.294482    0.819191    0.000237
  H     -3.160000    0.210227    0.879526
  H     -2.612659    1.635980    0.002318
  H     -3.159785    0.212912   -0.880078
  H     -2.061296   -2.009706    0.000073
  H      0.115941   -3.155324    0.000116
  H      2.199251   -1.830100    0.000289
  H      0.565312    2.553447   -0.865475
  H     -0.981670    2.680726   -0.020265
  H      0.529951    2.554960    0.887109
  H      3.082939    0.257345   -0.000911

 Total Charge           Charge          ....    0
 Multiplicity           Mult            ....    1
 Number of Electrons    NEL             ....   66
 Basis Dimension        Dim             ....  226

ORBITAL ENERGIES
----------------

  NO   OCC          E(Eh)            E(eV)
   0   2.0000     -18.980601      -516.4884
   1   2.0000     -10.090063      -274.5646
   2   2.0000     -10.040232      -273.2086
   3   2.0000     -10.036916      -273.1184
   4   2.0000     -10.028331      -272.8848
   5   2.0000     -10.024367      -272.7769
   6   2.0000     -10.018220      -272.6096
   7   2.0000     -10.017340      -272.5857
   8   2.0000     -10.016626      -272.5663
   9   2.0000      -1.023702       -27.8564
  10   2.0000      -0.824548       -22.4371
  11   2.0000      -0.744137       -20.2490
  12   2.0000      -0.724798       -19.7227
  13   2.0000      -0.660040       -17.9606
  14   2.0000      -0.637233       -17.3400
  15   2.0000      -0.577788       -15.7224
  16   2.0000      -0.546830       -14.8800
  17   2.0000      -0.489125       -13.3098
  18   2.0000      -0.455355       -12.3908
  19   2.0000      -0.444736       -12.1019
  20   2.0000      -0.405463       -11.0332
  21   2.0000      -0.391498       -10.6532
  22   2.0000      -0.375374       -10.2144
  23   2.0000      -0.369356       -10.0507
  24   2.0000      -0.365339        -9.9414
  25   2.0000      -0.353255        -9.6126
  26   2.0000      -0.352977        -9.6050
  27   2.0000      -0.335162        -9.1202
  28   2.0000      -0.311880        -8.4867
  29   2.0000      -0.302773        -8.2389
  30   2.0000      -0.293877        -7.9968
  31   2.0000      -0.220985        -6.0133
  32   2.0000      -0.200834        -5.4650
  33   0.0000      -0.022233        -0.6050
  34   0.0000      -0.016972        -0.4618
  35   0.0000       0.074461         2.0262
  36   0.0000       0.095651         2.6028
  37   0.0000       0.108405         2.9498

MULLIKEN ATOMIC CHARGES
-----------------------
   0 C :   -0.556969
   1 C :    0.196706
   2 C :   -0.291276
   3 C :   -0.175958
   4 C :   -0.368860
   5 C :    0.381935
   6 C :   -0.099616
   7 C :   -0.565813
   8 O :   -0.449327
   9 H :    0.176824
  10 H :    0.161894
  11 H :    0.176942
  12 H :    0.173027
  13 H :    0.175917
  14 H :    0.179092
  15 H :    0.178511
  16 H :    0.160520
  17 H :    0.179858
  18 H :    0.366593
Sum of atomic charges:    0.0000000

LOEWDIN ATOMIC CHARGES
----------------------
   0 C :   -0.392925
   1 C :   -0.094753
   2 C :   -0.201994
   3 C :   -0.173847
   4 C :   -0.182032
   5 C :    0.179547
   6 C :   -0.085000
   7 C :   -0.378146
   8 O :   -0.527114
   9 H :    0.171642
  10 H :    0.161310
  11 H :    0.171637
  12 H :    0.176911
  13 H :    0.177185
  14 H :    0.184239
  15 H :    0.173479
  16 H :    0.161531
  17 H :    0.173311
  18 H :    0.305021

  Mayer bond orders larger than 0.100000
B(  0-C ,  1-C ) :   0.7747 B(  0-C ,  9-H ) :   0.9689 B(  0-C , 10-H ) :   0.9892
B(  0-C , 11-H ) :   0.9690 B(  1-C ,  2-C ) :   1.2947 B(  1-C ,  6-C ) :   1.4646
B(  2-C ,  3-C ) :   1.4131 B(  2-C , 12-H ) :   0.9525 B(  3-C ,  4-C ) :   1.3241
B(  3-C , 13-H ) :   0.9609 B(  4-C ,  5-C ) :   1.3073 B(  4-C , 14-H ) :   0.9690
B(  5-C ,  6-C ) :   1.4079 B(  5-C ,  8-O ) :   0.9300 B(  6-C ,  7-C ) :   0.8366
B(  7-C , 15-H ) :   0.9772 B(  7-C , 16-H ) :   0.9734 B(  7-C , 17-H ) :   0.9766
B(  8-O , 18-H ) :   0.8542

Dispersion correction           -0.006305412
FINAL SINGLE POINT ENERGY      -386.009812302619

DIPOLE MOMENT
-------------

Method             : SCF
Type of density    : Electron Density
Multiplicity       :   1
Irrep              :   0
Energy             :  -386.0110381231589258 Eh
Relativity type    :
Basis              : AO
                                X                 Y                 Z
Electronic contribution:      5.377981078      -3.196603985      -0.002096150
Nuclear contribution   :     -5.109052241       2.930283312       0.002536836
                        -----------------------------------------
Total Dipole Moment    :      0.268928837      -0.266320673       0.000440686
                        -----------------------------------------
Magnitude (a.u.)       :      0.378483308
Magnitude (Debye)      :      0.962028116

Rotational constants in cm-1:             0.076409             0.058810             0.033645
Rotational constants in MHz :          2290.676405          1763.086321          1008.638968

                             ****ORCA TERMINATED NORMALLY****
TOTAL RUN TIME: 0 days 0 hours 0 minutes 27 seconds 851 msec
