                         Program Version 6.0.1  -  RELEASE   -
|  1> ! pbe def2-sv(p) def2/J RI DEFGRID1 loosescf d4 GCP(DFT/SV(P)) printgap
|  2> %output
|  3>     printlevel normal
|  4> end
|  5> * xyz 0 1
|  6> C 5.0136144251 0.4410251365 -1.0111007906
|  7> C 4.6729053969 -1.0401693318 -1.0025583124
|  8> O 3.2567531788 -1.2245659914 -1.1990054445
|  9> C 2.495222857 -1.5001634587 -0.1604879442
| 10> O 2.8940861342 -1.6693967563 0.9690334401
| 11> C 1.034215081 -1.6002487479 -0.569217229
| 12> C 0.5458147707 -0.2566977943 -1.1189898777
| 13> H 1.1593656916 0.0374513306 -1.9737223092
| 14> C 0.6047209471 0.8109552488 -0.0477063672
| 15> O -0.4007750782 1.3312513537 0.4012658965
| 16> O 1.8186588876 1.0704469526 0.3361895884
| 17> C 2.0202108736 2.0283844047 1.4025590057
| 18> C 2.1721968171 3.4311081856 0.8400259326
| 19> S -1.1692807727 -0.341200388 -1.7323102977
| 20> P -2.2905634093 -0.1766079229 0.0521625569
| 21> S -1.7406994844 -0.8819280104 1.8122308259
| 22> O -3.1144442517 1.1936154463 0.0940519843
| 23> C -2.910900618 2.2771863884 0.9994397963
| 24> O -3.4295659401 -1.1024705837 -0.6058224537
| 25> C -4.6227059139 -1.4382871766 0.1050713462
| 26> H 4.4981777861 0.9439972399 -0.1974744487
| 27> H 6.0842607241 0.5631910833 -0.8849731907
| 28> H 4.7097663816 0.8892391948 -1.9525273498
| 29> H 4.9570967786 -1.5057049961 -0.0549860747
| 30> H 5.1464548686 -1.5604608061 -1.8361858289
| 31> H 0.4481452496 -1.8997146664 0.3023633956
| 32> H 0.9338809084 -2.3517014781 -1.3525962709
| 33> H 1.1734394353 1.9642267631 2.0905552364
| 34> H 2.9295806369 1.6895586909 1.9000971355
| 35> H 2.9915402283 3.4654605522 0.127530126
| 36> H 1.2556173887 3.7386631265 0.3425094227
| 37> H 2.3777251062 4.1178082642 1.654302133
| 38> H -2.2514757444 3.0126921956 0.5438834921
| 39> H -2.4713713781 1.9132651962 1.9292232603
| 40> H -3.895813939 2.7011984021 1.1833318847
| 41> H -4.3769627574 -1.7580285724 1.1202918618
| 42> H -5.0761480149 -2.2557136446 -0.4499092917
| 43> H -5.2924336276 -0.5795402083 0.1399293307
| 44> *
| 45>
| 46>                          ****END OF INPUT****

CARTESIAN COORDINATES (ANGSTROEM)
---------------------------------
  C      5.013614    0.441025   -1.011101
  C      4.672905   -1.040169   -1.002558
  O      3.256753   -1.224566   -1.199005
  C      2.495223   -1.500163   -0.160488
  O      2.894086   -1.669397    0.969033
  C      1.034215   -1.600249   -0.569217
  C      0.545815   -0.256698   -1.118990
  H      1.159366    0.037451   -1.973722
  C      0.604721    0.810955   -0.047706
  O     -0.400775    1.331251    0.401266
  O      1.818659    1.070447    0.336190
  C      2.020211    2.028384    1.402559
  C      2.172197    3.431108    0.840026
  S     -1.169281   -0.341200   -1.732310
  P     -2.290563   -0.176608    0.052163
  S     -1.740699   -0.881928    1.812231
  O     -3.114444    1.193615    0.094052
  C     -2.910901    2.277186    0.999440
  O     -3.429566   -1.102471   -0.605822
  C     -4.622706   -1.438287    0.105071
  H      4.498178    0.943997   -0.197474
  H      6.084261    0.563191   -0.884973
  H      4.709766    0.889239   -1.952527
  H      4.957097   -1.505705   -0.054986
  H      5.146455   -1.560461   -1.836186
  H      0.448145   -1.899715    0.302363
  H      0.933881   -2.351701   -1.352596
  H      1.173439    1.964227    2.090555
  H      2.929581    1.689559    1.900097
  H      2.991540    3.465461    0.127530
  H      1.255617    3.738663    0.342509
  H      2.377725    4.117808    1.654302
  H     -2.251476    3.012692    0.543883
  H     -2.471371    1.913265    1.929223
  H     -3.895814    2.701198    1.183332
  H     -4.376963   -1.758029    1.120292
  H     -5.076148   -2.255714   -0.449909
  H     -5.292434   -0.579540    0.139929

 Total Charge           Charge          ....    0
 Multiplicity           Mult            ....    1
 Number of Electrons    NEL             ....  174
 Basis Dimension        Dim             ....  316

ORBITAL ENERGIES
----------------

  NO   OCC          E(Eh)            E(eV)
   0   2.0000     -88.033365     -2395.5096
   1   2.0000     -87.968543     -2393.7458
   2   2.0000     -76.416731     -2079.4050
   3   2.0000     -18.834368      -512.5092
   4   2.0000     -18.805143      -511.7140
   5   2.0000     -18.779211      -511.0083
   6   2.0000     -18.769905      -510.7551
   7   2.0000     -18.767448      -510.6882
   8   2.0000     -18.738436      -509.8988
   9   2.0000     -10.037993      -273.1477
  10   2.0000     -10.010757      -272.4065
  11   2.0000      -9.965286      -271.1692
  12   2.0000      -9.954937      -270.8876
  13   2.0000      -9.952106      -270.8106
  14   2.0000      -9.932311      -270.2719
  15   2.0000      -9.927709      -270.1467
  16   2.0000      -9.907094      -269.5857
  17   2.0000      -9.903099      -269.4770
  18   2.0000      -9.895612      -269.2733
  19   2.0000      -7.678703      -208.9481
  20   2.0000      -7.613529      -207.1746
  21   2.0000      -6.412252      -174.4863
  22   2.0000      -5.707012      -155.2957
  23   2.0000      -5.703363      -155.1964
  24   2.0000      -5.694988      -154.9685
  25   2.0000      -5.642720      -153.5462
  26   2.0000      -5.634444      -153.3210
  27   2.0000      -5.633129      -153.2852
  28   2.0000      -4.634950      -126.1234
  29   2.0000      -4.634232      -126.1039
  30   2.0000      -4.632880      -126.0671
  31   2.0000      -1.044250       -28.4155
  32   2.0000      -1.012505       -27.5517
  33   2.0000      -0.967807       -26.3354
  34   2.0000      -0.948310       -25.8048
  35   2.0000      -0.922201       -25.0944
  36   2.0000      -0.915977       -24.9250
  37   2.0000      -0.770659       -20.9707
  38   2.0000      -0.722502       -19.6603
  39   2.0000      -0.714849       -19.4520
  40   2.0000      -0.688154       -18.7256
  41   2.0000      -0.651975       -17.7412
  42   2.0000      -0.632297       -17.2057
  43   2.0000      -0.618691       -16.8354
  44   2.0000      -0.614152       -16.7119
  45   2.0000      -0.596643       -16.2355
  46   2.0000      -0.570973       -15.5370
  47   2.0000      -0.519784       -14.1440
  48   2.0000      -0.507028       -13.7969
  49   2.0000      -0.505470       -13.7545
  50   2.0000      -0.489259       -13.3134
  51   2.0000      -0.469047       -12.7634
  52   2.0000      -0.464477       -12.6391
  53   2.0000      -0.453644       -12.3443
  54   2.0000      -0.443846       -12.0777
  55   2.0000      -0.436075       -11.8662
  56   2.0000      -0.433205       -11.7881
  57   2.0000      -0.415222       -11.2988
  58   2.0000      -0.409130       -11.1330
  59   2.0000      -0.405244       -11.0272
  60   2.0000      -0.398836       -10.8529
  61   2.0000      -0.397538       -10.8176
  62   2.0000      -0.389031       -10.5861
  63   2.0000      -0.386527       -10.5179
  64   2.0000      -0.378001       -10.2859
  65   2.0000      -0.369678       -10.0594
  66   2.0000      -0.365262        -9.9393
  67   2.0000      -0.360843        -9.8190
  68   2.0000      -0.357562        -9.7298
  69   2.0000      -0.348094        -9.4721
  70   2.0000      -0.343083        -9.3358
  71   2.0000      -0.333872        -9.0851
  72   2.0000      -0.329836        -8.9753
  73   2.0000      -0.314458        -8.5569
  74   2.0000      -0.306581        -8.3425
  75   2.0000      -0.296885        -8.0787
  76   2.0000      -0.292157        -7.9500
  77   2.0000      -0.289791        -7.8856
  78   2.0000      -0.274806        -7.4778
  79   2.0000      -0.261792        -7.1237
  80   2.0000      -0.261132        -7.1058
  81   2.0000      -0.257050        -6.9947
  82   2.0000      -0.245816        -6.6890
  83   2.0000      -0.226418        -6.1612
  84   2.0000      -0.208962        -5.6861
  85   2.0000      -0.188618        -5.1326
  86   2.0000      -0.181443        -4.9373
  87   0.0000      -0.052682        -1.4335
  88   0.0000      -0.040536        -1.1030
  89   0.0000      -0.022483        -0.6118
  90   0.0000       0.013336         0.3629
  91   0.0000       0.020686         0.5629

MULLIKEN ATOMIC CHARGES
-----------------------
   0 C :   -0.309183
   1 C :   -0.019463
   2 O :   -0.242775
   3 C :    0.095378
   4 O :   -0.190475
   5 C :   -0.035001
   6 C :   -0.343582
   7 H :    0.154885
   8 C :    0.239010
   9 O :   -0.201901
  10 O :   -0.215642
  11 C :   -0.015324
  12 C :   -0.310986
  13 S :   -0.056097
  14 P :    0.646838
  15 S :   -0.349242
  16 O :   -0.391296
  17 C :   -0.084718
  18 O :   -0.395100
  19 C :   -0.094757
  20 H :    0.126373
  21 H :    0.113673
  22 H :    0.113493
  23 H :    0.115302
  24 H :    0.106303
  25 H :    0.125276
  26 H :    0.122234
  27 H :    0.128848
  28 H :    0.123639
  29 H :    0.119669
  30 H :    0.127287
  31 H :    0.122891
  32 H :    0.109568
  33 H :    0.113987
  34 H :    0.114398
  35 H :    0.111745
  36 H :    0.119052
  37 H :    0.105691
Sum of atomic charges:    0.0000000

LOEWDIN ATOMIC CHARGES
----------------------
   0 C :   -0.355110
   1 C :   -0.111046
   2 O :   -0.065046
   3 C :    0.020822
   4 O :   -0.160136
   5 C :   -0.246469
   6 C :   -0.268578
   7 H :    0.148152
   8 C :    0.036077
   9 O :   -0.149235
  10 O :   -0.021417
  11 C :   -0.104430
  12 C :   -0.354409
  13 S :    0.124280
  14 P :    0.588296
  15 S :   -0.345461
  16 O :   -0.253062
  17 C :   -0.212462
  18 O :   -0.272140
  19 C :   -0.216281
  20 H :    0.125134
  21 H :    0.130872
  22 H :    0.124420
  23 H :    0.122185
  24 H :    0.118671
  25 H :    0.137382
  26 H :    0.144389
  27 H :    0.129194
  28 H :    0.125493
  29 H :    0.126598
  30 H :    0.130470
  31 H :    0.136094
  32 H :    0.109542
  33 H :    0.107927
  34 H :    0.114901
  35 H :    0.107056
  36 H :    0.119215
  37 H :    0.108112

  Mayer bond orders larger than 0.100000
B(  0-C ,  1-C ) :   1.1756 B(  0-C , 20-H ) :   0.9399 B(  0-C , 21-H ) :   0.9423
B(  0-C , 22-H ) :   0.9499 B(  1-C ,  2-O ) :   0.9142 B(  1-C , 23-H ) :   0.9064
B(  1-C , 24-H ) :   0.9370 B(  2-O ,  3-C ) :   1.1942 B(  3-C ,  4-O ) :   2.0772
B(  3-C ,  5-C ) :   1.0090 B(  5-C ,  6-C ) :   1.0218 B(  5-C , 25-H ) :   0.8773
B(  5-C , 26-H ) :   0.8876 B(  6-C ,  7-H ) :   0.8695 B(  6-C ,  8-C ) :   0.9063
B(  6-C , 13-S ) :   1.0447 B(  8-C ,  9-O ) :   1.8937 B(  8-C , 10-O ) :   1.2790
B(  9-O , 14-P ) :   0.1397 B( 10-O , 11-C ) :   0.8794 B( 11-C , 12-C ) :   1.1779
B( 11-C , 27-H ) :   0.9139 B( 11-C , 28-H ) :   0.9271 B( 12-C , 29-H ) :   0.9489
B( 12-C , 30-H ) :   0.9444 B( 12-C , 31-H ) :   0.9431 B( 13-S , 14-P ) :   0.9306
B( 13-S , 15-S ) :   0.1092 B( 14-P , 15-S ) :   1.5562 B( 14-P , 16-O ) :   1.0886
B( 14-P , 18-O ) :   1.0688 B( 16-O , 17-C ) :   0.9341 B( 17-C , 32-H ) :   0.9539
B( 17-C , 33-H ) :   0.9338 B( 17-C , 34-H ) :   0.9543 B( 18-O , 19-C ) :   0.9427
B( 19-C , 35-H ) :   0.9322 B( 19-C , 36-H ) :   0.9610 B( 19-C , 37-H ) :   0.9512

Dispersion correction           -0.052222060
FINAL SINGLE POINT ENERGY     -1979.010230999628

DIPOLE MOMENT
-------------

Method             : SCF
Type of density    : Electron Density
Multiplicity       :   1
Irrep              :   0
Energy             : -1979.1422967379548936 Eh
Relativity type    :
Basis              : AO
                                X                 Y                 Z
Electronic contribution:    -15.309943942     -11.030877606      -2.991536524
Nuclear contribution   :     16.500864221      12.501599277       2.419946733
                        -----------------------------------------
Total Dipole Moment    :      1.190920279       1.470721671      -0.571589791
                        -----------------------------------------
Magnitude (a.u.)       :      1.976873348
Magnitude (Debye)      :      5.024812722

Rotational constants in cm-1:             0.016918             0.006234             0.005433
Rotational constants in MHz :           507.184936           186.895856           162.869861

                             ****ORCA TERMINATED NORMALLY****
TOTAL RUN TIME: 0 days 0 hours 0 minutes 43 seconds 464 msec
