                         Program Version 6.0.0  -   RELEASE  -
|  1> ! pbe def2-sv(p) def2/J RI DEFGRID1 loosescf d4 GCP(DFT/SV(P)) printgap
|  2> %output
|  3>     printlevel normal
|  4> end
|  5> * xyz 0 1
|  6> C 0.997284725 1.562760012 2.3836321282
|  7> C 2.4072044834 1.0099673308 2.4267724319
|  8> O 2.9453468679 0.8071007619 1.110264703
|  9> P 2.5015292943 -0.4063522614 0.1815390951
| 10> S 2.1970319263 -2.1028879202 1.1244413644
| 11> O 3.654363468 -0.4274963382 -0.9045153813
| 12> C 4.8674619266 -1.1885149433 -0.7296327435
| 13> C 5.7430815591 -0.620686962 0.3678482461
| 14> S 0.9629812611 0.3619470466 -1.0517457293
| 15> C -0.0971286089 -1.1114073038 -1.107849805
| 16> S -1.2236674872 -1.2351142821 0.3101255544
| 17> P -2.5082572303 0.3218101203 -0.2956383709
| 18> S -2.9075683361 0.465797167 -2.214791927
| 19> O -1.7694994 1.5429083003 0.3881999499
| 20> C -2.1057538081 2.9178220826 0.0920214032
| 21> C -1.1786658366 3.47699615 -0.9692001879
| 22> O -3.8007077107 0.193613767 0.6231362332
| 23> C -4.9478909299 -0.5824764341 0.2356516828
| 24> C -4.6506054879 -2.0679994387 0.2283341643
| 25> H 0.6732431674 1.8032284782 3.3911398487
| 26> H 0.962873866 2.4592287222 1.7697790784
| 27> H 0.3130769473 0.8263408545 1.9635950628
| 28> H 2.4308516841 0.0557105228 2.9638849817
| 29> H 3.0989917776 1.7148941176 2.8903582357
| 30> H 4.5953129462 -2.2255621338 -0.5083755296
| 31> H 5.3521893404 -1.1308986214 -1.7050760362
| 32> H 5.9188894645 0.4380807573 0.1969129281
| 33> H 5.2564021207 -0.7461758374 1.3338919424
| 34> H 6.6916246544 -1.1484852609 0.3796852997
| 35> H 0.5148154687 -2.0107454332 -1.0957770284
| 36> H -0.6844339736 -1.0380828185 -2.0231366605
| 37> H -3.1491797032 2.9744122105 -0.2295274172
| 38> H -1.986922369 3.4383820664 1.0436026041
| 39> H -0.1424484226 3.3489859568 -0.668526381
| 40> H -1.3267411453 2.9552800805 -1.9121619966
| 41> H -1.3886393068 4.5323448005 -1.1098412715
| 42> H -5.7026469291 -0.3247918017 0.9797363285
| 43> H -5.2712916684 -0.2501563523 -0.7562055584
| 44> H -4.2270312648 -2.373344296 1.1818712468
| 45> H -5.5680967894 -2.6184828642 0.046794795
| 46> H -3.9368770315 -2.3005441982 -0.5611427678
| 47> *
| 48>
| 49>                          ****END OF INPUT****

CARTESIAN COORDINATES (ANGSTROEM)
---------------------------------
  C      0.997285    1.562760    2.383632
  C      2.407204    1.009967    2.426772
  O      2.945347    0.807101    1.110265
  P      2.501529   -0.406352    0.181539
  S      2.197032   -2.102888    1.124441
  O      3.654363   -0.427496   -0.904515
  C      4.867462   -1.188515   -0.729633
  C      5.743082   -0.620687    0.367848
  S      0.962981    0.361947   -1.051746
  C     -0.097129   -1.111407   -1.107850
  S     -1.223667   -1.235114    0.310126
  P     -2.508257    0.321810   -0.295638
  S     -2.907568    0.465797   -2.214792
  O     -1.769499    1.542908    0.388200
  C     -2.105754    2.917822    0.092021
  C     -1.178666    3.476996   -0.969200
  O     -3.800708    0.193614    0.623136
  C     -4.947891   -0.582476    0.235652
  C     -4.650605   -2.067999    0.228334
  H      0.673243    1.803228    3.391140
  H      0.962874    2.459229    1.769779
  H      0.313077    0.826341    1.963595
  H      2.430852    0.055711    2.963885
  H      3.098992    1.714894    2.890358
  H      4.595313   -2.225562   -0.508376
  H      5.352189   -1.130899   -1.705076
  H      5.918889    0.438081    0.196913
  H      5.256402   -0.746176    1.333892
  H      6.691625   -1.148485    0.379685
  H      0.514815   -2.010745   -1.095777
  H     -0.684434   -1.038083   -2.023137
  H     -3.149180    2.974412   -0.229527
  H     -1.986922    3.438382    1.043603
  H     -0.142448    3.348986   -0.668526
  H     -1.326741    2.955280   -1.912162
  H     -1.388639    4.532345   -1.109841
  H     -5.702647   -0.324792    0.979736
  H     -5.271292   -0.250156   -0.756206
  H     -4.227031   -2.373344    1.181871
  H     -5.568097   -2.618483    0.046795
  H     -3.936877   -2.300544   -0.561143

 Total Charge           Charge          ....    0
 Multiplicity           Mult            ....    1
 Number of Electrons    NEL             ....  202
 Basis Dimension        Dim             ....  334

ORBITAL ENERGIES
----------------

  NO   OCC          E(Eh)            E(eV)
   0   2.0000     -88.043135     -2395.7755
   1   2.0000     -88.040332     -2395.6992
   2   2.0000     -87.992676     -2394.4024
   3   2.0000     -87.989952     -2394.3283
   4   2.0000     -76.426753     -2079.6777
   5   2.0000     -76.426639     -2079.6746
   6   2.0000     -18.794028      -511.4115
   7   2.0000     -18.793160      -511.3879
   8   2.0000     -18.790071      -511.3038
   9   2.0000     -18.789088      -511.2771
  10   2.0000      -9.953745      -270.8552
  11   2.0000      -9.953728      -270.8547
  12   2.0000      -9.952473      -270.8206
  13   2.0000      -9.951591      -270.7966
  14   2.0000      -9.950364      -270.7632
  15   2.0000      -9.884342      -268.9666
  16   2.0000      -9.884023      -268.9579
  17   2.0000      -9.878969      -268.8204
  18   2.0000      -9.878476      -268.8070
  19   2.0000      -7.687968      -209.2002
  20   2.0000      -7.685557      -209.1346
  21   2.0000      -7.637515      -207.8274
  22   2.0000      -7.634839      -207.7545
  23   2.0000      -6.424615      -174.8227
  24   2.0000      -6.424470      -174.8187
  25   2.0000      -5.715755      -155.5336
  26   2.0000      -5.713431      -155.4704
  27   2.0000      -5.712661      -155.4494
  28   2.0000      -5.710231      -155.3833
  29   2.0000      -5.704840      -155.2366
  30   2.0000      -5.702284      -155.1670
  31   2.0000      -5.666299      -154.1878
  32   2.0000      -5.663572      -154.1136
  33   2.0000      -5.658204      -153.9676
  34   2.0000      -5.657794      -153.9564
  35   2.0000      -5.655581      -153.8962
  36   2.0000      -5.655084      -153.8827
  37   2.0000      -4.647013      -126.4516
  38   2.0000      -4.646877      -126.4480
  39   2.0000      -4.646342      -126.4334
  40   2.0000      -4.646105      -126.4269
  41   2.0000      -4.645350      -126.4064
  42   2.0000      -4.645020      -126.3974
  43   2.0000      -0.987565       -26.8730
  44   2.0000      -0.986422       -26.8419
  45   2.0000      -0.945681       -25.7333
  46   2.0000      -0.945501       -25.7284
  47   2.0000      -0.763955       -20.7883
  48   2.0000      -0.722281       -19.6543
  49   2.0000      -0.707275       -19.2459
  50   2.0000      -0.686002       -18.6671
  51   2.0000      -0.685431       -18.6515
  52   2.0000      -0.673919       -18.3383
  53   2.0000      -0.652396       -17.7526
  54   2.0000      -0.640380       -17.4256
  55   2.0000      -0.604198       -16.4411
  56   2.0000      -0.593518       -16.1504
  57   2.0000      -0.574618       -15.6362
  58   2.0000      -0.570911       -15.5353
  59   2.0000      -0.556095       -15.1321
  60   2.0000      -0.500929       -13.6310
  61   2.0000      -0.493479       -13.4283
  62   2.0000      -0.474094       -12.9008
  63   2.0000      -0.469734       -12.7821
  64   2.0000      -0.460096       -12.5198
  65   2.0000      -0.441847       -12.0233
  66   2.0000      -0.439421       -11.9573
  67   2.0000      -0.437719       -11.9109
  68   2.0000      -0.429673       -11.6920
  69   2.0000      -0.415497       -11.3063
  70   2.0000      -0.405399       -11.0315
  71   2.0000      -0.396824       -10.7981
  72   2.0000      -0.393309       -10.7025
  73   2.0000      -0.387807       -10.5528
  74   2.0000      -0.380080       -10.3425
  75   2.0000      -0.377908       -10.2834
  76   2.0000      -0.368406       -10.0248
  77   2.0000      -0.356860        -9.7107
  78   2.0000      -0.352948        -9.6042
  79   2.0000      -0.350047        -9.5253
  80   2.0000      -0.346944        -9.4408
  81   2.0000      -0.343738        -9.3536
  82   2.0000      -0.342130        -9.3098
  83   2.0000      -0.338089        -9.1999
  84   2.0000      -0.331930        -9.0323
  85   2.0000      -0.317969        -8.6524
  86   2.0000      -0.308149        -8.3852
  87   2.0000      -0.297707        -8.1010
  88   2.0000      -0.293781        -7.9942
  89   2.0000      -0.286767        -7.8033
  90   2.0000      -0.284518        -7.7421
  91   2.0000      -0.277951        -7.5634
  92   2.0000      -0.273066        -7.4305
  93   2.0000      -0.264762        -7.2045
  94   2.0000      -0.262411        -7.1406
  95   2.0000      -0.232233        -6.3194
  96   2.0000      -0.219231        -5.9656
  97   2.0000      -0.213591        -5.8121
  98   2.0000      -0.208180        -5.6649
  99   2.0000      -0.205572        -5.5939
 100   2.0000      -0.202205        -5.5023
 101   0.0000      -0.043612        -1.1868
 102   0.0000      -0.029565        -0.8045
 103   0.0000      -0.005425        -0.1476
 104   0.0000       0.003418         0.0930
 105   0.0000       0.013733         0.3737

MULLIKEN ATOMIC CHARGES
-----------------------
   0 C :   -0.337458
   1 C :   -0.005665
   2 O :   -0.372281
   3 P :    0.612993
   4 S :   -0.335645
   5 O :   -0.365686
   6 C :   -0.003227
   7 C :   -0.307231
   8 S :   -0.066922
   9 C :   -0.366602
  10 S :   -0.055467
  11 P :    0.607128
  12 S :   -0.340825
  13 O :   -0.357366
  14 C :    0.002086
  15 C :   -0.304090
  16 O :   -0.372887
  17 C :   -0.004820
  18 C :   -0.317170
  19 H :    0.107326
  20 H :    0.117471
  21 H :    0.152976
  22 H :    0.110344
  23 H :    0.102175
  24 H :    0.110193
  25 H :    0.106898
  26 H :    0.118495
  27 H :    0.121892
  28 H :    0.111920
  29 H :    0.190007
  30 H :    0.194662
  31 H :    0.102387
  32 H :    0.106824
  33 H :    0.126593
  34 H :    0.127236
  35 H :    0.106336
  36 H :    0.105438
  37 H :    0.111823
  38 H :    0.119688
  39 H :    0.113883
  40 H :    0.126569
Sum of atomic charges:    0.0000000

LOEWDIN ATOMIC CHARGES
----------------------
   0 C :   -0.370526
   1 C :   -0.120260
   2 O :   -0.243222
   3 P :    0.572820
   4 S :   -0.318192
   5 O :   -0.244826
   6 C :   -0.116351
   7 C :   -0.364341
   8 S :    0.100653
   9 C :   -0.482407
  10 S :    0.108368
  11 P :    0.569957
  12 S :   -0.325493
  13 O :   -0.236634
  14 C :   -0.110445
  15 C :   -0.364295
  16 O :   -0.245813
  17 C :   -0.120057
  18 C :   -0.369196
  19 H :    0.129249
  20 H :    0.122329
  21 H :    0.120892
  22 H :    0.108867
  23 H :    0.116911
  24 H :    0.110372
  25 H :    0.119806
  26 H :    0.127236
  27 H :    0.122758
  28 H :    0.130207
  29 H :    0.130860
  30 H :    0.129164
  31 H :    0.110031
  32 H :    0.118662
  33 H :    0.123705
  34 H :    0.124429
  35 H :    0.127624
  36 H :    0.118784
  37 H :    0.110204
  38 H :    0.125451
  39 H :    0.131498
  40 H :    0.121219

  Mayer bond orders larger than 0.100000
B(  0-C ,  1-C ) :   1.1628 B(  0-C , 19-H ) :   0.9373 B(  0-C , 20-H ) :   0.9418
B(  0-C , 21-H ) :   0.9247 B(  1-C ,  2-O ) :   0.9087 B(  1-C , 22-H ) :   0.9130
B(  1-C , 23-H ) :   0.9330 B(  2-O ,  3-P ) :   1.1073 B(  3-P ,  4-S ) :   1.5898
B(  3-P ,  5-O ) :   1.1333 B(  3-P ,  8-S ) :   0.9658 B(  4-S ,  8-S ) :   0.1137
B(  5-O ,  6-C ) :   0.9118 B(  6-C ,  7-C ) :   1.1630 B(  6-C , 24-H ) :   0.9178
B(  6-C , 25-H ) :   0.9353 B(  7-C , 26-H ) :   0.9462 B(  7-C , 27-H ) :   0.9388
B(  7-C , 28-H ) :   0.9386 B(  8-S ,  9-C ) :   1.0057 B(  9-C , 10-S ) :   1.0050
B(  9-C , 29-H ) :   0.8845 B(  9-C , 30-H ) :   0.8717 B( 10-S , 11-P ) :   0.9665
B( 10-S , 12-S ) :   0.1091 B( 11-P , 12-S ) :   1.5815 B( 11-P , 13-O ) :   1.1357
B( 11-P , 16-O ) :   1.1116 B( 13-O , 14-C ) :   0.8900 B( 14-C , 15-C ) :   1.1709
B( 14-C , 31-H ) :   0.9169 B( 14-C , 32-H ) :   0.9332 B( 15-C , 33-H ) :   0.9424
B( 15-C , 34-H ) :   0.9340 B( 15-C , 35-H ) :   0.9391 B( 16-O , 17-C ) :   0.9086
B( 17-C , 18-C ) :   1.1645 B( 17-C , 36-H ) :   0.9335 B( 17-C , 37-H ) :   0.9149
B( 18-C , 38-H ) :   0.9451 B( 18-C , 39-H ) :   0.9381 B( 18-C , 40-H ) :   0.9352

Dispersion correction           -0.065327507
FINAL SINGLE POINT ENERGY     -2929.526219874379

DIPOLE MOMENT
-------------

Method             : SCF
Type of density    : Electron Density
Multiplicity       :   1
Irrep              :   0
Energy             : -2929.6453733490625382 Eh
Relativity type    :
Basis              : AO
                                X                 Y                 Z
Electronic contribution:     -2.215659779      -7.455528898      -6.632869097
Nuclear contribution   :      2.323466305       8.041066313       7.276354742
                        -----------------------------------------
Total Dipole Moment    :      0.107806527       0.585537415       0.643485645
                        -----------------------------------------
Magnitude (a.u.)       :      0.876669885
Magnitude (Debye)      :      2.228317759

Rotational constants in cm-1:             0.014100             0.004468             0.004196
Rotational constants in MHz :           422.715502           133.935703           125.786898

                             ****ORCA TERMINATED NORMALLY****
TOTAL RUN TIME: 0 days 0 hours 0 minutes 21 seconds 486 msec
