                         Program Version 6.0.0  -   RELEASE  -
|  1> ! pbe def2-sv(p) def2/J RI DEFGRID1 loosescf d4 GCP(DFT/SV(P)) printgap
|  2> %output
|  3>     printlevel normal
|  4> end
|  5> * xyz 0 1
|  6> C 2.4469348341 -3.0455448027 -1.1041697063
|  7> C 3.5749082288 -2.3476162392 -0.3758996377
|  8> O 3.5720922806 -0.9149171193 -0.5951706523
|  9> P 2.4329129047 0.0855516138 -0.1716395527
| 10> S 3.0843210705 1.9204819901 0.0074710895
| 11> O 1.8586454287 -0.5771940198 1.1581332282
| 12> C 1.2746621188 0.1559164835 2.2496412694
| 13> C 1.9566301259 -0.2613415574 3.5375501701
| 14> S 0.9316163442 -0.1819517763 -1.6762360137
| 15> C 0.2236660033 1.4767322047 -1.6264411259
| 16> S -0.6787320157 1.8209769591 -0.0927562256
| 17> P -2.1267917679 0.2863873213 -0.3342409913
| 18> S -2.7419846534 -0.1084518011 -2.1427883333
| 19> O -3.3151225543 0.7571560056 0.5987246047
| 20> C -3.125078965 1.1045867484 1.9940014896
| 21> C -4.4718939752 1.5194368201 2.5478344366
| 22> O -1.3948930722 -0.9076551275 0.44636125
| 23> C -1.570211446 -2.2864088352 0.0697461757
| 24> C -2.9402446274 -2.7944010354 0.4699715424
| 25> H 1.4870307127 -2.7268623075 -0.7023193042
| 26> H 2.4734625696 -2.8076441199 -2.1647202841
| 27> H 2.5476572715 -4.1185788611 -0.9746500025
| 28> H 4.5508183958 -2.653137281 -0.7558751433
| 29> H 3.5187681477 -2.5287697303 0.6989991736
| 30> H 1.3985343621 1.2289336888 2.0695516142
| 31> H 0.2098133254 -0.0880159333 2.2611098007
| 32> H 1.8617377248 -1.3334331823 3.6840030155
| 33> H 3.0113887132 -4.83392e-05 3.500778054
| 34> H 1.4912842895 0.2583132227 4.3686706373
| 35> H -0.4577969256 1.5482613507 -2.4733314338
| 36> H 1.0192454651 2.2195812392 -1.6856282292
| 37> H -2.7265782628 0.2315443592 2.5162451179
| 38> H -2.3993187835 1.9209617224 2.0481315749
| 39> H -5.1811157189 0.7015022488 2.4599308589
| 40> H -4.3593725518 1.7893731411 3.5928443878
| 41> H -4.8540534521 2.3725725073 1.9949636892
| 42> H -1.4236388638 -2.3745405077 -1.0112915544
| 43> H -0.7723732375 -2.8112916243 0.5978776674
| 44> H -3.7077643845 -2.2184722419 -0.0468999383
| 45> H -3.0339936408 -3.8384715955 0.1887851994
| 46> H -3.0862694149 -2.6956356023 1.5424932984
| 47> *
| 48>
| 49>                          ****END OF INPUT****

CARTESIAN COORDINATES (ANGSTROEM)
---------------------------------
  C      2.446935   -3.045545   -1.104170
  C      3.574908   -2.347616   -0.375900
  O      3.572092   -0.914917   -0.595171
  P      2.432913    0.085552   -0.171640
  S      3.084321    1.920482    0.007471
  O      1.858645   -0.577194    1.158133
  C      1.274662    0.155916    2.249641
  C      1.956630   -0.261342    3.537550
  S      0.931616   -0.181952   -1.676236
  C      0.223666    1.476732   -1.626441
  S     -0.678732    1.820977   -0.092756
  P     -2.126792    0.286387   -0.334241
  S     -2.741985   -0.108452   -2.142788
  O     -3.315123    0.757156    0.598725
  C     -3.125079    1.104587    1.994001
  C     -4.471894    1.519437    2.547834
  O     -1.394893   -0.907655    0.446361
  C     -1.570211   -2.286409    0.069746
  C     -2.940245   -2.794401    0.469972
  H      1.487031   -2.726862   -0.702319
  H      2.473463   -2.807644   -2.164720
  H      2.547657   -4.118579   -0.974650
  H      4.550818   -2.653137   -0.755875
  H      3.518768   -2.528770    0.698999
  H      1.398534    1.228934    2.069552
  H      0.209813   -0.088016    2.261110
  H      1.861738   -1.333433    3.684003
  H      3.011389   -0.000048    3.500778
  H      1.491284    0.258313    4.368671
  H     -0.457797    1.548261   -2.473331
  H      1.019245    2.219581   -1.685628
  H     -2.726578    0.231544    2.516245
  H     -2.399319    1.920962    2.048132
  H     -5.181116    0.701502    2.459931
  H     -4.359373    1.789373    3.592844
  H     -4.854053    2.372573    1.994964
  H     -1.423639   -2.374541   -1.011292
  H     -0.772373   -2.811292    0.597878
  H     -3.707764   -2.218472   -0.046900
  H     -3.033994   -3.838472    0.188785
  H     -3.086269   -2.695636    1.542493

 Total Charge           Charge          ....    0
 Multiplicity           Mult            ....    1
 Number of Electrons    NEL             ....  202
 Basis Dimension        Dim             ....  334

ORBITAL ENERGIES
----------------

  NO   OCC          E(Eh)            E(eV)
   0   2.0000     -88.042147     -2395.7486
   1   2.0000     -88.038415     -2395.6471
   2   2.0000     -87.990391     -2394.3403
   3   2.0000     -87.984682     -2394.1849
   4   2.0000     -76.428354     -2079.7212
   5   2.0000     -76.426503     -2079.6709
   6   2.0000     -18.798459      -511.5321
   7   2.0000     -18.794124      -511.4141
   8   2.0000     -18.793889      -511.4077
   9   2.0000     -18.792099      -511.3590
  10   2.0000      -9.965854      -271.1847
  11   2.0000      -9.961630      -271.0697
  12   2.0000      -9.954300      -270.8703
  13   2.0000      -9.951598      -270.7967
  14   2.0000      -9.948010      -270.6991
  15   2.0000      -9.896394      -269.2946
  16   2.0000      -9.894678      -269.2479
  17   2.0000      -9.888647      -269.0838
  18   2.0000      -9.886981      -269.0384
  19   2.0000      -7.687016      -209.1743
  20   2.0000      -7.682957      -209.0639
  21   2.0000      -7.635634      -207.7762
  22   2.0000      -7.629919      -207.6207
  23   2.0000      -6.426102      -174.8631
  24   2.0000      -6.423903      -174.8033
  25   2.0000      -5.714772      -155.5069
  26   2.0000      -5.711741      -155.4244
  27   2.0000      -5.710945      -155.4027
  28   2.0000      -5.707487      -155.3086
  29   2.0000      -5.703917      -155.2115
  30   2.0000      -5.699894      -155.1020
  31   2.0000      -5.664698      -154.1443
  32   2.0000      -5.658883      -153.9860
  33   2.0000      -5.656265      -153.9148
  34   2.0000      -5.655587      -153.8964
  35   2.0000      -5.650310      -153.7528
  36   2.0000      -5.650210      -153.7500
  37   2.0000      -4.648977      -126.5051
  38   2.0000      -4.647515      -126.4653
  39   2.0000      -4.646918      -126.4491
  40   2.0000      -4.646623      -126.4411
  41   2.0000      -4.645333      -126.4059
  42   2.0000      -4.644299      -126.3778
  43   2.0000      -0.989460       -26.9246
  44   2.0000      -0.988170       -26.8895
  45   2.0000      -0.948414       -25.8077
  46   2.0000      -0.944243       -25.6942
  47   2.0000      -0.763817       -20.7845
  48   2.0000      -0.725848       -19.7513
  49   2.0000      -0.715800       -19.4779
  50   2.0000      -0.696671       -18.9574
  51   2.0000      -0.693783       -18.8788
  52   2.0000      -0.674143       -18.3444
  53   2.0000      -0.652900       -17.7663
  54   2.0000      -0.639284       -17.3958
  55   2.0000      -0.598706       -16.2916
  56   2.0000      -0.591635       -16.0992
  57   2.0000      -0.579524       -15.7696
  58   2.0000      -0.577046       -15.7022
  59   2.0000      -0.562156       -15.2970
  60   2.0000      -0.511787       -13.9264
  61   2.0000      -0.500895       -13.6300
  62   2.0000      -0.483985       -13.1699
  63   2.0000      -0.479130       -13.0378
  64   2.0000      -0.459452       -12.5023
  65   2.0000      -0.449408       -12.2290
  66   2.0000      -0.446292       -12.1442
  67   2.0000      -0.443445       -12.0668
  68   2.0000      -0.429192       -11.6789
  69   2.0000      -0.417322       -11.3559
  70   2.0000      -0.408113       -11.1053
  71   2.0000      -0.397926       -10.8281
  72   2.0000      -0.393631       -10.7113
  73   2.0000      -0.390164       -10.6169
  74   2.0000      -0.380759       -10.3610
  75   2.0000      -0.376475       -10.2444
  76   2.0000      -0.371381       -10.1058
  77   2.0000      -0.363190        -9.8829
  78   2.0000      -0.361584        -9.8392
  79   2.0000      -0.355145        -9.6640
  80   2.0000      -0.352789        -9.5999
  81   2.0000      -0.351784        -9.5725
  82   2.0000      -0.345729        -9.4078
  83   2.0000      -0.343509        -9.3474
  84   2.0000      -0.334944        -9.1143
  85   2.0000      -0.324770        -8.8375
  86   2.0000      -0.318795        -8.6748
  87   2.0000      -0.312466        -8.5026
  88   2.0000      -0.301248        -8.1974
  89   2.0000      -0.293868        -7.9966
  90   2.0000      -0.286399        -7.7933
  91   2.0000      -0.275737        -7.5032
  92   2.0000      -0.274505        -7.4697
  93   2.0000      -0.270535        -7.3616
  94   2.0000      -0.256608        -6.9826
  95   2.0000      -0.232087        -6.3154
  96   2.0000      -0.216263        -5.8848
  97   2.0000      -0.212026        -5.7695
  98   2.0000      -0.207154        -5.6369
  99   2.0000      -0.200718        -5.4618
 100   2.0000      -0.197741        -5.3808
 101   0.0000      -0.045896        -1.2489
 102   0.0000      -0.024680        -0.6716
 103   0.0000      -0.003393        -0.0923
 104   0.0000       0.003109         0.0846
 105   0.0000       0.004267         0.1161

MULLIKEN ATOMIC CHARGES
-----------------------
   0 C :   -0.361257
   1 C :    0.010234
   2 O :   -0.364837
   3 P :    0.628153
   4 S :   -0.318204
   5 O :   -0.391655
   6 C :   -0.028861
   7 C :   -0.274946
   8 S :   -0.108353
   9 C :   -0.337470
  10 S :   -0.110439
  11 P :    0.622779
  12 S :   -0.304849
  13 O :   -0.369022
  14 C :   -0.047056
  15 C :   -0.270508
  16 O :   -0.386531
  17 C :   -0.031927
  18 C :   -0.294894
  19 H :    0.151274
  20 H :    0.134103
  21 H :    0.118073
  22 H :    0.113665
  23 H :    0.107839
  24 H :    0.113728
  25 H :    0.108204
  26 H :    0.107673
  27 H :    0.117110
  28 H :    0.106856
  29 H :    0.192405
  30 H :    0.194192
  31 H :    0.112502
  32 H :    0.118809
  33 H :    0.121846
  34 H :    0.112448
  35 H :    0.126377
  36 H :    0.120424
  37 H :    0.113198
  38 H :    0.129187
  39 H :    0.112767
  40 H :    0.106963
Sum of atomic charges:   -0.0000000

LOEWDIN ATOMIC CHARGES
----------------------
   0 C :   -0.375421
   1 C :   -0.106391
   2 O :   -0.238565
   3 P :    0.574240
   4 S :   -0.308651
   5 O :   -0.249693
   6 C :   -0.127873
   7 C :   -0.353790
   8 S :    0.079660
   9 C :   -0.481388
  10 S :    0.080614
  11 P :    0.571250
  12 S :   -0.302007
  13 O :   -0.245238
  14 C :   -0.118821
  15 C :   -0.348280
  16 O :   -0.250739
  17 C :   -0.124550
  18 C :   -0.364858
  19 H :    0.121056
  20 H :    0.130861
  21 H :    0.133963
  22 H :    0.124082
  23 H :    0.113960
  24 H :    0.103885
  25 H :    0.105803
  26 H :    0.121473
  27 H :    0.127150
  28 H :    0.128626
  29 H :    0.132530
  30 H :    0.130639
  31 H :    0.109815
  32 H :    0.109047
  33 H :    0.130147
  34 H :    0.131394
  35 H :    0.132647
  36 H :    0.110548
  37 H :    0.115308
  38 H :    0.125490
  39 H :    0.131414
  40 H :    0.120666

  Mayer bond orders larger than 0.100000
B(  0-C ,  1-C ) :   1.1696 B(  0-C , 19-H ) :   0.9242 B(  0-C , 20-H ) :   0.9396
B(  0-C , 21-H ) :   0.9348 B(  1-C ,  2-O ) :   0.8994 B(  1-C , 22-H ) :   0.9338
B(  1-C , 23-H ) :   0.9267 B(  2-O ,  3-P ) :   1.1447 B(  3-P ,  4-S ) :   1.6416
B(  3-P ,  5-O ) :   1.0691 B(  3-P ,  8-S ) :   0.9313 B(  4-S ,  8-S ) :   0.1074
B(  5-O ,  6-C ) :   0.9013 B(  6-C ,  7-C ) :   1.1547 B(  6-C , 24-H ) :   0.9013
B(  6-C , 25-H ) :   0.9191 B(  7-C , 26-H ) :   0.9503 B(  7-C , 27-H ) :   0.9483
B(  7-C , 28-H ) :   0.9420 B(  8-S ,  9-C ) :   1.0190 B(  9-C , 10-S ) :   0.9985
B(  9-C , 29-H ) :   0.8844 B(  9-C , 30-H ) :   0.8756 B( 10-S , 11-P ) :   0.9572
B( 10-S , 12-S ) :   0.1021 B( 11-P , 12-S ) :   1.6364 B( 11-P , 13-O ) :   1.1207
B( 11-P , 16-O ) :   1.0556 B( 13-O , 14-C ) :   0.9035 B( 14-C , 15-C ) :   1.1635
B( 14-C , 31-H ) :   0.9204 B( 14-C , 32-H ) :   0.9192 B( 15-C , 33-H ) :   0.9502
B( 15-C , 34-H ) :   0.9400 B( 15-C , 35-H ) :   0.9490 B( 16-O , 17-C ) :   0.9038
B( 17-C , 18-C ) :   1.1574 B( 17-C , 36-H ) :   0.9113 B( 17-C , 37-H ) :   0.9243
B( 18-C , 38-H ) :   0.9324 B( 18-C , 39-H ) :   0.9403 B( 18-C , 40-H ) :   0.9459

Dispersion correction           -0.066219764
FINAL SINGLE POINT ENERGY     -2929.519432640247

DIPOLE MOMENT
-------------

Method             : SCF
Type of density    : Electron Density
Multiplicity       :   1
Irrep              :   0
Energy             : -2929.6393525097191741 Eh
Relativity type    :
Basis              : AO
                                X                 Y                 Z
Electronic contribution:      7.776805105      15.811714991     -19.280106066
Nuclear contribution   :     -8.191242626     -17.272213297      20.956239906
                        -----------------------------------------
Total Dipole Moment    :     -0.414437522      -1.460498306       1.676133840
                        -----------------------------------------
Magnitude (a.u.)       :      2.261468198
Magnitude (Debye)      :      5.748195343

Rotational constants in cm-1:             0.010968             0.005525             0.005233
Rotational constants in MHz :           328.825356           165.635030           156.884472

                             ****ORCA TERMINATED NORMALLY****
TOTAL RUN TIME: 0 days 0 hours 0 minutes 21 seconds 917 msec
