                         Program Version 6.0.0  -   RELEASE  -
|  1> ! pbe def2-sv(p) def2/J RI DEFGRID1 loosescf d4 GCP(DFT/SV(P)) printgap
|  2> %output
|  3>     printlevel normal
|  4> end
|  5> * xyz 0 1
|  6> C 4.0579364647 -1.0397088991 -2.4594282132
|  7> C 4.3198522331 -1.4919659276 -1.0373343636
|  8> O 3.1056800155 -1.625940452 -0.2790489068
|  9> P 2.2180481331 -0.3755385943 0.1360437219
| 10> S 3.2151479513 1.2359138799 0.6523887575
| 11> O 1.2815522476 -0.9996394427 1.250508732
| 12> C 1.613072696 -0.9314281138 2.6535989974
| 13> C 2.8292402044 -1.7696716448 2.9857895316
| 14> S 0.8233622907 -0.1731976597 -1.4411176824
| 15> C 0.2034144304 1.4529231417 -0.9334951038
| 16> S -0.8404290447 1.3846677327 0.5413373285
| 17> P -2.4813322664 0.3912643689 -0.4005490939
| 18> S -2.8394695977 0.9037070978 -2.2509803571
| 19> O -3.6782761516 0.5851176604 0.6290794257
| 20> C -4.5612741327 1.7222523299 0.5918448482
| 21> C -3.8473721477 3.0193605553 0.9112498865
| 22> O -2.183514285 -1.1504126461 -0.2574131042
| 23> C -2.0484409794 -1.8092035922 1.0270890425
| 24> C -1.298963112 -3.1059786708 0.8047447491
| 25> H 3.6735772201 -0.0203047398 -2.4621510354
| 26> H 4.9849035215 -1.0673954413 -3.0231978412
| 27> H 3.3260360221 -1.6884630362 -2.934455196
| 28> H 4.9720527261 -0.7788632944 -0.5227956452
| 29> H 4.7602104051 -2.4894227361 -1.0061152354
| 30> H 1.7791119876 0.1176225839 2.9184294568
| 31> H 0.7177986885 -1.3025383607 3.1540966349
| 32> H 3.7113546763 -1.3485607827 2.504838291
| 33> H 2.9820025154 -1.7721980663 4.0604557774
| 34> H 2.6912300808 -2.7892375288 2.635790122
| 35> H -0.3800500345 1.8387573456 -1.7696416058
| 36> H 1.0440097493 2.1055650511 -0.6965044094
| 37> H -5.0181464184 1.7693748502 -0.4011812017
| 38> H -5.3188625445 1.4839402482 1.3397637852
| 39> H -3.2961984614 2.9303522154 1.844121091
| 40> H -3.1495428215 3.2673253923 0.11290674
| 41> H -4.5779543263 3.8171358642 0.9981401088
| 42> H -1.5084392004 -1.1411609189 1.7049473336
| 43> H -3.053196485 -1.9830763957 1.4169469952
| 44> H -1.8196836284 -3.7120535547 0.0689500925
| 45> H -0.2951896498 -2.900824326 0.4409318013
| 46> H -1.2380930616 -3.6488470859 1.7425431856
| 47> *
| 48>
| 49>                          ****END OF INPUT****

CARTESIAN COORDINATES (ANGSTROEM)
---------------------------------
  C      4.057936   -1.039709   -2.459428
  C      4.319852   -1.491966   -1.037334
  O      3.105680   -1.625940   -0.279049
  P      2.218048   -0.375539    0.136044
  S      3.215148    1.235914    0.652389
  O      1.281552   -0.999639    1.250509
  C      1.613073   -0.931428    2.653599
  C      2.829240   -1.769672    2.985790
  S      0.823362   -0.173198   -1.441118
  C      0.203414    1.452923   -0.933495
  S     -0.840429    1.384668    0.541337
  P     -2.481332    0.391264   -0.400549
  S     -2.839470    0.903707   -2.250980
  O     -3.678276    0.585118    0.629079
  C     -4.561274    1.722252    0.591845
  C     -3.847372    3.019361    0.911250
  O     -2.183514   -1.150413   -0.257413
  C     -2.048441   -1.809204    1.027089
  C     -1.298963   -3.105979    0.804745
  H      3.673577   -0.020305   -2.462151
  H      4.984904   -1.067395   -3.023198
  H      3.326036   -1.688463   -2.934455
  H      4.972053   -0.778863   -0.522796
  H      4.760210   -2.489423   -1.006115
  H      1.779112    0.117623    2.918429
  H      0.717799   -1.302538    3.154097
  H      3.711355   -1.348561    2.504838
  H      2.982003   -1.772198    4.060456
  H      2.691230   -2.789238    2.635790
  H     -0.380050    1.838757   -1.769642
  H      1.044010    2.105565   -0.696504
  H     -5.018146    1.769375   -0.401181
  H     -5.318863    1.483940    1.339764
  H     -3.296198    2.930352    1.844121
  H     -3.149543    3.267325    0.112907
  H     -4.577954    3.817136    0.998140
  H     -1.508439   -1.141161    1.704947
  H     -3.053196   -1.983076    1.416947
  H     -1.819684   -3.712054    0.068950
  H     -0.295190   -2.900824    0.440932
  H     -1.238093   -3.648847    1.742543

 Total Charge           Charge          ....    0
 Multiplicity           Mult            ....    1
 Number of Electrons    NEL             ....  202
 Basis Dimension        Dim             ....  334

ORBITAL ENERGIES
----------------

  NO   OCC          E(Eh)            E(eV)
   0   2.0000     -88.042122     -2395.7479
   1   2.0000     -88.040029     -2395.6910
   2   2.0000     -87.993613     -2394.4279
   3   2.0000     -87.986164     -2394.2253
   4   2.0000     -76.430055     -2079.7675
   5   2.0000     -76.424798     -2079.6245
   6   2.0000     -18.798529      -511.5340
   7   2.0000     -18.795341      -511.4472
   8   2.0000     -18.794864      -511.4342
   9   2.0000     -18.787976      -511.2468
  10   2.0000      -9.956285      -270.9243
  11   2.0000      -9.956196      -270.9219
  12   2.0000      -9.954417      -270.8735
  13   2.0000      -9.951269      -270.7878
  14   2.0000      -9.950964      -270.7795
  15   2.0000      -9.888297      -269.0742
  16   2.0000      -9.885867      -269.0081
  17   2.0000      -9.884475      -268.9702
  18   2.0000      -9.881478      -268.8887
  19   2.0000      -7.687242      -209.1805
  20   2.0000      -7.684844      -209.1152
  21   2.0000      -7.638462      -207.8531
  22   2.0000      -7.631466      -207.6627
  23   2.0000      -6.427713      -174.9070
  24   2.0000      -6.422353      -174.7611
  25   2.0000      -5.715060      -155.5147
  26   2.0000      -5.712551      -155.4464
  27   2.0000      -5.711949      -155.4300
  28   2.0000      -5.709472      -155.3626
  29   2.0000      -5.704052      -155.2151
  30   2.0000      -5.701896      -155.1565
  31   2.0000      -5.667207      -154.2125
  32   2.0000      -5.660391      -154.0271
  33   2.0000      -5.659130      -153.9928
  34   2.0000      -5.658783      -153.9833
  35   2.0000      -5.651997      -153.7986
  36   2.0000      -5.651667      -153.7897
  37   2.0000      -4.650176      -126.5377
  38   2.0000      -4.649429      -126.5174
  39   2.0000      -4.648269      -126.4858
  40   2.0000      -4.645270      -126.4042
  41   2.0000      -4.643970      -126.3688
  42   2.0000      -4.642653      -126.3330
  43   2.0000      -0.992182       -26.9987
  44   2.0000      -0.987313       -26.8661
  45   2.0000      -0.951454       -25.8904
  46   2.0000      -0.943103       -25.6631
  47   2.0000      -0.764196       -20.7948
  48   2.0000      -0.722246       -19.6533
  49   2.0000      -0.710141       -19.3239
  50   2.0000      -0.690832       -18.7985
  51   2.0000      -0.688475       -18.7343
  52   2.0000      -0.676881       -18.4189
  53   2.0000      -0.652198       -17.7472
  54   2.0000      -0.638851       -17.3840
  55   2.0000      -0.605641       -16.4803
  56   2.0000      -0.592017       -16.1096
  57   2.0000      -0.576608       -15.6903
  58   2.0000      -0.568553       -15.4711
  59   2.0000      -0.559046       -15.2124
  60   2.0000      -0.504730       -13.7344
  61   2.0000      -0.496364       -13.5068
  62   2.0000      -0.477964       -13.0061
  63   2.0000      -0.473786       -12.8924
  64   2.0000      -0.460325       -12.5261
  65   2.0000      -0.447643       -12.1810
  66   2.0000      -0.442809       -12.0495
  67   2.0000      -0.437994       -11.9184
  68   2.0000      -0.428716       -11.6660
  69   2.0000      -0.420820       -11.4511
  70   2.0000      -0.409815       -11.1516
  71   2.0000      -0.398792       -10.8517
  72   2.0000      -0.390969       -10.6388
  73   2.0000      -0.388887       -10.5821
  74   2.0000      -0.379482       -10.3262
  75   2.0000      -0.374872       -10.2008
  76   2.0000      -0.364086        -9.9073
  77   2.0000      -0.361961        -9.8495
  78   2.0000      -0.357195        -9.7198
  79   2.0000      -0.352581        -9.5942
  80   2.0000      -0.351046        -9.5524
  81   2.0000      -0.346985        -9.4419
  82   2.0000      -0.341744        -9.2993
  83   2.0000      -0.337318        -9.1789
  84   2.0000      -0.337010        -9.1705
  85   2.0000      -0.320981        -8.7343
  86   2.0000      -0.310148        -8.4396
  87   2.0000      -0.300671        -8.1817
  88   2.0000      -0.299179        -8.1411
  89   2.0000      -0.294948        -8.0259
  90   2.0000      -0.288768        -7.8578
  91   2.0000      -0.278792        -7.5863
  92   2.0000      -0.268940        -7.3182
  93   2.0000      -0.265739        -7.2311
  94   2.0000      -0.258638        -7.0379
  95   2.0000      -0.234131        -6.3710
  96   2.0000      -0.218988        -5.9590
  97   2.0000      -0.215808        -5.8724
  98   2.0000      -0.206796        -5.6272
  99   2.0000      -0.204529        -5.5655
 100   2.0000      -0.200795        -5.4639
 101   0.0000      -0.044209        -1.2030
 102   0.0000      -0.024108        -0.6560
 103   0.0000      -0.001918        -0.0522
 104   0.0000      -0.000210        -0.0057
 105   0.0000       0.014099         0.3837

MULLIKEN ATOMIC CHARGES
-----------------------
   0 C :   -0.316244
   1 C :   -0.006993
   2 O :   -0.373737
   3 P :    0.614257
   4 S :   -0.335183
   5 O :   -0.361526
   6 C :   -0.007203
   7 C :   -0.305955
   8 S :   -0.054200
   9 C :   -0.378359
  10 S :   -0.092300
  11 P :    0.605694
  12 S :   -0.313607
  13 O :   -0.387023
  14 C :    0.000109
  15 C :   -0.317654
  16 O :   -0.353572
  17 C :   -0.015337
  18 C :   -0.286148
  19 H :    0.128461
  20 H :    0.114755
  21 H :    0.121593
  22 H :    0.111803
  23 H :    0.107084
  24 H :    0.114344
  25 H :    0.105707
  26 H :    0.123588
  27 H :    0.113154
  28 H :    0.117694
  29 H :    0.195141
  30 H :    0.191725
  31 H :    0.113472
  32 H :    0.104564
  33 H :    0.117345
  34 H :    0.129002
  35 H :    0.113978
  36 H :    0.107715
  37 H :    0.104542
  38 H :    0.117740
  39 H :    0.130699
  40 H :    0.100873
Sum of atomic charges:   -0.0000000

LOEWDIN ATOMIC CHARGES
----------------------
   0 C :   -0.369192
   1 C :   -0.118977
   2 O :   -0.242526
   3 P :    0.574720
   4 S :   -0.323035
   5 O :   -0.234408
   6 C :   -0.117325
   7 C :   -0.364882
   8 S :    0.104672
   9 C :   -0.489938
  10 S :    0.075690
  11 P :    0.572417
  12 S :   -0.309237
  13 O :   -0.250293
  14 C :   -0.115412
  15 C :   -0.370972
  16 O :   -0.234548
  17 C :   -0.113553
  18 C :   -0.354454
  19 H :    0.122110
  20 H :    0.132036
  21 H :    0.126163
  22 H :    0.110838
  23 H :    0.119593
  24 H :    0.112311
  25 H :    0.115088
  26 H :    0.122888
  27 H :    0.131092
  28 H :    0.126761
  29 H :    0.128951
  30 H :    0.128019
  31 H :    0.113599
  32 H :    0.118531
  33 H :    0.123263
  34 H :    0.122062
  35 H :    0.131561
  36 H :    0.103123
  37 H :    0.112929
  38 H :    0.128522
  39 H :    0.126081
  40 H :    0.125735

  Mayer bond orders larger than 0.100000
B(  0-C ,  1-C ) :   1.1664 B(  0-C , 19-H ) :   0.9352 B(  0-C , 20-H ) :   0.9376
B(  0-C , 21-H ) :   0.9444 B(  1-C ,  2-O ) :   0.9063 B(  1-C , 22-H ) :   0.9166
B(  1-C , 23-H ) :   0.9335 B(  2-O ,  3-P ) :   1.1084 B(  3-P ,  4-S ) :   1.5846
B(  3-P ,  5-O ) :   1.1098 B(  3-P ,  8-S ) :   0.9701 B(  4-S ,  8-S ) :   0.1093
B(  5-O ,  6-C ) :   0.9026 B(  6-C ,  7-C ) :   1.1653 B(  6-C , 24-H ) :   0.9166
B(  6-C , 25-H ) :   0.9295 B(  7-C , 26-H ) :   0.9351 B(  7-C , 27-H ) :   0.9385
B(  7-C , 28-H ) :   0.9465 B(  8-S ,  9-C ) :   1.0038 B(  9-C , 10-S ) :   1.0048
B(  9-C , 29-H ) :   0.8724 B(  9-C , 30-H ) :   0.8733 B( 10-S , 11-P ) :   0.9456
B( 10-S , 12-S ) :   0.1090 B( 11-P , 12-S ) :   1.6361 B( 11-P , 13-O ) :   1.0848
B( 11-P , 16-O ) :   1.1424 B( 13-O , 14-C ) :   0.9072 B( 14-C , 15-C ) :   1.1662
B( 14-C , 31-H ) :   0.9195 B( 14-C , 32-H ) :   0.9345 B( 15-C , 33-H ) :   0.9437
B( 15-C , 34-H ) :   0.9346 B( 15-C , 35-H ) :   0.9368 B( 16-O , 17-C ) :   0.8897
B( 17-C , 18-C ) :   1.1677 B( 17-C , 36-H ) :   0.9086 B( 17-C , 37-H ) :   0.9309
B( 18-C , 38-H ) :   0.9478 B( 18-C , 39-H ) :   0.9379 B( 18-C , 40-H ) :   0.9405

Dispersion correction           -0.066186548
FINAL SINGLE POINT ENERGY     -2929.526235376630

DIPOLE MOMENT
-------------

Method             : SCF
Type of density    : Electron Density
Multiplicity       :   1
Irrep              :   0
Energy             : -2929.6458878470648415 Eh
Relativity type    :
Basis              : AO
                                X                 Y                 Z
Electronic contribution:     -4.701017243       8.212634599     -10.434774318
Nuclear contribution   :      4.881624423      -8.895387907      11.705589749
                        -----------------------------------------
Total Dipole Moment    :      0.180607180      -0.682753308       1.270815432
                        -----------------------------------------
Magnitude (a.u.)       :      1.453871691
Magnitude (Debye)      :      3.695448156

Rotational constants in cm-1:             0.012890             0.004866             0.004625
Rotational constants in MHz :           386.425226           145.869838           138.642223

                             ****ORCA TERMINATED NORMALLY****
TOTAL RUN TIME: 0 days 0 hours 0 minutes 20 seconds 602 msec
