                         Program Version 6.0.1  -  RELEASE   -
|  1> ! r2scan-3c def2/J RI DEFGRID2 scfconv6 printgap
|  2> %output
|  3>     printlevel normal
|  4> end
|  5> * xyz 0 1
|  6> C 3.6201472581 -4.011687661 -2.3546421977
|  7> C 3.342802059 -3.9194789297 -0.8626035224
|  8> O 3.3341034389 -2.5473691995 -0.421392656
|  9> C 2.212480932 -1.8626619378 -0.5225908574
| 10> O 1.1666575454 -2.3104517166 -0.940085685
| 11> C 2.3929002051 -0.4405971381 -0.0303636451
| 12> C 1.0753224564 0.3106597692 -0.0906945987
| 13> H 0.5937407337 0.1239117648 -1.0634349637
| 14> C 1.218771287 1.8155453557 0.023578304
| 15> O 2.2265792353 2.4127649024 -0.2772637964
| 16> O 0.1031878628 2.3752560609 0.441191981
| 17> C 0.0490243711 3.815537631 0.5229565267
| 18> C -0.9835853631 4.2035138437 1.5622329668
| 19> S -0.0852294813 -0.3144528148 1.166922303
| 20> P -1.8868324145 0.2011918445 0.1625690738
| 21> S -1.7708041956 0.7631667816 -1.7090801628
| 22> O -2.7909982443 -1.1023895138 0.3991088966
| 23> C -2.4962981071 -2.3198068557 -0.2928077945
| 24> O -2.6412638384 1.2494895388 1.0676208849
| 25> C -2.8957742874 0.9993564362 2.4651074803
| 26> H 4.554596682 -3.5114615373 -2.593610742
| 27> H 3.6885142174 -5.0553323169 -2.6431604682
| 28> H 2.8143388208 -3.5430945261 -2.9153673351
| 29> H 4.1378069248 -4.3855555286 -0.2807347042
| 30> H 2.3761259399 -4.3697940378 -0.6203222422
| 31> H 3.1268378822 0.068161531 -0.6596054184
| 32> H 2.787305888 -0.4681613931 0.9863941849
| 33> H 1.0500200623 4.1771084571 0.7763765194
| 34> H -0.2232411563 4.1866521652 -0.4694509198
| 35> H -1.0400355191 5.2854325858 1.6184835726
| 36> H -1.9542167024 3.8071156949 1.2781209323
| 37> H -0.7069784793 3.8066172163 2.5347154096
| 38> H -2.6438950425 -2.1836464243 -1.3647728957
| 39> H -3.1915523476 -3.0565135902 0.1002558396
| 40> H -1.4649863511 -2.6256745238 -0.10895808
| 41> H -1.9687105124 0.7219315351 2.9671772427
| 42> H -3.6289585903 0.2021680138 2.568879061
| 43> H -3.283462542 1.9354709562 2.8583563837
| 44> *
| 45>
| 46>                          ****END OF INPUT****

CARTESIAN COORDINATES (ANGSTROEM)
---------------------------------
  C      3.620147   -4.011688   -2.354642
  C      3.342802   -3.919479   -0.862604
  O      3.334103   -2.547369   -0.421393
  C      2.212481   -1.862662   -0.522591
  O      1.166658   -2.310452   -0.940086
  C      2.392900   -0.440597   -0.030364
  C      1.075322    0.310660   -0.090695
  H      0.593741    0.123912   -1.063435
  C      1.218771    1.815545    0.023578
  O      2.226579    2.412765   -0.277264
  O      0.103188    2.375256    0.441192
  C      0.049024    3.815538    0.522957
  C     -0.983585    4.203514    1.562233
  S     -0.085229   -0.314453    1.166922
  P     -1.886832    0.201192    0.162569
  S     -1.770804    0.763167   -1.709080
  O     -2.790998   -1.102390    0.399109
  C     -2.496298   -2.319807   -0.292808
  O     -2.641264    1.249490    1.067621
  C     -2.895774    0.999356    2.465107
  H      4.554597   -3.511462   -2.593611
  H      3.688514   -5.055332   -2.643160
  H      2.814339   -3.543095   -2.915367
  H      4.137807   -4.385556   -0.280735
  H      2.376126   -4.369794   -0.620322
  H      3.126838    0.068162   -0.659605
  H      2.787306   -0.468161    0.986394
  H      1.050020    4.177108    0.776377
  H     -0.223241    4.186652   -0.469451
  H     -1.040036    5.285433    1.618484
  H     -1.954217    3.807116    1.278121
  H     -0.706978    3.806617    2.534715
  H     -2.643895   -2.183646   -1.364773
  H     -3.191552   -3.056514    0.100256
  H     -1.464986   -2.625675   -0.108958
  H     -1.968711    0.721932    2.967177
  H     -3.628959    0.202168    2.568879
  H     -3.283463    1.935471    2.858356

 Total Charge           Charge          ....    0
 Multiplicity           Mult            ....    1
 Number of Electrons    NEL             ....  174
 Basis Dimension        Dim             ....  510

ORBITAL ENERGIES
----------------

  NO   OCC          E(Eh)            E(eV)
   0   2.0000     -88.570657     -2410.1301
   1   2.0000     -88.516482     -2408.6559
   2   2.0000     -76.910680     -2092.8460
   3   2.0000     -19.006755      -517.2001
   4   2.0000     -19.000873      -517.0400
   5   2.0000     -18.994454      -516.8654
   6   2.0000     -18.986494      -516.6488
   7   2.0000     -18.939680      -515.3749
   8   2.0000     -18.936627      -515.2918
   9   2.0000     -10.164911      -276.6013
  10   2.0000     -10.161037      -276.4959
  11   2.0000     -10.099008      -274.8080
  12   2.0000     -10.098928      -274.8058
  13   2.0000     -10.091866      -274.6136
  14   2.0000     -10.088631      -274.5256
  15   2.0000     -10.082224      -274.3513
  16   2.0000     -10.061721      -273.7934
  17   2.0000     -10.033826      -273.0343
  18   2.0000     -10.030090      -272.9326
  19   2.0000      -7.865190      -214.0227
  20   2.0000      -7.811160      -212.5525
  21   2.0000      -6.589151      -179.2999
  22   2.0000      -5.812038      -158.1536
  23   2.0000      -5.809274      -158.0784
  24   2.0000      -5.802059      -157.8821
  25   2.0000      -5.759063      -156.7121
  26   2.0000      -5.751475      -156.5056
  27   2.0000      -5.750890      -156.4897
  28   2.0000      -4.734832      -128.8413
  29   2.0000      -4.734160      -128.8231
  30   2.0000      -4.732665      -128.7824
  31   2.0000      -1.083766       -29.4908
  32   2.0000      -1.079908       -29.3858
  33   2.0000      -1.049111       -28.5478
  34   2.0000      -1.006336       -27.3838
  35   2.0000      -0.988726       -26.9046
  36   2.0000      -0.985816       -26.8254
  37   2.0000      -0.809053       -22.0155
  38   2.0000      -0.759251       -20.6603
  39   2.0000      -0.744027       -20.2460
  40   2.0000      -0.731724       -19.9112
  41   2.0000      -0.698182       -18.9985
  42   2.0000      -0.671786       -18.2802
  43   2.0000      -0.657068       -17.8797
  44   2.0000      -0.648298       -17.6411
  45   2.0000      -0.631899       -17.1948
  46   2.0000      -0.592339       -16.1184
  47   2.0000      -0.540145       -14.6981
  48   2.0000      -0.535840       -14.5810
  49   2.0000      -0.524622       -14.2757
  50   2.0000      -0.498918       -13.5762
  51   2.0000      -0.491477       -13.3738
  52   2.0000      -0.483711       -13.1625
  53   2.0000      -0.467507       -12.7215
  54   2.0000      -0.458934       -12.4882
  55   2.0000      -0.451138       -12.2761
  56   2.0000      -0.449413       -12.2292
  57   2.0000      -0.446614       -12.1530
  58   2.0000      -0.439784       -11.9671
  59   2.0000      -0.428871       -11.6702
  60   2.0000      -0.419621       -11.4185
  61   2.0000      -0.417189       -11.3523
  62   2.0000      -0.411270       -11.1912
  63   2.0000      -0.402071       -10.9409
  64   2.0000      -0.393554       -10.7091
  65   2.0000      -0.378910       -10.3107
  66   2.0000      -0.375921       -10.2293
  67   2.0000      -0.366692        -9.9782
  68   2.0000      -0.362109        -9.8535
  69   2.0000      -0.358752        -9.7621
  70   2.0000      -0.349653        -9.5146
  71   2.0000      -0.345890        -9.4121
  72   2.0000      -0.336725        -9.1627
  73   2.0000      -0.329284        -8.9603
  74   2.0000      -0.324075        -8.8185
  75   2.0000      -0.316139        -8.6026
  76   2.0000      -0.310334        -8.4446
  77   2.0000      -0.309108        -8.4113
  78   2.0000      -0.286734        -7.8024
  79   2.0000      -0.282730        -7.6935
  80   2.0000      -0.277660        -7.5555
  81   2.0000      -0.271578        -7.3900
  82   2.0000      -0.263871        -7.1803
  83   2.0000      -0.245761        -6.6875
  84   2.0000      -0.220749        -6.0069
  85   2.0000      -0.217575        -5.9205
  86   2.0000      -0.209294        -5.6952
  87   0.0000      -0.043767        -1.1910
  88   0.0000      -0.027154        -0.7389
  89   0.0000      -0.018432        -0.5016
  90   0.0000       0.010082         0.2743
  91   0.0000       0.020914         0.5691

MULLIKEN ATOMIC CHARGES
-----------------------
   0 C :   -0.467356
   1 C :   -0.136271
   2 O :   -0.168769
   3 C :    0.405090
   4 O :   -0.422741
   5 C :   -0.455468
   6 C :    0.037869
   7 H :    0.240031
   8 C :    0.311794
   9 O :   -0.418803
  10 O :   -0.114495
  11 C :   -0.133820
  12 C :   -0.469865
  13 S :   -0.253478
  14 P :    0.771462
  15 S :   -0.457537
  16 O :   -0.337328
  17 C :   -0.290752
  18 O :   -0.322668
  19 C :   -0.291489
  20 H :    0.154564
  21 H :    0.148743
  22 H :    0.173787
  23 H :    0.151114
  24 H :    0.165765
  25 H :    0.211553
  26 H :    0.186899
  27 H :    0.171107
  28 H :    0.157218
  29 H :    0.146405
  30 H :    0.171025
  31 H :    0.150553
  32 H :    0.169949
  33 H :    0.145580
  34 H :    0.176536
  35 H :    0.165611
  36 H :    0.170448
  37 H :    0.157737
Sum of atomic charges:   -0.0000000

LOEWDIN ATOMIC CHARGES
----------------------
   0 C :   -0.388582
   1 C :    0.030380
   2 O :   -0.581452
   3 C :    0.358831
   4 O :   -0.450752
   5 C :   -0.203389
   6 C :   -0.198150
   7 H :    0.226087
   8 C :    0.352542
   9 O :   -0.425193
  10 O :   -0.620185
  11 C :    0.042382
  12 C :   -0.386892
  13 S :    0.219105
  14 P :    0.399798
  15 S :   -0.085219
  16 O :   -0.684970
  17 C :   -0.059205
  18 O :   -0.657782
  19 C :   -0.055235
  20 H :    0.158547
  21 H :    0.160162
  22 H :    0.165860
  23 H :    0.179274
  24 H :    0.187631
  25 H :    0.208597
  26 H :    0.192260
  27 H :    0.189782
  28 H :    0.181710
  29 H :    0.159156
  30 H :    0.168862
  31 H :    0.158251
  32 H :    0.175873
  33 H :    0.173830
  34 H :    0.180603
  35 H :    0.173147
  36 H :    0.174994
  37 H :    0.179345

  Mayer bond orders larger than 0.100000
B(  0-C ,  1-C ) :   0.9416 B(  0-C , 20-H ) :   0.9730 B(  0-C , 21-H ) :   0.9639
B(  0-C , 22-H ) :   0.9700 B(  1-C ,  2-O ) :   0.8045 B(  1-C , 23-H ) :   0.9621
B(  1-C , 24-H ) :   0.9669 B(  2-O ,  3-C ) :   1.1200 B(  3-C ,  4-O ) :   1.8274
B(  3-C ,  5-C ) :   0.9627 B(  5-C ,  6-C ) :   0.9621 B(  5-C , 25-H ) :   0.9206
B(  5-C , 26-H ) :   0.9616 B(  6-C ,  7-H ) :   0.9077 B(  6-C ,  8-C ) :   0.8920
B(  6-C , 13-S ) :   0.7615 B(  8-C ,  9-O ) :   1.8699 B(  8-C , 10-O ) :   1.1962
B( 10-O , 11-C ) :   0.7808 B( 11-C , 12-C ) :   0.9463 B( 11-C , 27-H ) :   0.9647
B( 11-C , 28-H ) :   0.9425 B( 12-C , 29-H ) :   0.9647 B( 12-C , 30-H ) :   0.9618
B( 12-C , 31-H ) :   0.9737 B( 13-S , 14-P ) :   1.0142 B( 14-P , 15-S ) :   1.7850
B( 14-P , 16-O ) :   1.0463 B( 14-P , 18-O ) :   1.1542 B( 16-O , 17-C ) :   0.8297
B( 17-C , 32-H ) :   0.9586 B( 17-C , 33-H ) :   0.9676 B( 17-C , 34-H ) :   0.9482
B( 18-O , 19-C ) :   0.7922 B( 19-C , 35-H ) :   0.9569 B( 19-C , 36-H ) :   0.9589
B( 19-C , 37-H ) :   0.9659

Dispersion correction           -0.017263914
FINAL SINGLE POINT ENERGY     -1981.454783422075

DIPOLE MOMENT
-------------

Method             : SCF
Type of density    : Electron Density
Multiplicity       :   1
Irrep              :   0
Energy             : -1981.4750393310546315 Eh
Relativity type    :
Basis              : AO
                                X                 Y                 Z
Electronic contribution:     -6.252970271       3.950326561      -1.376013171
Nuclear contribution   :      6.473004127      -4.774262740       2.660175910
                        -----------------------------------------
Total Dipole Moment    :      0.220033856      -0.823936178       1.284162738
                        -----------------------------------------
Magnitude (a.u.)       :      1.541544570
Magnitude (Debye)      :      3.918294906

Rotational constants in cm-1:             0.013805             0.006571             0.005230
Rotational constants in MHz :           413.854753           196.982358           156.791915

                             ****ORCA TERMINATED NORMALLY****
TOTAL RUN TIME: 0 days 0 hours 1 minutes 22 seconds 332 msec
