                         Program Version 6.0.1  -  RELEASE   -
|  1> ! r2scan-3c def2/J RI DEFGRID2 scfconv6 printgap
|  2> %output
|  3>     printlevel normal
|  4> end
|  5> %cpcm
|  6>     smd true
|  7>     smdsolvent "water"
|  8> end
|  9> * xyz 0 1
| 10> C 3.6201472581 -4.011687661 -2.3546421977
| 11> C 3.342802059 -3.9194789297 -0.8626035224
| 12> O 3.3341034389 -2.5473691995 -0.421392656
| 13> C 2.212480932 -1.8626619378 -0.5225908574
| 14> O 1.1666575454 -2.3104517166 -0.940085685
| 15> C 2.3929002051 -0.4405971381 -0.0303636451
| 16> C 1.0753224564 0.3106597692 -0.0906945987
| 17> H 0.5937407337 0.1239117648 -1.0634349637
| 18> C 1.218771287 1.8155453557 0.023578304
| 19> O 2.2265792353 2.4127649024 -0.2772637964
| 20> O 0.1031878628 2.3752560609 0.441191981
| 21> C 0.0490243711 3.815537631 0.5229565267
| 22> C -0.9835853631 4.2035138437 1.5622329668
| 23> S -0.0852294813 -0.3144528148 1.166922303
| 24> P -1.8868324145 0.2011918445 0.1625690738
| 25> S -1.7708041956 0.7631667816 -1.7090801628
| 26> O -2.7909982443 -1.1023895138 0.3991088966
| 27> C -2.4962981071 -2.3198068557 -0.2928077945
| 28> O -2.6412638384 1.2494895388 1.0676208849
| 29> C -2.8957742874 0.9993564362 2.4651074803
| 30> H 4.554596682 -3.5114615373 -2.593610742
| 31> H 3.6885142174 -5.0553323169 -2.6431604682
| 32> H 2.8143388208 -3.5430945261 -2.9153673351
| 33> H 4.1378069248 -4.3855555286 -0.2807347042
| 34> H 2.3761259399 -4.3697940378 -0.6203222422
| 35> H 3.1268378822 0.068161531 -0.6596054184
| 36> H 2.787305888 -0.4681613931 0.9863941849
| 37> H 1.0500200623 4.1771084571 0.7763765194
| 38> H -0.2232411563 4.1866521652 -0.4694509198
| 39> H -1.0400355191 5.2854325858 1.6184835726
| 40> H -1.9542167024 3.8071156949 1.2781209323
| 41> H -0.7069784793 3.8066172163 2.5347154096
| 42> H -2.6438950425 -2.1836464243 -1.3647728957
| 43> H -3.1915523476 -3.0565135902 0.1002558396
| 44> H -1.4649863511 -2.6256745238 -0.10895808
| 45> H -1.9687105124 0.7219315351 2.9671772427
| 46> H -3.6289585903 0.2021680138 2.568879061
| 47> H -3.283462542 1.9354709562 2.8583563837
| 48> *
| 49>
| 50>                          ****END OF INPUT****

CARTESIAN COORDINATES (ANGSTROEM)
---------------------------------
  C      3.620147   -4.011688   -2.354642
  C      3.342802   -3.919479   -0.862604
  O      3.334103   -2.547369   -0.421393
  C      2.212481   -1.862662   -0.522591
  O      1.166658   -2.310452   -0.940086
  C      2.392900   -0.440597   -0.030364
  C      1.075322    0.310660   -0.090695
  H      0.593741    0.123912   -1.063435
  C      1.218771    1.815545    0.023578
  O      2.226579    2.412765   -0.277264
  O      0.103188    2.375256    0.441192
  C      0.049024    3.815538    0.522957
  C     -0.983585    4.203514    1.562233
  S     -0.085229   -0.314453    1.166922
  P     -1.886832    0.201192    0.162569
  S     -1.770804    0.763167   -1.709080
  O     -2.790998   -1.102390    0.399109
  C     -2.496298   -2.319807   -0.292808
  O     -2.641264    1.249490    1.067621
  C     -2.895774    0.999356    2.465107
  H      4.554597   -3.511462   -2.593611
  H      3.688514   -5.055332   -2.643160
  H      2.814339   -3.543095   -2.915367
  H      4.137807   -4.385556   -0.280735
  H      2.376126   -4.369794   -0.620322
  H      3.126838    0.068162   -0.659605
  H      2.787306   -0.468161    0.986394
  H      1.050020    4.177108    0.776377
  H     -0.223241    4.186652   -0.469451
  H     -1.040036    5.285433    1.618484
  H     -1.954217    3.807116    1.278121
  H     -0.706978    3.806617    2.534715
  H     -2.643895   -2.183646   -1.364773
  H     -3.191552   -3.056514    0.100256
  H     -1.464986   -2.625675   -0.108958
  H     -1.968711    0.721932    2.967177
  H     -3.628959    0.202168    2.568879
  H     -3.283463    1.935471    2.858356

 Total Charge           Charge          ....    0
 Multiplicity           Mult            ....    1
 Number of Electrons    NEL             ....  174
 Basis Dimension        Dim             ....  510

ORBITAL ENERGIES
----------------

  NO   OCC          E(Eh)            E(eV)
   0   2.0000     -88.577450     -2410.3150
   1   2.0000     -88.530950     -2409.0496
   2   2.0000     -76.920369     -2093.1097
   3   2.0000     -19.009000      -517.2612
   4   2.0000     -19.007017      -517.2072
   5   2.0000     -18.999042      -516.9902
   6   2.0000     -18.994149      -516.8571
   7   2.0000     -18.952498      -515.7237
   8   2.0000     -18.948354      -515.6109
   9   2.0000     -10.174114      -276.8517
  10   2.0000     -10.170637      -276.7571
  11   2.0000     -10.093582      -274.6603
  12   2.0000     -10.087094      -274.4838
  13   2.0000     -10.085979      -274.4534
  14   2.0000     -10.085853      -274.4500
  15   2.0000     -10.080736      -274.3108
  16   2.0000     -10.058004      -273.6922
  17   2.0000     -10.019380      -272.6412
  18   2.0000     -10.019133      -272.6345
  19   2.0000      -7.871885      -214.2049
  20   2.0000      -7.825983      -212.9558
  21   2.0000      -6.598926      -179.5659
  22   2.0000      -5.818761      -158.3365
  23   2.0000      -5.815983      -158.2610
  24   2.0000      -5.808725      -158.0634
  25   2.0000      -5.773743      -157.1115
  26   2.0000      -5.766354      -156.9105
  27   2.0000      -5.765727      -156.8934
  28   2.0000      -4.744563      -129.1061
  29   2.0000      -4.743892      -129.0879
  30   2.0000      -4.742564      -129.0517
  31   2.0000      -1.089456       -29.6456
  32   2.0000      -1.085345       -29.5337
  33   2.0000      -1.054668       -28.6990
  34   2.0000      -1.011985       -27.5375
  35   2.0000      -0.999921       -27.2092
  36   2.0000      -0.995409       -27.0864
  37   2.0000      -0.812607       -22.1121
  38   2.0000      -0.753708       -20.5094
  39   2.0000      -0.740954       -20.1624
  40   2.0000      -0.731518       -19.9056
  41   2.0000      -0.695825       -18.9344
  42   2.0000      -0.670264       -18.2388
  43   2.0000      -0.661046       -17.9880
  44   2.0000      -0.651845       -17.7376
  45   2.0000      -0.625411       -17.0183
  46   2.0000      -0.589120       -16.0308
  47   2.0000      -0.541836       -14.7441
  48   2.0000      -0.534582       -14.5467
  49   2.0000      -0.521563       -14.1924
  50   2.0000      -0.501664       -13.6510
  51   2.0000      -0.492666       -13.4061
  52   2.0000      -0.486281       -13.2324
  53   2.0000      -0.466122       -12.6838
  54   2.0000      -0.461547       -12.5593
  55   2.0000      -0.455352       -12.3907
  56   2.0000      -0.455013       -12.3815
  57   2.0000      -0.451116       -12.2755
  58   2.0000      -0.445802       -12.1309
  59   2.0000      -0.427220       -11.6252
  60   2.0000      -0.419826       -11.4240
  61   2.0000      -0.412756       -11.2317
  62   2.0000      -0.407446       -11.0872
  63   2.0000      -0.397603       -10.8193
  64   2.0000      -0.396813       -10.7978
  65   2.0000      -0.374297       -10.1851
  66   2.0000      -0.371377       -10.1057
  67   2.0000      -0.364719        -9.9245
  68   2.0000      -0.358548        -9.7566
  69   2.0000      -0.357618        -9.7313
  70   2.0000      -0.349219        -9.5027
  71   2.0000      -0.341172        -9.2838
  72   2.0000      -0.334831        -9.1112
  73   2.0000      -0.328956        -8.9513
  74   2.0000      -0.325703        -8.8628
  75   2.0000      -0.315663        -8.5896
  76   2.0000      -0.311709        -8.4820
  77   2.0000      -0.307248        -8.3606
  78   2.0000      -0.288743        -7.8571
  79   2.0000      -0.285042        -7.7564
  80   2.0000      -0.282466        -7.6863
  81   2.0000      -0.278633        -7.5820
  82   2.0000      -0.276257        -7.5173
  83   2.0000      -0.256943        -6.9918
  84   2.0000      -0.234788        -6.3889
  85   2.0000      -0.231925        -6.3110
  86   2.0000      -0.221829        -6.0363
  87   0.0000      -0.051800        -1.4095
  88   0.0000      -0.035217        -0.9583
  89   0.0000      -0.024358        -0.6628
  90   0.0000       0.003646         0.0992
  91   0.0000       0.014042         0.3821

MULLIKEN ATOMIC CHARGES
-----------------------
   0 C :   -0.495690
   1 C :   -0.140798
   2 O :   -0.184093
   3 C :    0.430282
   4 O :   -0.485135
   5 C :   -0.457880
   6 C :    0.042682
   7 H :    0.243459
   8 C :    0.334715
   9 O :   -0.481100
  10 O :   -0.126887
  11 C :   -0.140565
  12 C :   -0.505003
  13 S :   -0.240806
  14 P :    0.784604
  15 S :   -0.512186
  16 O :   -0.357870
  17 C :   -0.308081
  18 O :   -0.358972
  19 C :   -0.297477
  20 H :    0.166751
  21 H :    0.171651
  22 H :    0.170146
  23 H :    0.176617
  24 H :    0.173689
  25 H :    0.223075
  26 H :    0.224207
  27 H :    0.177264
  28 H :    0.179010
  29 H :    0.170076
  30 H :    0.169905
  31 H :    0.170943
  32 H :    0.179653
  33 H :    0.179071
  34 H :    0.173561
  35 H :    0.178089
  36 H :    0.186288
  37 H :    0.186804
Sum of atomic charges:   -0.0000000

LOEWDIN ATOMIC CHARGES
----------------------
   0 C :   -0.391974
   1 C :    0.035829
   2 O :   -0.582669
   3 C :    0.370503
   4 O :   -0.495694
   5 C :   -0.199712
   6 C :   -0.194556
   7 H :    0.226190
   8 C :    0.361428
   9 O :   -0.469818
  10 O :   -0.621475
  11 C :    0.045012
  12 C :   -0.386901
  13 S :    0.231398
  14 P :    0.398548
  15 S :   -0.128211
  16 O :   -0.694232
  17 C :   -0.057152
  18 O :   -0.676406
  19 C :   -0.045499
  20 H :    0.162474
  21 H :    0.168516
  22 H :    0.162838
  23 H :    0.190351
  24 H :    0.190397
  25 H :    0.215353
  26 H :    0.205885
  27 H :    0.193390
  28 H :    0.187609
  29 H :    0.168509
  30 H :    0.167440
  31 H :    0.164325
  32 H :    0.177422
  33 H :    0.188185
  34 H :    0.178769
  35 H :    0.179467
  36 H :    0.182506
  37 H :    0.191955

  Mayer bond orders larger than 0.100000
B(  0-C ,  1-C ) :   0.9379 B(  0-C , 20-H ) :   0.9696 B(  0-C , 21-H ) :   0.9590
B(  0-C , 22-H ) :   0.9690 B(  1-C ,  2-O ) :   0.7872 B(  1-C , 23-H ) :   0.9526
B(  1-C , 24-H ) :   0.9628 B(  2-O ,  3-C ) :   1.1364 B(  3-C ,  4-O ) :   1.7877
B(  3-C ,  5-C ) :   0.9693 B(  5-C ,  6-C ) :   0.9651 B(  5-C , 25-H ) :   0.9101
B(  5-C , 26-H ) :   0.9500 B(  6-C ,  7-H ) :   0.9029 B(  6-C ,  8-C ) :   0.9009
B(  6-C , 13-S ) :   0.7673 B(  8-C ,  9-O ) :   1.8218 B(  8-C , 10-O ) :   1.2177
B( 10-O , 11-C ) :   0.7680 B( 11-C , 12-C ) :   0.9409 B( 11-C , 27-H ) :   0.9566
B( 11-C , 28-H ) :   0.9354 B( 12-C , 29-H ) :   0.9589 B( 12-C , 30-H ) :   0.9596
B( 12-C , 31-H ) :   0.9712 B( 13-S , 14-P ) :   1.0290 B( 14-P , 15-S ) :   1.7634
B( 14-P , 16-O ) :   1.0447 B( 14-P , 18-O ) :   1.1568 B( 16-O , 17-C ) :   0.8198
B( 17-C , 32-H ) :   0.9552 B( 17-C , 33-H ) :   0.9568 B( 17-C , 34-H ) :   0.9468
B( 18-O , 19-C ) :   0.7829 B( 19-C , 35-H ) :   0.9472 B( 19-C , 36-H ) :   0.9505
B( 19-C , 37-H ) :   0.9548

Dispersion correction           -0.017263914
FINAL SINGLE POINT ENERGY     -1981.467968337941

DIPOLE MOMENT
-------------

Method             : SCF
Type of density    : Electron Density
Multiplicity       :   1
Irrep              :   0
Energy             : -1981.4882242469211633 Eh
Relativity type    :
Basis              : AO
                                X                 Y                 Z
Electronic contribution:     -6.071646359       3.734761274      -0.683503241
Nuclear contribution   :      6.473004127      -4.774262740       2.660175910
                        -----------------------------------------
Total Dipole Moment    :      0.401357768      -1.039501466       1.976672669
                        -----------------------------------------
Magnitude (a.u.)       :      2.269115730
Magnitude (Debye)      :      5.767633824

Rotational constants in cm-1:             0.013805             0.006571             0.005230
Rotational constants in MHz :           413.854753           196.982358           156.791915

                             ****ORCA TERMINATED NORMALLY****
TOTAL RUN TIME: 0 days 0 hours 1 minutes 50 seconds 438 msec
