                         Program Version 6.0.0  -   RELEASE  -
|  1> ! pbe def2-sv(p) def2/J RI DEFGRID1 loosescf d4 GCP(DFT/SV(P)) printgap
|  2> %output
|  3>     printlevel normal
|  4> end
|  5> * xyz 0 1
|  6> C 1.5367617496 -2.5053562167 1.8586546652
|  7> C 2.066630794 -1.1105947863 2.1233011118
|  8> O 3.0650093891 -0.706418962 1.1717699716
|  9> P 2.7993352562 -0.4014970907 -0.3668978719
| 10> S 2.5534883408 -1.9488753415 -1.543241339
| 11> O 4.1103867716 0.3613425259 -0.7813323598
| 12> C 4.4645822197 1.7302297168 -0.4639634476
| 13> C 4.3522418892 2.0545575272 1.0097143666
| 14> S 1.2282046017 1.0529899817 -0.39659444
| 15> C -0.0414199971 0.0759970272 -1.2346421135
| 16> S -1.1268296985 -0.8106034331 -0.0891231587
| 17> P -2.8187558217 0.5020090118 -0.1279040391
| 18> S -2.6172568192 2.1787794698 -1.1119679411
| 19> O -3.2625985455 0.6388967603 1.3959140033
| 20> C -2.7356681275 1.6473847955 2.2759296302
| 21> C -1.2666746225 1.4344951858 2.580163645
| 22> O -3.9879876179 -0.3792434657 -0.7111522703
| 23> C -4.3177041764 -1.6977823373 -0.1995237181
| 24> C -4.0250193078 -2.7444418297 -1.2557014668
| 25> H 2.3588772613 -3.2126208987 1.7848197191
| 26> H 0.8802138832 -2.8001292741 2.6707132818
| 27> H 0.9745601708 -2.5296826921 0.9263747382
| 28> H 2.5890819177 -1.0597441606 3.0802075885
| 29> H 1.2536405521 -0.3785301407 2.1067892282
| 30> H 5.4948607897 1.8052363337 -0.815453345
| 31> H 3.8232117111 2.3876551616 -1.0565618595
| 32> H 4.7464517102 3.0517543993 1.1801866061
| 33> H 3.3103119417 2.0305438181 1.3232830711
| 34> H 4.919378809 1.3377649032 1.5975618739
| 35> H 0.4532630776 -0.6690106823 -1.8614043365
| 36> H -0.641273442 0.7712409579 -1.8230267158
| 37> H -2.8966755979 2.6266161573 1.8147746064
| 38> H -3.3502267006 1.5537399979 3.1725620616
| 39> H -0.670735703 1.6152548309 1.6857535209
| 40> H -0.956603814 2.1329903251 3.3506588636
| 41> H -1.0997577087 0.4172595596 2.926495783
| 42> H -3.7473076116 -1.8823314423 0.7133116269
| 43> H -5.3823289068 -1.6548846304 0.0346752953
| 44> H -4.3607117429 -3.71294002 -0.8991327207
| 45> H -4.5479663296 -2.4997749778 -2.1761001359
| 46> H -2.9580578979 -2.7928051694 -1.4602494035
| 47> *
| 48>
| 49>                          ****END OF INPUT****

CARTESIAN COORDINATES (ANGSTROEM)
---------------------------------
  C      1.536762   -2.505356    1.858655
  C      2.066631   -1.110595    2.123301
  O      3.065009   -0.706419    1.171770
  P      2.799335   -0.401497   -0.366898
  S      2.553488   -1.948875   -1.543241
  O      4.110387    0.361343   -0.781332
  C      4.464582    1.730230   -0.463963
  C      4.352242    2.054558    1.009714
  S      1.228205    1.052990   -0.396594
  C     -0.041420    0.075997   -1.234642
  S     -1.126830   -0.810603   -0.089123
  P     -2.818756    0.502009   -0.127904
  S     -2.617257    2.178779   -1.111968
  O     -3.262599    0.638897    1.395914
  C     -2.735668    1.647385    2.275930
  C     -1.266675    1.434495    2.580164
  O     -3.987988   -0.379243   -0.711152
  C     -4.317704   -1.697782   -0.199524
  C     -4.025019   -2.744442   -1.255701
  H      2.358877   -3.212621    1.784820
  H      0.880214   -2.800129    2.670713
  H      0.974560   -2.529683    0.926375
  H      2.589082   -1.059744    3.080208
  H      1.253641   -0.378530    2.106789
  H      5.494861    1.805236   -0.815453
  H      3.823212    2.387655   -1.056562
  H      4.746452    3.051754    1.180187
  H      3.310312    2.030544    1.323283
  H      4.919379    1.337765    1.597562
  H      0.453263   -0.669011   -1.861404
  H     -0.641273    0.771241   -1.823027
  H     -2.896676    2.626616    1.814775
  H     -3.350227    1.553740    3.172562
  H     -0.670736    1.615255    1.685754
  H     -0.956604    2.132990    3.350659
  H     -1.099758    0.417260    2.926496
  H     -3.747308   -1.882331    0.713312
  H     -5.382329   -1.654885    0.034675
  H     -4.360712   -3.712940   -0.899133
  H     -4.547966   -2.499775   -2.176100
  H     -2.958058   -2.792805   -1.460249

 Total Charge           Charge          ....    0
 Multiplicity           Mult            ....    1
 Number of Electrons    NEL             ....  202
 Basis Dimension        Dim             ....  334

ORBITAL ENERGIES
----------------

  NO   OCC          E(Eh)            E(eV)
   0   2.0000     -88.049016     -2395.9355
   1   2.0000     -88.047611     -2395.8973
   2   2.0000     -87.994031     -2394.4393
   3   2.0000     -87.985211     -2394.1993
   4   2.0000     -76.430771     -2079.7870
   5   2.0000     -76.428214     -2079.7174
   6   2.0000     -18.796241      -511.4717
   7   2.0000     -18.793153      -511.3877
   8   2.0000     -18.792639      -511.3737
   9   2.0000     -18.792254      -511.3632
  10   2.0000      -9.961337      -271.0618
  11   2.0000      -9.961095      -271.0552
  12   2.0000      -9.957701      -270.9628
  13   2.0000      -9.956273      -270.9240
  14   2.0000      -9.952232      -270.8140
  15   2.0000      -9.893917      -269.2272
  16   2.0000      -9.888712      -269.0855
  17   2.0000      -9.887769      -269.0599
  18   2.0000      -9.881778      -268.8968
  19   2.0000      -7.693118      -209.3404
  20   2.0000      -7.691973      -209.3092
  21   2.0000      -7.639187      -207.8728
  22   2.0000      -7.630372      -207.6330
  23   2.0000      -6.428457      -174.9272
  24   2.0000      -6.425506      -174.8469
  25   2.0000      -5.720840      -155.6720
  26   2.0000      -5.719721      -155.6415
  27   2.0000      -5.717526      -155.5818
  28   2.0000      -5.716510      -155.5541
  29   2.0000      -5.710525      -155.3913
  30   2.0000      -5.709142      -155.3536
  31   2.0000      -5.668215      -154.2400
  32   2.0000      -5.659674      -154.0076
  33   2.0000      -5.659458      -154.0017
  34   2.0000      -5.659344      -153.9986
  35   2.0000      -5.651109      -153.7745
  36   2.0000      -5.650206      -153.7499
  37   2.0000      -4.651115      -126.5633
  38   2.0000      -4.650069      -126.5348
  39   2.0000      -4.648975      -126.5050
  40   2.0000      -4.648147      -126.4825
  41   2.0000      -4.647573      -126.4669
  42   2.0000      -4.645645      -126.4144
  43   2.0000      -0.991443       -26.9785
  44   2.0000      -0.988192       -26.8901
  45   2.0000      -0.947809       -25.7912
  46   2.0000      -0.946382       -25.7524
  47   2.0000      -0.764374       -20.7997
  48   2.0000      -0.725120       -19.7315
  49   2.0000      -0.716661       -19.5013
  50   2.0000      -0.693406       -18.8685
  51   2.0000      -0.692917       -18.8552
  52   2.0000      -0.681692       -18.5498
  53   2.0000      -0.653491       -17.7824
  54   2.0000      -0.641912       -17.4673
  55   2.0000      -0.600443       -16.3389
  56   2.0000      -0.594738       -16.1837
  57   2.0000      -0.579030       -15.7562
  58   2.0000      -0.578568       -15.7436
  59   2.0000      -0.564552       -15.3622
  60   2.0000      -0.509053       -13.8520
  61   2.0000      -0.496390       -13.5075
  62   2.0000      -0.477089       -12.9822
  63   2.0000      -0.475971       -12.9518
  64   2.0000      -0.462662       -12.5897
  65   2.0000      -0.451276       -12.2798
  66   2.0000      -0.445487       -12.1223
  67   2.0000      -0.441670       -12.0185
  68   2.0000      -0.435641       -11.8544
  69   2.0000      -0.426795       -11.6137
  70   2.0000      -0.406732       -11.0677
  71   2.0000      -0.405621       -11.0375
  72   2.0000      -0.401676       -10.9301
  73   2.0000      -0.394910       -10.7460
  74   2.0000      -0.380081       -10.3425
  75   2.0000      -0.373091       -10.1523
  76   2.0000      -0.362284        -9.8582
  77   2.0000      -0.360225        -9.8022
  78   2.0000      -0.358502        -9.7553
  79   2.0000      -0.355918        -9.6850
  80   2.0000      -0.352608        -9.5949
  81   2.0000      -0.349886        -9.5209
  82   2.0000      -0.346693        -9.4340
  83   2.0000      -0.343667        -9.3517
  84   2.0000      -0.338207        -9.2031
  85   2.0000      -0.320223        -8.7137
  86   2.0000      -0.314413        -8.5556
  87   2.0000      -0.304812        -8.2943
  88   2.0000      -0.300771        -8.1844
  89   2.0000      -0.295973        -8.0538
  90   2.0000      -0.288918        -7.8619
  91   2.0000      -0.278888        -7.5889
  92   2.0000      -0.275370        -7.4932
  93   2.0000      -0.265901        -7.2355
  94   2.0000      -0.263215        -7.1624
  95   2.0000      -0.236745        -6.4422
  96   2.0000      -0.222097        -6.0436
  97   2.0000      -0.215136        -5.8542
  98   2.0000      -0.210442        -5.7264
  99   2.0000      -0.204931        -5.5765
 100   2.0000      -0.197285        -5.3684
 101   0.0000      -0.049075        -1.3354
 102   0.0000      -0.038949        -1.0598
 103   0.0000      -0.019059        -0.5186
 104   0.0000       0.004324         0.1177
 105   0.0000       0.008396         0.2285

MULLIKEN ATOMIC CHARGES
-----------------------
   0 C :   -0.304438
   1 C :   -0.032412
   2 O :   -0.369188
   3 P :    0.596735
   4 S :   -0.302129
   5 O :   -0.357730
   6 C :   -0.003353
   7 C :   -0.319747
   8 S :   -0.121967
   9 C :   -0.337555
  10 S :   -0.119407
  11 P :    0.596269
  12 S :   -0.301246
  13 O :   -0.379163
  14 C :    0.012386
  15 C :   -0.349419
  16 O :   -0.354828
  17 C :   -0.017969
  18 C :   -0.283761
  19 H :    0.121420
  20 H :    0.105187
  21 H :    0.130982
  22 H :    0.104582
  23 H :    0.124034
  24 H :    0.115095
  25 H :    0.116566
  26 H :    0.117642
  27 H :    0.123567
  28 H :    0.128229
  29 H :    0.196489
  30 H :    0.194160
  31 H :    0.112452
  32 H :    0.104633
  33 H :    0.142863
  34 H :    0.112535
  35 H :    0.121998
  36 H :    0.106812
  37 H :    0.114862
  38 H :    0.110060
  39 H :    0.122274
  40 H :    0.122479
Sum of atomic charges:   -0.0000000

LOEWDIN ATOMIC CHARGES
----------------------
   0 C :   -0.367635
   1 C :   -0.120765
   2 O :   -0.241451
   3 P :    0.566513
   4 S :   -0.297000
   5 O :   -0.233617
   6 C :   -0.111341
   7 C :   -0.367998
   8 S :    0.078834
   9 C :   -0.488769
  10 S :    0.077229
  11 P :    0.569179
  12 S :   -0.294991
  13 O :   -0.250336
  14 C :   -0.114529
  15 C :   -0.375612
  16 O :   -0.239101
  17 C :   -0.112285
  18 C :   -0.358224
  19 H :    0.129454
  20 H :    0.127729
  21 H :    0.113606
  22 H :    0.119034
  23 H :    0.105655
  24 H :    0.125111
  25 H :    0.113463
  26 H :    0.133355
  27 H :    0.117333
  28 H :    0.131133
  29 H :    0.126022
  30 H :    0.127536
  31 H :    0.113144
  32 H :    0.118800
  33 H :    0.114187
  34 H :    0.130842
  35 H :    0.121535
  36 H :    0.106690
  37 H :    0.123233
  38 H :    0.129927
  39 H :    0.130563
  40 H :    0.123545

  Mayer bond orders larger than 0.100000
B(  0-C ,  1-C ) :   1.1666 B(  0-C , 19-H ) :   0.9436 B(  0-C , 20-H ) :   0.9371
B(  0-C , 21-H ) :   0.9263 B(  1-C ,  2-O ) :   0.9157 B(  1-C , 22-H ) :   0.9339
B(  1-C , 23-H ) :   0.9084 B(  2-O ,  3-P ) :   1.0878 B(  3-P ,  4-S ) :   1.6430
B(  3-P ,  5-O ) :   1.1495 B(  3-P ,  8-S ) :   0.9306 B(  4-S ,  8-S ) :   0.1134
B(  4-S , 29-H ) :   0.1143 B(  5-O ,  6-C ) :   0.9032 B(  6-C ,  7-C ) :   1.1667
B(  6-C , 24-H ) :   0.9345 B(  6-C , 25-H ) :   0.9254 B(  7-C , 26-H ) :   0.9344
B(  7-C , 27-H ) :   0.9396 B(  7-C , 28-H ) :   0.9416 B(  8-S ,  9-C ) :   1.0157
B(  9-C , 10-S ) :   1.0136 B(  9-C , 29-H ) :   0.8497 B(  9-C , 30-H ) :   0.8576
B( 10-S , 11-P ) :   0.9334 B( 10-S , 12-S ) :   0.1122 B( 11-P , 12-S ) :   1.6351
B( 11-P , 13-O ) :   1.0910 B( 11-P , 16-O ) :   1.1477 B( 13-O , 14-C ) :   0.9131
B( 14-C , 15-C ) :   1.1613 B( 14-C , 31-H ) :   0.9187 B( 14-C , 32-H ) :   0.9337
B( 15-C , 33-H ) :   0.9248 B( 15-C , 34-H ) :   0.9360 B( 15-C , 35-H ) :   0.9378
B( 16-O , 17-C ) :   0.8858 B( 17-C , 18-C ) :   1.1631 B( 17-C , 36-H ) :   0.9185
B( 17-C , 37-H ) :   0.9335 B( 18-C , 38-H ) :   0.9397 B( 18-C , 39-H ) :   0.9460
B( 18-C , 40-H ) :   0.9402

Dispersion correction           -0.064041392
FINAL SINGLE POINT ENERGY     -2929.515435823364

DIPOLE MOMENT
-------------

Method             : SCF
Type of density    : Electron Density
Multiplicity       :   1
Irrep              :   0
Energy             : -2929.6365676748287115 Eh
Relativity type    :
Basis              : AO
                                X                 Y                 Z
Electronic contribution:     -0.346413923       3.521692499     -15.814074063
Nuclear contribution   :      0.195472771      -3.353068335      17.695205647
                        -----------------------------------------
Total Dipole Moment    :     -0.150941153       0.168624164       1.881131584
                        -----------------------------------------
Magnitude (a.u.)       :      1.894696117
Magnitude (Debye)      :      4.815934801

Rotational constants in cm-1:             0.012081             0.004554             0.004198
Rotational constants in MHz :           362.193049           136.522753           125.866775

                             ****ORCA TERMINATED NORMALLY****
TOTAL RUN TIME: 0 days 0 hours 0 minutes 20 seconds 991 msec
