                         Program Version 6.0.0  -   RELEASE  -
|  1> ! pbe def2-sv(p) def2/J RI DEFGRID1 loosescf d4 GCP(DFT/SV(P)) printgap
|  2> %output
|  3>     printlevel normal
|  4> end
|  5> * xyz 0 1
|  6> C 4.6541188187 0.3062753796 -1.766959503
|  7> C 4.3013053367 1.3978663134 -0.7782173367
|  8> O 3.4299224253 0.9308955292 0.2673659465
|  9> P 1.9395880621 0.4554075075 -0.0026474104
| 10> S 0.9219700166 1.5100405003 -1.3051619114
| 11> O 1.2991585216 0.5454903653 1.4371780216
| 12> C 1.9807515133 0.2930895551 2.6937086009
| 13> C 2.3317695152 -1.1679398078 2.882212655
| 14> S 2.1344587435 -1.6102614583 -0.4913757673
| 15> C 0.4188378288 -1.9162627235 -0.9465670394
| 16> S -0.7293279343 -1.747742555 0.4647434863
| 17> P -2.0795402918 -0.3289396095 -0.3269590163
| 18> S -2.1542169933 -0.1077270193 -2.264574375
| 19> O -1.8236588089 1.036797875 0.4438454973
| 20> C -1.8927270116 1.1108791432 1.8872622512
| 21> C -1.3966884212 2.4802342454 2.300383749
| 22> O -3.3926730305 -0.956485003 0.3396003034
| 23> C -4.6919684177 -0.8262582999 -0.2663391872
| 24> C -5.2419124612 0.5775571428 -0.1088003954
| 25> H 5.0238878076 -0.5733139472 -1.2463514879
| 26> H 3.7741088499 0.0284437143 -2.3448950918
| 27> H 5.4173905273 0.6725682189 -2.4460348294
| 28> H 3.8111269728 2.233485486 -1.2870406582
| 29> H 5.1809979998 1.7535982364 -0.2397439062
| 30> H 2.872255577 0.9209226891 2.7309430744
| 31> H 1.2565961277 0.629167158 3.4378933689
| 32> H 2.6823371503 -1.3152115854 3.8989957957
| 33> H 1.457504967 -1.7926536491 2.7114239081
| 34> H 3.1160213805 -1.4659916726 2.1905449143
| 35> H 0.3758588129 -2.9440098649 -1.2977782926
| 36> H 0.1078091236 -1.219688503 -1.7303991082
| 37> H -2.9300020517 0.9469827372 2.1891329435
| 38> H -1.2696201903 0.3129242653 2.302873063
| 39> H -2.018290352 3.2516427092 1.8547123679
| 40> H -1.4328725377 2.5641764344 3.3817024562
| 41> H -0.3748768978 2.6198594899 1.9565737477
| 42> H -4.6096429228 -1.0883798579 -1.3256006392
| 43> H -5.3025938274 -1.5651585436 0.2540857286
| 44> H -4.5777056809 1.2878049026 -0.602356965
| 45> H -6.2226135069 0.6343842346 -0.570514883
| 46> H -5.3247055398 0.8411635589 0.9425389915
| 47> *
| 48>
| 49>                          ****END OF INPUT****

CARTESIAN COORDINATES (ANGSTROEM)
---------------------------------
  C      4.654119    0.306275   -1.766960
  C      4.301305    1.397866   -0.778217
  O      3.429922    0.930896    0.267366
  P      1.939588    0.455408   -0.002647
  S      0.921970    1.510041   -1.305162
  O      1.299159    0.545490    1.437178
  C      1.980752    0.293090    2.693709
  C      2.331770   -1.167940    2.882213
  S      2.134459   -1.610261   -0.491376
  C      0.418838   -1.916263   -0.946567
  S     -0.729328   -1.747743    0.464743
  P     -2.079540   -0.328940   -0.326959
  S     -2.154217   -0.107727   -2.264574
  O     -1.823659    1.036798    0.443845
  C     -1.892727    1.110879    1.887262
  C     -1.396688    2.480234    2.300384
  O     -3.392673   -0.956485    0.339600
  C     -4.691968   -0.826258   -0.266339
  C     -5.241912    0.577557   -0.108800
  H      5.023888   -0.573314   -1.246351
  H      3.774109    0.028444   -2.344895
  H      5.417391    0.672568   -2.446035
  H      3.811127    2.233485   -1.287041
  H      5.180998    1.753598   -0.239744
  H      2.872256    0.920923    2.730943
  H      1.256596    0.629167    3.437893
  H      2.682337   -1.315212    3.898996
  H      1.457505   -1.792654    2.711424
  H      3.116021   -1.465992    2.190545
  H      0.375859   -2.944010   -1.297778
  H      0.107809   -1.219689   -1.730399
  H     -2.930002    0.946983    2.189133
  H     -1.269620    0.312924    2.302873
  H     -2.018290    3.251643    1.854712
  H     -1.432873    2.564176    3.381702
  H     -0.374877    2.619859    1.956574
  H     -4.609643   -1.088380   -1.325601
  H     -5.302594   -1.565159    0.254086
  H     -4.577706    1.287805   -0.602357
  H     -6.222614    0.634384   -0.570515
  H     -5.324706    0.841164    0.942539

 Total Charge           Charge          ....    0
 Multiplicity           Mult            ....    1
 Number of Electrons    NEL             ....  202
 Basis Dimension        Dim             ....  334

ORBITAL ENERGIES
----------------

  NO   OCC          E(Eh)            E(eV)
   0   2.0000     -88.040953     -2395.7161
   1   2.0000     -88.035946     -2395.5799
   2   2.0000     -87.980449     -2394.0697
   3   2.0000     -87.978589     -2394.0191
   4   2.0000     -76.424720     -2079.6224
   5   2.0000     -76.417732     -2079.4322
   6   2.0000     -18.796750      -511.4856
   7   2.0000     -18.790758      -511.3225
   8   2.0000     -18.783130      -511.1149
   9   2.0000     -18.782527      -511.0985
  10   2.0000      -9.958812      -270.9930
  11   2.0000      -9.955719      -270.9089
  12   2.0000      -9.951349      -270.7900
  13   2.0000      -9.948212      -270.7046
  14   2.0000      -9.947155      -270.6758
  15   2.0000      -9.887403      -269.0499
  16   2.0000      -9.885266      -268.9918
  17   2.0000      -9.882048      -268.9042
  18   2.0000      -9.880182      -268.8534
  19   2.0000      -7.685895      -209.1438
  20   2.0000      -7.681096      -209.0133
  21   2.0000      -7.625695      -207.5057
  22   2.0000      -7.623521      -207.4465
  23   2.0000      -6.421892      -174.7486
  24   2.0000      -6.415772      -174.5820
  25   2.0000      -5.713794      -155.4802
  26   2.0000      -5.710349      -155.3865
  27   2.0000      -5.708944      -155.3483
  28   2.0000      -5.705775      -155.2620
  29   2.0000      -5.702915      -155.1842
  30   2.0000      -5.697839      -155.0461
  31   2.0000      -5.654784      -153.8745
  32   2.0000      -5.652529      -153.8131
  33   2.0000      -5.646504      -153.6492
  34   2.0000      -5.645428      -153.6199
  35   2.0000      -5.644212      -153.5868
  36   2.0000      -5.643546      -153.5687
  37   2.0000      -4.645019      -126.3974
  38   2.0000      -4.643490      -126.3558
  39   2.0000      -4.642000      -126.3152
  40   2.0000      -4.638593      -126.2225
  41   2.0000      -4.637138      -126.1830
  42   2.0000      -4.636380      -126.1623
  43   2.0000      -0.989816       -26.9343
  44   2.0000      -0.976908       -26.5830
  45   2.0000      -0.945721       -25.7344
  46   2.0000      -0.934969       -25.4418
  47   2.0000      -0.759498       -20.6670
  48   2.0000      -0.718908       -19.5625
  49   2.0000      -0.708543       -19.2804
  50   2.0000      -0.692371       -18.8404
  51   2.0000      -0.685934       -18.6652
  52   2.0000      -0.672566       -18.3014
  53   2.0000      -0.647771       -17.6267
  54   2.0000      -0.630678       -17.1616
  55   2.0000      -0.597034       -16.2461
  56   2.0000      -0.585307       -15.9270
  57   2.0000      -0.581245       -15.8165
  58   2.0000      -0.563909       -15.3447
  59   2.0000      -0.556250       -15.1363
  60   2.0000      -0.499806       -13.6004
  61   2.0000      -0.496427       -13.5085
  62   2.0000      -0.474170       -12.9028
  63   2.0000      -0.472249       -12.8505
  64   2.0000      -0.452414       -12.3108
  65   2.0000      -0.446441       -12.1483
  66   2.0000      -0.444050       -12.0832
  67   2.0000      -0.433092       -11.7850
  68   2.0000      -0.426680       -11.6105
  69   2.0000      -0.417321       -11.3559
  70   2.0000      -0.403515       -10.9802
  71   2.0000      -0.398128       -10.8336
  72   2.0000      -0.393276       -10.7016
  73   2.0000      -0.383420       -10.4334
  74   2.0000      -0.377424       -10.2702
  75   2.0000      -0.367355        -9.9962
  76   2.0000      -0.361802        -9.8451
  77   2.0000      -0.356941        -9.7128
  78   2.0000      -0.353382        -9.6160
  79   2.0000      -0.351006        -9.5514
  80   2.0000      -0.345642        -9.4054
  81   2.0000      -0.343872        -9.3572
  82   2.0000      -0.336526        -9.1573
  83   2.0000      -0.333405        -9.0724
  84   2.0000      -0.332104        -9.0370
  85   2.0000      -0.317561        -8.6413
  86   2.0000      -0.310209        -8.4412
  87   2.0000      -0.307022        -8.3545
  88   2.0000      -0.299796        -8.1579
  89   2.0000      -0.294618        -8.0170
  90   2.0000      -0.275824        -7.5055
  91   2.0000      -0.273200        -7.4342
  92   2.0000      -0.262657        -7.1473
  93   2.0000      -0.260742        -7.0952
  94   2.0000      -0.257372        -7.0035
  95   2.0000      -0.229512        -6.2453
  96   2.0000      -0.214511        -5.8371
  97   2.0000      -0.212417        -5.7802
  98   2.0000      -0.198852        -5.4110
  99   2.0000      -0.188372        -5.1259
 100   2.0000      -0.183273        -4.9871
 101   0.0000      -0.040641        -1.1059
 102   0.0000      -0.030678        -0.8348
 103   0.0000      -0.006418        -0.1746
 104   0.0000       0.010357         0.2818
 105   0.0000       0.023563         0.6412

MULLIKEN ATOMIC CHARGES
-----------------------
   0 C :   -0.323283
   1 C :    0.001827
   2 O :   -0.387245
   3 P :    0.601114
   4 S :   -0.281292
   5 O :   -0.358630
   6 C :   -0.003021
   7 C :   -0.313756
   8 S :   -0.109715
   9 C :   -0.350990
  10 S :   -0.111901
  11 P :    0.633847
  12 S :   -0.291506
  13 O :   -0.358934
  14 C :   -0.027920
  15 C :   -0.281280
  16 O :   -0.401469
  17 C :   -0.004209
  18 C :   -0.317713
  19 H :    0.116695
  20 H :    0.135061
  21 H :    0.115635
  22 H :    0.113683
  23 H :    0.103582
  24 H :    0.112116
  25 H :    0.106146
  26 H :    0.110845
  27 H :    0.128108
  28 H :    0.123266
  29 H :    0.182426
  30 H :    0.208225
  31 H :    0.100555
  32 H :    0.105611
  33 H :    0.116606
  34 H :    0.100203
  35 H :    0.133564
  36 H :    0.111878
  37 H :    0.102239
  38 H :    0.132955
  39 H :    0.112161
  40 H :    0.114516
Sum of atomic charges:   -0.0000000

LOEWDIN ATOMIC CHARGES
----------------------
   0 C :   -0.372284
   1 C :   -0.115915
   2 O :   -0.249145
   3 P :    0.562533
   4 S :   -0.289000
   5 O :   -0.235028
   6 C :   -0.109066
   7 C :   -0.369982
   8 S :    0.077846
   9 C :   -0.479175
  10 S :    0.072266
  11 P :    0.574822
  12 S :   -0.289407
  13 O :   -0.235160
  14 C :   -0.119590
  15 C :   -0.352319
  16 O :   -0.263281
  17 C :   -0.118724
  18 C :   -0.365493
  19 H :    0.122703
  20 H :    0.124278
  21 H :    0.132637
  22 H :    0.114090
  23 H :    0.117907
  24 H :    0.114758
  25 H :    0.117080
  26 H :    0.129706
  27 H :    0.124466
  28 H :    0.118292
  29 H :    0.137325
  30 H :    0.125069
  31 H :    0.105909
  32 H :    0.102489
  33 H :    0.128323
  34 H :    0.124795
  35 H :    0.130460
  36 H :    0.109490
  37 H :    0.117074
  38 H :    0.127194
  39 H :    0.130855
  40 H :    0.121201

  Mayer bond orders larger than 0.100000
B(  0-C ,  1-C ) :   1.1675 B(  0-C , 19-H ) :   0.9436 B(  0-C , 20-H ) :   0.9328
B(  0-C , 21-H ) :   0.9366 B(  1-C ,  2-O ) :   0.9032 B(  1-C , 22-H ) :   0.9172
B(  1-C , 23-H ) :   0.9342 B(  2-O ,  3-P ) :   1.0756 B(  3-P ,  4-S ) :   1.6701
B(  3-P ,  5-O ) :   1.1129 B(  3-P ,  8-S ) :   0.9333 B(  4-S ,  8-S ) :   0.1089
B(  5-O ,  6-C ) :   0.8974 B(  6-C ,  7-C ) :   1.1753 B(  6-C , 24-H ) :   0.9257
B(  6-C , 25-H ) :   0.9295 B(  7-C , 26-H ) :   0.9355 B(  7-C , 27-H ) :   0.9397
B(  7-C , 28-H ) :   0.9388 B(  8-S ,  9-C ) :   1.0040 B(  9-C , 10-S ) :   1.0011
B(  9-C , 29-H ) :   0.9115 B(  9-C , 30-H ) :   0.8466 B( 10-S , 11-P ) :   0.9591
B( 10-S , 12-S ) :   0.1072 B( 11-P , 12-S ) :   1.6355 B( 11-P , 13-O ) :   1.1103
B( 11-P , 16-O ) :   1.0603 B( 13-O , 14-C ) :   0.9032 B( 14-C , 15-C ) :   1.1673
B( 14-C , 31-H ) :   0.9224 B( 14-C , 32-H ) :   0.9104 B( 15-C , 33-H ) :   0.9489
B( 15-C , 34-H ) :   0.9402 B( 15-C , 35-H ) :   0.9402 B( 16-O , 17-C ) :   0.9158
B( 17-C , 18-C ) :   1.1594 B( 17-C , 36-H ) :   0.9128 B( 17-C , 37-H ) :   0.9345
B( 18-C , 38-H ) :   0.9362 B( 18-C , 39-H ) :   0.9392 B( 18-C , 40-H ) :   0.9441

Dispersion correction           -0.068344797
FINAL SINGLE POINT ENERGY     -2929.513953739100

DIPOLE MOMENT
-------------

Method             : SCF
Type of density    : Electron Density
Multiplicity       :   1
Irrep              :   0
Energy             : -2929.6325617587817760 Eh
Relativity type    :
Basis              : AO
                                X                 Y                 Z
Electronic contribution:     -0.485030790      -6.488318489     -12.670650389
Nuclear contribution   :      1.063168903       6.283111603      14.283534368
                        -----------------------------------------
Total Dipole Moment    :      0.578138114      -0.205206886       1.612883979
                        -----------------------------------------
Magnitude (a.u.)       :      1.725615332
Magnitude (Debye)      :      4.386165600

Rotational constants in cm-1:             0.013173             0.005361             0.005049
Rotational constants in MHz :           394.922775           160.706039           151.376770

                             ****ORCA TERMINATED NORMALLY****
TOTAL RUN TIME: 0 days 0 hours 0 minutes 21 seconds 702 msec
