                         Program Version 6.0.0  -   RELEASE  -
|  1> ! pbe def2-sv(p) def2/J RI DEFGRID1 loosescf d4 GCP(DFT/SV(P)) printgap
|  2> %output
|  3>     printlevel normal
|  4> end
|  5> * xyz 0 1
|  6> C 4.7567990077 1.3625034754 0.4488176956
|  7> C 3.4202508665 1.6758928004 -0.1896269845
|  8> O 2.7604043714 0.4802437315 -0.6548419416
|  9> P 2.1640271754 -0.5893506666 0.3476991696
| 10> S 1.5589487286 0.0767458611 2.096125545
| 11> O 3.3453596131 -1.6490900156 0.4566592787
| 12> C 3.3670243179 -2.6701398955 1.4663844173
| 13> C 2.2939639105 -3.7133897138 1.2298640404
| 14> S 0.7788344076 -1.5333271473 -0.949027157
| 15> C 0.065023393 -0.0745268087 -1.7716485427
| 16> S -0.4092993511 1.2639457592 -0.6513416508
| 17> P -2.4446327118 0.7467336793 -0.2822343553
| 18> S -3.2482498316 -0.5228049934 -1.5463078628
| 19> O -3.1280356125 2.1650508552 -0.11009876
| 20> C -2.9779129471 3.280696572 -1.0063627527
| 21> C -3.3059533633 2.9287800454 -2.4432051443
| 22> O -2.5531124953 0.3207887819 1.238149216
| 23> C -2.9101924853 -0.9971646144 1.6875836856
| 24> C -1.7113401152 -1.9222826475 1.733146432
| 25> H 5.2654236888 2.2893157016 0.6948418291
| 26> H 4.6041411485 0.7889211134 1.3622860918
| 27> H 5.3708126995 0.7799892164 -0.232888595
| 28> H 3.5308703699 2.2812435624 -1.090075683
| 29> H 2.7581742455 2.1835481377 0.5194365809
| 30> H 4.3689574652 -3.094835674 1.3932752248
| 31> H 3.2328469599 -2.1944017574 2.4438248421
| 32> H 1.3084176632 -3.2571620687 1.3257533701
| 33> H 2.3862460063 -4.1318247362 0.2309729388
| 34> H 2.389059015 -4.5056614358 1.9652777098
| 35> H -0.8228242617 -0.436740926 -2.2963433895
| 36> H 0.7981345479 0.3352456262 -2.4607738045
| 37> H -3.6739944804 4.0215208994 -0.6087573061
| 38> H -1.953819323 3.6551684498 -0.9212734969
| 39> H -2.5827319639 2.2124524274 -2.8307697513
| 40> H -4.2971725394 2.486000123 -2.5069400537
| 41> H -3.2743813744 3.8278717634 -3.0501861222
| 42> H -3.3229212912 -0.8307166081 2.6836783133
| 43> H -3.6838323236 -1.4007453331 1.0260909426
| 44> H -1.372734702 -2.1483609773 0.7227494354
| 45> H -0.8986645889 -1.4531332442 2.2847003499
| 46> H -1.9897317059 -2.8481433614 2.2258748411
| 47> *
| 48>
| 49>                          ****END OF INPUT****

CARTESIAN COORDINATES (ANGSTROEM)
---------------------------------
  C      4.756799    1.362503    0.448818
  C      3.420251    1.675893   -0.189627
  O      2.760404    0.480244   -0.654842
  P      2.164027   -0.589351    0.347699
  S      1.558949    0.076746    2.096126
  O      3.345360   -1.649090    0.456659
  C      3.367024   -2.670140    1.466384
  C      2.293964   -3.713390    1.229864
  S      0.778834   -1.533327   -0.949027
  C      0.065023   -0.074527   -1.771649
  S     -0.409299    1.263946   -0.651342
  P     -2.444633    0.746734   -0.282234
  S     -3.248250   -0.522805   -1.546308
  O     -3.128036    2.165051   -0.110099
  C     -2.977913    3.280697   -1.006363
  C     -3.305953    2.928780   -2.443205
  O     -2.553112    0.320789    1.238149
  C     -2.910192   -0.997165    1.687584
  C     -1.711340   -1.922283    1.733146
  H      5.265424    2.289316    0.694842
  H      4.604141    0.788921    1.362286
  H      5.370813    0.779989   -0.232889
  H      3.530870    2.281244   -1.090076
  H      2.758174    2.183548    0.519437
  H      4.368957   -3.094836    1.393275
  H      3.232847   -2.194402    2.443825
  H      1.308418   -3.257162    1.325753
  H      2.386246   -4.131825    0.230973
  H      2.389059   -4.505661    1.965278
  H     -0.822824   -0.436741   -2.296343
  H      0.798135    0.335246   -2.460774
  H     -3.673994    4.021521   -0.608757
  H     -1.953819    3.655168   -0.921273
  H     -2.582732    2.212452   -2.830770
  H     -4.297173    2.486000   -2.506940
  H     -3.274381    3.827872   -3.050186
  H     -3.322921   -0.830717    2.683678
  H     -3.683832   -1.400745    1.026091
  H     -1.372735   -2.148361    0.722749
  H     -0.898665   -1.453133    2.284700
  H     -1.989732   -2.848143    2.225875

 Total Charge           Charge          ....    0
 Multiplicity           Mult            ....    1
 Number of Electrons    NEL             ....  202
 Basis Dimension        Dim             ....  334

ORBITAL ENERGIES
----------------

  NO   OCC          E(Eh)            E(eV)
   0   2.0000     -88.045136     -2395.8300
   1   2.0000     -88.041128     -2395.7209
   2   2.0000     -87.989536     -2394.3170
   3   2.0000     -87.987411     -2394.2592
   4   2.0000     -76.428661     -2079.7296
   5   2.0000     -76.426584     -2079.6731
   6   2.0000     -18.798201      -511.5251
   7   2.0000     -18.793407      -511.3946
   8   2.0000     -18.790218      -511.3078
   9   2.0000     -18.782742      -511.1044
  10   2.0000      -9.956146      -270.9205
  11   2.0000      -9.955804      -270.9112
  12   2.0000      -9.955635      -270.9066
  13   2.0000      -9.953813      -270.8570
  14   2.0000      -9.941450      -270.5206
  15   2.0000      -9.887941      -269.0646
  16   2.0000      -9.886438      -269.0237
  17   2.0000      -9.883594      -268.9463
  18   2.0000      -9.865842      -268.4632
  19   2.0000      -7.689768      -209.2492
  20   2.0000      -7.686128      -209.1502
  21   2.0000      -7.634416      -207.7430
  22   2.0000      -7.632110      -207.6803
  23   2.0000      -6.426113      -174.8634
  24   2.0000      -6.423744      -174.7990
  25   2.0000      -5.717588      -155.5835
  26   2.0000      -5.714221      -155.4919
  27   2.0000      -5.714137      -155.4896
  28   2.0000      -5.710666      -155.3951
  29   2.0000      -5.706981      -155.2949
  30   2.0000      -5.702838      -155.1821
  31   2.0000      -5.663167      -154.1026
  32   2.0000      -5.660929      -154.0417
  33   2.0000      -5.655155      -153.8846
  34   2.0000      -5.654639      -153.8705
  35   2.0000      -5.652855      -153.8220
  36   2.0000      -5.652309      -153.8071
  37   2.0000      -4.648757      -126.4991
  38   2.0000      -4.647907      -126.4760
  39   2.0000      -4.646482      -126.4372
  40   2.0000      -4.645972      -126.4233
  41   2.0000      -4.645656      -126.4147
  42   2.0000      -4.644413      -126.3809
  43   2.0000      -0.990995       -26.9664
  44   2.0000      -0.984571       -26.7915
  45   2.0000      -0.951051       -25.8794
  46   2.0000      -0.939859       -25.5749
  47   2.0000      -0.762762       -20.7558
  48   2.0000      -0.720860       -19.6156
  49   2.0000      -0.709052       -19.2943
  50   2.0000      -0.690219       -18.7818
  51   2.0000      -0.680872       -18.5275
  52   2.0000      -0.671586       -18.2748
  53   2.0000      -0.654381       -17.8066
  54   2.0000      -0.640438       -17.4272
  55   2.0000      -0.601838       -16.3768
  56   2.0000      -0.594535       -16.1781
  57   2.0000      -0.576156       -15.6780
  58   2.0000      -0.570076       -15.5125
  59   2.0000      -0.558847       -15.2070
  60   2.0000      -0.497524       -13.5383
  61   2.0000      -0.492445       -13.4001
  62   2.0000      -0.477537       -12.9945
  63   2.0000      -0.464643       -12.6436
  64   2.0000      -0.458543       -12.4776
  65   2.0000      -0.444520       -12.0960
  66   2.0000      -0.441588       -12.0162
  67   2.0000      -0.430472       -11.7137
  68   2.0000      -0.423970       -11.5368
  69   2.0000      -0.418350       -11.3839
  70   2.0000      -0.413024       -11.2390
  71   2.0000      -0.401731       -10.9317
  72   2.0000      -0.396584       -10.7916
  73   2.0000      -0.391100       -10.6424
  74   2.0000      -0.380659       -10.3583
  75   2.0000      -0.373870       -10.1735
  76   2.0000      -0.369413       -10.0522
  77   2.0000      -0.358861        -9.7651
  78   2.0000      -0.353168        -9.6102
  79   2.0000      -0.349910        -9.5215
  80   2.0000      -0.347473        -9.4552
  81   2.0000      -0.344297        -9.3688
  82   2.0000      -0.335934        -9.1412
  83   2.0000      -0.334519        -9.1027
  84   2.0000      -0.329935        -8.9780
  85   2.0000      -0.321176        -8.7396
  86   2.0000      -0.306865        -8.3502
  87   2.0000      -0.298052        -8.1104
  88   2.0000      -0.296245        -8.0612
  89   2.0000      -0.287654        -7.8275
  90   2.0000      -0.281133        -7.6500
  91   2.0000      -0.276935        -7.5358
  92   2.0000      -0.270759        -7.3677
  93   2.0000      -0.264104        -7.1866
  94   2.0000      -0.259287        -7.0556
  95   2.0000      -0.233253        -6.3471
  96   2.0000      -0.222880        -6.0649
  97   2.0000      -0.210954        -5.7404
  98   2.0000      -0.205972        -5.6048
  99   2.0000      -0.200981        -5.4690
 100   2.0000      -0.194367        -5.2890
 101   0.0000      -0.050690        -1.3793
 102   0.0000      -0.025657        -0.6982
 103   0.0000      -0.019971        -0.5434
 104   0.0000      -0.000141        -0.0038
 105   0.0000       0.012450         0.3388

MULLIKEN ATOMIC CHARGES
-----------------------
   0 C :   -0.304764
   1 C :   -0.006382
   2 O :   -0.374712
   3 P :    0.608981
   4 S :   -0.309101
   5 O :   -0.366477
   6 C :   -0.003330
   7 C :   -0.338760
   8 S :   -0.097376
   9 C :   -0.336506
  10 S :   -0.103170
  11 P :    0.618930
  12 S :   -0.332129
  13 O :   -0.360564
  14 C :   -0.006228
  15 C :   -0.308214
  16 O :   -0.351873
  17 C :    0.005950
  18 C :   -0.344927
  19 H :    0.113387
  20 H :    0.123789
  21 H :    0.118048
  22 H :    0.104012
  23 H :    0.115949
  24 H :    0.106676
  25 H :    0.109579
  26 H :    0.145106
  27 H :    0.123954
  28 H :    0.117055
  29 H :    0.191358
  30 H :    0.187019
  31 H :    0.109916
  32 H :    0.112111
  33 H :    0.117790
  34 H :    0.127238
  35 H :    0.110598
  36 H :    0.101271
  37 H :    0.109189
  38 H :    0.131592
  39 H :    0.135257
  40 H :    0.099754
Sum of atomic charges:   -0.0000000

LOEWDIN ATOMIC CHARGES
----------------------
   0 C :   -0.364250
   1 C :   -0.118153
   2 O :   -0.241284
   3 P :    0.569802
   4 S :   -0.305987
   5 O :   -0.242734
   6 C :   -0.121568
   7 C :   -0.370742
   8 S :    0.093758
   9 C :   -0.479726
  10 S :    0.086823
  11 P :    0.574934
  12 S :   -0.308823
  13 O :   -0.235087
  14 C :   -0.116353
  15 C :   -0.368772
  16 O :   -0.231101
  17 C :   -0.116318
  18 C :   -0.378646
  19 H :    0.131287
  20 H :    0.123413
  21 H :    0.127305
  22 H :    0.118060
  23 H :    0.112048
  24 H :    0.119483
  25 H :    0.108760
  26 H :    0.124628
  27 H :    0.127033
  28 H :    0.133472
  29 H :    0.126319
  30 H :    0.133552
  31 H :    0.121935
  32 H :    0.107371
  33 H :    0.118066
  34 H :    0.130278
  35 H :    0.129471
  36 H :    0.117763
  37 H :    0.106408
  38 H :    0.111442
  39 H :    0.120804
  40 H :    0.125328

  Mayer bond orders larger than 0.100000
B(  0-C ,  1-C ) :   1.1660 B(  0-C , 19-H ) :   0.9388 B(  0-C , 20-H ) :   0.9355
B(  0-C , 21-H ) :   0.9458 B(  1-C ,  2-O ) :   0.8990 B(  1-C , 22-H ) :   0.9341
B(  1-C , 23-H ) :   0.9154 B(  2-O ,  3-P ) :   1.1110 B(  3-P ,  4-S ) :   1.6094
B(  3-P ,  5-O ) :   1.1045 B(  3-P ,  8-S ) :   0.9652 B(  4-S ,  8-S ) :   0.1068
B(  5-O ,  6-C ) :   0.9108 B(  6-C ,  7-C ) :   1.1635 B(  6-C , 24-H ) :   0.9323
B(  6-C , 25-H ) :   0.9118 B(  7-C , 26-H ) :   0.9303 B(  7-C , 27-H ) :   0.9434
B(  7-C , 28-H ) :   0.9380 B(  8-S ,  9-C ) :   0.9924 B(  9-C , 10-S ) :   1.0226
B(  9-C , 29-H ) :   0.8608 B(  9-C , 30-H ) :   0.9026 B( 10-S , 11-P ) :   0.9287
B( 10-S , 12-S ) :   0.1149 B( 11-P , 12-S ) :   1.5887 B( 11-P , 13-O ) :   1.1332
B( 11-P , 16-O ) :   1.1461 B( 12-S , 29-H ) :   0.1048 B( 13-O , 14-C ) :   0.9166
B( 14-C , 15-C ) :   1.1632 B( 14-C , 31-H ) :   0.9335 B( 14-C , 32-H ) :   0.9241
B( 15-C , 33-H ) :   0.9353 B( 15-C , 34-H ) :   0.9431 B( 15-C , 35-H ) :   0.9360
B( 16-O , 17-C ) :   0.9060 B( 17-C , 18-C ) :   1.1650 B( 17-C , 36-H ) :   0.9316
B( 17-C , 37-H ) :   0.9117 B( 18-C , 38-H ) :   0.9285 B( 18-C , 39-H ) :   0.9285
B( 18-C , 40-H ) :   0.9367

Dispersion correction           -0.066269905
FINAL SINGLE POINT ENERGY     -2929.519975810102

DIPOLE MOMENT
-------------

Method             : SCF
Type of density    : Electron Density
Multiplicity       :   1
Irrep              :   0
Energy             : -2929.6381258189467189 Eh
Relativity type    :
Basis              : AO
                                X                 Y                 Z
Electronic contribution:     -6.957243161       1.864662078      -2.892733114
Nuclear contribution   :      7.932191414      -1.451796297       2.688331412
                        -----------------------------------------
Total Dipole Moment    :      0.974948253       0.412865781      -0.204401702
                        -----------------------------------------
Magnitude (a.u.)       :      1.078314567
Magnitude (Debye)      :      2.740857810

Rotational constants in cm-1:             0.012463             0.005155             0.004471
Rotational constants in MHz :           373.624093           154.532919           134.030098

                             ****ORCA TERMINATED NORMALLY****
TOTAL RUN TIME: 0 days 0 hours 0 minutes 21 seconds 257 msec
