                         Program Version 6.0.0  -   RELEASE  -
|  1> ! pbe def2-sv(p) def2/J RI DEFGRID1 loosescf d4 GCP(DFT/SV(P)) printgap
|  2> %output
|  3>     printlevel normal
|  4> end
|  5> * xyz 0 1
|  6> C 2.5058631548 -1.1592828507 -2.9871924208
|  7> C 3.3239707253 -1.764889558 -1.8654500022
|  8> O 3.2924180635 -0.9782148222 -0.6606341357
|  9> P 1.9828184903 -0.3965787547 0.0294004156
| 10> S 1.3912480214 1.32085468 -0.7430360913
| 11> O 2.4334001064 -0.3091877913 1.5468681603
| 12> C 2.8978110668 0.909894891 2.1530746655
| 13> C 4.2995403841 1.2456125727 1.6897019274
| 14> S 0.7566931246 -2.1163199814 0.1066201941
| 15> C -0.434308502 -1.6879139565 1.424874315
| 16> S -0.7011219072 0.0845265018 1.6829289951
| 17> P -1.9553319646 0.5279969042 0.0445293924
| 18> S -2.320891844 2.4289262351 -0.2492349497
| 19> O -3.2777410539 -0.3449707404 0.2690149716
| 20> C -4.4289600854 0.1778811237 0.9478915159
| 21> C -4.1882147206 0.3174057305 2.4375732098
| 22> O -1.2471228657 -0.3397147285 -1.0751051019
| 23> C -1.8242504564 -0.5921020654 -2.3760340081
| 24> C -1.5574918543 0.552041335 -3.3326718517
| 25> H 2.6011385791 -1.7712284118 -3.878247686
| 26> H 1.4565544725 -1.1137811789 -2.6953145352
| 27> H 2.8458886615 -0.1487215102 -3.2029776154
| 28> H 4.3844896698 -1.8051423021 -2.1204360801
| 29> H 2.9617974235 -2.7678744356 -1.6215777323
| 30> H 2.2001437741 1.7165975516 1.9020416402
| 31> H 2.8553890103 0.7078330492 3.2239836589
| 32> H 4.292510213 1.4279714184 0.6153432688
| 33> H 4.6471625671 2.1382014147 2.1999882653
| 34> H 4.9718349584 0.4183148486 1.899723823
| 35> H -0.0473963842 -2.0637287329 2.3693329451
| 36> H -1.3742902553 -2.1679052486 1.1600159977
| 37> H -4.6772951341 1.149215512 0.5081700252
| 38> H -5.2170174316 -0.5443691292 0.7304009276
| 39> H -3.4089786077 1.0580951555 2.6165316651
| 40> H -5.1029526634 0.6468018941 2.9194894238
| 41> H -3.8762350414 -0.6316605123 2.8654334837
| 42> H -1.3294233269 -1.5100471404 -2.7013829412
| 43> H -2.8953633875 -0.7715702986 -2.2582063434
| 44> H -1.8893147743 0.2750298111 -4.3280354928
| 45> H -2.0881700717 1.4468391647 -3.0131514714
| 46> H -0.494112359 0.7803054618 -3.3555199406
| 47> *
| 48>
| 49>                          ****END OF INPUT****

CARTESIAN COORDINATES (ANGSTROEM)
---------------------------------
  C      2.505863   -1.159283   -2.987192
  C      3.323971   -1.764890   -1.865450
  O      3.292418   -0.978215   -0.660634
  P      1.982818   -0.396579    0.029400
  S      1.391248    1.320855   -0.743036
  O      2.433400   -0.309188    1.546868
  C      2.897811    0.909895    2.153075
  C      4.299540    1.245613    1.689702
  S      0.756693   -2.116320    0.106620
  C     -0.434309   -1.687914    1.424874
  S     -0.701122    0.084527    1.682929
  P     -1.955332    0.527997    0.044529
  S     -2.320892    2.428926   -0.249235
  O     -3.277741   -0.344971    0.269015
  C     -4.428960    0.177881    0.947892
  C     -4.188215    0.317406    2.437573
  O     -1.247123   -0.339715   -1.075105
  C     -1.824250   -0.592102   -2.376034
  C     -1.557492    0.552041   -3.332672
  H      2.601139   -1.771228   -3.878248
  H      1.456554   -1.113781   -2.695315
  H      2.845889   -0.148722   -3.202978
  H      4.384490   -1.805142   -2.120436
  H      2.961797   -2.767874   -1.621578
  H      2.200144    1.716598    1.902042
  H      2.855389    0.707833    3.223984
  H      4.292510    1.427971    0.615343
  H      4.647163    2.138201    2.199988
  H      4.971835    0.418315    1.899724
  H     -0.047396   -2.063729    2.369333
  H     -1.374290   -2.167905    1.160016
  H     -4.677295    1.149216    0.508170
  H     -5.217017   -0.544369    0.730401
  H     -3.408979    1.058095    2.616532
  H     -5.102953    0.646802    2.919489
  H     -3.876235   -0.631661    2.865433
  H     -1.329423   -1.510047   -2.701383
  H     -2.895363   -0.771570   -2.258206
  H     -1.889315    0.275030   -4.328035
  H     -2.088170    1.446839   -3.013151
  H     -0.494112    0.780305   -3.355520

 Total Charge           Charge          ....    0
 Multiplicity           Mult            ....    1
 Number of Electrons    NEL             ....  202
 Basis Dimension        Dim             ....  334

ORBITAL ENERGIES
----------------

  NO   OCC          E(Eh)            E(eV)
   0   2.0000     -88.045454     -2395.8386
   1   2.0000     -88.037300     -2395.6167
   2   2.0000     -87.983246     -2394.1458
   3   2.0000     -87.975642     -2393.9389
   4   2.0000     -76.425066     -2079.6318
   5   2.0000     -76.422667     -2079.5665
   6   2.0000     -18.792776      -511.3774
   7   2.0000     -18.788403      -511.2584
   8   2.0000     -18.787353      -511.2299
   9   2.0000     -18.786909      -511.2178
  10   2.0000      -9.962613      -271.0965
  11   2.0000      -9.956568      -270.9320
  12   2.0000      -9.951609      -270.7970
  13   2.0000      -9.949492      -270.7394
  14   2.0000      -9.943659      -270.5807
  15   2.0000      -9.885065      -268.9863
  16   2.0000      -9.884251      -268.9641
  17   2.0000      -9.877337      -268.7760
  18   2.0000      -9.875120      -268.7157
  19   2.0000      -7.690127      -209.2590
  20   2.0000      -7.682704      -209.0570
  21   2.0000      -7.628398      -207.5793
  22   2.0000      -7.620141      -207.3546
  23   2.0000      -6.422202      -174.7570
  24   2.0000      -6.419331      -174.6789
  25   2.0000      -5.718515      -155.6087
  26   2.0000      -5.714348      -155.4953
  27   2.0000      -5.710852      -155.4002
  28   2.0000      -5.707216      -155.3012
  29   2.0000      -5.706836      -155.2909
  30   2.0000      -5.699300      -155.0858
  31   2.0000      -5.657381      -153.9452
  32   2.0000      -5.649253      -153.7240
  33   2.0000      -5.649190      -153.7223
  34   2.0000      -5.648323      -153.6987
  35   2.0000      -5.640779      -153.4934
  36   2.0000      -5.640192      -153.4774
  37   2.0000      -4.644854      -126.3929
  38   2.0000      -4.644088      -126.3721
  39   2.0000      -4.642557      -126.3304
  40   2.0000      -4.642003      -126.3153
  41   2.0000      -4.641474      -126.3009
  42   2.0000      -4.639481      -126.2467
  43   2.0000      -0.985662       -26.8212
  44   2.0000      -0.981318       -26.7030
  45   2.0000      -0.941557       -25.6211
  46   2.0000      -0.941448       -25.6181
  47   2.0000      -0.763606       -20.7788
  48   2.0000      -0.717423       -19.5221
  49   2.0000      -0.705767       -19.2049
  50   2.0000      -0.685301       -18.6480
  51   2.0000      -0.683251       -18.5922
  52   2.0000      -0.671013       -18.2592
  53   2.0000      -0.652093       -17.7443
  54   2.0000      -0.635664       -17.2973
  55   2.0000      -0.592048       -16.1104
  56   2.0000      -0.587433       -15.9849
  57   2.0000      -0.575177       -15.6514
  58   2.0000      -0.571584       -15.5536
  59   2.0000      -0.564477       -15.3602
  60   2.0000      -0.498592       -13.5674
  61   2.0000      -0.491319       -13.3695
  62   2.0000      -0.468255       -12.7419
  63   2.0000      -0.466724       -12.7002
  64   2.0000      -0.459486       -12.5032
  65   2.0000      -0.444202       -12.0873
  66   2.0000      -0.436519       -11.8783
  67   2.0000      -0.431271       -11.7355
  68   2.0000      -0.423873       -11.5342
  69   2.0000      -0.418680       -11.3929
  70   2.0000      -0.413079       -11.2405
  71   2.0000      -0.396978       -10.8023
  72   2.0000      -0.392579       -10.6826
  73   2.0000      -0.387382       -10.5412
  74   2.0000      -0.382500       -10.4083
  75   2.0000      -0.370561       -10.0835
  76   2.0000      -0.364260        -9.9120
  77   2.0000      -0.354136        -9.6365
  78   2.0000      -0.346929        -9.4404
  79   2.0000      -0.346676        -9.4335
  80   2.0000      -0.343155        -9.3377
  81   2.0000      -0.341214        -9.2849
  82   2.0000      -0.340792        -9.2734
  83   2.0000      -0.337037        -9.1713
  84   2.0000      -0.326411        -8.8821
  85   2.0000      -0.317103        -8.6288
  86   2.0000      -0.311331        -8.4718
  87   2.0000      -0.296700        -8.0736
  88   2.0000      -0.292342        -7.9550
  89   2.0000      -0.289587        -7.8801
  90   2.0000      -0.283376        -7.7111
  91   2.0000      -0.273472        -7.4415
  92   2.0000      -0.268364        -7.3025
  93   2.0000      -0.262655        -7.1472
  94   2.0000      -0.253745        -6.9047
  95   2.0000      -0.232758        -6.3337
  96   2.0000      -0.216232        -5.8840
  97   2.0000      -0.204511        -5.5650
  98   2.0000      -0.197677        -5.3791
  99   2.0000      -0.189779        -5.1641
 100   2.0000      -0.179679        -4.8893
 101   0.0000      -0.050867        -1.3842
 102   0.0000      -0.027654        -0.7525
 103   0.0000      -0.017873        -0.4863
 104   0.0000      -0.001356        -0.0369
 105   0.0000       0.014062         0.3826

MULLIKEN ATOMIC CHARGES
-----------------------
   0 C :   -0.338597
   1 C :   -0.005733
   2 O :   -0.372543
   3 P :    0.605267
   4 S :   -0.304858
   5 O :   -0.372127
   6 C :   -0.007398
   7 C :   -0.297972
   8 S :   -0.128618
   9 C :   -0.302960
  10 S :   -0.083586
  11 P :    0.636904
  12 S :   -0.303680
  13 O :   -0.387232
  14 C :   -0.007077
  15 C :   -0.305115
  16 O :   -0.369646
  17 C :   -0.005306
  18 C :   -0.308204
  19 H :    0.109208
  20 H :    0.147400
  21 H :    0.130449
  22 H :    0.110102
  23 H :    0.111813
  24 H :    0.117878
  25 H :    0.098018
  26 H :    0.123683
  27 H :    0.108827
  28 H :    0.111470
  29 H :    0.186248
  30 H :    0.179843
  31 H :    0.110559
  32 H :    0.100111
  33 H :    0.124134
  34 H :    0.111547
  35 H :    0.108547
  36 H :    0.105243
  37 H :    0.101281
  38 H :    0.102271
  39 H :    0.126484
  40 H :    0.133368
Sum of atomic charges:    0.0000000

LOEWDIN ATOMIC CHARGES
----------------------
   0 C :   -0.373337
   1 C :   -0.114010
   2 O :   -0.249341
   3 P :    0.565326
   4 S :   -0.302894
   5 O :   -0.245354
   6 C :   -0.121886
   7 C :   -0.362615
   8 S :    0.066540
   9 C :   -0.464387
  10 S :    0.112916
  11 P :    0.569095
  12 S :   -0.301690
  13 O :   -0.254711
  14 C :   -0.124766
  15 C :   -0.366331
  16 O :   -0.238606
  17 C :   -0.110165
  18 C :   -0.365859
  19 H :    0.128568
  20 H :    0.121009
  21 H :    0.130776
  22 H :    0.122083
  23 H :    0.107818
  24 H :    0.110442
  25 H :    0.115237
  26 H :    0.124055
  27 H :    0.128920
  28 H :    0.124106
  29 H :    0.138086
  30 H :    0.132350
  31 H :    0.108472
  32 H :    0.115577
  33 H :    0.120587
  34 H :    0.130122
  35 H :    0.121142
  36 H :    0.114463
  37 H :    0.108850
  38 H :    0.125736
  39 H :    0.124030
  40 H :    0.129645

  Mayer bond orders larger than 0.100000
B(  0-C ,  1-C ) :   1.1634 B(  0-C , 19-H ) :   0.9335 B(  0-C , 20-H ) :   0.9270
B(  0-C , 21-H ) :   0.9398 B(  1-C ,  2-O ) :   0.9237 B(  1-C , 22-H ) :   0.9340
B(  1-C , 23-H ) :   0.9250 B(  2-O ,  3-P ) :   1.0971 B(  3-P ,  4-S ) :   1.6065
B(  3-P ,  5-O ) :   1.1105 B(  3-P ,  8-S ) :   0.9554 B(  4-S ,  8-S ) :   0.1209
B(  5-O ,  6-C ) :   0.9012 B(  6-C ,  7-C ) :   1.1668 B(  6-C , 24-H ) :   0.9098
B(  6-C , 25-H ) :   0.9340 B(  7-C , 26-H ) :   0.9355 B(  7-C , 27-H ) :   0.9403
B(  7-C , 28-H ) :   0.9469 B(  8-S ,  9-C ) :   0.9740 B(  9-C , 10-S ) :   1.0089
B(  9-C , 29-H ) :   0.9091 B(  9-C , 30-H ) :   0.9043 B( 10-S , 11-P ) :   0.9521
B( 11-P , 12-S ) :   1.6621 B( 11-P , 13-O ) :   1.0521 B( 11-P , 16-O ) :   1.1149
B( 13-O , 14-C ) :   0.9156 B( 14-C , 15-C ) :   1.1643 B( 14-C , 31-H ) :   0.9096
B( 14-C , 32-H ) :   0.9331 B( 15-C , 33-H ) :   0.9360 B( 15-C , 34-H ) :   0.9392
B( 15-C , 35-H ) :   0.9470 B( 16-O , 17-C ) :   0.8997 B( 17-C , 18-C ) :   1.1729
B( 17-C , 36-H ) :   0.9269 B( 17-C , 37-H ) :   0.9237 B( 18-C , 38-H ) :   0.9382
B( 18-C , 39-H ) :   0.9332 B( 18-C , 40-H ) :   0.9398

Dispersion correction           -0.069369505
FINAL SINGLE POINT ENERGY     -2929.506882734115

DIPOLE MOMENT
-------------

Method             : SCF
Type of density    : Electron Density
Multiplicity       :   1
Irrep              :   0
Energy             : -2929.6229062451607206 Eh
Relativity type    :
Basis              : AO
                                X                 Y                 Z
Electronic contribution:     -1.001944839       1.929160155       5.983790427
Nuclear contribution   :      0.784414757      -3.508879874      -5.871210077
                        -----------------------------------------
Total Dipole Moment    :     -0.217530082      -1.579719720       0.112580350
                        -----------------------------------------
Magnitude (a.u.)       :      1.598595654
Magnitude (Debye)      :      4.063307235

Rotational constants in cm-1:             0.012026             0.005897             0.005264
Rotational constants in MHz :           360.519653           176.800421           157.817554

                             ****ORCA TERMINATED NORMALLY****
TOTAL RUN TIME: 0 days 0 hours 0 minutes 23 seconds 659 msec
