                         Program Version 6.0.0  -   RELEASE  -
|  1> ! pbe def2-sv(p) def2/J RI DEFGRID1 loosescf d4 GCP(DFT/SV(P)) printgap
|  2> %output
|  3>     printlevel normal
|  4> end
|  5> * xyz 0 1
|  6> C 3.4446830815 0.6923171262 -0.6043924236
|  7> C 3.4453122908 -0.6918142957 -0.6032276911
|  8> C 2.3368532054 -1.3836365733 -0.1442877028
|  9> C 1.2288292688 -0.6968877591 0.3247331829
| 10> C 1.2284729445 0.6970519096 0.3242472404
| 11> C 2.3358316455 1.3839651388 -0.1460757429
| 12> C -0.0001244359 1.3990105227 0.8299850536
| 13> C -1.2288090285 0.6968535484 0.3247005361
| 14> C -2.3367865353 1.3836552603 -0.1443516885
| 15> C -3.4452774759 0.691882136 -0.6032111787
| 16> C -3.4447309295 -0.6922183829 -0.6043406499
| 17> C -2.3358965481 -1.3839434343 -0.1461025698
| 18> C -1.2284791339 -0.6970963959 0.3241564566
| 19> C 0.0001290413 -1.3991246549 0.8298033148
| 20> H 4.3059323308 1.2339946844 -0.9662242791
| 21> H 4.3071814969 -1.2333399865 -0.9638070675
| 22> H 2.3347144016 -2.4642564845 -0.1495273227
| 23> H 2.332849877 2.464578048 -0.1528916116
| 24> H 0.0002972508 1.3563225385 1.9259679659
| 25> H -0.0002509152 2.4488137369 0.5350426438
| 26> H -2.3347077092 2.4642779005 -0.1494091922
| 27> H -4.3071699731 1.2334232231 -0.9636156875
| 28> H -4.3060560535 -1.2338236308 -0.9660369423
| 29> H -2.3330739087 -2.4645612065 -0.152765078
| 30> H -0.000148837 -1.3567428314 1.9257860001
| 31> H 0.0003439666 -2.4488545655 0.5346572347
| 32> *
| 33>
| 34>                          ****END OF INPUT****

CARTESIAN COORDINATES (ANGSTROEM)
---------------------------------
  C      3.444683    0.692317   -0.604392
  C      3.445312   -0.691814   -0.603228
  C      2.336853   -1.383637   -0.144288
  C      1.228829   -0.696888    0.324733
  C      1.228473    0.697052    0.324247
  C      2.335832    1.383965   -0.146076
  C     -0.000124    1.399011    0.829985
  C     -1.228809    0.696854    0.324701
  C     -2.336787    1.383655   -0.144352
  C     -3.445277    0.691882   -0.603211
  C     -3.444731   -0.692218   -0.604341
  C     -2.335897   -1.383943   -0.146103
  C     -1.228479   -0.697096    0.324156
  C      0.000129   -1.399125    0.829803
  H      4.305932    1.233995   -0.966224
  H      4.307181   -1.233340   -0.963807
  H      2.334714   -2.464256   -0.149527
  H      2.332850    2.464578   -0.152892
  H      0.000297    1.356323    1.925968
  H     -0.000251    2.448814    0.535043
  H     -2.334708    2.464278   -0.149409
  H     -4.307170    1.233423   -0.963616
  H     -4.306056   -1.233824   -0.966037
  H     -2.333074   -2.464561   -0.152765
  H     -0.000149   -1.356743    1.925786
  H      0.000344   -2.448855    0.534657

 Total Charge           Charge          ....    0
 Multiplicity           Mult            ....    1
 Number of Electrons    NEL             ....   96
 Basis Dimension        Dim             ....  220

ORBITAL ENERGIES
----------------

  NO   OCC          E(Eh)            E(eV)
   0   2.0000      -9.899631      -269.3826
   1   2.0000      -9.899601      -269.3818
   2   2.0000      -9.899444      -269.3776
   3   2.0000      -9.899400      -269.3764
   4   2.0000      -9.897609      -269.3276
   5   2.0000      -9.897523      -269.3253
   6   2.0000      -9.888524      -269.0804
   7   2.0000      -9.888503      -269.0799
   8   2.0000      -9.888440      -269.0781
   9   2.0000      -9.888438      -269.0781
  10   2.0000      -9.887484      -269.0521
  11   2.0000      -9.887479      -269.0520
  12   2.0000      -9.887246      -269.0456
  13   2.0000      -9.887241      -269.0455
  14   2.0000      -0.799107       -21.7448
  15   2.0000      -0.770297       -20.9609
  16   2.0000      -0.721270       -19.6267
  17   2.0000      -0.703387       -19.1401
  18   2.0000      -0.668309       -18.1856
  19   2.0000      -0.660422       -17.9710
  20   2.0000      -0.628293       -17.0967
  21   2.0000      -0.591900       -16.1064
  22   2.0000      -0.545651       -14.8479
  23   2.0000      -0.536315       -14.5939
  24   2.0000      -0.528434       -14.3794
  25   2.0000      -0.492032       -13.3889
  26   2.0000      -0.463545       -12.6137
  27   2.0000      -0.452756       -12.3201
  28   2.0000      -0.430324       -11.7097
  29   2.0000      -0.397954       -10.8289
  30   2.0000      -0.396282       -10.7834
  31   2.0000      -0.395966       -10.7748
  32   2.0000      -0.395680       -10.7670
  33   2.0000      -0.375587       -10.2202
  34   2.0000      -0.369856       -10.0643
  35   2.0000      -0.358317        -9.7503
  36   2.0000      -0.354213        -9.6386
  37   2.0000      -0.344828        -9.3833
  38   2.0000      -0.322576        -8.7777
  39   2.0000      -0.317685        -8.6446
  40   2.0000      -0.310623        -8.4525
  41   2.0000      -0.300064        -8.1652
  42   2.0000      -0.286303        -7.7907
  43   2.0000      -0.284331        -7.7370
  44   2.0000      -0.224663        -6.1134
  45   2.0000      -0.221518        -6.0278
  46   2.0000      -0.216314        -5.8862
  47   2.0000      -0.214978        -5.8498
  48   0.0000      -0.038523        -1.0483
  49   0.0000      -0.034347        -0.9346
  50   0.0000      -0.024756        -0.6736
  51   0.0000      -0.022925        -0.6238
  52   0.0000       0.044137         1.2010

MULLIKEN ATOMIC CHARGES
-----------------------
   0 C :   -0.040184
   1 C :   -0.040151
   2 C :   -0.146347
   3 C :   -0.004107
   4 C :   -0.004074
   5 C :   -0.146363
   6 C :    0.046392
   7 C :   -0.004074
   8 C :   -0.146343
   9 C :   -0.040143
  10 C :   -0.040171
  11 C :   -0.146366
  12 C :   -0.004006
  13 C :    0.046411
  14 H :    0.049191
  15 H :    0.049189
  16 H :    0.032759
  17 H :    0.032766
  18 H :    0.100300
  19 H :    0.070573
  20 H :    0.032762
  21 H :    0.049173
  22 H :    0.049180
  23 H :    0.032768
  24 H :    0.100294
  25 H :    0.070572
Sum of atomic charges:    0.0000000

LOEWDIN ATOMIC CHARGES
----------------------
   0 C :   -0.125752
   1 C :   -0.125753
   2 C :   -0.122467
   3 C :   -0.034263
   4 C :   -0.034256
   5 C :   -0.122462
   6 C :   -0.191064
   7 C :   -0.034252
   8 C :   -0.122465
   9 C :   -0.125755
  10 C :   -0.125752
  11 C :   -0.122456
  12 C :   -0.034250
  13 C :   -0.191072
  14 H :    0.122582
  15 H :    0.122583
  16 H :    0.120884
  17 H :    0.120885
  18 H :    0.142284
  19 H :    0.126786
  20 H :    0.120886
  21 H :    0.122584
  22 H :    0.122583
  23 H :    0.120886
  24 H :    0.142286
  25 H :    0.126791

  Mayer bond orders larger than 0.100000
B(  0-C ,  1-C ) :   1.3778 B(  0-C ,  5-C ) :   1.3575 B(  0-C , 14-H ) :   0.9636
B(  1-C ,  2-C ) :   1.3575 B(  1-C , 15-H ) :   0.9637 B(  2-C ,  3-C ) :   1.4039
B(  2-C , 16-H ) :   0.9630 B(  3-C ,  4-C ) :   1.4050 B(  3-C , 13-C ) :   1.0792
B(  4-C ,  5-C ) :   1.4038 B(  4-C ,  6-C ) :   1.0792 B(  5-C , 17-H ) :   0.9630
B(  6-C ,  7-C ) :   1.0792 B(  6-C , 18-H ) :   0.8370 B(  6-C , 19-H ) :   0.8834
B(  7-C ,  8-C ) :   1.4038 B(  7-C , 12-C ) :   1.4049 B(  8-C ,  9-C ) :   1.3575
B(  8-C , 20-H ) :   0.9630 B(  9-C , 10-C ) :   1.3778 B(  9-C , 21-H ) :   0.9637
B( 10-C , 11-C ) :   1.3575 B( 10-C , 22-H ) :   0.9637 B( 11-C , 12-C ) :   1.4038
B( 11-C , 23-H ) :   0.9630 B( 12-C , 13-C ) :   1.0792 B( 13-C , 24-H ) :   0.8370
B( 13-C , 25-H ) :   0.8834

Dispersion correction           -0.034927821
FINAL SINGLE POINT ENERGY      -539.550899271552

DIPOLE MOMENT
-------------

Method             : SCF
Type of density    : Electron Density
Multiplicity       :   1
Irrep              :   0
Energy             :  -539.6134479691755814 Eh
Relativity type    :
Basis              : AO
                                X                 Y                 Z
Electronic contribution:     -0.000036239       0.000122511      -0.278014834
Nuclear contribution   :     -0.000082628      -0.000158151       0.428909508
                        -----------------------------------------
Total Dipole Moment    :     -0.000118866      -0.000035640       0.150894674
                        -----------------------------------------
Magnitude (a.u.)       :      0.150894725
Magnitude (Debye)      :      0.383543910

Rotational constants in cm-1:             0.059395             0.015998             0.013667
Rotational constants in MHz :          1780.615384           479.608164           409.713311

                             ****ORCA TERMINATED NORMALLY****
TOTAL RUN TIME: 0 days 0 hours 0 minutes 32 seconds 638 msec
