                         Program Version 6.0.0  -   RELEASE  -
|  1> ! pbe def2-sv(p) def2/J RI DEFGRID1 loosescf d4 GCP(DFT/SV(P)) printgap
|  2> %output
|  3>     printlevel normal
|  4> end
|  5> * xyz 0 1
|  6> C 0.8110969688 1.3157839602 -0.9995822119
|  7> C 1.4343608229 0.3408337111 0.0074810086
|  8> H 2.4493370842 0.1165890894 -0.3381032731
|  9> C 0.6228470211 -0.9794982833 0.0662932044
| 10> H 0.5515595062 -1.2870825257 1.119372382
| 11> C -0.8043031103 -0.7662071272 -0.4619025619
| 12> H -0.7712031425 -0.8134215192 -1.5611156524
| 13> C -1.2929444449 0.6320313453 -0.0732747573
| 14> H -2.3324946861 0.7506474062 -0.4050114294
| 15> O -0.5570078887 1.6284641597 -0.7316110365
| 16> O -1.2020263308 0.7791765869 1.3163291477
| 17> O -1.7156907112 -1.7048193329 0.0394893888
| 18> O 1.1941444918 -2.0012456699 -0.7177891326
| 19> O 1.5934679368 0.9128317538 1.280173681
| 20> H 0.8916530038 0.8861268096 -2.0049742684
| 21> H 1.3371936045 2.2715653606 -0.9678069842
| 22> H -1.7465654713 1.5262143157 1.6071597545
| 23> H -1.4046126761 -2.5931141782 -0.191432525
| 24> H 2.0384810016 -2.2774642065 -0.3343046165
| 25> H 0.7052935492 1.0706518487 1.65061272
| 26> *
| 27>
| 28>                          ****END OF INPUT****

CARTESIAN COORDINATES (ANGSTROEM)
---------------------------------
  C      0.811097    1.315784   -0.999582
  C      1.434361    0.340834    0.007481
  H      2.449337    0.116589   -0.338103
  C      0.622847   -0.979498    0.066293
  H      0.551560   -1.287083    1.119372
  C     -0.804303   -0.766207   -0.461903
  H     -0.771203   -0.813422   -1.561116
  C     -1.292944    0.632031   -0.073275
  H     -2.332495    0.750647   -0.405011
  O     -0.557008    1.628464   -0.731611
  O     -1.202026    0.779177    1.316329
  O     -1.715691   -1.704819    0.039489
  O      1.194144   -2.001246   -0.717789
  O      1.593468    0.912832    1.280174
  H      0.891653    0.886127   -2.004974
  H      1.337194    2.271565   -0.967807
  H     -1.746565    1.526214    1.607160
  H     -1.404613   -2.593114   -0.191433
  H      2.038481   -2.277464   -0.334305
  H      0.705294    1.070652    1.650613

 Total Charge           Charge          ....    0
 Multiplicity           Mult            ....    1
 Number of Electrons    NEL             ....   80
 Basis Dimension        Dim             ....  160

ORBITAL ENERGIES
----------------

  NO   OCC          E(Eh)            E(eV)
   0   2.0000     -18.778660      -510.9933
   1   2.0000     -18.764481      -510.6075
   2   2.0000     -18.760054      -510.4870
   3   2.0000     -18.750534      -510.2280
   4   2.0000     -18.731103      -509.6992
   5   2.0000      -9.991089      -271.8714
   6   2.0000      -9.944352      -270.5996
   7   2.0000      -9.938949      -270.4525
   8   2.0000      -9.937626      -270.4166
   9   2.0000      -9.931967      -270.2626
  10   2.0000      -0.985123       -26.8066
  11   2.0000      -0.941675       -25.6243
  12   2.0000      -0.925429       -25.1822
  13   2.0000      -0.917372       -24.9629
  14   2.0000      -0.908483       -24.7211
  15   2.0000      -0.698285       -19.0013
  16   2.0000      -0.677910       -18.4469
  17   2.0000      -0.590500       -16.0683
  18   2.0000      -0.582430       -15.8487
  19   2.0000      -0.528798       -14.3893
  20   2.0000      -0.500789       -13.6272
  21   2.0000      -0.486700       -13.2438
  22   2.0000      -0.468591       -12.7510
  23   2.0000      -0.440878       -11.9969
  24   2.0000      -0.434918       -11.8347
  25   2.0000      -0.409178       -11.1343
  26   2.0000      -0.397432       -10.8147
  27   2.0000      -0.379681       -10.3316
  28   2.0000      -0.368382       -10.0242
  29   2.0000      -0.352058        -9.5800
  30   2.0000      -0.344925        -9.3859
  31   2.0000      -0.307695        -8.3728
  32   2.0000      -0.302218        -8.2238
  33   2.0000      -0.281147        -7.6504
  34   2.0000      -0.265929        -7.2363
  35   2.0000      -0.253071        -6.8864
  36   2.0000      -0.241182        -6.5629
  37   2.0000      -0.230162        -6.2630
  38   2.0000      -0.218233        -5.9384
  39   2.0000      -0.196910        -5.3582
  40   0.0000       0.015761         0.4289
  41   0.0000       0.021491         0.5848
  42   0.0000       0.044867         1.2209
  43   0.0000       0.051598         1.4041
  44   0.0000       0.081235         2.2105

MULLIKEN ATOMIC CHARGES
-----------------------
   0 C :    0.057680
   1 C :    0.028382
   2 H :    0.057012
   3 C :    0.014430
   4 H :    0.070517
   5 C :    0.070145
   6 H :    0.073891
   7 C :    0.147264
   8 H :    0.078919
   9 O :   -0.316501
  10 O :   -0.397372
  11 O :   -0.411941
  12 O :   -0.424787
  13 O :   -0.442606
  14 H :    0.077895
  15 H :    0.095678
  16 H :    0.315751
  17 H :    0.305571
  18 H :    0.305524
  19 H :    0.294548
Sum of atomic charges:    0.0000000

LOEWDIN ATOMIC CHARGES
----------------------
   0 C :   -0.119520
   1 C :   -0.087670
   2 H :    0.115505
   3 C :   -0.082840
   4 H :    0.108877
   5 C :   -0.078010
   6 H :    0.113341
   7 C :   -0.003279
   8 H :    0.107725
   9 O :   -0.162370
  10 O :   -0.300215
  11 O :   -0.314969
  12 O :   -0.325567
  13 O :   -0.332832
  14 H :    0.105201
  15 H :    0.119329
  16 H :    0.294450
  17 H :    0.289865
  18 H :    0.288387
  19 H :    0.264592

  Mayer bond orders larger than 0.100000
B(  0-C ,  1-C ) :   1.1108 B(  0-C ,  9-O ) :   0.9986 B(  0-C , 14-H ) :   0.9053
B(  0-C , 15-H ) :   0.9114 B(  1-C ,  2-H ) :   0.8824 B(  1-C ,  3-C ) :   0.9762
B(  1-C , 13-O ) :   1.0514 B(  3-C ,  4-H ) :   0.8762 B(  3-C ,  5-C ) :   1.0466
B(  3-C , 12-O ) :   1.0691 B(  5-C ,  6-H ) :   0.8600 B(  5-C ,  7-C ) :   1.0384
B(  5-C , 11-O ) :   1.0956 B(  7-C ,  8-H ) :   0.8975 B(  7-C ,  9-O ) :   1.0951
B(  7-C , 10-O ) :   1.0916 B( 10-O , 16-H ) :   0.8366 B( 10-O , 19-H ) :   0.1115
B( 11-O , 17-H ) :   0.8437 B( 12-O , 18-H ) :   0.8471 B( 13-O , 19-H ) :   0.8071

Dispersion correction           -0.019789742
FINAL SINGLE POINT ENERGY      -571.412348079995

DIPOLE MOMENT
-------------

Method             : SCF
Type of density    : Electron Density
Multiplicity       :   1
Irrep              :   0
Energy             :  -571.5214268840281875 Eh
Relativity type    :
Basis              : AO
                                X                 Y                 Z
Electronic contribution:     -1.639841264       0.073346656       1.224463250
Nuclear contribution   :      1.602199133      -0.333403545      -1.319880215
                        -----------------------------------------
Total Dipole Moment    :     -0.037642131      -0.260056889      -0.095416965
                        -----------------------------------------
Magnitude (a.u.)       :      0.279554847
Magnitude (Debye)      :      0.710571952

Rotational constants in cm-1:             0.052587             0.048343             0.035139
Rotational constants in MHz :          1576.513054          1449.284086          1053.434147

                             ****ORCA TERMINATED NORMALLY****
TOTAL RUN TIME: 0 days 0 hours 0 minutes 11 seconds 810 msec
