                         Program Version 6.0.0  -   RELEASE  -
|  1> ! r2scan-3c def2/J RI DEFGRID2 scfconv6 printgap
|  2> %output
|  3>     printlevel normal
|  4> end
|  5> * xyz 0 1
|  6> C 3.409533033 -2.1308189903 1.8899911099
|  7> C 2.0098988969 -2.0507861989 1.3155406345
|  8> O 1.6633458468 -0.6948906323 0.9736733132
|  9> P 2.3070220042 0.0378256067 -0.2955739873
| 10> S 2.9044536186 -1.1331890698 -1.7386031506
| 11> O 3.4821188803 0.9496505278 0.2460771419
| 12> C 3.3094224475 1.8763625185 1.3479753532
| 13> C 4.675886714 2.4241877753 1.7023831751
| 14> S 0.7583625526 1.4154344034 -0.7461798548
| 15> C -0.1791560283 0.2823551181 -1.8037115155
| 16> S -0.9951334466 -1.038725346 -0.8821423395
| 17> P -2.5868705232 0.1757749437 -0.1323439329
| 18> S -3.3475642409 1.4508951208 -1.4025440635
| 19> O -2.0064879149 0.8960943422 1.1421595924
| 20> C -1.4651547473 0.1814138205 2.2821006061
| 21> C -0.5366315144 1.1257231474 3.0159293605
| 22> O -3.5910057799 -0.8750018449 0.5115542007
| 23> C -4.6425615068 -1.5133929943 -0.2368088325
| 24> C -4.1080693578 -2.4143239623 -1.3307822282
| 25> H 4.1297886366 -1.7955561111 1.1436514382
| 26> H 3.4961679326 -1.5035790141 2.7733306542
| 27> H 3.6323387185 -3.1591578137 2.1562963559
| 28> H 1.2532306006 -2.3476786572 2.0429594971
| 29> H 1.9233643589 -2.6700006728 0.4174108332
| 30> H 2.6308925053 2.6692460288 1.0213804119
| 31> H 2.8621763153 1.3390263791 2.1878547476
| 32> H 5.3364657256 1.6171555659 2.0059932082
| 33> H 5.1101517646 2.9245693321 0.8417982648
| 34> H 4.5743533049 3.1334978912 2.5173862186
| 35> H 0.5012445623 -0.1939562281 -2.5100743247
| 36> H -0.9335129073 0.8809472524 -2.316404844
| 37> H -2.3043020916 -0.1319067675 2.9057241041
| 38> H -0.9333112751 -0.7030172432 1.9187166567
| 39> H -1.076166742 2.0199603076 3.3136798374
| 40> H -0.143456871 0.6288524951 3.8968425681
| 41> H 0.2843938889 1.4161542744 2.3650524896
| 42> H -5.1899422108 -2.0780459709 0.5193315672
| 43> H -5.2847168037 -0.7349088822 -0.6593661293
| 44> H -3.6276474896 -1.8169829175 -2.104386275
| 45> H -3.3811039286 -3.1141132615 -0.9260022399
| 46> H -4.9311149578 -2.9651513531 -1.7746024092
| 47> *
| 48>
| 49>                          ****END OF INPUT****

CARTESIAN COORDINATES (ANGSTROEM)
---------------------------------
  C      3.409533   -2.130819    1.889991
  C      2.009899   -2.050786    1.315541
  O      1.663346   -0.694891    0.973673
  P      2.307022    0.037826   -0.295574
  S      2.904454   -1.133189   -1.738603
  O      3.482119    0.949651    0.246077
  C      3.309422    1.876363    1.347975
  C      4.675887    2.424188    1.702383
  S      0.758363    1.415434   -0.746180
  C     -0.179156    0.282355   -1.803712
  S     -0.995133   -1.038725   -0.882142
  P     -2.586871    0.175775   -0.132344
  S     -3.347564    1.450895   -1.402544
  O     -2.006488    0.896094    1.142160
  C     -1.465155    0.181414    2.282101
  C     -0.536632    1.125723    3.015929
  O     -3.591006   -0.875002    0.511554
  C     -4.642562   -1.513393   -0.236809
  C     -4.108069   -2.414324   -1.330782
  H      4.129789   -1.795556    1.143651
  H      3.496168   -1.503579    2.773331
  H      3.632339   -3.159158    2.156296
  H      1.253231   -2.347679    2.042959
  H      1.923364   -2.670001    0.417411
  H      2.630893    2.669246    1.021380
  H      2.862176    1.339026    2.187855
  H      5.336466    1.617156    2.005993
  H      5.110152    2.924569    0.841798
  H      4.574353    3.133498    2.517386
  H      0.501245   -0.193956   -2.510074
  H     -0.933513    0.880947   -2.316405
  H     -2.304302   -0.131907    2.905724
  H     -0.933311   -0.703017    1.918717
  H     -1.076167    2.019960    3.313680
  H     -0.143457    0.628852    3.896843
  H      0.284394    1.416154    2.365052
  H     -5.189942   -2.078046    0.519332
  H     -5.284717   -0.734909   -0.659366
  H     -3.627647   -1.816983   -2.104386
  H     -3.381104   -3.114113   -0.926002
  H     -4.931115   -2.965151   -1.774602

 Total Charge           Charge          ....    0
 Multiplicity           Mult            ....    1
 Number of Electrons    NEL             ....  202
 Basis Dimension        Dim             ....  539

ORBITAL ENERGIES
----------------

  NO   OCC          E(Eh)            E(eV)
   0   2.0000     -88.574705     -2410.2403
   1   2.0000     -88.573363     -2410.2037
   2   2.0000     -88.523871     -2408.8570
   3   2.0000     -88.520313     -2408.7602
   4   2.0000     -76.916615     -2093.0075
   5   2.0000     -76.913753     -2092.9296
   6   2.0000     -18.998054      -516.9633
   7   2.0000     -18.996169      -516.9121
   8   2.0000     -18.994492      -516.8664
   9   2.0000     -18.990173      -516.7489
  10   2.0000     -10.111230      -275.1406
  11   2.0000     -10.102261      -274.8965
  12   2.0000     -10.102073      -274.8914
  13   2.0000     -10.102013      -274.8897
  14   2.0000     -10.101356      -274.8719
  15   2.0000     -10.041312      -273.2380
  16   2.0000     -10.035508      -273.0801
  17   2.0000     -10.033356      -273.0215
  18   2.0000     -10.030226      -272.9363
  19   2.0000      -7.869064      -214.1281
  20   2.0000      -7.867709      -214.0912
  21   2.0000      -7.818685      -212.7572
  22   2.0000      -7.815077      -212.6591
  23   2.0000      -6.595178      -179.4639
  24   2.0000      -6.592307      -179.3858
  25   2.0000      -5.815867      -158.2578
  26   2.0000      -5.814503      -158.2207
  27   2.0000      -5.813047      -158.1810
  28   2.0000      -5.811566      -158.1408
  29   2.0000      -5.806116      -157.9924
  30   2.0000      -5.804902      -157.9594
  31   2.0000      -5.766449      -156.9130
  32   2.0000      -5.762769      -156.8129
  33   2.0000      -5.759015      -156.7108
  34   2.0000      -5.758495      -156.6966
  35   2.0000      -5.755320      -156.6102
  36   2.0000      -5.755074      -156.6035
  37   2.0000      -4.741064      -129.0109
  38   2.0000      -4.739802      -128.9766
  39   2.0000      -4.738834      -128.9502
  40   2.0000      -4.738204      -128.9331
  41   2.0000      -4.737142      -128.9042
  42   2.0000      -4.735769      -128.8668
  43   2.0000      -1.053008       -28.6538
  44   2.0000      -1.052553       -28.6414
  45   2.0000      -1.014992       -27.6193
  46   2.0000      -1.011275       -27.5182
  47   2.0000      -0.802009       -21.8238
  48   2.0000      -0.764254       -20.7964
  49   2.0000      -0.755360       -20.5544
  50   2.0000      -0.740951       -20.1623
  51   2.0000      -0.735424       -20.0119
  52   2.0000      -0.712696       -19.3934
  53   2.0000      -0.687619       -18.7111
  54   2.0000      -0.670694       -18.2505
  55   2.0000      -0.630077       -17.1453
  56   2.0000      -0.622846       -16.9485
  57   2.0000      -0.613267       -16.6878
  58   2.0000      -0.606462       -16.5027
  59   2.0000      -0.592246       -16.1158
  60   2.0000      -0.537126       -14.6159
  61   2.0000      -0.528535       -14.3822
  62   2.0000      -0.505450       -13.7540
  63   2.0000      -0.495646       -13.4872
  64   2.0000      -0.480627       -13.0785
  65   2.0000      -0.467042       -12.7088
  66   2.0000      -0.465996       -12.6804
  67   2.0000      -0.457896       -12.4600
  68   2.0000      -0.449657       -12.2358
  69   2.0000      -0.436240       -11.8707
  70   2.0000      -0.426959       -11.6181
  71   2.0000      -0.416317       -11.3286
  72   2.0000      -0.410698       -11.1757
  73   2.0000      -0.407814       -11.0972
  74   2.0000      -0.393083       -10.6963
  75   2.0000      -0.389453       -10.5975
  76   2.0000      -0.382141       -10.3986
  77   2.0000      -0.378442       -10.2979
  78   2.0000      -0.377915       -10.2836
  79   2.0000      -0.372341       -10.1319
  80   2.0000      -0.367642       -10.0041
  81   2.0000      -0.361065        -9.8251
  82   2.0000      -0.359919        -9.7939
  83   2.0000      -0.356139        -9.6910
  84   2.0000      -0.352364        -9.5883
  85   2.0000      -0.337240        -9.1768
  86   2.0000      -0.334133        -9.0922
  87   2.0000      -0.327614        -8.9148
  88   2.0000      -0.318827        -8.6757
  89   2.0000      -0.311559        -8.4780
  90   2.0000      -0.301603        -8.2070
  91   2.0000      -0.290518        -7.9054
  92   2.0000      -0.289619        -7.8809
  93   2.0000      -0.282561        -7.6889
  94   2.0000      -0.274117        -7.4591
  95   2.0000      -0.245374        -6.6770
  96   2.0000      -0.231876        -6.3097
  97   2.0000      -0.227725        -6.1967
  98   2.0000      -0.219646        -5.9769
  99   2.0000      -0.216917        -5.9026
 100   2.0000      -0.212935        -5.7943
 101   0.0000      -0.045978        -1.2511
 102   0.0000      -0.025493        -0.6937
 103   0.0000      -0.004419        -0.1203
 104   0.0000       0.002727         0.0742
 105   0.0000       0.013657         0.3716

MULLIKEN ATOMIC CHARGES
-----------------------
   0 C :   -0.451637
   1 C :   -0.150141
   2 O :   -0.272531
   3 P :    0.643067
   4 S :   -0.448490
   5 O :   -0.273789
   6 C :   -0.130908
   7 C :   -0.455711
   8 S :   -0.136978
   9 C :   -0.236320
  10 S :   -0.163324
  11 P :    0.644181
  12 S :   -0.444656
  13 O :   -0.259565
  14 C :   -0.095051
  15 C :   -0.463199
  16 O :   -0.295035
  17 C :   -0.162505
  18 C :   -0.449167
  19 H :    0.179595
  20 H :    0.147021
  21 H :    0.150125
  22 H :    0.148372
  23 H :    0.178564
  24 H :    0.156385
  25 H :    0.160404
  26 H :    0.156686
  27 H :    0.161612
  28 H :    0.147957
  29 H :    0.216970
  30 H :    0.216540
  31 H :    0.154560
  32 H :    0.157421
  33 H :    0.156460
  34 H :    0.142870
  35 H :    0.163958
  36 H :    0.147775
  37 H :    0.173690
  38 H :    0.182757
  39 H :    0.153615
  40 H :    0.148421
Sum of atomic charges:   -0.0000000

LOEWDIN ATOMIC CHARGES
----------------------
   0 C :   -0.399276
   1 C :    0.011048
   2 O :   -0.704413
   3 P :    0.376665
   4 S :   -0.098882
   5 O :   -0.661391
   6 C :    0.018961
   7 C :   -0.381720
   8 S :    0.162101
   9 C :   -0.423567
  10 S :    0.145429
  11 P :    0.378825
  12 S :   -0.105848
  13 O :   -0.653878
  14 C :    0.023891
  15 C :   -0.391543
  16 O :   -0.664683
  17 C :    0.023533
  18 C :   -0.408612
  19 H :    0.168715
  20 H :    0.154826
  21 H :    0.161195
  22 H :    0.176703
  23 H :    0.183035
  24 H :    0.175213
  25 H :    0.173858
  26 H :    0.161614
  27 H :    0.164540
  28 H :    0.160567
  29 H :    0.193112
  30 H :    0.194882
  31 H :    0.173248
  32 H :    0.179299
  33 H :    0.161985
  34 H :    0.158784
  35 H :    0.164560
  36 H :    0.179516
  37 H :    0.180363
  38 H :    0.167722
  39 H :    0.159727
  40 H :    0.159898

  Mayer bond orders larger than 0.100000
B(  0-C ,  1-C ) :   0.9184 B(  0-C , 19-H ) :   0.9590 B(  0-C , 20-H ) :   0.9756
B(  0-C , 21-H ) :   0.9620 B(  1-C ,  2-O ) :   0.7725 B(  1-C , 22-H ) :   0.9640
B(  1-C , 23-H ) :   0.9556 B(  2-O ,  3-P ) :   1.0184 B(  3-P ,  4-S ) :   1.8374
B(  3-P ,  5-O ) :   1.1335 B(  3-P ,  8-S ) :   1.0731 B(  5-O ,  6-C ) :   0.7347
B(  6-C ,  7-C ) :   0.9620 B(  6-C , 24-H ) :   0.9333 B(  6-C , 25-H ) :   0.9508
B(  7-C , 26-H ) :   0.9750 B(  7-C , 27-H ) :   0.9700 B(  7-C , 28-H ) :   0.9629
B(  8-S ,  9-C ) :   0.9189 B(  9-C , 10-S ) :   0.9092 B(  9-C , 29-H ) :   0.9073
B(  9-C , 30-H ) :   0.9002 B( 10-S , 11-P ) :   1.0027 B( 11-P , 12-S ) :   1.8477
B( 11-P , 13-O ) :   1.1597 B( 11-P , 16-O ) :   1.0394 B( 13-O , 14-C ) :   0.7397
B( 14-C , 15-C ) :   0.9415 B( 14-C , 31-H ) :   0.9449 B( 14-C , 32-H ) :   0.9502
B( 15-C , 33-H ) :   0.9701 B( 15-C , 34-H ) :   0.9680 B( 15-C , 35-H ) :   0.9676
B( 16-O , 17-C ) :   0.8188 B( 17-C , 18-C ) :   0.9180 B( 17-C , 36-H ) :   0.9616
B( 17-C , 37-H ) :   0.9683 B( 18-C , 38-H ) :   0.9618 B( 18-C , 39-H ) :   0.9680
B( 18-C , 40-H ) :   0.9557

Dispersion correction           -0.021642155
FINAL SINGLE POINT ENERGY     -2932.463462228442

DIPOLE MOMENT
-------------

Method             : SCF
Type of density    : Electron Density
Multiplicity       :   1
Irrep              :   0
Energy             : -2932.4882790553283485 Eh
Relativity type    :
Basis              : AO
                                X                 Y                 Z
Electronic contribution:     -7.523474871       5.592023068     -18.841712894
Nuclear contribution   :      7.702071213      -6.384397834      20.955605938
                        -----------------------------------------
Total Dipole Moment    :      0.178596343      -0.792374766       2.113893044
                        -----------------------------------------
Magnitude (a.u.)       :      2.264574624
Magnitude (Debye)      :      5.756091249

Rotational constants in cm-1:             0.012757             0.004766             0.004582
Rotational constants in MHz :           382.453416           142.883467           137.351187

                             ****ORCA TERMINATED NORMALLY****
TOTAL RUN TIME: 0 days 0 hours 1 minutes 20 seconds 706 msec
