                         Program Version 6.0.0  -   RELEASE  -
|  1> ! r2scan-3c def2/J RI DEFGRID2 scfconv6 printgap
|  2> %output
|  3>     printlevel normal
|  4> end
|  5> %cpcm
|  6>     smd true
|  7>     smdsolvent "water"
|  8> end
|  9> * xyz 0 1
| 10> C 3.409533033 -2.1308189903 1.8899911099
| 11> C 2.0098988969 -2.0507861989 1.3155406345
| 12> O 1.6633458468 -0.6948906323 0.9736733132
| 13> P 2.3070220042 0.0378256067 -0.2955739873
| 14> S 2.9044536186 -1.1331890698 -1.7386031506
| 15> O 3.4821188803 0.9496505278 0.2460771419
| 16> C 3.3094224475 1.8763625185 1.3479753532
| 17> C 4.675886714 2.4241877753 1.7023831751
| 18> S 0.7583625526 1.4154344034 -0.7461798548
| 19> C -0.1791560283 0.2823551181 -1.8037115155
| 20> S -0.9951334466 -1.038725346 -0.8821423395
| 21> P -2.5868705232 0.1757749437 -0.1323439329
| 22> S -3.3475642409 1.4508951208 -1.4025440635
| 23> O -2.0064879149 0.8960943422 1.1421595924
| 24> C -1.4651547473 0.1814138205 2.2821006061
| 25> C -0.5366315144 1.1257231474 3.0159293605
| 26> O -3.5910057799 -0.8750018449 0.5115542007
| 27> C -4.6425615068 -1.5133929943 -0.2368088325
| 28> C -4.1080693578 -2.4143239623 -1.3307822282
| 29> H 4.1297886366 -1.7955561111 1.1436514382
| 30> H 3.4961679326 -1.5035790141 2.7733306542
| 31> H 3.6323387185 -3.1591578137 2.1562963559
| 32> H 1.2532306006 -2.3476786572 2.0429594971
| 33> H 1.9233643589 -2.6700006728 0.4174108332
| 34> H 2.6308925053 2.6692460288 1.0213804119
| 35> H 2.8621763153 1.3390263791 2.1878547476
| 36> H 5.3364657256 1.6171555659 2.0059932082
| 37> H 5.1101517646 2.9245693321 0.8417982648
| 38> H 4.5743533049 3.1334978912 2.5173862186
| 39> H 0.5012445623 -0.1939562281 -2.5100743247
| 40> H -0.9335129073 0.8809472524 -2.316404844
| 41> H -2.3043020916 -0.1319067675 2.9057241041
| 42> H -0.9333112751 -0.7030172432 1.9187166567
| 43> H -1.076166742 2.0199603076 3.3136798374
| 44> H -0.143456871 0.6288524951 3.8968425681
| 45> H 0.2843938889 1.4161542744 2.3650524896
| 46> H -5.1899422108 -2.0780459709 0.5193315672
| 47> H -5.2847168037 -0.7349088822 -0.6593661293
| 48> H -3.6276474896 -1.8169829175 -2.104386275
| 49> H -3.3811039286 -3.1141132615 -0.9260022399
| 50> H -4.9311149578 -2.9651513531 -1.7746024092
| 51> *
| 52>
| 53>                          ****END OF INPUT****

CARTESIAN COORDINATES (ANGSTROEM)
---------------------------------
  C      3.409533   -2.130819    1.889991
  C      2.009899   -2.050786    1.315541
  O      1.663346   -0.694891    0.973673
  P      2.307022    0.037826   -0.295574
  S      2.904454   -1.133189   -1.738603
  O      3.482119    0.949651    0.246077
  C      3.309422    1.876363    1.347975
  C      4.675887    2.424188    1.702383
  S      0.758363    1.415434   -0.746180
  C     -0.179156    0.282355   -1.803712
  S     -0.995133   -1.038725   -0.882142
  P     -2.586871    0.175775   -0.132344
  S     -3.347564    1.450895   -1.402544
  O     -2.006488    0.896094    1.142160
  C     -1.465155    0.181414    2.282101
  C     -0.536632    1.125723    3.015929
  O     -3.591006   -0.875002    0.511554
  C     -4.642562   -1.513393   -0.236809
  C     -4.108069   -2.414324   -1.330782
  H      4.129789   -1.795556    1.143651
  H      3.496168   -1.503579    2.773331
  H      3.632339   -3.159158    2.156296
  H      1.253231   -2.347679    2.042959
  H      1.923364   -2.670001    0.417411
  H      2.630893    2.669246    1.021380
  H      2.862176    1.339026    2.187855
  H      5.336466    1.617156    2.005993
  H      5.110152    2.924569    0.841798
  H      4.574353    3.133498    2.517386
  H      0.501245   -0.193956   -2.510074
  H     -0.933513    0.880947   -2.316405
  H     -2.304302   -0.131907    2.905724
  H     -0.933311   -0.703017    1.918717
  H     -1.076167    2.019960    3.313680
  H     -0.143457    0.628852    3.896843
  H      0.284394    1.416154    2.365052
  H     -5.189942   -2.078046    0.519332
  H     -5.284717   -0.734909   -0.659366
  H     -3.627647   -1.816983   -2.104386
  H     -3.381104   -3.114113   -0.926002
  H     -4.931115   -2.965151   -1.774602

 Total Charge           Charge          ....    0
 Multiplicity           Mult            ....    1
 Number of Electrons    NEL             ....  202
 Basis Dimension        Dim             ....  539

ORBITAL ENERGIES
----------------

  NO   OCC          E(Eh)            E(eV)
   0   2.0000     -88.578853     -2410.3531
   1   2.0000     -88.577050     -2410.3041
   2   2.0000     -88.531955     -2409.0770
   3   2.0000     -88.531199     -2409.0564
   4   2.0000     -76.920354     -2093.1093
   5   2.0000     -76.920340     -2093.1089
   6   2.0000     -18.997565      -516.9500
   7   2.0000     -18.997049      -516.9360
   8   2.0000     -18.994442      -516.8650
   9   2.0000     -18.991414      -516.7827
  10   2.0000     -10.103716      -274.9361
  11   2.0000     -10.094233      -274.6781
  12   2.0000     -10.091462      -274.6026
  13   2.0000     -10.091255      -274.5970
  14   2.0000     -10.087872      -274.5050
  15   2.0000     -10.021289      -272.6931
  16   2.0000     -10.019076      -272.6329
  17   2.0000     -10.019069      -272.6327
  18   2.0000     -10.018581      -272.6194
  19   2.0000      -7.873261      -214.2423
  20   2.0000      -7.871372      -214.1909
  21   2.0000      -7.827132      -212.9871
  22   2.0000      -7.826330      -212.9653
  23   2.0000      -6.598949      -179.5665
  24   2.0000      -6.598880      -179.5647
  25   2.0000      -5.820013      -158.3706
  26   2.0000      -5.818191      -158.3210
  27   2.0000      -5.817220      -158.2946
  28   2.0000      -5.815254      -158.2411
  29   2.0000      -5.810389      -158.1087
  30   2.0000      -5.808519      -158.0578
  31   2.0000      -5.774786      -157.1399
  32   2.0000      -5.773903      -157.1159
  33   2.0000      -5.767420      -156.9395
  34   2.0000      -5.767025      -156.9287
  35   2.0000      -5.766538      -156.9155
  36   2.0000      -5.766411      -156.9120
  37   2.0000      -4.744785      -129.1122
  38   2.0000      -4.744676      -129.1092
  39   2.0000      -4.743745      -129.0839
  40   2.0000      -4.743488      -129.0769
  41   2.0000      -4.742698      -129.0554
  42   2.0000      -4.742548      -129.0513
  43   2.0000      -1.055049       -28.7093
  44   2.0000      -1.050497       -28.5855
  45   2.0000      -1.013187       -27.5702
  46   2.0000      -1.011558       -27.5259
  47   2.0000      -0.804762       -21.8987
  48   2.0000      -0.758334       -20.6353
  49   2.0000      -0.747335       -20.3360
  50   2.0000      -0.726891       -19.7797
  51   2.0000      -0.725759       -19.7489
  52   2.0000      -0.710396       -19.3309
  53   2.0000      -0.690259       -18.7829
  54   2.0000      -0.676682       -18.4135
  55   2.0000      -0.627240       -17.0681
  56   2.0000      -0.615384       -16.7454
  57   2.0000      -0.600514       -16.3408
  58   2.0000      -0.598869       -16.2961
  59   2.0000      -0.590043       -16.0559
  60   2.0000      -0.531102       -14.4520
  61   2.0000      -0.523043       -14.2327
  62   2.0000      -0.497449       -13.5363
  63   2.0000      -0.491414       -13.3720
  64   2.0000      -0.479221       -13.0403
  65   2.0000      -0.460018       -12.5177
  66   2.0000      -0.453199       -12.3322
  67   2.0000      -0.451698       -12.2913
  68   2.0000      -0.443458       -12.0671
  69   2.0000      -0.433286       -11.7903
  70   2.0000      -0.419432       -11.4133
  71   2.0000      -0.409136       -11.1332
  72   2.0000      -0.406225       -11.0540
  73   2.0000      -0.403921       -10.9913
  74   2.0000      -0.390374       -10.6226
  75   2.0000      -0.386048       -10.5049
  76   2.0000      -0.379418       -10.3245
  77   2.0000      -0.372323       -10.1314
  78   2.0000      -0.360739        -9.8162
  79   2.0000      -0.359840        -9.7917
  80   2.0000      -0.354722        -9.6525
  81   2.0000      -0.352846        -9.6014
  82   2.0000      -0.351526        -9.5655
  83   2.0000      -0.346597        -9.4314
  84   2.0000      -0.345645        -9.4055
  85   2.0000      -0.330691        -8.9986
  86   2.0000      -0.326259        -8.8780
  87   2.0000      -0.319152        -8.6846
  88   2.0000      -0.315809        -8.5936
  89   2.0000      -0.306908        -8.3514
  90   2.0000      -0.297419        -8.0932
  91   2.0000      -0.285838        -7.7781
  92   2.0000      -0.284000        -7.7280
  93   2.0000      -0.280704        -7.6384
  94   2.0000      -0.275157        -7.4874
  95   2.0000      -0.249331        -6.7846
  96   2.0000      -0.239905        -6.5281
  97   2.0000      -0.237575        -6.4648
  98   2.0000      -0.230434        -6.2704
  99   2.0000      -0.226186        -6.1548
 100   2.0000      -0.220794        -6.0081
 101   0.0000      -0.051380        -1.3981
 102   0.0000      -0.031909        -0.8683
 103   0.0000      -0.007899        -0.2149
 104   0.0000      -0.001449        -0.0394
 105   0.0000       0.014900         0.4055

MULLIKEN ATOMIC CHARGES
-----------------------
   0 C :   -0.484851
   1 C :   -0.142413
   2 O :   -0.281802
   3 P :    0.657497
   4 S :   -0.503676
   5 O :   -0.306285
   6 C :   -0.109972
   7 C :   -0.503775
   8 S :   -0.157471
   9 C :   -0.245202
  10 S :   -0.159473
  11 P :    0.660408
  12 S :   -0.501155
  13 O :   -0.289384
  14 C :   -0.097529
  15 C :   -0.505143
  16 O :   -0.313673
  17 C :   -0.155408
  18 C :   -0.486245
  19 H :    0.169420
  20 H :    0.169919
  21 H :    0.171744
  22 H :    0.180243
  23 H :    0.175951
  24 H :    0.168425
  25 H :    0.184321
  26 H :    0.169583
  27 H :    0.167791
  28 H :    0.171698
  29 H :    0.234863
  30 H :    0.229005
  31 H :    0.175848
  32 H :    0.172797
  33 H :    0.167225
  34 H :    0.173377
  35 H :    0.169507
  36 H :    0.176118
  37 H :    0.179511
  38 H :    0.175109
  39 H :    0.169693
  40 H :    0.173402
Sum of atomic charges:   -0.0000000

LOEWDIN ATOMIC CHARGES
----------------------
   0 C :   -0.401485
   1 C :    0.017730
   2 O :   -0.702738
   3 P :    0.379410
   4 S :   -0.140053
   5 O :   -0.679674
   6 C :    0.028592
   7 C :   -0.386161
   8 S :    0.151472
   9 C :   -0.421881
  10 S :    0.150657
  11 P :    0.381459
  12 S :   -0.148531
  13 O :   -0.675608
  14 C :    0.029671
  15 C :   -0.394764
  16 O :   -0.669802
  17 C :    0.029531
  18 C :   -0.411183
  19 H :    0.163111
  20 H :    0.163170
  21 H :    0.168603
  22 H :    0.189834
  23 H :    0.181640
  24 H :    0.181185
  25 H :    0.184863
  26 H :    0.164406
  27 H :    0.164454
  28 H :    0.170366
  29 H :    0.197415
  30 H :    0.197957
  31 H :    0.182959
  32 H :    0.184633
  33 H :    0.164275
  34 H :    0.170915
  35 H :    0.164766
  36 H :    0.191801
  37 H :    0.181880
  38 H :    0.162225
  39 H :    0.163869
  40 H :    0.169031

  Mayer bond orders larger than 0.100000
B(  0-C ,  1-C ) :   0.9133 B(  0-C , 19-H ) :   0.9610 B(  0-C , 20-H ) :   0.9703
B(  0-C , 21-H ) :   0.9577 B(  1-C ,  2-O ) :   0.7565 B(  1-C , 22-H ) :   0.9531
B(  1-C , 23-H ) :   0.9542 B(  2-O ,  3-P ) :   1.0372 B(  3-P ,  4-S ) :   1.8118
B(  3-P ,  5-O ) :   1.1450 B(  3-P ,  8-S ) :   1.0813 B(  5-O ,  6-C ) :   0.7317
B(  6-C ,  7-C ) :   0.9471 B(  6-C , 24-H ) :   0.9263 B(  6-C , 25-H ) :   0.9404
B(  7-C , 26-H ) :   0.9733 B(  7-C , 27-H ) :   0.9692 B(  7-C , 28-H ) :   0.9565
B(  8-S ,  9-C ) :   0.9018 B(  9-C , 10-S ) :   0.8990 B(  9-C , 29-H ) :   0.9039
B(  9-C , 30-H ) :   0.8979 B( 10-S , 11-P ) :   1.0145 B( 11-P , 12-S ) :   1.8214
B( 11-P , 13-O ) :   1.1681 B( 11-P , 16-O ) :   1.0523 B( 13-O , 14-C ) :   0.7261
B( 14-C , 15-C ) :   0.9320 B( 14-C , 31-H ) :   0.9342 B( 14-C , 32-H ) :   0.9434
B( 15-C , 33-H ) :   0.9688 B( 15-C , 34-H ) :   0.9606 B( 15-C , 35-H ) :   0.9660
B( 16-O , 17-C ) :   0.8063 B( 17-C , 18-C ) :   0.9054 B( 17-C , 36-H ) :   0.9505
B( 17-C , 37-H ) :   0.9669 B( 18-C , 38-H ) :   0.9642 B( 18-C , 39-H ) :   0.9648
B( 18-C , 40-H ) :   0.9504

Dispersion correction           -0.021642155
FINAL SINGLE POINT ENERGY     -2932.475296198009

DIPOLE MOMENT
-------------

Method             : SCF
Type of density    : Electron Density
Multiplicity       :   1
Irrep              :   0
Energy             : -2932.5001130248956542 Eh
Relativity type    :
Basis              : AO
                                X                 Y                 Z
Electronic contribution:     -7.622869169       5.128979862     -17.959214490
Nuclear contribution   :      7.702071213      -6.384397834      20.955605938
                        -----------------------------------------
Total Dipole Moment    :      0.079202045      -1.255417972       2.996391448
                        -----------------------------------------
Magnitude (a.u.)       :      3.249724443
Magnitude (Debye)      :      8.260143090

Rotational constants in cm-1:             0.012757             0.004766             0.004582
Rotational constants in MHz :           382.453416           142.883467           137.351187

                             ****ORCA TERMINATED NORMALLY****
TOTAL RUN TIME: 0 days 0 hours 1 minutes 51 seconds 335 msec
