                         Program Version 6.0.1  -  RELEASE   -
|  1> ! r2scan-3c def2/J RI DEFGRID2 scfconv6 printgap
|  2> %output
|  3>     printlevel normal
|  4> end
|  5> * xyz 0 1
|  6> C 2.1457472503 -2.928508943 0.4405969156
|  7> C 3.2056937231 -2.098031569 -0.26602164
|  8> O 2.6199018696 -0.8967099633 -0.8033786746
|  9> C 2.0754378983 -0.9463965881 -2.0105020288
| 10> O 2.1357494169 -1.9010174794 -2.7485775894
| 11> C 1.3659597194 0.3524576017 -2.3451468842
| 12> C 0.3490411519 0.6877266838 -1.256584609
| 13> H -0.1906417232 1.6056165432 -1.5085310591
| 14> C 1.004861169 0.8832617917 0.1001172167
| 15> O 0.6514687097 0.2763551955 1.0910457335
| 16> O 1.943045019 1.7877394927 0.0554082863
| 17> C 2.5973912352 2.1559742109 1.2877003296
| 18> C 1.8571524448 3.3040020694 1.9539032227
| 19> S -0.8732950194 -0.6628203075 -1.1005779573
| 20> P -1.9389487577 0.0641146721 0.593099952
| 21> S -1.8936157838 1.9925633495 0.9229386177
| 22> O -3.4191452021 -0.4546023292 0.2337008828
| 23> C -4.1749867757 0.1300517523 -0.8295280053
| 24> O -1.6713139816 -0.8384007054 1.8606083453
| 25> C -1.788390077 -2.2733921969 1.8243568325
| 26> H 1.6307281597 -2.3170459014 1.1792470561
| 27> H 1.4193418192 -3.295515586 -0.2819319455
| 28> H 2.6138428559 -3.7727036115 0.9352364361
| 29> H 3.6627378721 -2.6592154675 -1.0856843283
| 30> H 3.9680310865 -1.7468859298 0.4296516447
| 31> H 0.8687305752 0.234754977 -3.3071259815
| 32> H 2.0986216318 1.1594633196 -2.3969301997
| 33> H 2.6300175456 1.2799535899 1.9404145701
| 34> H 3.603026392 2.4486786419 0.9860707046
| 35> H 2.3679653302 3.5801244517 2.8701980893
| 36> H 1.8179463702 4.1624616119 1.2895320693
| 37> H 0.8375412663 3.005762348 2.1930192783
| 38> H -5.1876932202 -0.2465916008 -0.7115991438
| 39> H -3.7607207129 -0.1746737965 -1.7906285457
| 40> H -4.1607994 1.2180388111 -0.7443847647
| 41> H -1.4080436663 -2.6123672289 2.7844555265
| 42> H -1.1883338062 -2.6781901408 1.0090090097
| 43> H -2.8318960654 -2.5552468335 1.6955448302
| 44> *
| 45>
| 46>                          ****END OF INPUT****

CARTESIAN COORDINATES (ANGSTROEM)
---------------------------------
  C      2.145747   -2.928509    0.440597
  C      3.205694   -2.098032   -0.266022
  O      2.619902   -0.896710   -0.803379
  C      2.075438   -0.946397   -2.010502
  O      2.135749   -1.901017   -2.748578
  C      1.365960    0.352458   -2.345147
  C      0.349041    0.687727   -1.256585
  H     -0.190642    1.605617   -1.508531
  C      1.004861    0.883262    0.100117
  O      0.651469    0.276355    1.091046
  O      1.943045    1.787739    0.055408
  C      2.597391    2.155974    1.287700
  C      1.857152    3.304002    1.953903
  S     -0.873295   -0.662820   -1.100578
  P     -1.938949    0.064115    0.593100
  S     -1.893616    1.992563    0.922939
  O     -3.419145   -0.454602    0.233701
  C     -4.174987    0.130052   -0.829528
  O     -1.671314   -0.838401    1.860608
  C     -1.788390   -2.273392    1.824357
  H      1.630728   -2.317046    1.179247
  H      1.419342   -3.295516   -0.281932
  H      2.613843   -3.772704    0.935236
  H      3.662738   -2.659215   -1.085684
  H      3.968031   -1.746886    0.429652
  H      0.868731    0.234755   -3.307126
  H      2.098622    1.159463   -2.396930
  H      2.630018    1.279954    1.940415
  H      3.603026    2.448679    0.986071
  H      2.367965    3.580124    2.870198
  H      1.817946    4.162462    1.289532
  H      0.837541    3.005762    2.193019
  H     -5.187693   -0.246592   -0.711599
  H     -3.760721   -0.174674   -1.790629
  H     -4.160799    1.218039   -0.744385
  H     -1.408044   -2.612367    2.784456
  H     -1.188334   -2.678190    1.009009
  H     -2.831896   -2.555247    1.695545

 Total Charge           Charge          ....    0
 Multiplicity           Mult            ....    1
 Number of Electrons    NEL             ....  174
 Basis Dimension        Dim             ....  510

ORBITAL ENERGIES
----------------

  NO   OCC          E(Eh)            E(eV)
   0   2.0000     -88.574281     -2410.2287
   1   2.0000     -88.511502     -2408.5204
   2   2.0000     -76.910423     -2092.8390
   3   2.0000     -19.010600      -517.3047
   4   2.0000     -19.006434      -517.1914
   5   2.0000     -18.985577      -516.6238
   6   2.0000     -18.982384      -516.5369
   7   2.0000     -18.939445      -515.3685
   8   2.0000     -18.937319      -515.3106
   9   2.0000     -10.167686      -276.6768
  10   2.0000     -10.165235      -276.6101
  11   2.0000     -10.100851      -274.8581
  12   2.0000     -10.098252      -274.7874
  13   2.0000     -10.096899      -274.7506
  14   2.0000     -10.092676      -274.6357
  15   2.0000     -10.084431      -274.4113
  16   2.0000     -10.068473      -273.9771
  17   2.0000     -10.028629      -272.8929
  18   2.0000     -10.027473      -272.8614
  19   2.0000      -7.868456      -214.1116
  20   2.0000      -7.806526      -212.4264
  21   2.0000      -6.588117      -179.2718
  22   2.0000      -5.815328      -158.2431
  23   2.0000      -5.812316      -158.1612
  24   2.0000      -5.805597      -157.9783
  25   2.0000      -5.754446      -156.5864
  26   2.0000      -5.746953      -156.3825
  27   2.0000      -5.746056      -156.3581
  28   2.0000      -4.733889      -128.8157
  29   2.0000      -4.733265      -128.7987
  30   2.0000      -4.731558      -128.7522
  31   2.0000      -1.090841       -29.6833
  32   2.0000      -1.081634       -29.4328
  33   2.0000      -1.043337       -28.3906
  34   2.0000      -1.000197       -27.2167
  35   2.0000      -0.991071       -26.9684
  36   2.0000      -0.988341       -26.8941
  37   2.0000      -0.816819       -22.2268
  38   2.0000      -0.752527       -20.4773
  39   2.0000      -0.748816       -20.3763
  40   2.0000      -0.728418       -19.8213
  41   2.0000      -0.696540       -18.9538
  42   2.0000      -0.669578       -18.2202
  43   2.0000      -0.658555       -17.9202
  44   2.0000      -0.650952       -17.7133
  45   2.0000      -0.631040       -17.1715
  46   2.0000      -0.600688       -16.3456
  47   2.0000      -0.539538       -14.6816
  48   2.0000      -0.533627       -14.5207
  49   2.0000      -0.527059       -14.3420
  50   2.0000      -0.503279       -13.6949
  51   2.0000      -0.489443       -13.3184
  52   2.0000      -0.487264       -13.2591
  53   2.0000      -0.469498       -12.7757
  54   2.0000      -0.462493       -12.5851
  55   2.0000      -0.452696       -12.3185
  56   2.0000      -0.445800       -12.1308
  57   2.0000      -0.442844       -12.0504
  58   2.0000      -0.429022       -11.6743
  59   2.0000      -0.426614       -11.6087
  60   2.0000      -0.423091       -11.5129
  61   2.0000      -0.416109       -11.3229
  62   2.0000      -0.411401       -11.1948
  63   2.0000      -0.406854       -11.0711
  64   2.0000      -0.393508       -10.7079
  65   2.0000      -0.390540       -10.6271
  66   2.0000      -0.374279       -10.1847
  67   2.0000      -0.371858       -10.1188
  68   2.0000      -0.361324        -9.8321
  69   2.0000      -0.357533        -9.7290
  70   2.0000      -0.349281        -9.5044
  71   2.0000      -0.347355        -9.4520
  72   2.0000      -0.340341        -9.2611
  73   2.0000      -0.330604        -8.9962
  74   2.0000      -0.317984        -8.6528
  75   2.0000      -0.312696        -8.5089
  76   2.0000      -0.311502        -8.4764
  77   2.0000      -0.307208        -8.3595
  78   2.0000      -0.287381        -7.8200
  79   2.0000      -0.281566        -7.6618
  80   2.0000      -0.276313        -7.5188
  81   2.0000      -0.270943        -7.3727
  82   2.0000      -0.252055        -6.8588
  83   2.0000      -0.246039        -6.6951
  84   2.0000      -0.235125        -6.3981
  85   2.0000      -0.213314        -5.8046
  86   2.0000      -0.205993        -5.6054
  87   0.0000      -0.043374        -1.1803
  88   0.0000      -0.034181        -0.9301
  89   0.0000      -0.015692        -0.4270
  90   0.0000       0.003327         0.0905
  91   0.0000       0.022591         0.6147

MULLIKEN ATOMIC CHARGES
-----------------------
   0 C :   -0.485926
   1 C :   -0.135492
   2 O :   -0.102624
   3 C :    0.308590
   4 O :   -0.391222
   5 C :   -0.414251
   6 C :   -0.020145
   7 H :    0.234553
   8 C :    0.299355
   9 O :   -0.409176
  10 O :   -0.140892
  11 C :   -0.136034
  12 C :   -0.469462
  13 S :   -0.206020
  14 P :    0.809214
  15 S :   -0.463252
  16 O :   -0.368521
  17 C :   -0.303322
  18 O :   -0.296080
  19 C :   -0.292113
  20 H :    0.178875
  21 H :    0.171270
  22 H :    0.147553
  23 H :    0.171077
  24 H :    0.148241
  25 H :    0.192976
  26 H :    0.198630
  27 H :    0.167482
  28 H :    0.149931
  29 H :    0.146427
  30 H :    0.151285
  31 H :    0.190316
  32 H :    0.149674
  33 H :    0.156142
  34 H :    0.174984
  35 H :    0.157075
  36 H :    0.163791
  37 H :    0.167091
Sum of atomic charges:    0.0000000

LOEWDIN ATOMIC CHARGES
----------------------
   0 C :   -0.392812
   1 C :    0.036408
   2 O :   -0.592996
   3 C :    0.351905
   4 O :   -0.412265
   5 C :   -0.199716
   6 C :   -0.196503
   7 H :    0.204287
   8 C :    0.337638
   9 O :   -0.461265
  10 O :   -0.568057
  11 C :    0.035883
  12 C :   -0.388435
  13 S :    0.210229
  14 P :    0.413023
  15 S :   -0.084782
  16 O :   -0.693350
  17 C :   -0.065369
  18 O :   -0.637170
  19 C :   -0.049840
  20 H :    0.169740
  21 H :    0.165161
  22 H :    0.157481
  23 H :    0.190620
  24 H :    0.178605
  25 H :    0.188119
  26 H :    0.199495
  27 H :    0.190114
  28 H :    0.178542
  29 H :    0.158909
  30 H :    0.157954
  31 H :    0.173807
  32 H :    0.175734
  33 H :    0.167460
  34 H :    0.176054
  35 H :    0.180350
  36 H :    0.172000
  37 H :    0.173040

  Mayer bond orders larger than 0.100000
B(  0-C ,  1-C ) :   0.9254 B(  0-C , 20-H ) :   0.9642 B(  0-C , 21-H ) :   0.9691
B(  0-C , 22-H ) :   0.9650 B(  1-C ,  2-O ) :   0.7880 B(  1-C , 23-H ) :   0.9638
B(  1-C , 24-H ) :   0.9639 B(  2-O ,  3-C ) :   1.0394 B(  3-C ,  4-O ) :   1.8938
B(  3-C ,  5-C ) :   0.9587 B(  5-C ,  6-C ) :   0.8362 B(  5-C , 25-H ) :   0.9837
B(  5-C , 26-H ) :   0.9538 B(  6-C ,  7-H ) :   0.9061 B(  6-C ,  8-C ) :   0.9284
B(  6-C , 13-S ) :   0.9319 B(  8-C ,  9-O ) :   1.7448 B(  8-C , 10-O ) :   1.1489
B(  9-O , 14-P ) :   0.1054 B( 10-O , 11-C ) :   0.7819 B( 11-C , 12-C ) :   0.9462
B( 11-C , 27-H ) :   0.9680 B( 11-C , 28-H ) :   0.9613 B( 12-C , 29-H ) :   0.9654
B( 12-C , 30-H ) :   0.9722 B( 12-C , 31-H ) :   0.9596 B( 13-S , 14-P ) :   0.9657
B( 14-P , 15-S ) :   1.7664 B( 14-P , 16-O ) :   0.9917 B( 14-P , 18-O ) :   1.1902
B( 16-O , 17-C ) :   0.8395 B( 17-C , 32-H ) :   0.9688 B( 17-C , 33-H ) :   0.9568
B( 17-C , 34-H ) :   0.9581 B( 18-O , 19-C ) :   0.7942 B( 19-C , 35-H ) :   0.9653
B( 19-C , 36-H ) :   0.9590 B( 19-C , 37-H ) :   0.9617

Dispersion correction           -0.018314039
FINAL SINGLE POINT ENERGY     -1981.449172246006

DIPOLE MOMENT
-------------

Method             : SCF
Type of density    : Electron Density
Multiplicity       :   1
Irrep              :   0
Energy             : -1981.4685838551463348 Eh
Relativity type    :
Basis              : AO
                                X                 Y                 Z
Electronic contribution:     -9.318844347       3.035279606      -4.520517932
Nuclear contribution   :     10.092931605      -3.281411934       4.616993239
                        -----------------------------------------
Total Dipole Moment    :      0.774087258      -0.246132327       0.096475307
                        -----------------------------------------
Magnitude (a.u.)       :      0.817985141
Magnitude (Debye)      :      2.079152995

Rotational constants in cm-1:             0.012508             0.008299             0.006743
Rotational constants in MHz :           374.981414           248.803949           202.160820

                             ****ORCA TERMINATED NORMALLY****
TOTAL RUN TIME: 0 days 0 hours 1 minutes 24 seconds 270 msec
