                         Program Version 6.0.1  -  RELEASE   -
|  1> ! r2scan-3c def2/J RI DEFGRID2 scfconv6 printgap
|  2> %output
|  3>     printlevel normal
|  4> end
|  5> %cpcm
|  6>     smd true
|  7>     smdsolvent "water"
|  8> end
|  9> * xyz 0 1
| 10> C 2.1457472503 -2.928508943 0.4405969156
| 11> C 3.2056937231 -2.098031569 -0.26602164
| 12> O 2.6199018696 -0.8967099633 -0.8033786746
| 13> C 2.0754378983 -0.9463965881 -2.0105020288
| 14> O 2.1357494169 -1.9010174794 -2.7485775894
| 15> C 1.3659597194 0.3524576017 -2.3451468842
| 16> C 0.3490411519 0.6877266838 -1.256584609
| 17> H -0.1906417232 1.6056165432 -1.5085310591
| 18> C 1.004861169 0.8832617917 0.1001172167
| 19> O 0.6514687097 0.2763551955 1.0910457335
| 20> O 1.943045019 1.7877394927 0.0554082863
| 21> C 2.5973912352 2.1559742109 1.2877003296
| 22> C 1.8571524448 3.3040020694 1.9539032227
| 23> S -0.8732950194 -0.6628203075 -1.1005779573
| 24> P -1.9389487577 0.0641146721 0.593099952
| 25> S -1.8936157838 1.9925633495 0.9229386177
| 26> O -3.4191452021 -0.4546023292 0.2337008828
| 27> C -4.1749867757 0.1300517523 -0.8295280053
| 28> O -1.6713139816 -0.8384007054 1.8606083453
| 29> C -1.788390077 -2.2733921969 1.8243568325
| 30> H 1.6307281597 -2.3170459014 1.1792470561
| 31> H 1.4193418192 -3.295515586 -0.2819319455
| 32> H 2.6138428559 -3.7727036115 0.9352364361
| 33> H 3.6627378721 -2.6592154675 -1.0856843283
| 34> H 3.9680310865 -1.7468859298 0.4296516447
| 35> H 0.8687305752 0.234754977 -3.3071259815
| 36> H 2.0986216318 1.1594633196 -2.3969301997
| 37> H 2.6300175456 1.2799535899 1.9404145701
| 38> H 3.603026392 2.4486786419 0.9860707046
| 39> H 2.3679653302 3.5801244517 2.8701980893
| 40> H 1.8179463702 4.1624616119 1.2895320693
| 41> H 0.8375412663 3.005762348 2.1930192783
| 42> H -5.1876932202 -0.2465916008 -0.7115991438
| 43> H -3.7607207129 -0.1746737965 -1.7906285457
| 44> H -4.1607994 1.2180388111 -0.7443847647
| 45> H -1.4080436663 -2.6123672289 2.7844555265
| 46> H -1.1883338062 -2.6781901408 1.0090090097
| 47> H -2.8318960654 -2.5552468335 1.6955448302
| 48> *
| 49>
| 50>                          ****END OF INPUT****

CARTESIAN COORDINATES (ANGSTROEM)
---------------------------------
  C      2.145747   -2.928509    0.440597
  C      3.205694   -2.098032   -0.266022
  O      2.619902   -0.896710   -0.803379
  C      2.075438   -0.946397   -2.010502
  O      2.135749   -1.901017   -2.748578
  C      1.365960    0.352458   -2.345147
  C      0.349041    0.687727   -1.256585
  H     -0.190642    1.605617   -1.508531
  C      1.004861    0.883262    0.100117
  O      0.651469    0.276355    1.091046
  O      1.943045    1.787739    0.055408
  C      2.597391    2.155974    1.287700
  C      1.857152    3.304002    1.953903
  S     -0.873295   -0.662820   -1.100578
  P     -1.938949    0.064115    0.593100
  S     -1.893616    1.992563    0.922939
  O     -3.419145   -0.454602    0.233701
  C     -4.174987    0.130052   -0.829528
  O     -1.671314   -0.838401    1.860608
  C     -1.788390   -2.273392    1.824357
  H      1.630728   -2.317046    1.179247
  H      1.419342   -3.295516   -0.281932
  H      2.613843   -3.772704    0.935236
  H      3.662738   -2.659215   -1.085684
  H      3.968031   -1.746886    0.429652
  H      0.868731    0.234755   -3.307126
  H      2.098622    1.159463   -2.396930
  H      2.630018    1.279954    1.940415
  H      3.603026    2.448679    0.986071
  H      2.367965    3.580124    2.870198
  H      1.817946    4.162462    1.289532
  H      0.837541    3.005762    2.193019
  H     -5.187693   -0.246592   -0.711599
  H     -3.760721   -0.174674   -1.790629
  H     -4.160799    1.218039   -0.744385
  H     -1.408044   -2.612367    2.784456
  H     -1.188334   -2.678190    1.009009
  H     -2.831896   -2.555247    1.695545

 Total Charge           Charge          ....    0
 Multiplicity           Mult            ....    1
 Number of Electrons    NEL             ....  174
 Basis Dimension        Dim             ....  510

ORBITAL ENERGIES
----------------

  NO   OCC          E(Eh)            E(eV)
   0   2.0000     -88.579247     -2410.3638
   1   2.0000     -88.525336     -2408.8968
   2   2.0000     -76.920596     -2093.1158
   3   2.0000     -19.012923      -517.3679
   4   2.0000     -19.009309      -517.2696
   5   2.0000     -18.995421      -516.8917
   6   2.0000     -18.989049      -516.7183
   7   2.0000     -18.951875      -515.7067
   8   2.0000     -18.948376      -515.6115
   9   2.0000     -10.175413      -276.8871
  10   2.0000     -10.173192      -276.8266
  11   2.0000     -10.100286      -274.8427
  12   2.0000     -10.088301      -274.5166
  13   2.0000     -10.086667      -274.4722
  14   2.0000     -10.084817      -274.4218
  15   2.0000     -10.078801      -274.2581
  16   2.0000     -10.061591      -273.7898
  17   2.0000     -10.019475      -272.6438
  18   2.0000     -10.019229      -272.6371
  19   2.0000      -7.873421      -214.2467
  20   2.0000      -7.820664      -212.8111
  21   2.0000      -6.598415      -179.5520
  22   2.0000      -5.820293      -158.3782
  23   2.0000      -5.817324      -158.2974
  24   2.0000      -5.810526      -158.1125
  25   2.0000      -5.768474      -156.9681
  26   2.0000      -5.761131      -156.7683
  27   2.0000      -5.760202      -156.7431
  28   2.0000      -4.744160      -129.0952
  29   2.0000      -4.743502      -129.0773
  30   2.0000      -4.741953      -129.0351
  31   2.0000      -1.095009       -29.7967
  32   2.0000      -1.086231       -29.5578
  33   2.0000      -1.051654       -28.6170
  34   2.0000      -1.007465       -27.4145
  35   2.0000      -1.000429       -27.2231
  36   2.0000      -0.998565       -27.1723
  37   2.0000      -0.816278       -22.2121
  38   2.0000      -0.749722       -20.4010
  39   2.0000      -0.744809       -20.2673
  40   2.0000      -0.728070       -19.8118
  41   2.0000      -0.695451       -18.9242
  42   2.0000      -0.667672       -18.1683
  43   2.0000      -0.659358       -17.9420
  44   2.0000      -0.655365       -17.8334
  45   2.0000      -0.625760       -17.0278
  46   2.0000      -0.597826       -16.2677
  47   2.0000      -0.539231       -14.6732
  48   2.0000      -0.529576       -14.4105
  49   2.0000      -0.525995       -14.3131
  50   2.0000      -0.503491       -13.7007
  51   2.0000      -0.490205       -13.3392
  52   2.0000      -0.489526       -13.3207
  53   2.0000      -0.474839       -12.9210
  54   2.0000      -0.464175       -12.6308
  55   2.0000      -0.457548       -12.4505
  56   2.0000      -0.447761       -12.1842
  57   2.0000      -0.445139       -12.1128
  58   2.0000      -0.434033       -11.8106
  59   2.0000      -0.426194       -11.5973
  60   2.0000      -0.419668       -11.4198
  61   2.0000      -0.414127       -11.2690
  62   2.0000      -0.408101       -11.1050
  63   2.0000      -0.405750       -11.0410
  64   2.0000      -0.391067       -10.6415
  65   2.0000      -0.386275       -10.5111
  66   2.0000      -0.374214       -10.1829
  67   2.0000      -0.368479       -10.0268
  68   2.0000      -0.360170        -9.8007
  69   2.0000      -0.354057        -9.6344
  70   2.0000      -0.349786        -9.5182
  71   2.0000      -0.345477        -9.4009
  72   2.0000      -0.337864        -9.1937
  73   2.0000      -0.331974        -9.0335
  74   2.0000      -0.319270        -8.6878
  75   2.0000      -0.314014        -8.5448
  76   2.0000      -0.309438        -8.4202
  77   2.0000      -0.305329        -8.3084
  78   2.0000      -0.291110        -7.9215
  79   2.0000      -0.286464        -7.7951
  80   2.0000      -0.280862        -7.6426
  81   2.0000      -0.276633        -7.5276
  82   2.0000      -0.262073        -7.1314
  83   2.0000      -0.258217        -7.0264
  84   2.0000      -0.242274        -6.5926
  85   2.0000      -0.227331        -6.1860
  86   2.0000      -0.220560        -6.0017
  87   0.0000      -0.051047        -1.3890
  88   0.0000      -0.041389        -1.1262
  89   0.0000      -0.021801        -0.5932
  90   0.0000       0.000283         0.0077
  91   0.0000       0.014804         0.4028

MULLIKEN ATOMIC CHARGES
-----------------------
   0 C :   -0.509344
   1 C :   -0.136002
   2 O :   -0.119009
   3 C :    0.341582
   4 O :   -0.464556
   5 C :   -0.449150
   6 C :    0.003138
   7 H :    0.264823
   8 C :    0.298822
   9 O :   -0.454594
  10 O :   -0.157082
  11 C :   -0.131898
  12 C :   -0.505421
  13 S :   -0.208771
  14 P :    0.808706
  15 S :   -0.504406
  16 O :   -0.398836
  17 C :   -0.310129
  18 O :   -0.344702
  19 C :   -0.297744
  20 H :    0.172274
  21 H :    0.173901
  22 H :    0.173976
  23 H :    0.176534
  24 H :    0.178826
  25 H :    0.219196
  26 H :    0.236264
  27 H :    0.178087
  28 H :    0.179621
  29 H :    0.172759
  30 H :    0.170214
  31 H :    0.171574
  32 H :    0.177402
  33 H :    0.172938
  34 H :    0.175868
  35 H :    0.183550
  36 H :    0.178509
  37 H :    0.183082
Sum of atomic charges:    0.0000000

LOEWDIN ATOMIC CHARGES
----------------------
   0 C :   -0.393163
   1 C :    0.041609
   2 O :   -0.592307
   3 C :    0.359917
   4 O :   -0.465617
   5 C :   -0.190139
   6 C :   -0.187939
   7 H :    0.215568
   8 C :    0.340114
   9 O :   -0.501187
  10 O :   -0.567905
  11 C :    0.042418
  12 C :   -0.392814
  13 S :    0.214160
  14 P :    0.408893
  15 S :   -0.118776
  16 O :   -0.706343
  17 C :   -0.060523
  18 O :   -0.668425
  19 C :   -0.042437
  20 H :    0.166121
  21 H :    0.163722
  22 H :    0.167781
  23 H :    0.192945
  24 H :    0.191137
  25 H :    0.197504
  26 H :    0.214487
  27 H :    0.193341
  28 H :    0.191813
  29 H :    0.168723
  30 H :    0.163031
  31 H :    0.164034
  32 H :    0.187356
  33 H :    0.174770
  34 H :    0.176529
  35 H :    0.191551
  36 H :    0.179142
  37 H :    0.180910

  Mayer bond orders larger than 0.100000
B(  0-C ,  1-C ) :   0.9104 B(  0-C , 20-H ) :   0.9670 B(  0-C , 21-H ) :   0.9681
B(  0-C , 22-H ) :   0.9591 B(  1-C ,  2-O ) :   0.7745 B(  1-C , 23-H ) :   0.9592
B(  1-C , 24-H ) :   0.9535 B(  2-O ,  3-C ) :   1.0604 B(  3-C ,  4-O ) :   1.8351
B(  3-C ,  5-C ) :   0.9369 B(  5-C ,  6-C ) :   0.8230 B(  5-C , 25-H ) :   0.9846
B(  5-C , 26-H ) :   0.9420 B(  6-C ,  7-H ) :   0.8905 B(  6-C ,  8-C ) :   0.9237
B(  6-C , 13-S ) :   0.9080 B(  8-C ,  9-O ) :   1.7076 B(  8-C , 10-O ) :   1.1544
B(  9-O , 14-P ) :   0.1060 B( 10-O , 11-C ) :   0.7686 B( 11-C , 12-C ) :   0.9317
B( 11-C , 27-H ) :   0.9632 B( 11-C , 28-H ) :   0.9502 B( 12-C , 29-H ) :   0.9597
B( 12-C , 30-H ) :   0.9702 B( 12-C , 31-H ) :   0.9648 B( 13-S , 14-P ) :   0.9872
B( 14-P , 15-S ) :   1.7686 B( 14-P , 16-O ) :   0.9941 B( 14-P , 18-O ) :   1.1817
B( 16-O , 17-C ) :   0.8320 B( 17-C , 32-H ) :   0.9587 B( 17-C , 33-H ) :   0.9503
B( 17-C , 34-H ) :   0.9548 B( 18-O , 19-C ) :   0.7869 B( 19-C , 35-H ) :   0.9542
B( 19-C , 36-H ) :   0.9484 B( 19-C , 37-H ) :   0.9530

Dispersion correction           -0.018314039
FINAL SINGLE POINT ENERGY     -1981.464035890886

DIPOLE MOMENT
-------------

Method             : SCF
Type of density    : Electron Density
Multiplicity       :   1
Irrep              :   0
Energy             : -1981.4834475000261591 Eh
Relativity type    :
Basis              : AO
                                X                 Y                 Z
Electronic contribution:     -8.945315921       3.061472959      -4.815212942
Nuclear contribution   :     10.092931605      -3.281411934       4.616993239
                        -----------------------------------------
Total Dipole Moment    :      1.147615684      -0.219938974      -0.198219703
                        -----------------------------------------
Magnitude (a.u.)       :      1.185194482
Magnitude (Debye)      :      3.012524965

Rotational constants in cm-1:             0.012508             0.008299             0.006743
Rotational constants in MHz :           374.981414           248.803949           202.160820

                             ****ORCA TERMINATED NORMALLY****
TOTAL RUN TIME: 0 days 0 hours 1 minutes 55 seconds 716 msec
