                         Program Version 6.0.0  -   RELEASE  -
|  1> ! pbe def2-sv(p) def2/J RI DEFGRID1 loosescf d4 GCP(DFT/SV(P)) printgap
|  2> %output
|  3>     printlevel normal
|  4> end
|  5> * xyz 0 1
|  6> C 5.8368426388 -0.4945162638 -0.5159185148
|  7> C 4.3772684092 -0.8331667274 -0.7421371167
|  8> O 3.5850747883 0.258411858 -0.2379105152
|  9> P 2.0572056501 0.4289301625 -0.6512486249
| 10> S 1.7705702266 0.3878425829 -2.5866239797
| 11> O 1.7136747132 1.8160000959 -0.0001343013
| 12> C 1.4506071133 2.0923469657 1.3964587499
| 13> C 2.5218693505 1.5551516123 2.3195073422
| 14> S 1.1187193693 -1.133668024 0.4536635978
| 15> C -0.0020244004 -1.8227978499 -0.8044688781
| 16> S -1.696940955 -2.0031892298 -0.2084662975
| 17> P -2.0700812969 0.0397090875 0.2572013089
| 18> S -1.3524123643 1.3766275313 -0.9840166164
| 19> O -1.5036920241 0.2425793576 1.7160953325
| 20> C -1.8597139509 -0.5945872858 2.8479402239
| 21> C -2.9751409645 0.0368559543 3.6543339201
| 22> O -3.6413543528 0.0869026591 0.4858466761
| 23> C -4.5808573655 0.3100915317 -0.580508739
| 24> C -4.5900881916 -0.8196771147 -1.5895317196
| 25> H 6.0921723576 0.4199669272 -1.0439231828
| 26> H 6.026321155 -0.3542827884 0.544146157
| 27> H 6.4521662685 -1.306903084 -0.8880737239
| 28> H 4.0895229322 -1.7400726104 -0.2027713348
| 29> H 4.1549538022 -0.9625677036 -1.8070037425
| 30> H 1.3989948027 3.1821110504 1.4234616807
| 31> H 0.468003506 1.6776477461 1.6404568248
| 32> H 3.4968491007 1.9287768898 2.0175625675
| 33> H 2.3079258516 1.8799301043 3.3331416152
| 34> H 2.5358111925 0.4665485326 2.2904975608
| 35> H 0.3339738378 -2.825290843 -1.0574949944
| 36> H 0.0259948208 -1.1666482046 -1.6795727725
| 37> H -2.1462111903 -1.5831496554 2.4794789394
| 38> H -0.9377014081 -0.6709736567 3.427125034
| 39> H -2.6904465828 1.0371554774 3.9686589961
| 40> H -3.8816282726 0.1010515248 3.0587836088
| 41> H -3.1650078581 -0.5739839311 4.5313073644
| 42> H -5.5393163428 0.3981806641 -0.0668913994
| 43> H -4.3303634078 1.2581247256 -1.066254342
| 44> H -4.7133196915 -1.7761199394 -1.0876222755
| 45> H -5.4079549866 -0.6693123882 -2.2869624761
| 46> H -3.6538093007 -0.8312968178 -2.1458527835
| 47> *
| 48>
| 49>                          ****END OF INPUT****

CARTESIAN COORDINATES (ANGSTROEM)
---------------------------------
  C      5.836843   -0.494516   -0.515919
  C      4.377268   -0.833167   -0.742137
  O      3.585075    0.258412   -0.237911
  P      2.057206    0.428930   -0.651249
  S      1.770570    0.387843   -2.586624
  O      1.713675    1.816000   -0.000134
  C      1.450607    2.092347    1.396459
  C      2.521869    1.555152    2.319507
  S      1.118719   -1.133668    0.453664
  C     -0.002024   -1.822798   -0.804469
  S     -1.696941   -2.003189   -0.208466
  P     -2.070081    0.039709    0.257201
  S     -1.352412    1.376628   -0.984017
  O     -1.503692    0.242579    1.716095
  C     -1.859714   -0.594587    2.847940
  C     -2.975141    0.036856    3.654334
  O     -3.641354    0.086903    0.485847
  C     -4.580857    0.310092   -0.580509
  C     -4.590088   -0.819677   -1.589532
  H      6.092172    0.419967   -1.043923
  H      6.026321   -0.354283    0.544146
  H      6.452166   -1.306903   -0.888074
  H      4.089523   -1.740073   -0.202771
  H      4.154954   -0.962568   -1.807004
  H      1.398995    3.182111    1.423462
  H      0.468004    1.677648    1.640457
  H      3.496849    1.928777    2.017563
  H      2.307926    1.879930    3.333142
  H      2.535811    0.466549    2.290498
  H      0.333974   -2.825291   -1.057495
  H      0.025995   -1.166648   -1.679573
  H     -2.146211   -1.583150    2.479479
  H     -0.937701   -0.670974    3.427125
  H     -2.690447    1.037155    3.968659
  H     -3.881628    0.101052    3.058784
  H     -3.165008   -0.573984    4.531307
  H     -5.539316    0.398181   -0.066891
  H     -4.330363    1.258125   -1.066254
  H     -4.713320   -1.776120   -1.087622
  H     -5.407955   -0.669312   -2.286962
  H     -3.653809   -0.831297   -2.145853

 Total Charge           Charge          ....    0
 Multiplicity           Mult            ....    1
 Number of Electrons    NEL             ....  202
 Basis Dimension        Dim             ....  334

ORBITAL ENERGIES
----------------

  NO   OCC          E(Eh)            E(eV)
   0   2.0000     -88.045393     -2395.8369
   1   2.0000     -88.040688     -2395.7089
   2   2.0000     -87.982887     -2394.1361
   3   2.0000     -87.974649     -2393.9119
   4   2.0000     -76.426622     -2079.6741
   5   2.0000     -76.419011     -2079.4670
   6   2.0000     -18.796068      -511.4670
   7   2.0000     -18.794279      -511.4183
   8   2.0000     -18.783225      -511.1175
   9   2.0000     -18.782955      -511.1102
  10   2.0000      -9.958295      -270.9790
  11   2.0000      -9.955567      -270.9048
  12   2.0000      -9.952932      -270.8330
  13   2.0000      -9.945979      -270.6439
  14   2.0000      -9.945278      -270.6248
  15   2.0000      -9.889640      -269.1108
  16   2.0000      -9.885607      -269.0010
  17   2.0000      -9.884551      -268.9723
  18   2.0000      -9.883790      -268.9516
  19   2.0000      -7.690359      -209.2653
  20   2.0000      -7.685016      -209.1199
  21   2.0000      -7.627585      -207.5572
  22   2.0000      -7.619924      -207.3487
  23   2.0000      -6.423900      -174.8032
  24   2.0000      -6.416141      -174.5921
  25   2.0000      -5.718215      -155.6005
  26   2.0000      -5.714717      -155.5054
  27   2.0000      -5.712853      -155.4546
  28   2.0000      -5.709484      -155.3630
  29   2.0000      -5.707521      -155.3095
  30   2.0000      -5.702182      -155.1643
  31   2.0000      -5.656715      -153.9270
  32   2.0000      -5.648957      -153.7159
  33   2.0000      -5.648019      -153.6904
  34   2.0000      -5.647785      -153.6840
  35   2.0000      -5.640563      -153.4875
  36   2.0000      -5.639878      -153.4689
  37   2.0000      -4.646788      -126.4455
  38   2.0000      -4.645705      -126.4161
  39   2.0000      -4.644041      -126.3708
  40   2.0000      -4.638793      -126.2280
  41   2.0000      -4.638030      -126.2072
  42   2.0000      -4.636464      -126.1646
  43   2.0000      -0.990703       -26.9584
  44   2.0000      -0.978959       -26.6388
  45   2.0000      -0.948262       -25.8035
  46   2.0000      -0.936362       -25.4797
  47   2.0000      -0.761412       -20.7191
  48   2.0000      -0.719235       -19.5714
  49   2.0000      -0.709819       -19.3151
  50   2.0000      -0.692860       -18.8537
  51   2.0000      -0.686573       -18.6826
  52   2.0000      -0.675825       -18.3901
  53   2.0000      -0.648256       -17.6399
  54   2.0000      -0.630368       -17.1532
  55   2.0000      -0.596558       -16.2332
  56   2.0000      -0.589023       -16.0281
  57   2.0000      -0.578500       -15.7418
  58   2.0000      -0.564211       -15.3530
  59   2.0000      -0.560407       -15.2494
  60   2.0000      -0.504749       -13.7349
  61   2.0000      -0.495591       -13.4857
  62   2.0000      -0.476690       -12.9714
  63   2.0000      -0.467832       -12.7304
  64   2.0000      -0.451544       -12.2871
  65   2.0000      -0.448771       -12.2117
  66   2.0000      -0.442986       -12.0543
  67   2.0000      -0.431605       -11.7446
  68   2.0000      -0.428727       -11.6662
  69   2.0000      -0.420975       -11.4553
  70   2.0000      -0.411714       -11.2033
  71   2.0000      -0.400680       -10.9031
  72   2.0000      -0.394679       -10.7398
  73   2.0000      -0.381724       -10.3872
  74   2.0000      -0.376046       -10.2327
  75   2.0000      -0.366589        -9.9754
  76   2.0000      -0.361951        -9.8492
  77   2.0000      -0.358692        -9.7605
  78   2.0000      -0.354739        -9.6530
  79   2.0000      -0.353216        -9.6115
  80   2.0000      -0.350414        -9.5353
  81   2.0000      -0.347185        -9.4474
  82   2.0000      -0.343893        -9.3578
  83   2.0000      -0.340019        -9.2524
  84   2.0000      -0.331985        -9.0338
  85   2.0000      -0.318359        -8.6630
  86   2.0000      -0.306117        -8.3299
  87   2.0000      -0.298860        -8.1324
  88   2.0000      -0.294032        -8.0010
  89   2.0000      -0.292382        -7.9561
  90   2.0000      -0.281748        -7.6668
  91   2.0000      -0.275086        -7.4855
  92   2.0000      -0.266722        -7.2579
  93   2.0000      -0.264174        -7.1885
  94   2.0000      -0.253354        -6.8941
  95   2.0000      -0.235485        -6.4079
  96   2.0000      -0.219438        -5.9712
  97   2.0000      -0.208435        -5.6718
  98   2.0000      -0.200083        -5.4445
  99   2.0000      -0.191720        -5.2170
 100   2.0000      -0.181894        -4.9496
 101   0.0000      -0.041703        -1.1348
 102   0.0000      -0.030673        -0.8346
 103   0.0000      -0.008354        -0.2273
 104   0.0000       0.009805         0.2668
 105   0.0000       0.019111         0.5200

MULLIKEN ATOMIC CHARGES
-----------------------
   0 C :   -0.279305
   1 C :   -0.006485
   2 O :   -0.377197
   3 P :    0.608259
   4 S :   -0.300548
   5 O :   -0.349646
   6 C :   -0.017847
   7 C :   -0.317651
   8 S :   -0.143128
   9 C :   -0.334050
  10 S :   -0.107995
  11 P :    0.586924
  12 S :   -0.279884
  13 O :   -0.350725
  14 C :   -0.009684
  15 C :   -0.288838
  16 O :   -0.379747
  17 C :    0.001314
  18 C :   -0.322334
  19 H :    0.121125
  20 H :    0.112474
  21 H :    0.109355
  22 H :    0.093218
  23 H :    0.101587
  24 H :    0.107717
  25 H :    0.136167
  26 H :    0.123626
  27 H :    0.110858
  28 H :    0.119660
  29 H :    0.177946
  30 H :    0.207997
  31 H :    0.103490
  32 H :    0.106614
  33 H :    0.117247
  34 H :    0.123210
  35 H :    0.110167
  36 H :    0.104397
  37 H :    0.114460
  38 H :    0.116662
  39 H :    0.115781
  40 H :    0.134809
Sum of atomic charges:   -0.0000000

LOEWDIN ATOMIC CHARGES
----------------------
   0 C :   -0.350393
   1 C :   -0.125001
   2 O :   -0.249009
   3 P :    0.572317
   4 S :   -0.300445
   5 O :   -0.223407
   6 C :   -0.116261
   7 C :   -0.367902
   8 S :    0.053292
   9 C :   -0.480655
  10 S :    0.075487
  11 P :    0.561095
  12 S :   -0.285203
  13 O :   -0.232736
  14 C :   -0.116934
  15 C :   -0.359483
  16 O :   -0.247895
  17 C :   -0.116280
  18 C :   -0.371673
  19 H :    0.129229
  20 H :    0.124552
  21 H :    0.129489
  22 H :    0.103938
  23 H :    0.106267
  24 H :    0.123040
  25 H :    0.113782
  26 H :    0.128381
  27 H :    0.130078
  28 H :    0.114092
  29 H :    0.135410
  30 H :    0.125508
  31 H :    0.103422
  32 H :    0.118036
  33 H :    0.127530
  34 H :    0.126919
  35 H :    0.129741
  36 H :    0.118128
  37 H :    0.114342
  38 H :    0.122567
  39 H :    0.132482
  40 H :    0.124153

  Mayer bond orders larger than 0.100000
B(  0-C ,  1-C ) :   1.1596 B(  0-C , 19-H ) :   0.9510 B(  0-C , 20-H ) :   0.9517
B(  0-C , 21-H ) :   0.9425 B(  1-C ,  2-O ) :   0.9110 B(  1-C , 22-H ) :   0.9248
B(  1-C , 23-H ) :   0.9066 B(  2-O ,  3-P ) :   1.0781 B(  3-P ,  4-S ) :   1.6325
B(  3-P ,  5-O ) :   1.1599 B(  3-P ,  8-S ) :   0.9311 B(  4-S ,  8-S ) :   0.1163
B(  4-S , 30-H ) :   0.1071 B(  5-O ,  6-C ) :   0.8926 B(  6-C ,  7-C ) :   1.1651
B(  6-C , 24-H ) :   0.9338 B(  6-C , 25-H ) :   0.9068 B(  7-C , 26-H ) :   0.9413
B(  7-C , 27-H ) :   0.9360 B(  7-C , 28-H ) :   0.9380 B(  8-S ,  9-C ) :   0.9960
B(  9-C , 10-S ) :   0.9951 B(  9-C , 29-H ) :   0.9111 B(  9-C , 30-H ) :   0.8428
B( 10-S , 11-P ) :   0.9432 B( 10-S , 12-S ) :   0.1080 B( 11-P , 12-S ) :   1.6644
B( 11-P , 13-O ) :   1.1081 B( 11-P , 16-O ) :   1.0833 B( 13-O , 14-C ) :   0.8872
B( 14-C , 15-C ) :   1.1651 B( 14-C , 31-H ) :   0.9095 B( 14-C , 32-H ) :   0.9347
B( 15-C , 33-H ) :   0.9478 B( 15-C , 34-H ) :   0.9414 B( 15-C , 35-H ) :   0.9399
B( 16-O , 17-C ) :   0.9039 B( 17-C , 18-C ) :   1.1668 B( 17-C , 36-H ) :   0.9341
B( 17-C , 37-H ) :   0.9179 B( 18-C , 38-H ) :   0.9433 B( 18-C , 39-H ) :   0.9368
B( 18-C , 40-H ) :   0.9344

Dispersion correction           -0.066733924
FINAL SINGLE POINT ENERGY     -2929.517115668123

DIPOLE MOMENT
-------------

Method             : SCF
Type of density    : Electron Density
Multiplicity       :   1
Irrep              :   0
Energy             : -2929.6361495686669514 Eh
Relativity type    :
Basis              : AO
                                X                 Y                 Z
Electronic contribution:     -1.386811407       1.368878619     -13.202046990
Nuclear contribution   :      0.878652525      -2.323984676      14.908575236
                        -----------------------------------------
Total Dipole Moment    :     -0.508158882      -0.955106056       1.706528246
                        -----------------------------------------
Magnitude (a.u.)       :      2.020567169
Magnitude (Debye)      :      5.135873588

Rotational constants in cm-1:             0.013293             0.005116             0.004638
Rotational constants in MHz :           398.499729           153.387480           139.057903

                             ****ORCA TERMINATED NORMALLY****
TOTAL RUN TIME: 0 days 0 hours 0 minutes 21 seconds 16 msec
