                         Program Version 6.0.1  -  RELEASE   -
|  1> ! pbe def2-sv(p) def2/J RI DEFGRID1 loosescf d4 GCP(DFT/SV(P)) printgap
|  2> %output
|  3>     printlevel normal
|  4> end
|  5> * xyz 0 1
|  6> C 5.4416239177 -1.8724295135 -0.7618477979
|  7> C 4.3590350128 -2.3267626238 0.2041163435
|  8> O 3.057793411 -2.2626927364 -0.4150225511
|  9> C 2.3998670409 -1.1267607102 -0.3814949376
| 10> O 2.8040371923 -0.1064267932 0.1420864651
| 11> C 1.0464303151 -1.2403754221 -1.0416161186
| 12> C 0.4845744459 0.1465297677 -1.3291612765
| 13> H 0.8922548195 0.5727063332 -2.2469513133
| 14> C 0.7221473206 1.1106938279 -0.1820699716
| 15> O 0.2361037713 0.9333179587 0.9193650667
| 16> O 1.3697994765 2.1809804819 -0.5619299267
| 17> C 1.6335252196 3.2026880581 0.422867715
| 18> C 0.4056798165 4.0655062743 0.6659462303
| 19> S -1.3214169919 0.1144196311 -1.5508522237
| 20> P -2.0652754238 -0.2234381856 0.4267832269
| 21> S -1.3147073548 -1.6283527267 1.5719459875
| 22> O -2.3460787742 1.1748656464 1.1180839762
| 23> C -3.199419919 2.1653442699 0.5111106816
| 24> O -3.5729804369 -0.5844175818 0.0002173285
| 25> C -3.9078958215 -1.8476478774 -0.5804497331
| 26> H 6.4126699035 -1.9979816885 -0.2945904789
| 27> H 5.4018520804 -2.4639288075 -1.6721377024
| 28> H 5.3032101776 -0.8230233175 -1.0119880376
| 29> H 4.3494065815 -1.702147795 1.1018608826
| 30> H 4.4777301892 -3.3762749238 0.4730861231
| 31> H 0.4075369422 -1.769296941 -0.3230712982
| 32> H 1.1086419545 -1.8433275878 -1.9459997756
| 33> H 1.9577034012 2.7113499058 1.3443407564
| 34> H 2.4521559733 3.7776897501 -0.0090121094
| 35> H 0.0528213695 4.4876632502 -0.2710778678
| 36> H -0.3856996404 3.4669933638 1.1122098598
| 37> H 0.6644243702 4.8687431345 1.347738178
| 38> H -3.1061341638 3.045586124 1.1424859806
| 39> H -4.2268021245 1.8070307614 0.4957305919
| 40> H -2.8653326447 2.3792067159 -0.5047946276
| 41> H -4.9883904133 -1.9317819841 -0.4974354813
| 42> H -3.4194576346 -2.6532715849 -0.0294932708
| 43> H -3.5990411788 -1.8670684616 -1.6249756216
| 44> *
| 45>
| 46>                          ****END OF INPUT****

CARTESIAN COORDINATES (ANGSTROEM)
---------------------------------
  C      5.441624   -1.872430   -0.761848
  C      4.359035   -2.326763    0.204116
  O      3.057793   -2.262693   -0.415023
  C      2.399867   -1.126761   -0.381495
  O      2.804037   -0.106427    0.142086
  C      1.046430   -1.240375   -1.041616
  C      0.484574    0.146530   -1.329161
  H      0.892255    0.572706   -2.246951
  C      0.722147    1.110694   -0.182070
  O      0.236104    0.933318    0.919365
  O      1.369799    2.180980   -0.561930
  C      1.633525    3.202688    0.422868
  C      0.405680    4.065506    0.665946
  S     -1.321417    0.114420   -1.550852
  P     -2.065275   -0.223438    0.426783
  S     -1.314707   -1.628353    1.571946
  O     -2.346079    1.174866    1.118084
  C     -3.199420    2.165344    0.511111
  O     -3.572980   -0.584418    0.000217
  C     -3.907896   -1.847648   -0.580450
  H      6.412670   -1.997982   -0.294590
  H      5.401852   -2.463929   -1.672138
  H      5.303210   -0.823023   -1.011988
  H      4.349407   -1.702148    1.101861
  H      4.477730   -3.376275    0.473086
  H      0.407537   -1.769297   -0.323071
  H      1.108642   -1.843328   -1.946000
  H      1.957703    2.711350    1.344341
  H      2.452156    3.777690   -0.009012
  H      0.052821    4.487663   -0.271078
  H     -0.385700    3.466993    1.112210
  H      0.664424    4.868743    1.347738
  H     -3.106134    3.045586    1.142486
  H     -4.226802    1.807031    0.495731
  H     -2.865333    2.379207   -0.504795
  H     -4.988390   -1.931782   -0.497435
  H     -3.419458   -2.653272   -0.029493
  H     -3.599041   -1.867068   -1.624976

 Total Charge           Charge          ....    0
 Multiplicity           Mult            ....    1
 Number of Electrons    NEL             ....  174
 Basis Dimension        Dim             ....  316

ORBITAL ENERGIES
----------------

  NO   OCC          E(Eh)            E(eV)
   0   2.0000     -88.039160     -2395.6673
   1   2.0000     -87.970496     -2393.7989
   2   2.0000     -76.420260     -2079.5010
   3   2.0000     -18.806632      -511.7545
   4   2.0000     -18.801463      -511.6138
   5   2.0000     -18.783159      -511.1157
   6   2.0000     -18.781939      -511.0825
   7   2.0000     -18.747871      -510.1555
   8   2.0000     -18.730941      -509.6948
   9   2.0000     -10.015205      -272.5276
  10   2.0000     -10.012416      -272.4517
  11   2.0000      -9.951504      -270.7942
  12   2.0000      -9.945155      -270.6214
  13   2.0000      -9.944938      -270.6155
  14   2.0000      -9.942462      -270.5481
  15   2.0000      -9.935974      -270.3716
  16   2.0000      -9.905192      -269.5340
  17   2.0000      -9.890936      -269.1460
  18   2.0000      -9.883848      -268.9532
  19   2.0000      -7.683686      -209.0837
  20   2.0000      -7.615691      -207.2335
  21   2.0000      -6.416014      -174.5886
  22   2.0000      -5.711539      -155.4189
  23   2.0000      -5.708008      -155.3228
  24   2.0000      -5.700953      -155.1308
  25   2.0000      -5.645034      -153.6092
  26   2.0000      -5.636472      -153.3762
  27   2.0000      -5.635202      -153.3417
  28   2.0000      -4.639099      -126.2363
  29   2.0000      -4.638032      -126.2073
  30   2.0000      -4.636151      -126.1561
  31   2.0000      -1.017251       -27.6808
  32   2.0000      -1.009901       -27.4808
  33   2.0000      -0.977752       -26.6060
  34   2.0000      -0.931818       -25.3561
  35   2.0000      -0.923835       -25.1388
  36   2.0000      -0.913046       -24.8452
  37   2.0000      -0.761823       -20.7303
  38   2.0000      -0.714560       -19.4442
  39   2.0000      -0.701560       -19.0904
  40   2.0000      -0.686694       -18.6859
  41   2.0000      -0.658599       -17.9214
  42   2.0000      -0.629366       -17.1259
  43   2.0000      -0.619623       -16.8608
  44   2.0000      -0.609580       -16.5875
  45   2.0000      -0.599190       -16.3048
  46   2.0000      -0.560099       -15.2411
  47   2.0000      -0.509918       -13.8756
  48   2.0000      -0.503007       -13.6875
  49   2.0000      -0.492543       -13.4028
  50   2.0000      -0.478915       -13.0319
  51   2.0000      -0.466904       -12.7051
  52   2.0000      -0.455327       -12.3901
  53   2.0000      -0.443307       -12.0630
  54   2.0000      -0.433362       -11.7924
  55   2.0000      -0.428229       -11.6527
  56   2.0000      -0.427003       -11.6194
  57   2.0000      -0.420318       -11.4374
  58   2.0000      -0.418700       -11.3934
  59   2.0000      -0.407037       -11.0760
  60   2.0000      -0.397779       -10.8241
  61   2.0000      -0.396849       -10.7988
  62   2.0000      -0.388950       -10.5839
  63   2.0000      -0.386897       -10.5280
  64   2.0000      -0.373746       -10.1702
  65   2.0000      -0.368571       -10.0293
  66   2.0000      -0.354900        -9.6573
  67   2.0000      -0.352182        -9.5834
  68   2.0000      -0.347935        -9.4678
  69   2.0000      -0.333751        -9.0818
  70   2.0000      -0.331379        -9.0173
  71   2.0000      -0.328169        -8.9299
  72   2.0000      -0.323807        -8.8112
  73   2.0000      -0.308180        -8.3860
  74   2.0000      -0.298256        -8.1160
  75   2.0000      -0.296539        -8.0692
  76   2.0000      -0.290910        -7.9161
  77   2.0000      -0.285748        -7.7756
  78   2.0000      -0.269583        -7.3357
  79   2.0000      -0.264043        -7.1850
  80   2.0000      -0.253624        -6.9015
  81   2.0000      -0.247189        -6.7264
  82   2.0000      -0.235072        -6.3966
  83   2.0000      -0.231491        -6.2992
  84   2.0000      -0.222121        -6.0442
  85   2.0000      -0.189445        -5.1551
  86   2.0000      -0.178291        -4.8516
  87   0.0000      -0.047304        -1.2872
  88   0.0000      -0.026733        -0.7275
  89   0.0000      -0.013505        -0.3675
  90   0.0000       0.016940         0.4610
  91   0.0000       0.029506         0.8029

MULLIKEN ATOMIC CHARGES
-----------------------
   0 C :   -0.306691
   1 C :   -0.012476
   2 O :   -0.224258
   3 C :    0.134715
   4 O :   -0.210191
   5 C :   -0.067128
   6 C :   -0.284539
   7 H :    0.125755
   8 C :    0.194926
   9 O :   -0.198359
  10 O :   -0.216716
  11 C :   -0.000432
  12 C :   -0.329505
  13 S :   -0.101511
  14 P :    0.619238
  15 S :   -0.297370
  16 O :   -0.360233
  17 C :   -0.106110
  18 O :   -0.400432
  19 C :   -0.098750
  20 H :    0.115558
  21 H :    0.115082
  22 H :    0.126244
  23 H :    0.114767
  24 H :    0.107817
  25 H :    0.143225
  26 H :    0.115218
  27 H :    0.117167
  28 H :    0.101379
  29 H :    0.109112
  30 H :    0.147651
  31 H :    0.111583
  32 H :    0.130345
  33 H :    0.127237
  34 H :    0.111535
  35 H :    0.120040
  36 H :    0.115338
  37 H :    0.110771
Sum of atomic charges:    0.0000000

LOEWDIN ATOMIC CHARGES
----------------------
   0 C :   -0.356212
   1 C :   -0.108333
   2 O :   -0.051821
   3 C :    0.047350
   4 O :   -0.155856
   5 C :   -0.264994
   6 C :   -0.258589
   7 H :    0.139037
   8 C :    0.007145
   9 O :   -0.165554
  10 O :   -0.043062
  11 C :   -0.103059
  12 C :   -0.362068
  13 S :    0.097183
  14 P :    0.587540
  15 S :   -0.299112
  16 O :   -0.234525
  17 C :   -0.211821
  18 O :   -0.267131
  19 C :   -0.220086
  20 H :    0.131956
  21 H :    0.125322
  22 H :    0.129926
  23 H :    0.122858
  24 H :    0.120489
  25 H :    0.142818
  26 H :    0.141350
  27 H :    0.125951
  28 H :    0.117954
  29 H :    0.122535
  30 H :    0.133619
  31 H :    0.130460
  32 H :    0.122033
  33 H :    0.116199
  34 H :    0.106014
  35 H :    0.119847
  36 H :    0.108288
  37 H :    0.106351

  Mayer bond orders larger than 0.100000
B(  0-C ,  1-C ) :   1.1734 B(  0-C , 20-H ) :   0.9441 B(  0-C , 21-H ) :   0.9485
B(  0-C , 22-H ) :   0.9466 B(  1-C ,  2-O ) :   0.9099 B(  1-C , 23-H ) :   0.9158
B(  1-C , 24-H ) :   0.9370 B(  2-O ,  3-C ) :   1.2542 B(  3-C ,  4-O ) :   1.9584
B(  3-C ,  5-C ) :   1.0191 B(  4-O ,  8-C ) :   0.1199 B(  5-C ,  6-C ) :   1.0082
B(  5-C , 25-H ) :   0.8262 B(  5-C , 26-H ) :   0.9019 B(  6-C ,  7-H ) :   0.8829
B(  6-C ,  8-C ) :   0.8995 B(  6-C , 13-S ) :   1.0130 B(  8-C ,  9-O ) :   1.9396
B(  8-C , 10-O ) :   1.2627 B(  9-O , 14-P ) :   0.1103 B( 10-O , 11-C ) :   0.9121
B( 11-C , 12-C ) :   1.1710 B( 11-C , 27-H ) :   0.9179 B( 11-C , 28-H ) :   0.9394
B( 12-C , 29-H ) :   0.9473 B( 12-C , 30-H ) :   0.9338 B( 12-C , 31-H ) :   0.9422
B( 13-S , 14-P ) :   0.9391 B( 13-S , 15-S ) :   0.1151 B( 14-P , 15-S ) :   1.6163
B( 14-P , 16-O ) :   1.1071 B( 14-P , 18-O ) :   1.0346 B( 15-S , 25-H ) :   0.1154
B( 16-O , 17-C ) :   0.9219 B( 17-C , 32-H ) :   0.9532 B( 17-C , 33-H ) :   0.9477
B( 17-C , 34-H ) :   0.9374 B( 18-O , 19-C ) :   0.9376 B( 19-C , 35-H ) :   0.9588
B( 19-C , 36-H ) :   0.9287 B( 19-C , 37-H ) :   0.9488

Dispersion correction           -0.052149592
FINAL SINGLE POINT ENERGY     -1979.009745829550

DIPOLE MOMENT
-------------

Method             : SCF
Type of density    : Electron Density
Multiplicity       :   1
Irrep              :   0
Energy             : -1979.1416665616179671 Eh
Relativity type    :
Basis              : AO
                                X                 Y                 Z
Electronic contribution:    -11.622648657      -6.026185330       2.327860492
Nuclear contribution   :     12.160848877       6.538553285      -3.567118140
                        -----------------------------------------
Total Dipole Moment    :      0.538200221       0.512367955      -1.239257648
                        -----------------------------------------
Magnitude (a.u.)       :      1.444970559
Magnitude (Debye)      :      3.672823278

Rotational constants in cm-1:             0.013702             0.006949             0.005411
Rotational constants in MHz :           410.779567           208.328986           162.213967

                             ****ORCA TERMINATED NORMALLY****
TOTAL RUN TIME: 0 days 0 hours 0 minutes 45 seconds 331 msec
