                         Program Version 6.0.1  -  RELEASE   -
|  1> ! pbe def2-sv(p) def2/J RI DEFGRID1 loosescf d4 GCP(DFT/SV(P)) printgap
|  2> %output
|  3>     printlevel normal
|  4> end
|  5> * xyz 0 1
|  6> C 4.1825658171 0.1272162537 -2.6130976915
|  7> C 4.3128733083 -1.2482765563 -1.9792249578
|  8> O 3.0152336579 -1.7276207222 -1.5763180336
|  9> C 2.6767853453 -1.6699804177 -0.3070405914
| 10> O 3.4022337065 -1.3182732322 0.5971096828
| 11> C 1.2340047245 -2.1037867588 -0.1013024108
| 12> C 0.3121458705 -0.9380838373 -0.4879476489
| 13> H 0.3210244105 -0.7830257775 -1.5692521574
| 14> C 0.8466759448 0.3127477456 0.1837484099
| 15> O 1.7351805521 0.9675713183 -0.3111987995
| 16> O 0.3078958748 0.5233651867 1.3656127245
| 17> C 0.8602082199 1.5733023926 2.1832167634
| 18> C 1.9420242457 1.0082480649 3.0882777459
| 19> S -1.3838982648 -1.3399678158 0.0475909872
| 20> P -2.2326610504 0.6050874614 0.0330827796
| 21> S -1.3679940886 1.9228135435 -1.1315870051
| 22> O -3.7580486023 0.2933895948 -0.3325669366
| 23> C -4.1344635947 -0.1530799473 -1.6407717871
| 24> O -2.3965733563 1.1049930996 1.5211609176
| 25> C -3.0481963373 0.3010911264 2.5280931731
| 26> H 3.7113548142 0.8141123978 -1.9122926836
| 27> H 5.1671798999 0.5010136938 -2.8730304606
| 28> H 3.5694728385 0.0729537263 -3.5081097976
| 29> H 4.9590413394 -1.2154080006 -1.0976828693
| 30> H 4.6817126369 -1.9846443448 -2.694617836
| 31> H 1.090178925 -2.3524523188 0.9506391765
| 32> H 1.0106356121 -2.9651709639 -0.728821769
| 33> H 1.2582084299 2.3482801117 1.521876696
| 34> H 0.0132133121 1.962522224 2.7491227409
| 35> H 1.5247721103 0.2526031356 3.7476927265
| 36> H 2.7295580819 0.5545604187 2.4880713624
| 37> H 2.3666027106 1.8103844859 3.6822941915
| 38> H -3.8246384855 -1.1883657936 -1.7809964766
| 39> H -3.6755008209 0.481654725 -2.4003149569
| 40> H -5.2173729184 -0.0673147126 -1.6783564911
| 41> H -2.5414429968 -0.6594265971 2.6191732763
| 42> H -4.092398489 0.1509674835 2.2623490257
| 43> H -2.9616150708 0.8729215297 3.4481459075
| 44> *
| 45>
| 46>                          ****END OF INPUT****

CARTESIAN COORDINATES (ANGSTROEM)
---------------------------------
  C      4.182566    0.127216   -2.613098
  C      4.312873   -1.248277   -1.979225
  O      3.015234   -1.727621   -1.576318
  C      2.676785   -1.669980   -0.307041
  O      3.402234   -1.318273    0.597110
  C      1.234005   -2.103787   -0.101302
  C      0.312146   -0.938084   -0.487948
  H      0.321024   -0.783026   -1.569252
  C      0.846676    0.312748    0.183748
  O      1.735181    0.967571   -0.311199
  O      0.307896    0.523365    1.365613
  C      0.860208    1.573302    2.183217
  C      1.942024    1.008248    3.088278
  S     -1.383898   -1.339968    0.047591
  P     -2.232661    0.605087    0.033083
  S     -1.367994    1.922814   -1.131587
  O     -3.758049    0.293390   -0.332567
  C     -4.134464   -0.153080   -1.640772
  O     -2.396573    1.104993    1.521161
  C     -3.048196    0.301091    2.528093
  H      3.711355    0.814112   -1.912293
  H      5.167180    0.501014   -2.873030
  H      3.569473    0.072954   -3.508110
  H      4.959041   -1.215408   -1.097683
  H      4.681713   -1.984644   -2.694618
  H      1.090179   -2.352452    0.950639
  H      1.010636   -2.965171   -0.728822
  H      1.258208    2.348280    1.521877
  H      0.013213    1.962522    2.749123
  H      1.524772    0.252603    3.747693
  H      2.729558    0.554560    2.488071
  H      2.366603    1.810384    3.682294
  H     -3.824638   -1.188366   -1.780996
  H     -3.675501    0.481655   -2.400315
  H     -5.217373   -0.067315   -1.678356
  H     -2.541443   -0.659427    2.619173
  H     -4.092398    0.150967    2.262349
  H     -2.961615    0.872922    3.448146

 Total Charge           Charge          ....    0
 Multiplicity           Mult            ....    1
 Number of Electrons    NEL             ....  174
 Basis Dimension        Dim             ....  316

ORBITAL ENERGIES
----------------

  NO   OCC          E(Eh)            E(eV)
   0   2.0000     -88.043652     -2395.7896
   1   2.0000     -87.985033     -2394.1945
   2   2.0000     -76.428826     -2079.7341
   3   2.0000     -18.807568      -511.7799
   4   2.0000     -18.802306      -511.6368
   5   2.0000     -18.798287      -511.5274
   6   2.0000     -18.796511      -511.4791
   7   2.0000     -18.737925      -509.8849
   8   2.0000     -18.735734      -509.8252
   9   2.0000     -10.015719      -272.5416
  10   2.0000     -10.012429      -272.4520
  11   2.0000      -9.953818      -270.8572
  12   2.0000      -9.950782      -270.7746
  13   2.0000      -9.948264      -270.7060
  14   2.0000      -9.942381      -270.5459
  15   2.0000      -9.941749      -270.5287
  16   2.0000      -9.917594      -269.8715
  17   2.0000      -9.878876      -268.8179
  18   2.0000      -9.875628      -268.7295
  19   2.0000      -7.688632      -209.2183
  20   2.0000      -7.630158      -207.6272
  21   2.0000      -6.425939      -174.8587
  22   2.0000      -5.716406      -155.5513
  23   2.0000      -5.713101      -155.4614
  24   2.0000      -5.705774      -155.2620
  25   2.0000      -5.659297      -153.9973
  26   2.0000      -5.650469      -153.7571
  27   2.0000      -5.650386      -153.7548
  28   2.0000      -4.648685      -126.4971
  29   2.0000      -4.647856      -126.4746
  30   2.0000      -4.646179      -126.4289
  31   2.0000      -1.015479       -27.6326
  32   2.0000      -1.009331       -27.4653
  33   2.0000      -0.991353       -26.9761
  34   2.0000      -0.947047       -25.7705
  35   2.0000      -0.919077       -25.0094
  36   2.0000      -0.914385       -24.8817
  37   2.0000      -0.770902       -20.9773
  38   2.0000      -0.713789       -19.4232
  39   2.0000      -0.699856       -19.0440
  40   2.0000      -0.691634       -18.8203
  41   2.0000      -0.661138       -17.9905
  42   2.0000      -0.641428       -17.4542
  43   2.0000      -0.623500       -16.9663
  44   2.0000      -0.612569       -16.6689
  45   2.0000      -0.589186       -16.0326
  46   2.0000      -0.568149       -15.4601
  47   2.0000      -0.519723       -14.1424
  48   2.0000      -0.500748       -13.6260
  49   2.0000      -0.496217       -13.5028
  50   2.0000      -0.481301       -13.0969
  51   2.0000      -0.480259       -13.0685
  52   2.0000      -0.457421       -12.4471
  53   2.0000      -0.448758       -12.2113
  54   2.0000      -0.441082       -12.0024
  55   2.0000      -0.435323       -11.8458
  56   2.0000      -0.423465       -11.5231
  57   2.0000      -0.419678       -11.4200
  58   2.0000      -0.415778       -11.3139
  59   2.0000      -0.406075       -11.0499
  60   2.0000      -0.405148       -11.0246
  61   2.0000      -0.396179       -10.7806
  62   2.0000      -0.393135       -10.6978
  63   2.0000      -0.383206       -10.4276
  64   2.0000      -0.375761       -10.2250
  65   2.0000      -0.366756        -9.9799
  66   2.0000      -0.352260        -9.5855
  67   2.0000      -0.348413        -9.4808
  68   2.0000      -0.343947        -9.3593
  69   2.0000      -0.335396        -9.1266
  70   2.0000      -0.330568        -8.9952
  71   2.0000      -0.326421        -8.8824
  72   2.0000      -0.323986        -8.8161
  73   2.0000      -0.317496        -8.6395
  74   2.0000      -0.308452        -8.3934
  75   2.0000      -0.303511        -8.2590
  76   2.0000      -0.294906        -8.0248
  77   2.0000      -0.289275        -7.8716
  78   2.0000      -0.276220        -7.5163
  79   2.0000      -0.266278        -7.2458
  80   2.0000      -0.260213        -7.0808
  81   2.0000      -0.255013        -6.9393
  82   2.0000      -0.237176        -6.4539
  83   2.0000      -0.224572        -6.1109
  84   2.0000      -0.215915        -5.8753
  85   2.0000      -0.203859        -5.5473
  86   2.0000      -0.201497        -5.4830
  87   0.0000      -0.043979        -1.1967
  88   0.0000      -0.029915        -0.8140
  89   0.0000      -0.025822        -0.7027
  90   0.0000       0.010799         0.2939
  91   0.0000       0.014472         0.3938

MULLIKEN ATOMIC CHARGES
-----------------------
   0 C :   -0.307260
   1 C :   -0.023527
   2 O :   -0.230573
   3 C :    0.098461
   4 O :   -0.194166
   5 C :   -0.056347
   6 C :   -0.254091
   7 H :    0.148134
   8 C :    0.164844
   9 O :   -0.180303
  10 O :   -0.224363
  11 C :   -0.015903
  12 C :   -0.310957
  13 S :   -0.106057
  14 P :    0.607529
  15 S :   -0.295270
  16 O :   -0.388515
  17 C :   -0.101031
  18 O :   -0.360639
  19 C :   -0.109201
  20 H :    0.148272
  21 H :    0.106767
  22 H :    0.109832
  23 H :    0.113233
  24 H :    0.101967
  25 H :    0.111647
  26 H :    0.121761
  27 H :    0.117450
  28 H :    0.103615
  29 H :    0.106924
  30 H :    0.143485
  31 H :    0.109979
  32 H :    0.116255
  33 H :    0.120295
  34 H :    0.126746
  35 H :    0.122566
  36 H :    0.127109
  37 H :    0.131330
Sum of atomic charges:   -0.0000000

LOEWDIN ATOMIC CHARGES
----------------------
   0 C :   -0.358144
   1 C :   -0.110715
   2 O :   -0.055191
   3 C :    0.029304
   4 O :   -0.161034
   5 C :   -0.240032
   6 C :   -0.255982
   7 H :    0.143821
   8 C :   -0.000579
   9 O :   -0.144350
  10 O :   -0.054471
  11 C :   -0.109407
  12 C :   -0.358310
  13 S :    0.085068
  14 P :    0.569039
  15 S :   -0.288920
  16 O :   -0.259733
  17 C :   -0.215508
  18 O :   -0.235123
  19 C :   -0.210490
  20 H :    0.137866
  21 H :    0.127621
  22 H :    0.123479
  23 H :    0.120959
  24 H :    0.116040
  25 H :    0.137717
  26 H :    0.140206
  27 H :    0.123914
  28 H :    0.115928
  29 H :    0.121782
  30 H :    0.135790
  31 H :    0.129356
  32 H :    0.109487
  33 H :    0.113173
  34 H :    0.123311
  35 H :    0.111286
  36 H :    0.117382
  37 H :    0.125462

  Mayer bond orders larger than 0.100000
B(  0-C ,  1-C ) :   1.1770 B(  0-C , 20-H ) :   0.9315 B(  0-C , 21-H ) :   0.9428
B(  0-C , 22-H ) :   0.9504 B(  1-C ,  2-O ) :   0.9038 B(  1-C , 23-H ) :   0.9073
B(  1-C , 24-H ) :   0.9371 B(  2-O ,  3-C ) :   1.2335 B(  3-C ,  4-O ) :   2.0234
B(  3-C ,  5-C ) :   1.0129 B(  5-C ,  6-C ) :   1.0524 B(  5-C , 25-H ) :   0.8940
B(  5-C , 26-H ) :   0.8955 B(  6-C ,  7-H ) :   0.8709 B(  6-C ,  8-C ) :   0.9245
B(  6-C , 13-S ) :   0.9949 B(  8-C ,  9-O ) :   1.9877 B(  8-C , 10-O ) :   1.2378
B( 10-O , 11-C ) :   0.8967 B( 11-C , 12-C ) :   1.1737 B( 11-C , 27-H ) :   0.9120
B( 11-C , 28-H ) :   0.9320 B( 12-C , 29-H ) :   0.9495 B( 12-C , 30-H ) :   0.9335
B( 12-C , 31-H ) :   0.9439 B( 13-S , 14-P ) :   0.9601 B( 13-S , 15-S ) :   0.1143
B( 14-P , 15-S ) :   1.6504 B( 14-P , 16-O ) :   1.0711 B( 14-P , 18-O ) :   1.1222
B( 16-O , 17-C ) :   0.9298 B( 17-C , 32-H ) :   0.9471 B( 17-C , 33-H ) :   0.9355
B( 17-C , 34-H ) :   0.9585 B( 18-O , 19-C ) :   0.9149 B( 19-C , 35-H ) :   0.9378
B( 19-C , 36-H ) :   0.9476 B( 19-C , 37-H ) :   0.9588

Dispersion correction           -0.053119817
FINAL SINGLE POINT ENERGY     -1979.018015758552

DIPOLE MOMENT
-------------

Method             : SCF
Type of density    : Electron Density
Multiplicity       :   1
Irrep              :   0
Energy             : -1979.1486402707673733 Eh
Relativity type    :
Basis              : AO
                                X                 Y                 Z
Electronic contribution:    -12.396283882       0.856428983      -2.709012623
Nuclear contribution   :     11.574847447      -1.867496759       3.046974869
                        -----------------------------------------
Total Dipole Moment    :     -0.821436436      -1.011067776       0.337962246
                        -----------------------------------------
Magnitude (a.u.)       :      1.345821068
Magnitude (Debye)      :      3.420805298

Rotational constants in cm-1:             0.015800             0.006458             0.005807
Rotational constants in MHz :           473.661313           193.592739           174.100493

                             ****ORCA TERMINATED NORMALLY****
TOTAL RUN TIME: 0 days 0 hours 0 minutes 36 seconds 734 msec
