                         Program Version 6.0.0  -   RELEASE  -
|  1> ! r2scan-3c def2/J RI DEFGRID2 scfconv6 printgap
|  2> %output
|  3>     printlevel normal
|  4> end
|  5> %cpcm
|  6>     smd true
|  7>     smdsolvent "water"
|  8> end
|  9> * xyz 0 1
| 10> C -2.411176258 -0.0863425867 -0.0041664742
| 11> C -1.8303504774 -1.3448428517 0.0057784526
| 12> C -0.4501955103 -1.4560591306 0.0075161411
| 13> C 0.3281948524 -0.3168404885 0.0005345812
| 14> C -0.2286212906 0.9679331786 -0.0081598875
| 15> C -1.6271199917 1.0478280494 -0.0122895694
| 16> N 0.5429927969 2.0909376779 0.0491956518
| 17> Cl 2.0731138535 -0.4894911575 -0.0048944659
| 18> H -3.4858615878 0.0097113632 -0.008405577
| 19> H -2.4400279501 -2.2335521175 0.0103914923
| 20> H 0.0240361478 -2.4252903545 0.0114827335
| 21> H -2.0853237408 2.0247613479 -0.0193569006
| 22> H 1.5205071207 1.9850685527 -0.1652177143
| 23> H 0.1116124943 2.9602706169 -0.2118419608
| 24> *
| 25>
| 26>                          ****END OF INPUT****

CARTESIAN COORDINATES (ANGSTROEM)
---------------------------------
  C     -2.411176   -0.086343   -0.004166
  C     -1.830350   -1.344843    0.005778
  C     -0.450196   -1.456059    0.007516
  C      0.328195   -0.316840    0.000535
  C     -0.228621    0.967933   -0.008160
  C     -1.627120    1.047828   -0.012290
  N      0.542993    2.090938    0.049196
  Cl     2.073114   -0.489491   -0.004894
  H     -3.485862    0.009711   -0.008406
  H     -2.440028   -2.233552    0.010391
  H      0.024036   -2.425290    0.011483
  H     -2.085324    2.024761   -0.019357
  H      1.520507    1.985069   -0.165218
  H      0.111612    2.960271   -0.211842

 Total Charge           Charge          ....    0
 Multiplicity           Mult            ....    1
 Number of Electrons    NEL             ....   66
 Basis Dimension        Dim             ....  195

ORBITAL ENERGIES
----------------

  NO   OCC          E(Eh)            E(eV)
   0   2.0000    -101.223433     -2754.4296
   1   2.0000     -14.165493      -385.4627
   2   2.0000     -10.090459      -274.5753
   3   2.0000     -10.086966      -274.4803
   4   2.0000     -10.040987      -273.2291
   5   2.0000     -10.034476      -273.0520
   6   2.0000     -10.032608      -273.0011
   7   2.0000     -10.027463      -272.8611
   8   2.0000      -9.379165      -255.2200
   9   2.0000      -7.125104      -193.8839
  10   2.0000      -7.115506      -193.6227
  11   2.0000      -7.115226      -193.6151
  12   2.0000      -0.903182       -24.5768
  13   2.0000      -0.837796       -22.7976
  14   2.0000      -0.800770       -21.7900
  15   2.0000      -0.710555       -19.3352
  16   2.0000      -0.692940       -18.8559
  17   2.0000      -0.588520       -16.0144
  18   2.0000      -0.568745       -15.4763
  19   2.0000      -0.498781       -13.5725
  20   2.0000      -0.487307       -13.2603
  21   2.0000      -0.450782       -12.2664
  22   2.0000      -0.410977       -11.1833
  23   2.0000      -0.408529       -11.1166
  24   2.0000      -0.396233       -10.7821
  25   2.0000      -0.385737       -10.4964
  26   2.0000      -0.339317        -9.2333
  27   2.0000      -0.320662        -8.7257
  28   2.0000      -0.316043        -8.6000
  29   2.0000      -0.297827        -8.1043
  30   2.0000      -0.290931        -7.9166
  31   2.0000      -0.232842        -6.3360
  32   2.0000      -0.189674        -5.1613
  33   0.0000      -0.037620        -1.0237
  34   0.0000      -0.017527        -0.4769
  35   0.0000       0.008475         0.2306
  36   0.0000       0.083510         2.2724
  37   0.0000       0.115754         3.1498

MULLIKEN ATOMIC CHARGES
-----------------------
   0 C :   -0.148240
   1 C :   -0.242500
   2 C :   -0.189105
   3 C :   -0.093356
   4 C :    0.481392
   5 C :   -0.394403
   6 N :   -0.584809
   7 Cl:   -0.191986
   8 H :    0.181845
   9 H :    0.182422
  10 H :    0.190606
  11 H :    0.182919
  12 H :    0.311105
  13 H :    0.314108
Sum of atomic charges:   -0.0000000

LOEWDIN ATOMIC CHARGES
----------------------
   0 C :   -0.167070
   1 C :   -0.210911
   2 C :   -0.175150
   3 C :   -0.170400
   4 C :    0.108460
   5 C :   -0.162910
   6 N :   -0.594381
   7 Cl:    0.106886
   8 H :    0.179527
   9 H :    0.178519
  10 H :    0.187312
  11 H :    0.186123
  12 H :    0.263469
  13 H :    0.270526

  Mayer bond orders larger than 0.100000
B(  0-C ,  1-C ) :   1.3595 B(  0-C ,  5-C ) :   1.3867 B(  0-C ,  8-H ) :   0.9513
B(  1-C ,  2-C ) :   1.3731 B(  1-C ,  9-H ) :   0.9598 B(  2-C ,  3-C ) :   1.2978
B(  2-C , 10-H ) :   0.9478 B(  3-C ,  4-C ) :   1.2992 B(  3-C ,  7-Cl) :   0.9656
B(  4-C ,  5-C ) :   1.2506 B(  4-C ,  6-N ) :   1.0024 B(  5-C , 11-H ) :   0.9665
B(  6-N , 12-H ) :   0.8950 B(  6-N , 13-H ) :   0.8995

Dispersion correction           -0.004978088
FINAL SINGLE POINT ENERGY      -747.118458379637

DIPOLE MOMENT
-------------

Method             : SCF
Type of density    : Electron Density
Multiplicity       :   1
Irrep              :   0
Energy             :  -747.1207572222017461 Eh
Relativity type    :
Basis              : AO
                                X                 Y                 Z
Electronic contribution:      8.328626678      -1.929055137       0.007774433
Nuclear contribution   :     -8.741665709       2.845977589      -0.352432043
                        -----------------------------------------
Total Dipole Moment    :     -0.413039031       0.916922452      -0.344657610
                        -----------------------------------------
Magnitude (a.u.)       :      1.063078968
Magnitude (Debye)      :      2.702131995

Rotational constants in cm-1:             0.098776             0.051425             0.033834
Rotational constants in MHz :          2961.241994          1541.674332          1014.303759

                             ****ORCA TERMINATED NORMALLY****
TOTAL RUN TIME: 0 days 0 hours 0 minutes 21 seconds 767 msec
