                         Program Version 6.0.0  -   RELEASE  -
|  1> ! pbe def2-sv(p) def2/J RI DEFGRID1 loosescf d4 GCP(DFT/SV(P)) printgap
|  2> %output
|  3>     printlevel normal
|  4> end
|  5> * xyz 0 1
|  6> C 5.071912884 -1.0472303899 -1.8452310568
|  7> C 4.7673330435 -0.282848478 -0.5725057393
|  8> O 3.6302397745 0.5980381409 -0.7583338342
|  9> P 2.1726603024 0.2583316355 -0.2307916863
| 10> S 0.9975372775 1.7977592183 -0.5272896665
| 11> O 2.3507088448 -0.1988781018 1.2893643654
| 12> C 2.1933575986 0.6686086151 2.4310686341
| 13> C 1.4272673641 -0.0807187098 3.5033403586
| 14> S 1.7212504464 -1.6135335381 -1.0778009397
| 15> C -0.0913752645 -1.5658556262 -1.0677572196
| 16> S -0.8183170868 -1.0500229235 0.5099242369
| 17> P -2.2578465206 0.362038043 -0.2117434116
| 18> S -2.2265166909 0.7289363416 -2.1364196621
| 19> O -2.1250702632 1.7006194012 0.5955253548
| 20> C -1.7389918515 1.8681512167 1.9804641273
| 21> C -2.4635758698 0.9396410147 2.9301002336
| 22> O -3.635454454 -0.2003552089 0.3580564473
| 23> C -4.116227378 -1.548169087 0.2225573171
| 24> C -4.3491899182 -1.9500926563 -1.2197002463
| 25> H 5.1984827399 -0.354250984 -2.6725132479
| 26> H 5.9889505122 -1.6111417325 -1.7067110885
| 27> H 4.2634714343 -1.7348072908 -2.082751908
| 28> H 5.5879438817 0.3876621141 -0.3107929456
| 29> H 4.5610429768 -0.9609021905 0.2589974781
| 30> H 3.1949133232 0.9406520894 2.7728324312
| 31> H 1.6700851218 1.5769397166 2.1115304857
| 32> H 0.4532506864 -0.3822469875 3.1277847678
| 33> H 1.9764916952 -0.971078446 3.794025203
| 34> H 1.300085284 0.5639339369 4.3667652985
| 35> H -0.3986915121 -2.5874267627 -1.281039934
| 36> H -0.4453267186 -0.87700292 -1.8425055581
| 37> H -0.6563813623 1.7276410302 2.0338526741
| 38> H -1.9766298685 2.9147784249 2.1774210971
| 39> H -3.5385994304 1.0601721314 2.8260306853
| 40> H -2.2019522396 -0.0971906835 2.7228330159
| 41> H -2.1703225007 1.1812286929 3.9471825805
| 42> H -3.3976850267 -2.219789049 0.7018578835
| 43> H -5.0503610301 -1.543728465 0.7869589077
| 44> H -3.4101769391 -1.9549997442 -1.7706130544
| 45> H -4.7863030685 -2.9429175825 -1.2503266073
| 46> H -5.0202194318 -1.2453161576 -1.7044733795
| 47> *
| 48>
| 49>                          ****END OF INPUT****

CARTESIAN COORDINATES (ANGSTROEM)
---------------------------------
  C      5.071913   -1.047230   -1.845231
  C      4.767333   -0.282848   -0.572506
  O      3.630240    0.598038   -0.758334
  P      2.172660    0.258332   -0.230792
  S      0.997537    1.797759   -0.527290
  O      2.350709   -0.198878    1.289364
  C      2.193358    0.668609    2.431069
  C      1.427267   -0.080719    3.503340
  S      1.721250   -1.613534   -1.077801
  C     -0.091375   -1.565856   -1.067757
  S     -0.818317   -1.050023    0.509924
  P     -2.257847    0.362038   -0.211743
  S     -2.226517    0.728936   -2.136420
  O     -2.125070    1.700619    0.595525
  C     -1.738992    1.868151    1.980464
  C     -2.463576    0.939641    2.930100
  O     -3.635454   -0.200355    0.358056
  C     -4.116227   -1.548169    0.222557
  C     -4.349190   -1.950093   -1.219700
  H      5.198483   -0.354251   -2.672513
  H      5.988951   -1.611142   -1.706711
  H      4.263471   -1.734807   -2.082752
  H      5.587944    0.387662   -0.310793
  H      4.561043   -0.960902    0.258997
  H      3.194913    0.940652    2.772832
  H      1.670085    1.576940    2.111530
  H      0.453251   -0.382247    3.127785
  H      1.976492   -0.971078    3.794025
  H      1.300085    0.563934    4.366765
  H     -0.398692   -2.587427   -1.281040
  H     -0.445327   -0.877003   -1.842506
  H     -0.656381    1.727641    2.033853
  H     -1.976630    2.914778    2.177421
  H     -3.538599    1.060172    2.826031
  H     -2.201952   -0.097191    2.722833
  H     -2.170323    1.181229    3.947183
  H     -3.397685   -2.219789    0.701858
  H     -5.050361   -1.543728    0.786959
  H     -3.410177   -1.955000   -1.770613
  H     -4.786303   -2.942918   -1.250327
  H     -5.020219   -1.245316   -1.704473

 Total Charge           Charge          ....    0
 Multiplicity           Mult            ....    1
 Number of Electrons    NEL             ....  202
 Basis Dimension        Dim             ....  334

ORBITAL ENERGIES
----------------

  NO   OCC          E(Eh)            E(eV)
   0   2.0000     -88.047061     -2395.8823
   1   2.0000     -88.043605     -2395.7883
   2   2.0000     -87.979352     -2394.0399
   3   2.0000     -87.977210     -2393.9816
   4   2.0000     -76.423768     -2079.5964
   5   2.0000     -76.422885     -2079.5724
   6   2.0000     -18.789129      -511.2782
   7   2.0000     -18.788015      -511.2479
   8   2.0000     -18.787262      -511.2274
   9   2.0000     -18.786039      -511.1941
  10   2.0000      -9.957678      -270.9622
  11   2.0000      -9.955502      -270.9030
  12   2.0000      -9.955257      -270.8963
  13   2.0000      -9.953643      -270.8524
  14   2.0000      -9.953268      -270.8422
  15   2.0000      -9.892169      -269.1796
  16   2.0000      -9.889469      -269.1061
  17   2.0000      -9.888534      -269.0807
  18   2.0000      -9.881040      -268.8768
  19   2.0000      -7.690775      -209.2766
  20   2.0000      -7.689242      -209.2349
  21   2.0000      -7.624261      -207.4667
  22   2.0000      -7.622466      -207.4178
  23   2.0000      -6.420551      -174.7121
  24   2.0000      -6.420503      -174.7108
  25   2.0000      -5.718577      -155.6104
  26   2.0000      -5.717261      -155.5746
  27   2.0000      -5.715303      -155.5213
  28   2.0000      -5.713692      -155.4775
  29   2.0000      -5.707996      -155.3225
  30   2.0000      -5.706015      -155.2686
  31   2.0000      -5.653409      -153.8371
  32   2.0000      -5.651595      -153.7877
  33   2.0000      -5.644837      -153.6038
  34   2.0000      -5.644232      -153.5874
  35   2.0000      -5.643312      -153.5623
  36   2.0000      -5.642120      -153.5299
  37   2.0000      -4.643500      -126.3560
  38   2.0000      -4.643151      -126.3466
  39   2.0000      -4.642624      -126.3322
  40   2.0000      -4.642020      -126.3158
  41   2.0000      -4.640947      -126.2866
  42   2.0000      -4.640659      -126.2788
  43   2.0000      -0.982890       -26.7458
  44   2.0000      -0.982011       -26.7219
  45   2.0000      -0.940830       -25.6013
  46   2.0000      -0.940061       -25.5804
  47   2.0000      -0.763561       -20.7775
  48   2.0000      -0.721358       -19.6292
  49   2.0000      -0.713117       -19.4049
  50   2.0000      -0.694454       -18.8970
  51   2.0000      -0.689645       -18.7662
  52   2.0000      -0.677484       -18.4353
  53   2.0000      -0.648684       -17.6516
  54   2.0000      -0.635335       -17.2884
  55   2.0000      -0.595138       -16.1945
  56   2.0000      -0.587206       -15.9787
  57   2.0000      -0.576296       -15.6818
  58   2.0000      -0.575844       -15.6695
  59   2.0000      -0.561552       -15.2806
  60   2.0000      -0.509125       -13.8540
  61   2.0000      -0.493789       -13.4367
  62   2.0000      -0.480204       -13.0670
  63   2.0000      -0.470071       -12.7913
  64   2.0000      -0.453762       -12.3475
  65   2.0000      -0.447415       -12.1748
  66   2.0000      -0.438122       -11.9219
  67   2.0000      -0.437094       -11.8939
  68   2.0000      -0.435358       -11.8467
  69   2.0000      -0.419985       -11.4284
  70   2.0000      -0.406100       -11.0505
  71   2.0000      -0.405100       -11.0233
  72   2.0000      -0.397849       -10.8260
  73   2.0000      -0.389466       -10.5979
  74   2.0000      -0.377579       -10.2745
  75   2.0000      -0.370902       -10.0927
  76   2.0000      -0.361010        -9.8236
  77   2.0000      -0.359769        -9.7898
  78   2.0000      -0.355863        -9.6835
  79   2.0000      -0.353233        -9.6120
  80   2.0000      -0.351039        -9.5523
  81   2.0000      -0.347409        -9.4535
  82   2.0000      -0.345331        -9.3969
  83   2.0000      -0.339288        -9.2325
  84   2.0000      -0.336547        -9.1579
  85   2.0000      -0.316664        -8.6169
  86   2.0000      -0.314086        -8.5467
  87   2.0000      -0.303717        -8.2646
  88   2.0000      -0.292192        -7.9509
  89   2.0000      -0.284065        -7.7298
  90   2.0000      -0.282220        -7.6796
  91   2.0000      -0.272566        -7.4169
  92   2.0000      -0.269620        -7.3367
  93   2.0000      -0.269237        -7.3263
  94   2.0000      -0.258174        -7.0253
  95   2.0000      -0.235589        -6.4107
  96   2.0000      -0.222553        -6.0560
  97   2.0000      -0.206389        -5.6161
  98   2.0000      -0.195237        -5.3127
  99   2.0000      -0.190693        -5.1890
 100   2.0000      -0.181514        -4.9392
 101   0.0000      -0.048403        -1.3171
 102   0.0000      -0.034345        -0.9346
 103   0.0000      -0.006289        -0.1711
 104   0.0000      -0.001301        -0.0354
 105   0.0000       0.014356         0.3906

MULLIKEN ATOMIC CHARGES
-----------------------
   0 C :   -0.294149
   1 C :   -0.032617
   2 O :   -0.361388
   3 P :    0.609022
   4 S :   -0.288904
   5 O :   -0.389598
   6 C :   -0.021682
   7 C :   -0.299164
   8 S :   -0.120233
   9 C :   -0.313629
  10 S :   -0.146927
  11 P :    0.610411
  12 S :   -0.285707
  13 O :   -0.351310
  14 C :   -0.014509
  15 C :   -0.327539
  16 O :   -0.371823
  17 C :   -0.006676
  18 C :   -0.303734
  19 H :    0.125466
  20 H :    0.110258
  21 H :    0.130605
  22 H :    0.110497
  23 H :    0.108661
  24 H :    0.098456
  25 H :    0.120093
  26 H :    0.135052
  27 H :    0.114280
  28 H :    0.106647
  29 H :    0.177019
  30 H :    0.204507
  31 H :    0.126869
  32 H :    0.111506
  33 H :    0.128508
  34 H :    0.130044
  35 H :    0.114453
  36 H :    0.101130
  37 H :    0.104593
  38 H :    0.119626
  39 H :    0.106727
  40 H :    0.125162
Sum of atomic charges:   -0.0000000

LOEWDIN ATOMIC CHARGES
----------------------
   0 C :   -0.360586
   1 C :   -0.119826
   2 O :   -0.245269
   3 P :    0.557496
   4 S :   -0.288520
   5 O :   -0.259245
   6 C :   -0.118089
   7 C :   -0.357375
   8 S :    0.079423
   9 C :   -0.479127
  10 S :    0.066829
  11 P :    0.574143
  12 S :   -0.283809
  13 O :   -0.222467
  14 C :   -0.111056
  15 C :   -0.368744
  16 O :   -0.245705
  17 C :   -0.119931
  18 C :   -0.367548
  19 H :    0.131839
  20 H :    0.130180
  21 H :    0.119677
  22 H :    0.121070
  23 H :    0.109171
  24 H :    0.112301
  25 H :    0.103765
  26 H :    0.121352
  27 H :    0.127151
  28 H :    0.127582
  29 H :    0.133675
  30 H :    0.124193
  31 H :    0.109236
  32 H :    0.125144
  33 H :    0.130896
  34 H :    0.114423
  35 H :    0.131537
  36 H :    0.100812
  37 H :    0.118804
  38 H :    0.118176
  39 H :    0.127512
  40 H :    0.130914

  Mayer bond orders larger than 0.100000
B(  0-C ,  1-C ) :   1.1658 B(  0-C , 19-H ) :   0.9459 B(  0-C , 20-H ) :   0.9386
B(  0-C , 21-H ) :   0.9365 B(  1-C ,  2-O ) :   0.9058 B(  1-C , 22-H ) :   0.9342
B(  1-C , 23-H ) :   0.9161 B(  2-O ,  3-P ) :   1.1217 B(  3-P ,  4-S ) :   1.6534
B(  3-P ,  5-O ) :   1.0629 B(  3-P ,  8-S ) :   0.9640 B(  4-S ,  8-S ) :   0.1080
B(  5-O ,  6-C ) :   0.9066 B(  6-C ,  7-C ) :   1.1623 B(  6-C , 24-H ) :   0.9317
B(  6-C , 25-H ) :   0.8925 B(  7-C , 26-H ) :   0.9380 B(  7-C , 27-H ) :   0.9471
B(  7-C , 28-H ) :   0.9414 B(  8-S ,  9-C ) :   0.9957 B(  9-C , 10-S ) :   1.0047
B(  9-C , 29-H ) :   0.9099 B(  9-C , 30-H ) :   0.8408 B( 10-S , 11-P ) :   0.9125
B( 10-S , 12-S ) :   0.1177 B( 11-P , 12-S ) :   1.6370 B( 11-P , 13-O ) :   1.1522
B( 11-P , 16-O ) :   1.0798 B( 12-S , 30-H ) :   0.1305 B( 13-O , 14-C ) :   0.9013
B( 14-C , 15-C ) :   1.1667 B( 14-C , 31-H ) :   0.9100 B( 14-C , 32-H ) :   0.9330
B( 15-C , 33-H ) :   0.9393 B( 15-C , 34-H ) :   0.9314 B( 15-C , 35-H ) :   0.9344
B( 16-O , 17-C ) :   0.9226 B( 17-C , 18-C ) :   1.1654 B( 17-C , 36-H ) :   0.9168
B( 17-C , 37-H ) :   0.9337 B( 18-C , 38-H ) :   0.9338 B( 18-C , 39-H ) :   0.9362
B( 18-C , 40-H ) :   0.9446

Dispersion correction           -0.067423169
FINAL SINGLE POINT ENERGY     -2929.506507622763

DIPOLE MOMENT
-------------

Method             : SCF
Type of density    : Electron Density
Multiplicity       :   1
Irrep              :   0
Energy             : -2929.6243977252579498 Eh
Relativity type    :
Basis              : AO
                                X                 Y                 Z
Electronic contribution:     -0.569454865       7.755964326     -14.589913911
Nuclear contribution   :      1.160273555      -9.087523292      16.465813489
                        -----------------------------------------
Total Dipole Moment    :      0.590818690      -1.331558966       1.875899578
                        -----------------------------------------
Magnitude (a.u.)       :      2.375103205
Magnitude (Debye)      :      6.037032575

Rotational constants in cm-1:             0.012557             0.005370             0.004728
Rotational constants in MHz :           376.457443           161.003033           141.736330

                             ****ORCA TERMINATED NORMALLY****
TOTAL RUN TIME: 0 days 0 hours 0 minutes 21 seconds 413 msec
