                         Program Version 6.0.0  -   RELEASE  -
|  1> ! pbe def2-sv(p) def2/J RI DEFGRID1 loosescf d4 GCP(DFT/SV(P)) printgap
|  2> %output
|  3>     printlevel normal
|  4> end
|  5> * xyz 0 1
|  6> C 3.8646304952 0.177095684 1.937146179
|  7> C 4.2088189465 -0.4708020821 0.6120712941
|  8> O 3.5597533951 0.1733480831 -0.5126246428
|  9> P 1.9968849008 0.1989027553 -0.7913468733
| 10> S 1.6954320287 0.6816949563 -2.6631757839
| 11> O 1.3437952686 1.1754016962 0.2928157904
| 12> C 1.4919136211 2.6012310283 0.1620078994
| 13> C 0.977551693 3.2316091596 1.4387846809
| 14> S 1.303129275 -1.6599945477 -0.1188488162
| 15> C -0.119693981 -1.8831803589 -1.2363283533
| 16> S -1.6871025417 -2.0386857385 -0.3578841476
| 17> P -1.9145171407 -0.0045794634 0.2360487041
| 18> S -1.5446506495 1.3448038056 -1.1323152828
| 19> O -1.0401667363 0.1546125645 1.5362679952
| 20> C -1.2695206891 -0.6593577555 2.7198998078
| 21> C 0.0624325551 -0.9087809422 3.3953350166
| 22> O -3.3860556748 0.0290641817 0.8407804149
| 23> C -4.5584107131 0.2741600267 0.0447910858
| 24> C -4.8324446288 -0.8430984261 -0.9409017562
| 25> H 4.4237273084 -0.3166821534 2.7257632661
| 26> H 4.1252120889 1.2327128744 1.9217015626
| 27> H 2.801002461 0.0757563285 2.1402415775
| 28> H 3.9278263683 -1.5269914195 0.6091704225
| 29> H 5.2695334599 -0.3697362726 0.3764385022
| 30> H 2.5475616492 2.8325559258 -0.0144506572
| 31> H 0.9113290648 2.9262835308 -0.7080939375
| 32> H -0.0575564555 2.936997862 1.5927138243
| 33> H 1.5699923335 2.9007427858 2.2868633172
| 34> H 1.035364321 4.3116280618 1.3522424957
| 35> H 0.0214220968 -2.8189729245 -1.7712112951
| 36> H -0.1548426086 -1.0364675142 -1.9282128953
| 37> H -1.9506663854 -0.0988848586 3.3622633485
| 38> H -1.7457343399 -1.5964574185 2.4176835003
| 39> H -0.1061369498 -1.4586937072 4.3155704945
| 40> H 0.7112815206 -1.4906622304 2.7453351847
| 41> H 0.5441594396 0.0374005326 3.6255286327
| 42> H -5.3562852515 0.363991967 0.7834115168
| 43> H -4.4263382851 1.2257175855 -0.4793527105
| 44> H -4.8369074112 -1.8043453097 -0.4332765302
| 45> H -5.7972265999 -0.67712201 -1.4094029041
| 46> H -4.0653561858 -0.856542181 -1.7136204901
| 47> *
| 48>
| 49>                          ****END OF INPUT****

CARTESIAN COORDINATES (ANGSTROEM)
---------------------------------
  C      3.864630    0.177096    1.937146
  C      4.208819   -0.470802    0.612071
  O      3.559753    0.173348   -0.512625
  P      1.996885    0.198903   -0.791347
  S      1.695432    0.681695   -2.663176
  O      1.343795    1.175402    0.292816
  C      1.491914    2.601231    0.162008
  C      0.977552    3.231609    1.438785
  S      1.303129   -1.659995   -0.118849
  C     -0.119694   -1.883180   -1.236328
  S     -1.687103   -2.038686   -0.357884
  P     -1.914517   -0.004579    0.236049
  S     -1.544651    1.344804   -1.132315
  O     -1.040167    0.154613    1.536268
  C     -1.269521   -0.659358    2.719900
  C      0.062433   -0.908781    3.395335
  O     -3.386056    0.029064    0.840780
  C     -4.558411    0.274160    0.044791
  C     -4.832445   -0.843098   -0.940902
  H      4.423727   -0.316682    2.725763
  H      4.125212    1.232713    1.921702
  H      2.801002    0.075756    2.140242
  H      3.927826   -1.526991    0.609170
  H      5.269533   -0.369736    0.376439
  H      2.547562    2.832556   -0.014451
  H      0.911329    2.926284   -0.708094
  H     -0.057556    2.936998    1.592714
  H      1.569992    2.900743    2.286863
  H      1.035364    4.311628    1.352242
  H      0.021422   -2.818973   -1.771211
  H     -0.154843   -1.036468   -1.928213
  H     -1.950666   -0.098885    3.362263
  H     -1.745734   -1.596457    2.417684
  H     -0.106137   -1.458694    4.315570
  H      0.711282   -1.490662    2.745335
  H      0.544159    0.037401    3.625529
  H     -5.356285    0.363992    0.783412
  H     -4.426338    1.225718   -0.479353
  H     -4.836907   -1.804345   -0.433277
  H     -5.797227   -0.677122   -1.409403
  H     -4.065356   -0.856542   -1.713620

 Total Charge           Charge          ....    0
 Multiplicity           Mult            ....    1
 Number of Electrons    NEL             ....  202
 Basis Dimension        Dim             ....  334

ORBITAL ENERGIES
----------------

  NO   OCC          E(Eh)            E(eV)
   0   2.0000     -88.045344     -2395.8356
   1   2.0000     -88.043874     -2395.7956
   2   2.0000     -87.983954     -2394.1651
   3   2.0000     -87.972053     -2393.8413
   4   2.0000     -76.425151     -2079.6341
   5   2.0000     -76.417000     -2079.4123
   6   2.0000     -18.794256      -511.4177
   7   2.0000     -18.790005      -511.3020
   8   2.0000     -18.788704      -511.2666
   9   2.0000     -18.777037      -510.9491
  10   2.0000      -9.958129      -270.9745
  11   2.0000      -9.956615      -270.9333
  12   2.0000      -9.955945      -270.9150
  13   2.0000      -9.954050      -270.8635
  14   2.0000      -9.938837      -270.4495
  15   2.0000      -9.891587      -269.1638
  16   2.0000      -9.887723      -269.0586
  17   2.0000      -9.885051      -268.9859
  18   2.0000      -9.876526      -268.7539
  19   2.0000      -7.690292      -209.2635
  20   2.0000      -7.689198      -209.2337
  21   2.0000      -7.628779      -207.5896
  22   2.0000      -7.617420      -207.2805
  23   2.0000      -6.422640      -174.7689
  24   2.0000      -6.415106      -174.5639
  25   2.0000      -5.718139      -155.5985
  26   2.0000      -5.716967      -155.5666
  27   2.0000      -5.714628      -155.5029
  28   2.0000      -5.713715      -155.4781
  29   2.0000      -5.707479      -155.3084
  30   2.0000      -5.706147      -155.2722
  31   2.0000      -5.657770      -153.9558
  32   2.0000      -5.649230      -153.7234
  33   2.0000      -5.649035      -153.7181
  34   2.0000      -5.646606      -153.6520
  35   2.0000      -5.638422      -153.4293
  36   2.0000      -5.636871      -153.3871
  37   2.0000      -4.645532      -126.4114
  38   2.0000      -4.644368      -126.3797
  39   2.0000      -4.642842      -126.3382
  40   2.0000      -4.638016      -126.2068
  41   2.0000      -4.636686      -126.1707
  42   2.0000      -4.635369      -126.1348
  43   2.0000      -0.988875       -26.9087
  44   2.0000      -0.976574       -26.5739
  45   2.0000      -0.944449       -25.6998
  46   2.0000      -0.935296       -25.4507
  47   2.0000      -0.764273       -20.7969
  48   2.0000      -0.721053       -19.6208
  49   2.0000      -0.710928       -19.3453
  50   2.0000      -0.690320       -18.7846
  51   2.0000      -0.689744       -18.7689
  52   2.0000      -0.673989       -18.3402
  53   2.0000      -0.648256       -17.6400
  54   2.0000      -0.630845       -17.1662
  55   2.0000      -0.596143       -16.2219
  56   2.0000      -0.584884       -15.9155
  57   2.0000      -0.573157       -15.5964
  58   2.0000      -0.572489       -15.5782
  59   2.0000      -0.554556       -15.0902
  60   2.0000      -0.506038       -13.7700
  61   2.0000      -0.497048       -13.5254
  62   2.0000      -0.476365       -12.9625
  63   2.0000      -0.474254       -12.9051
  64   2.0000      -0.452096       -12.3021
  65   2.0000      -0.448128       -12.1942
  66   2.0000      -0.439852       -11.9690
  67   2.0000      -0.438112       -11.9216
  68   2.0000      -0.428999       -11.6737
  69   2.0000      -0.418006       -11.3745
  70   2.0000      -0.408896       -11.1266
  71   2.0000      -0.400106       -10.8874
  72   2.0000      -0.392231       -10.6732
  73   2.0000      -0.381744       -10.3878
  74   2.0000      -0.376440       -10.2435
  75   2.0000      -0.365542        -9.9469
  76   2.0000      -0.361768        -9.8442
  77   2.0000      -0.356932        -9.7126
  78   2.0000      -0.355919        -9.6850
  79   2.0000      -0.352010        -9.5787
  80   2.0000      -0.349175        -9.5015
  81   2.0000      -0.343844        -9.3565
  82   2.0000      -0.340537        -9.2665
  83   2.0000      -0.337448        -9.1824
  84   2.0000      -0.330634        -8.9970
  85   2.0000      -0.315923        -8.5967
  86   2.0000      -0.312374        -8.5001
  87   2.0000      -0.306299        -8.3348
  88   2.0000      -0.299592        -8.1523
  89   2.0000      -0.294062        -8.0018
  90   2.0000      -0.275383        -7.4935
  91   2.0000      -0.270001        -7.3471
  92   2.0000      -0.266258        -7.2452
  93   2.0000      -0.261586        -7.1181
  94   2.0000      -0.253952        -6.9104
  95   2.0000      -0.237512        -6.4630
  96   2.0000      -0.220978        -6.0131
  97   2.0000      -0.210656        -5.7323
  98   2.0000      -0.201841        -5.4924
  99   2.0000      -0.190702        -5.1893
 100   2.0000      -0.178242        -4.8502
 101   0.0000      -0.042110        -1.1459
 102   0.0000      -0.029298        -0.7972
 103   0.0000      -0.012833        -0.3492
 104   0.0000       0.008822         0.2401
 105   0.0000       0.018666         0.5079

MULLIKEN ATOMIC CHARGES
-----------------------
   0 C :   -0.338584
   1 C :   -0.020000
   2 O :   -0.375119
   3 P :    0.611249
   4 S :   -0.304653
   5 O :   -0.370406
   6 C :   -0.012920
   7 C :   -0.282328
   8 S :   -0.120144
   9 C :   -0.345560
  10 S :   -0.102855
  11 P :    0.593702
  12 S :   -0.286768
  13 O :   -0.347200
  14 C :   -0.011437
  15 C :   -0.298257
  16 O :   -0.385336
  17 C :    0.001730
  18 C :   -0.321817
  19 H :    0.113404
  20 H :    0.122481
  21 H :    0.148579
  22 H :    0.116976
  23 H :    0.114240
  24 H :    0.096095
  25 H :    0.118985
  26 H :    0.123636
  27 H :    0.104070
  28 H :    0.105679
  29 H :    0.186482
  30 H :    0.209100
  31 H :    0.108055
  32 H :    0.101712
  33 H :    0.106531
  34 H :    0.133699
  35 H :    0.127833
  36 H :    0.103657
  37 H :    0.111549
  38 H :    0.116825
  39 H :    0.114974
  40 H :    0.132140
Sum of atomic charges:   -0.0000000

LOEWDIN ATOMIC CHARGES
----------------------
   0 C :   -0.369824
   1 C :   -0.116137
   2 O :   -0.248126
   3 P :    0.564130
   4 S :   -0.306543
   5 O :   -0.245112
   6 C :   -0.122868
   7 C :   -0.352375
   8 S :    0.077861
   9 C :   -0.476792
  10 S :    0.075351
  11 P :    0.564848
  12 S :   -0.282654
  13 O :   -0.229878
  14 C :   -0.113723
  15 C :   -0.357309
  16 O :   -0.251576
  17 C :   -0.116949
  18 C :   -0.371668
  19 H :    0.131334
  20 H :    0.127576
  21 H :    0.126486
  22 H :    0.107203
  23 H :    0.123751
  24 H :    0.103452
  25 H :    0.111453
  26 H :    0.128156
  27 H :    0.118665
  28 H :    0.127843
  29 H :    0.139522
  30 H :    0.128201
  31 H :    0.116438
  32 H :    0.103244
  33 H :    0.128707
  34 H :    0.120486
  35 H :    0.128100
  36 H :    0.118119
  37 H :    0.112498
  38 H :    0.122687
  39 H :    0.132115
  40 H :    0.123309

  Mayer bond orders larger than 0.100000
B(  0-C ,  1-C ) :   1.1601 B(  0-C , 19-H ) :   0.9361 B(  0-C , 20-H ) :   0.9426
B(  0-C , 21-H ) :   0.9276 B(  1-C ,  2-O ) :   0.9142 B(  1-C , 22-H ) :   0.9177
B(  1-C , 23-H ) :   0.9356 B(  2-O ,  3-P ) :   1.1036 B(  3-P ,  4-S ) :   1.6512
B(  3-P ,  5-O ) :   1.0932 B(  3-P ,  8-S ) :   0.9651 B(  4-S ,  8-S ) :   0.1100
B(  5-O ,  6-C ) :   0.8946 B(  6-C ,  7-C ) :   1.1626 B(  6-C , 24-H ) :   0.9223
B(  6-C , 25-H ) :   0.9131 B(  7-C , 26-H ) :   0.9419 B(  7-C , 27-H ) :   0.9506
B(  7-C , 28-H ) :   0.9418 B(  8-S ,  9-C ) :   0.9930 B(  9-C , 10-S ) :   1.0068
B(  9-C , 29-H ) :   0.9112 B(  9-C , 30-H ) :   0.8429 B( 10-S , 11-P ) :   0.9367
B( 10-S , 12-S ) :   0.1051 B( 11-P , 12-S ) :   1.6533 B( 11-P , 13-O ) :   1.1357
B( 11-P , 16-O ) :   1.0784 B( 13-O , 14-C ) :   0.8879 B( 14-C , 15-C ) :   1.1664
B( 14-C , 31-H ) :   0.9335 B( 14-C , 32-H ) :   0.9095 B( 15-C , 33-H ) :   0.9369
B( 15-C , 34-H ) :   0.9336 B( 15-C , 35-H ) :   0.9418 B( 16-O , 17-C ) :   0.9085
B( 17-C , 18-C ) :   1.1664 B( 17-C , 36-H ) :   0.9343 B( 17-C , 37-H ) :   0.9171
B( 18-C , 38-H ) :   0.9437 B( 18-C , 39-H ) :   0.9372 B( 18-C , 40-H ) :   0.9350

Dispersion correction           -0.068882004
FINAL SINGLE POINT ENERGY     -2929.515103779492

DIPOLE MOMENT
-------------

Method             : SCF
Type of density    : Electron Density
Multiplicity       :   1
Irrep              :   0
Energy             : -2929.6332964834155064 Eh
Relativity type    :
Basis              : AO
                                X                 Y                 Z
Electronic contribution:      0.313775316      -5.024574041     -19.117076508
Nuclear contribution   :     -0.630783846       4.393406184      21.101398078
                        -----------------------------------------
Total Dipole Moment    :     -0.317008530      -0.631167857       1.984321570
                        -----------------------------------------
Magnitude (a.u.)       :      2.106276184
Magnitude (Debye)      :      5.353728593

Rotational constants in cm-1:             0.011829             0.005881             0.005625
Rotational constants in MHz :           354.621642           176.306079           168.619796

                             ****ORCA TERMINATED NORMALLY****
TOTAL RUN TIME: 0 days 0 hours 0 minutes 22 seconds 528 msec
