                         Program Version 6.0.0  -   RELEASE  -
|  1> ! pbe def2-sv(p) def2/J RI DEFGRID1 loosescf d4 GCP(DFT/SV(P)) printgap
|  2> %output
|  3>     printlevel normal
|  4> end
|  5> * xyz 0 1
|  6> C 5.6936940583 -0.3952900667 -1.0441051466
|  7> C 4.2429565289 -0.7700869331 -1.2693575566
|  8> O 3.4145958589 0.3249639586 -0.8020637315
|  9> P 2.0239192319 0.101919831 -0.0742181279
| 10> S 1.373520951 1.8225020902 0.5807272856
| 11> O 2.2302104481 -1.0354512598 1.0277856757
| 12> C 2.3697599385 -0.7248514098 2.4288381124
| 13> C 3.7561289549 -0.1960274122 2.7330120563
| 14> S 0.9609291701 -1.0318688629 -1.5133362478
| 15> C -0.2553551269 -1.8632130785 -0.4299899688
| 16> S -1.0146339729 -0.7976540545 0.8153493051
| 17> P -2.340882371 0.2648922125 -0.4802981498
| 18> S -1.5330334428 1.4425150808 -1.8232330315
| 19> O -3.3676285397 0.9614233146 0.5086936299
| 20> C -3.1463192071 2.2631825771 1.0769354466
| 21> C -2.1266716825 2.2225407115 2.1964734923
| 22> O -3.2102755436 -0.862016117 -1.1627379976
| 23> C -4.3913750594 -1.4874540396 -0.5975766408
| 24> C -4.0918146414 -2.3045092141 0.6415012386
| 25> H 6.3290135626 -1.1857686894 -1.43047727
| 26> H 5.9199676932 0.5335706048 -1.5599372934
| 27> H 5.8893356817 -0.2604243917 0.0161963672
| 28> H 3.9736631518 -1.6771029313 -0.7225596813
| 29> H 4.0251701152 -0.9082373245 -2.330805314
| 30> H 1.6063952803 0.0103462549 2.7004162897
| 31> H 2.1714965914 -1.6713460732 2.9327796026
| 32> H 3.9205744726 0.7306572146 2.1833052142
| 33> H 3.8401762543 0.0058298739 3.7959924253
| 34> H 4.5118589469 -0.9215111482 2.4430462252
| 35> H 0.2465827373 -2.6595829984 0.1135456231
| 36> H -1.0183902778 -2.256245893 -1.0997379196
| 37> H -2.8219209639 2.9426121672 0.2820173888
| 38> H -4.1315495869 2.5591157729 1.4408383726
| 39> H -1.1343581392 2.0153929435 1.7970578897
| 40> H -2.0998080401 3.1875739638 2.6918705769
| 41> H -2.3864972257 1.4525246917 2.9180228183
| 42> H -5.1191425923 -0.7040978641 -0.3808594512
| 43> H -4.7511742248 -2.1128929333 -1.4161758699
| 44> H -3.3292535064 -3.0510082797 0.4356477326
| 45> H -3.7465951526 -1.659886802 1.4462465347
| 46> H -5.0023162562 -2.8051365566 0.9562754037
| 47> *
| 48>
| 49>                          ****END OF INPUT****

CARTESIAN COORDINATES (ANGSTROEM)
---------------------------------
  C      5.693694   -0.395290   -1.044105
  C      4.242957   -0.770087   -1.269358
  O      3.414596    0.324964   -0.802064
  P      2.023919    0.101920   -0.074218
  S      1.373521    1.822502    0.580727
  O      2.230210   -1.035451    1.027786
  C      2.369760   -0.724851    2.428838
  C      3.756129   -0.196027    2.733012
  S      0.960929   -1.031869   -1.513336
  C     -0.255355   -1.863213   -0.429990
  S     -1.014634   -0.797654    0.815349
  P     -2.340882    0.264892   -0.480298
  S     -1.533033    1.442515   -1.823233
  O     -3.367629    0.961423    0.508694
  C     -3.146319    2.263183    1.076935
  C     -2.126672    2.222541    2.196473
  O     -3.210276   -0.862016   -1.162738
  C     -4.391375   -1.487454   -0.597577
  C     -4.091815   -2.304509    0.641501
  H      6.329014   -1.185769   -1.430477
  H      5.919968    0.533571   -1.559937
  H      5.889336   -0.260424    0.016196
  H      3.973663   -1.677103   -0.722560
  H      4.025170   -0.908237   -2.330805
  H      1.606395    0.010346    2.700416
  H      2.171497   -1.671346    2.932780
  H      3.920574    0.730657    2.183305
  H      3.840176    0.005830    3.795992
  H      4.511859   -0.921511    2.443046
  H      0.246583   -2.659583    0.113546
  H     -1.018390   -2.256246   -1.099738
  H     -2.821921    2.942612    0.282017
  H     -4.131550    2.559116    1.440838
  H     -1.134358    2.015393    1.797058
  H     -2.099808    3.187574    2.691871
  H     -2.386497    1.452525    2.918023
  H     -5.119143   -0.704098   -0.380859
  H     -4.751174   -2.112893   -1.416176
  H     -3.329254   -3.051008    0.435648
  H     -3.746595   -1.659887    1.446247
  H     -5.002316   -2.805137    0.956275

 Total Charge           Charge          ....    0
 Multiplicity           Mult            ....    1
 Number of Electrons    NEL             ....  202
 Basis Dimension        Dim             ....  334

ORBITAL ENERGIES
----------------

  NO   OCC          E(Eh)            E(eV)
   0   2.0000     -88.039882     -2395.6870
   1   2.0000     -88.032311     -2395.4810
   2   2.0000     -87.974374     -2393.9044
   3   2.0000     -87.970753     -2393.8059
   4   2.0000     -76.420960     -2079.5200
   5   2.0000     -76.419210     -2079.4724
   6   2.0000     -18.793236      -511.3899
   7   2.0000     -18.791917      -511.3541
   8   2.0000     -18.789210      -511.2804
   9   2.0000     -18.787366      -511.2302
  10   2.0000      -9.957598      -270.9600
  11   2.0000      -9.957527      -270.9581
  12   2.0000      -9.952797      -270.8294
  13   2.0000      -9.950536      -270.7679
  14   2.0000      -9.949252      -270.7329
  15   2.0000      -9.889469      -269.1061
  16   2.0000      -9.888403      -269.0771
  17   2.0000      -9.885245      -268.9912
  18   2.0000      -9.877429      -268.7785
  19   2.0000      -7.684173      -209.0970
  20   2.0000      -7.677635      -208.9191
  21   2.0000      -7.619453      -207.3358
  22   2.0000      -7.615864      -207.2382
  23   2.0000      -6.418211      -174.6484
  24   2.0000      -6.416608      -174.6048
  25   2.0000      -5.712009      -155.4317
  26   2.0000      -5.708837      -155.3453
  27   2.0000      -5.705790      -155.2624
  28   2.0000      -5.702106      -155.1622
  29   2.0000      -5.701097      -155.1347
  30   2.0000      -5.694309      -154.9500
  31   2.0000      -5.648517      -153.7040
  32   2.0000      -5.644984      -153.6078
  33   2.0000      -5.639845      -153.4680
  34   2.0000      -5.639616      -153.4618
  35   2.0000      -5.636733      -153.3833
  36   2.0000      -5.635594      -153.3523
  37   2.0000      -4.641516      -126.3021
  38   2.0000      -4.639862      -126.2571
  39   2.0000      -4.639800      -126.2554
  40   2.0000      -4.638135      -126.2101
  41   2.0000      -4.638074      -126.2084
  42   2.0000      -4.636772      -126.1730
  43   2.0000      -0.986901       -26.8549
  44   2.0000      -0.981824       -26.7168
  45   2.0000      -0.943652       -25.6781
  46   2.0000      -0.942252       -25.6400
  47   2.0000      -0.759077       -20.6555
  48   2.0000      -0.718128       -19.5413
  49   2.0000      -0.709052       -19.2943
  50   2.0000      -0.690781       -18.7971
  51   2.0000      -0.688899       -18.7459
  52   2.0000      -0.668011       -18.1775
  53   2.0000      -0.646719       -17.5981
  54   2.0000      -0.630787       -17.1646
  55   2.0000      -0.590339       -16.0639
  56   2.0000      -0.584777       -15.9126
  57   2.0000      -0.579155       -15.7596
  58   2.0000      -0.569355       -15.4929
  59   2.0000      -0.560758       -15.2590
  60   2.0000      -0.501166       -13.6374
  61   2.0000      -0.494283       -13.4501
  62   2.0000      -0.479927       -13.0595
  63   2.0000      -0.471257       -12.8235
  64   2.0000      -0.460031       -12.5181
  65   2.0000      -0.446045       -12.1375
  66   2.0000      -0.440308       -11.9814
  67   2.0000      -0.435163       -11.8414
  68   2.0000      -0.424988       -11.5645
  69   2.0000      -0.411627       -11.2010
  70   2.0000      -0.403006       -10.9663
  71   2.0000      -0.397840       -10.8258
  72   2.0000      -0.394050       -10.7226
  73   2.0000      -0.390033       -10.6133
  74   2.0000      -0.374280       -10.1847
  75   2.0000      -0.369236       -10.0474
  76   2.0000      -0.361799        -9.8451
  77   2.0000      -0.359231        -9.7752
  78   2.0000      -0.355629        -9.6772
  79   2.0000      -0.351816        -9.5734
  80   2.0000      -0.347125        -9.4457
  81   2.0000      -0.345882        -9.4119
  82   2.0000      -0.341597        -9.2953
  83   2.0000      -0.337812        -9.1923
  84   2.0000      -0.328125        -8.9287
  85   2.0000      -0.319519        -8.6945
  86   2.0000      -0.312983        -8.5167
  87   2.0000      -0.305369        -8.3095
  88   2.0000      -0.297133        -8.0854
  89   2.0000      -0.289328        -7.8730
  90   2.0000      -0.279148        -7.5960
  91   2.0000      -0.271004        -7.3744
  92   2.0000      -0.264351        -7.1933
  93   2.0000      -0.263533        -7.1711
  94   2.0000      -0.254579        -6.9274
  95   2.0000      -0.241405        -6.5690
  96   2.0000      -0.216313        -5.8862
  97   2.0000      -0.199034        -5.4160
  98   2.0000      -0.186250        -5.0681
  99   2.0000      -0.181561        -4.9405
 100   2.0000      -0.175918        -4.7870
 101   0.0000      -0.046066        -1.2535
 102   0.0000      -0.021599        -0.5877
 103   0.0000      -0.007544        -0.2053
 104   0.0000       0.001039         0.0283
 105   0.0000       0.024595         0.6693

MULLIKEN ATOMIC CHARGES
-----------------------
   0 C :   -0.283256
   1 C :   -0.023055
   2 O :   -0.367986
   3 P :    0.610978
   4 S :   -0.285234
   5 O :   -0.394888
   6 C :   -0.008490
   7 C :   -0.313093
   8 S :   -0.084564
   9 C :   -0.335471
  10 S :   -0.113411
  11 P :    0.608599
  12 S :   -0.281023
  13 O :   -0.385284
  14 C :    0.000630
  15 C :   -0.347327
  16 O :   -0.374236
  17 C :    0.006380
  18 C :   -0.314545
  19 H :    0.109739
  20 H :    0.124274
  21 H :    0.116852
  22 H :    0.104373
  23 H :    0.112825
  24 H :    0.115290
  25 H :    0.098226
  26 H :    0.132235
  27 H :    0.112299
  28 H :    0.113174
  29 H :    0.183696
  30 H :    0.183531
  31 H :    0.115397
  32 H :    0.101015
  33 H :    0.164893
  34 H :    0.113058
  35 H :    0.108812
  36 H :    0.111288
  37 H :    0.109447
  38 H :    0.114301
  39 H :    0.128428
  40 H :    0.112123
Sum of atomic charges:   -0.0000000

LOEWDIN ATOMIC CHARGES
----------------------
   0 C :   -0.351313
   1 C :   -0.121251
   2 O :   -0.245792
   3 P :    0.563051
   4 S :   -0.288361
   5 O :   -0.256918
   6 C :   -0.123242
   7 C :   -0.365172
   8 S :    0.077425
   9 C :   -0.473905
  10 S :    0.081028
  11 P :    0.565245
  12 S :   -0.294312
  13 O :   -0.245512
  14 C :   -0.116884
  15 C :   -0.375908
  16 O :   -0.245146
  17 C :   -0.107870
  18 C :   -0.368740
  19 H :    0.129552
  20 H :    0.131297
  21 H :    0.125570
  22 H :    0.106775
  23 H :    0.115934
  24 H :    0.109772
  25 H :    0.114452
  26 H :    0.126638
  27 H :    0.131197
  28 H :    0.121008
  29 H :    0.132882
  30 H :    0.130889
  31 H :    0.114097
  32 H :    0.116246
  33 H :    0.122158
  34 H :    0.132566
  35 H :    0.120823
  36 H :    0.116278
  37 H :    0.121380
  38 H :    0.123092
  39 H :    0.120474
  40 H :    0.130494

  Mayer bond orders larger than 0.100000
B(  0-C ,  1-C ) :   1.1623 B(  0-C , 19-H ) :   0.9409 B(  0-C , 20-H ) :   0.9483
B(  0-C , 21-H ) :   0.9476 B(  1-C ,  2-O ) :   0.8971 B(  1-C , 22-H ) :   0.9156
B(  1-C , 23-H ) :   0.9319 B(  2-O ,  3-P ) :   1.1217 B(  3-P ,  4-S ) :   1.6505
B(  3-P ,  5-O ) :   1.0481 B(  3-P ,  8-S ) :   0.9767 B(  4-S ,  8-S ) :   0.1064
B(  5-O ,  6-C ) :   0.9027 B(  6-C ,  7-C ) :   1.1642 B(  6-C , 24-H ) :   0.9089
B(  6-C , 25-H ) :   0.9339 B(  7-C , 26-H ) :   0.9335 B(  7-C , 27-H ) :   0.9390
B(  7-C , 28-H ) :   0.9437 B(  8-S ,  9-C ) :   0.9874 B(  9-C , 10-S ) :   1.0130
B(  9-C , 29-H ) :   0.9086 B(  9-C , 30-H ) :   0.8978 B( 10-S , 11-P ) :   0.9239
B( 10-S , 12-S ) :   0.1143 B( 11-P , 12-S ) :   1.7222 B( 11-P , 13-O ) :   1.0753
B( 11-P , 16-O ) :   1.0997 B( 13-O , 14-C ) :   0.9016 B( 14-C , 15-C ) :   1.1665
B( 14-C , 31-H ) :   0.9107 B( 14-C , 32-H ) :   0.9338 B( 15-C , 33-H ) :   0.9152
B( 15-C , 34-H ) :   0.9377 B( 15-C , 35-H ) :   0.9453 B( 16-O , 17-C ) :   0.8975
B( 17-C , 18-C ) :   1.1706 B( 17-C , 36-H ) :   0.9269 B( 17-C , 37-H ) :   0.9361
B( 18-C , 38-H ) :   0.9459 B( 18-C , 39-H ) :   0.9371 B( 18-C , 40-H ) :   0.9354

Dispersion correction           -0.066856160
FINAL SINGLE POINT ENERGY     -2929.508644905555

DIPOLE MOMENT
-------------

Method             : SCF
Type of density    : Electron Density
Multiplicity       :   1
Irrep              :   0
Energy             : -2929.6265760352016514 Eh
Relativity type    :
Basis              : AO
                                X                 Y                 Z
Electronic contribution:     -6.851867237       6.519636627     -15.405427048
Nuclear contribution   :      6.742593442      -8.292411506      16.693766628
                        -----------------------------------------
Total Dipole Moment    :     -0.109273795      -1.772774879       1.288339580
                        -----------------------------------------
Magnitude (a.u.)       :      2.194194706
Magnitude (Debye)      :      5.577199715

Rotational constants in cm-1:             0.013510             0.004892             0.004682
Rotational constants in MHz :           405.022182           146.665889           140.350227

                             ****ORCA TERMINATED NORMALLY****
TOTAL RUN TIME: 0 days 0 hours 0 minutes 20 seconds 996 msec
