                         Program Version 6.0.1  -  RELEASE   -
|  1> ! pbe def2-sv(p) def2/J RI DEFGRID1 loosescf d4 GCP(DFT/SV(P)) printgap
|  2> %output
|  3>     printlevel normal
|  4> end
|  5> * xyz 0 1
|  6> C 4.3111045108 -3.7234339416 -1.0019428954
|  7> C 2.7949893721 -3.7255599541 -0.8872318428
|  8> O 2.321206852 -2.5091199885 -0.2765120489
|  9> C 2.1353838544 -1.4542443518 -1.043238457
| 10> O 2.2890110276 -1.4356114445 -2.2443062129
| 11> C 1.6902290847 -0.2529076076 -0.2308117466
| 12> C 0.6387972147 0.5326918066 -1.0015176315
| 13> H 1.0023935394 0.7108237491 -2.020537336
| 14> C 0.2777420764 1.8695369335 -0.3838308936
| 15> O -0.8520184044 2.3183892743 -0.4188940997
| 16> O 1.3077800124 2.4774431659 0.1337851945
| 17> C 1.0800989982 3.749706473 0.7776809911
| 18> C 2.3469716311 4.1315538458 1.5152334352
| 19> S -0.8999475096 -0.4173751568 -1.235834395
| 20> P -1.8933699864 0.0182270819 0.597796799
| 21> S -0.8154900148 0.5043570005 2.1567676331
| 22> O -3.1090547243 0.9934786555 0.357098119
| 23> C -4.0082738449 0.8653971607 -0.7606905361
| 24> O -2.7003765048 -1.3550807003 0.8063433668
| 25> C -2.023275004 -2.5674807324 1.149638405
| 26> H 4.6422374137 -4.6795131271 -1.3936200004
| 27> H 4.6341676091 -2.9347772928 -1.677575255
| 28> H 4.7599556448 -3.5607983066 -0.0259232055
| 29> H 2.4479767735 -4.5159704102 -0.2218887818
| 30> H 2.3317796459 -3.8225941861 -1.8732233347
| 31> H 2.5571783476 0.3918579824 -0.0693308603
| 32> H 1.3185122219 -0.5816687166 0.7405687868
| 33> H 0.8180058914 4.4795413731 0.0060992859
| 34> H 0.2283517978 3.6370609682 1.4560010786
| 35> H 2.5734221974 3.3867515802 2.2722462836
| 36> H 3.1781686825 4.1965589807 0.8198705385
| 37> H 2.2028389223 5.0941235245 1.9941000964
| 38> H -4.7729453405 1.6193127107 -0.5933915661
| 39> H -4.4413218014 -0.1331709553 -0.7805787938
| 40> H -3.46980935 1.0651012716 -1.6868796161
| 41> H -2.8052492074 -3.2753768131 1.411634028
| 42> H -1.3609084849 -2.3983065607 2.0002578337
| 43> H -1.4488816954 -2.9270779183 0.2957268231
| 44> *
| 45>
| 46>                          ****END OF INPUT****

CARTESIAN COORDINATES (ANGSTROEM)
---------------------------------
  C      4.311105   -3.723434   -1.001943
  C      2.794989   -3.725560   -0.887232
  O      2.321207   -2.509120   -0.276512
  C      2.135384   -1.454244   -1.043238
  O      2.289011   -1.435611   -2.244306
  C      1.690229   -0.252908   -0.230812
  C      0.638797    0.532692   -1.001518
  H      1.002394    0.710824   -2.020537
  C      0.277742    1.869537   -0.383831
  O     -0.852018    2.318389   -0.418894
  O      1.307780    2.477443    0.133785
  C      1.080099    3.749706    0.777681
  C      2.346972    4.131554    1.515233
  S     -0.899948   -0.417375   -1.235834
  P     -1.893370    0.018227    0.597797
  S     -0.815490    0.504357    2.156768
  O     -3.109055    0.993479    0.357098
  C     -4.008274    0.865397   -0.760691
  O     -2.700377   -1.355081    0.806343
  C     -2.023275   -2.567481    1.149638
  H      4.642237   -4.679513   -1.393620
  H      4.634168   -2.934777   -1.677575
  H      4.759956   -3.560798   -0.025923
  H      2.447977   -4.515970   -0.221889
  H      2.331780   -3.822594   -1.873223
  H      2.557178    0.391858   -0.069331
  H      1.318512   -0.581669    0.740569
  H      0.818006    4.479541    0.006099
  H      0.228352    3.637061    1.456001
  H      2.573422    3.386752    2.272246
  H      3.178169    4.196559    0.819871
  H      2.202839    5.094124    1.994100
  H     -4.772945    1.619313   -0.593392
  H     -4.441322   -0.133171   -0.780579
  H     -3.469809    1.065101   -1.686880
  H     -2.805249   -3.275377    1.411634
  H     -1.360908   -2.398307    2.000258
  H     -1.448882   -2.927078    0.295727

 Total Charge           Charge          ....    0
 Multiplicity           Mult            ....    1
 Number of Electrons    NEL             ....  174
 Basis Dimension        Dim             ....  316

ORBITAL ENERGIES
----------------

  NO   OCC          E(Eh)            E(eV)
   0   2.0000     -88.038373     -2395.6459
   1   2.0000     -87.980038     -2394.0585
   2   2.0000     -76.422634     -2079.5656
   3   2.0000     -18.812721      -511.9202
   4   2.0000     -18.805138      -511.7138
   5   2.0000     -18.785644      -511.1834
   6   2.0000     -18.785004      -511.1659
   7   2.0000     -18.741510      -509.9824
   8   2.0000     -18.738386      -509.8974
   9   2.0000     -10.018317      -272.6123
  10   2.0000     -10.010833      -272.4086
  11   2.0000      -9.950546      -270.7681
  12   2.0000      -9.949584      -270.7419
  13   2.0000      -9.947233      -270.6780
  14   2.0000      -9.942565      -270.5510
  15   2.0000      -9.939522      -270.4682
  16   2.0000      -9.903640      -269.4917
  17   2.0000      -9.889859      -269.1167
  18   2.0000      -9.889678      -269.1118
  19   2.0000      -7.682963      -209.0640
  20   2.0000      -7.625265      -207.4940
  21   2.0000      -6.419180      -174.6748
  22   2.0000      -5.710885      -155.4011
  23   2.0000      -5.707499      -155.3089
  24   2.0000      -5.699935      -155.1031
  25   2.0000      -5.654344      -153.8625
  26   2.0000      -5.645802      -153.6301
  27   2.0000      -5.645236      -153.6147
  28   2.0000      -4.641895      -126.3124
  29   2.0000      -4.641162      -126.2924
  30   2.0000      -4.639560      -126.2488
  31   2.0000      -1.021152       -27.7870
  32   2.0000      -1.012760       -27.5586
  33   2.0000      -0.979969       -26.6663
  34   2.0000      -0.935655       -25.4605
  35   2.0000      -0.920650       -25.0522
  36   2.0000      -0.918645       -24.9976
  37   2.0000      -0.763353       -20.7719
  38   2.0000      -0.712729       -19.3944
  39   2.0000      -0.710322       -19.3288
  40   2.0000      -0.690486       -18.7891
  41   2.0000      -0.656484       -17.8638
  42   2.0000      -0.630521       -17.1574
  43   2.0000      -0.623472       -16.9655
  44   2.0000      -0.616256       -16.7692
  45   2.0000      -0.593776       -16.1575
  46   2.0000      -0.561454       -15.2779
  47   2.0000      -0.515273       -14.0213
  48   2.0000      -0.506458       -13.7814
  49   2.0000      -0.499445       -13.5906
  50   2.0000      -0.481731       -13.1086
  51   2.0000      -0.468814       -12.7571
  52   2.0000      -0.455959       -12.4073
  53   2.0000      -0.448603       -12.2071
  54   2.0000      -0.439011       -11.9461
  55   2.0000      -0.432886       -11.7794
  56   2.0000      -0.425304       -11.5731
  57   2.0000      -0.415982       -11.3195
  58   2.0000      -0.410292       -11.1646
  59   2.0000      -0.409165       -11.1340
  60   2.0000      -0.400845       -10.9075
  61   2.0000      -0.396199       -10.7811
  62   2.0000      -0.389619       -10.6021
  63   2.0000      -0.386973       -10.5301
  64   2.0000      -0.378775       -10.3070
  65   2.0000      -0.364636        -9.9223
  66   2.0000      -0.360669        -9.8143
  67   2.0000      -0.358002        -9.7417
  68   2.0000      -0.344376        -9.3709
  69   2.0000      -0.342374        -9.3165
  70   2.0000      -0.334731        -9.1085
  71   2.0000      -0.328858        -8.9487
  72   2.0000      -0.321481        -8.7479
  73   2.0000      -0.307687        -8.3726
  74   2.0000      -0.305749        -8.3199
  75   2.0000      -0.297356        -8.0915
  76   2.0000      -0.295475        -8.0403
  77   2.0000      -0.289909        -7.8888
  78   2.0000      -0.270736        -7.3671
  79   2.0000      -0.263746        -7.1769
  80   2.0000      -0.260713        -7.0944
  81   2.0000      -0.254683        -6.9303
  82   2.0000      -0.235846        -6.4177
  83   2.0000      -0.227514        -6.1910
  84   2.0000      -0.217189        -5.9100
  85   2.0000      -0.197307        -5.3690
  86   2.0000      -0.196230        -5.3397
  87   0.0000      -0.043037        -1.1711
  88   0.0000      -0.027395        -0.7455
  89   0.0000      -0.017304        -0.4709
  90   0.0000       0.006266         0.1705
  91   0.0000       0.025215         0.6861

MULLIKEN ATOMIC CHARGES
-----------------------
   0 C :   -0.307077
   1 C :   -0.012321
   2 O :   -0.221812
   3 C :    0.124604
   4 O :   -0.210099
   5 C :   -0.082257
   6 C :   -0.301972
   7 H :    0.162888
   8 C :    0.193275
   9 O :   -0.194311
  10 O :   -0.220886
  11 C :   -0.029170
  12 C :   -0.276059
  13 S :   -0.093038
  14 P :    0.612399
  15 S :   -0.322070
  16 O :   -0.349612
  17 C :   -0.102384
  18 O :   -0.389209
  19 C :   -0.100910
  20 H :    0.114281
  21 H :    0.127532
  22 H :    0.115763
  23 H :    0.103366
  24 H :    0.110622
  25 H :    0.126450
  26 H :    0.115777
  27 H :    0.105895
  28 H :    0.124403
  29 H :    0.122168
  30 H :    0.113401
  31 H :    0.113629
  32 H :    0.130657
  33 H :    0.118578
  34 H :    0.126729
  35 H :    0.122614
  36 H :    0.116454
  37 H :    0.111701
Sum of atomic charges:   -0.0000000

LOEWDIN ATOMIC CHARGES
----------------------
   0 C :   -0.356285
   1 C :   -0.111048
   2 O :   -0.054246
   3 C :    0.028234
   4 O :   -0.172367
   5 C :   -0.262339
   6 C :   -0.259370
   7 H :    0.156810
   8 C :   -0.000507
   9 O :   -0.169661
  10 O :   -0.040252
  11 C :   -0.103837
  12 C :   -0.350750
  13 S :    0.106890
  14 P :    0.588061
  15 S :   -0.308006
  16 O :   -0.227830
  17 C :   -0.207420
  18 O :   -0.264310
  19 C :   -0.219438
  20 H :    0.131331
  21 H :    0.130625
  22 H :    0.125597
  23 H :    0.118217
  24 H :    0.120954
  25 H :    0.149946
  26 H :    0.129975
  27 H :    0.117278
  28 H :    0.124846
  29 H :    0.129958
  30 H :    0.125633
  31 H :    0.132444
  32 H :    0.126625
  33 H :    0.112672
  34 H :    0.115016
  35 H :    0.121141
  36 H :    0.109929
  37 H :    0.105485

  Mayer bond orders larger than 0.100000
B(  0-C ,  1-C ) :   1.1737 B(  0-C , 20-H ) :   0.9441 B(  0-C , 21-H ) :   0.9460
B(  0-C , 22-H ) :   0.9486 B(  1-C ,  2-O ) :   0.9166 B(  1-C , 23-H ) :   0.9371
B(  1-C , 24-H ) :   0.9146 B(  2-O ,  3-C ) :   1.2490 B(  3-C ,  4-O ) :   2.0292
B(  3-C ,  5-C ) :   0.9967 B(  5-C ,  6-C ) :   1.0661 B(  5-C , 25-H ) :   0.8612
B(  5-C , 26-H ) :   0.8850 B(  6-C ,  7-H ) :   0.8454 B(  6-C ,  8-C ) :   0.9132
B(  6-C , 13-S ) :   1.0078 B(  8-C ,  9-O ) :   2.0162 B(  8-C , 10-O ) :   1.2709
B( 10-O , 11-C ) :   0.8916 B( 11-C , 12-C ) :   1.1558 B( 11-C , 27-H ) :   0.9344
B( 11-C , 28-H ) :   0.9214 B( 12-C , 29-H ) :   0.9498 B( 12-C , 30-H ) :   0.9491
B( 12-C , 31-H ) :   0.9428 B( 13-S , 14-P ) :   0.9473 B( 13-S , 15-S ) :   0.1126
B( 14-P , 15-S ) :   1.5947 B( 14-P , 16-O ) :   1.1469 B( 14-P , 18-O ) :   1.0635
B( 16-O , 17-C ) :   0.9185 B( 17-C , 32-H ) :   0.9597 B( 17-C , 33-H ) :   0.9459
B( 17-C , 34-H ) :   0.9418 B( 18-O , 19-C ) :   0.9370 B( 19-C , 35-H ) :   0.9584
B( 19-C , 36-H ) :   0.9355 B( 19-C , 37-H ) :   0.9443

Dispersion correction           -0.051144469
FINAL SINGLE POINT ENERGY     -1979.020257112864

DIPOLE MOMENT
-------------

Method             : SCF
Type of density    : Electron Density
Multiplicity       :   1
Irrep              :   0
Energy             : -1979.1501290240312301 Eh
Relativity type    :
Basis              : AO
                                X                 Y                 Z
Electronic contribution:    -14.711938697       3.513497669      -0.251803059
Nuclear contribution   :     15.236182480      -3.997020869       0.028027056
                        -----------------------------------------
Total Dipole Moment    :      0.524243783      -0.483523200      -0.223776003
                        -----------------------------------------
Magnitude (a.u.)       :      0.747463664
Magnitude (Debye)      :      1.899901645

Rotational constants in cm-1:             0.011005             0.007471             0.005455
Rotational constants in MHz :           329.923864           223.968143           163.542963

                             ****ORCA TERMINATED NORMALLY****
TOTAL RUN TIME: 0 days 0 hours 0 minutes 28 seconds 16 msec
