                         Program Version 6.0.0  -   RELEASE  -
|  1> ! pbe def2-sv(p) def2/J RI DEFGRID1 loosescf d4 GCP(DFT/SV(P)) printgap
|  2> %output
|  3>     printlevel normal
|  4> end
|  5> * xyz 0 1
|  6> C 2.8343853709 -2.2466354097 -2.5225649824
|  7> C 3.5285228664 -1.1005384907 -1.8131310791
|  8> O 3.003675659 -0.972508102 -0.4736681954
|  9> P 2.2222721841 0.2916243112 0.0658629127
| 10> S 1.5756015984 1.5363373717 -1.3164293783
| 11> O 3.3059810886 0.9506742415 1.0267037137
| 12> C 3.1757976145 2.2824625558 1.5479295237
| 13> C 2.0533101107 2.3836965853 2.5612392129
| 14> S 0.9560767143 -0.6867774116 1.4411350818
| 15> C 0.2043157958 -1.9181414181 0.3349820613
| 16> S -0.6078519808 -1.1951358234 -1.1201062653
| 17> P -1.9675661927 0.1206611367 -0.163701952
| 18> S -1.4338474748 1.805405653 0.6693235447
| 19> O -2.711444225 -0.906000836 0.807974864
| 20> C -3.040592815 -0.6431813064 2.1879201093
| 21> C -2.2273108504 -1.5304092594 3.1090233932
| 22> O -2.9781340809 0.4200779032 -1.3437677887
| 23> C -3.6733935451 -0.6239076566 -2.0752502513
| 24> C -5.0474921461 -0.1038987862 -2.4444449182
| 25> H 3.2645867161 -2.3620746689 -3.5119972174
| 26> H 2.9674115849 -3.1694104831 -1.9650095053
| 27> H 1.7703549185 -2.0372559562 -2.6210300531
| 28> H 3.3747666162 -0.157326247 -2.3472989679
| 29> H 4.5972158441 -1.2866935091 -1.6962173422
| 30> H 4.148036107 2.483953551 1.9997108905
| 31> H 3.0029466672 2.968379652 0.711711024
| 32> H 2.1716873891 1.6272033629 3.333124516
| 33> H 2.0633763016 3.3692704892 3.015296369
| 34> H 1.0891726061 2.2390020135 2.0712089617
| 35> H -0.5277880303 -2.4586691452 0.9305270085
| 36> H 0.9736464009 -2.5852124234 -0.0473178971
| 37> H -2.857869472 0.4153831083 2.3988657768
| 38> H -4.1079132626 -0.8551785062 2.2735304345
| 39> H -1.1699058521 -1.2803338209 3.0419382481
| 40> H -2.5601592292 -1.3702824054 4.1293566615
| 41> H -2.3704057797 -2.5756138139 2.8490990221
| 42> H -3.0780873338 -0.8471074347 -2.9634666386
| 43> H -3.7385907729 -1.5139125002 -1.4452541974
| 44> H -5.5675275339 -0.8571778636 -3.0274739328
| 45> H -5.6198408523 0.1179137616 -1.5478768547
| 46> H -4.953994086 0.8056208475 -3.0311521031
| 47> *
| 48>
| 49>                          ****END OF INPUT****

CARTESIAN COORDINATES (ANGSTROEM)
---------------------------------
  C      2.834385   -2.246635   -2.522565
  C      3.528523   -1.100538   -1.813131
  O      3.003676   -0.972508   -0.473668
  P      2.222272    0.291624    0.065863
  S      1.575602    1.536337   -1.316429
  O      3.305981    0.950674    1.026704
  C      3.175798    2.282463    1.547930
  C      2.053310    2.383697    2.561239
  S      0.956077   -0.686777    1.441135
  C      0.204316   -1.918141    0.334982
  S     -0.607852   -1.195136   -1.120106
  P     -1.967566    0.120661   -0.163702
  S     -1.433847    1.805406    0.669324
  O     -2.711444   -0.906001    0.807975
  C     -3.040593   -0.643181    2.187920
  C     -2.227311   -1.530409    3.109023
  O     -2.978134    0.420078   -1.343768
  C     -3.673394   -0.623908   -2.075250
  C     -5.047492   -0.103899   -2.444445
  H      3.264587   -2.362075   -3.511997
  H      2.967412   -3.169410   -1.965010
  H      1.770355   -2.037256   -2.621030
  H      3.374767   -0.157326   -2.347299
  H      4.597216   -1.286694   -1.696217
  H      4.148036    2.483954    1.999711
  H      3.002947    2.968380    0.711711
  H      2.171687    1.627203    3.333125
  H      2.063376    3.369270    3.015296
  H      1.089173    2.239002    2.071209
  H     -0.527788   -2.458669    0.930527
  H      0.973646   -2.585212   -0.047318
  H     -2.857869    0.415383    2.398866
  H     -4.107913   -0.855179    2.273530
  H     -1.169906   -1.280334    3.041938
  H     -2.560159   -1.370282    4.129357
  H     -2.370406   -2.575614    2.849099
  H     -3.078087   -0.847107   -2.963467
  H     -3.738591   -1.513913   -1.445254
  H     -5.567528   -0.857178   -3.027474
  H     -5.619841    0.117914   -1.547877
  H     -4.953994    0.805621   -3.031152

 Total Charge           Charge          ....    0
 Multiplicity           Mult            ....    1
 Number of Electrons    NEL             ....  202
 Basis Dimension        Dim             ....  334

ORBITAL ENERGIES
----------------

  NO   OCC          E(Eh)            E(eV)
   0   2.0000     -88.040054     -2395.6917
   1   2.0000     -88.038982     -2395.6625
   2   2.0000     -87.977182     -2393.9808
   3   2.0000     -87.975163     -2393.9259
   4   2.0000     -76.422191     -2079.5535
   5   2.0000     -76.419992     -2079.4937
   6   2.0000     -18.794606      -511.4272
   7   2.0000     -18.790474      -511.3148
   8   2.0000     -18.789458      -511.2871
   9   2.0000     -18.784977      -511.1652
  10   2.0000      -9.960517      -271.0394
  11   2.0000      -9.954428      -270.8738
  12   2.0000      -9.951499      -270.7941
  13   2.0000      -9.948514      -270.7128
  14   2.0000      -9.942933      -270.5610
  15   2.0000      -9.890189      -269.1257
  16   2.0000      -9.889675      -269.1117
  17   2.0000      -9.887058      -269.0405
  18   2.0000      -9.875678      -268.7309
  19   2.0000      -7.684973      -209.1187
  20   2.0000      -7.683925      -209.0902
  21   2.0000      -7.622025      -207.4058
  22   2.0000      -7.619897      -207.3479
  23   2.0000      -6.419570      -174.6854
  24   2.0000      -6.417380      -174.6258
  25   2.0000      -5.713016      -155.4591
  26   2.0000      -5.712040      -155.4325
  27   2.0000      -5.709392      -155.3605
  28   2.0000      -5.708461      -155.3351
  29   2.0000      -5.701826      -155.1546
  30   2.0000      -5.700592      -155.1210
  31   2.0000      -5.651138      -153.7753
  32   2.0000      -5.648907      -153.7146
  33   2.0000      -5.642438      -153.5386
  34   2.0000      -5.642176      -153.5314
  35   2.0000      -5.640502      -153.4859
  36   2.0000      -5.640051      -153.4736
  37   2.0000      -4.642677      -126.3337
  38   2.0000      -4.641148      -126.2920
  39   2.0000      -4.639985      -126.2604
  40   2.0000      -4.639737      -126.2537
  41   2.0000      -4.639238      -126.2401
  42   2.0000      -4.637687      -126.1979
  43   2.0000      -0.983031       -26.7496
  44   2.0000      -0.980996       -26.6943
  45   2.0000      -0.943038       -25.6614
  46   2.0000      -0.941049       -25.6072
  47   2.0000      -0.762954       -20.7610
  48   2.0000      -0.720491       -19.6056
  49   2.0000      -0.709371       -19.3030
  50   2.0000      -0.693308       -18.8659
  51   2.0000      -0.680329       -18.5127
  52   2.0000      -0.667759       -18.1706
  53   2.0000      -0.647109       -17.6087
  54   2.0000      -0.633147       -17.2288
  55   2.0000      -0.594258       -16.1706
  56   2.0000      -0.586480       -15.9589
  57   2.0000      -0.571314       -15.5462
  58   2.0000      -0.568005       -15.4562
  59   2.0000      -0.562872       -15.3165
  60   2.0000      -0.506386       -13.7795
  61   2.0000      -0.495184       -13.4747
  62   2.0000      -0.481495       -13.1022
  63   2.0000      -0.465799       -12.6750
  64   2.0000      -0.460403       -12.5282
  65   2.0000      -0.442414       -12.0387
  66   2.0000      -0.436142       -11.8680
  67   2.0000      -0.433051       -11.7839
  68   2.0000      -0.425768       -11.5857
  69   2.0000      -0.413443       -11.2504
  70   2.0000      -0.406415       -11.0591
  71   2.0000      -0.396430       -10.7874
  72   2.0000      -0.387382       -10.5412
  73   2.0000      -0.385513       -10.4903
  74   2.0000      -0.382178       -10.3996
  75   2.0000      -0.372494       -10.1361
  76   2.0000      -0.366839        -9.9822
  77   2.0000      -0.360212        -9.8019
  78   2.0000      -0.357119        -9.7177
  79   2.0000      -0.351600        -9.5675
  80   2.0000      -0.346370        -9.4252
  81   2.0000      -0.342144        -9.3102
  82   2.0000      -0.339741        -9.2448
  83   2.0000      -0.337802        -9.1921
  84   2.0000      -0.330635        -8.9970
  85   2.0000      -0.320573        -8.7232
  86   2.0000      -0.306757        -8.3473
  87   2.0000      -0.304713        -8.2917
  88   2.0000      -0.291511        -7.9324
  89   2.0000      -0.283302        -7.7090
  90   2.0000      -0.278273        -7.5722
  91   2.0000      -0.271750        -7.3947
  92   2.0000      -0.267674        -7.2838
  93   2.0000      -0.260730        -7.0948
  94   2.0000      -0.255602        -6.9553
  95   2.0000      -0.247566        -6.7366
  96   2.0000      -0.219539        -5.9740
  97   2.0000      -0.205297        -5.5864
  98   2.0000      -0.187000        -5.0885
  99   2.0000      -0.182989        -4.9794
 100   2.0000      -0.179010        -4.8711
 101   0.0000      -0.050946        -1.3863
 102   0.0000      -0.028577        -0.7776
 103   0.0000      -0.006713        -0.1827
 104   0.0000      -0.001480        -0.0403
 105   0.0000       0.022516         0.6127

MULLIKEN ATOMIC CHARGES
-----------------------
   0 C :   -0.309117
   1 C :   -0.000258
   2 O :   -0.378530
   3 P :    0.615476
   4 S :   -0.300195
   5 O :   -0.369051
   6 C :    0.003679
   7 C :   -0.347008
   8 S :   -0.106825
   9 C :   -0.352560
  10 S :   -0.105636
  11 P :    0.617877
  12 S :   -0.274744
  13 O :   -0.397887
  14 C :   -0.005710
  15 C :   -0.315068
  16 O :   -0.364422
  17 C :   -0.025938
  18 C :   -0.275015
  19 H :    0.112737
  20 H :    0.114588
  21 H :    0.128358
  22 H :    0.110472
  23 H :    0.104967
  24 H :    0.101183
  25 H :    0.110124
  26 H :    0.114045
  27 H :    0.111653
  28 H :    0.157271
  29 H :    0.187010
  30 H :    0.191494
  31 H :    0.113270
  32 H :    0.099987
  33 H :    0.135144
  34 H :    0.114315
  35 H :    0.115957
  36 H :    0.112417
  37 H :    0.107088
  38 H :    0.109537
  39 H :    0.114707
  40 H :    0.124608
Sum of atomic charges:   -0.0000000

LOEWDIN ATOMIC CHARGES
----------------------
   0 C :   -0.359692
   1 C :   -0.117153
   2 O :   -0.246643
   3 P :    0.565098
   4 S :   -0.301478
   5 O :   -0.246995
   6 C :   -0.119705
   7 C :   -0.375221
   8 S :    0.091757
   9 C :   -0.471834
  10 S :    0.082493
  11 P :    0.563262
  12 S :   -0.282070
  13 O :   -0.261636
  14 C :   -0.119709
  15 C :   -0.361861
  16 O :   -0.244165
  17 C :   -0.120574
  18 C :   -0.349804
  19 H :    0.131742
  20 H :    0.122287
  21 H :    0.121132
  22 H :    0.107886
  23 H :    0.117166
  24 H :    0.116676
  25 H :    0.109990
  26 H :    0.121895
  27 H :    0.131249
  28 H :    0.123136
  29 H :    0.131050
  30 H :    0.133274
  31 H :    0.108141
  32 H :    0.115085
  33 H :    0.118414
  34 H :    0.133296
  35 H :    0.122457
  36 H :    0.114624
  37 H :    0.108639
  38 H :    0.129493
  39 H :    0.127123
  40 H :    0.131173

  Mayer bond orders larger than 0.100000
B(  0-C ,  1-C ) :   1.1686 B(  0-C , 19-H ) :   0.9394 B(  0-C , 20-H ) :   0.9456
B(  0-C , 21-H ) :   0.9374 B(  1-C ,  2-O ) :   0.8997 B(  1-C , 22-H ) :   0.8982
B(  1-C , 23-H ) :   0.9329 B(  2-O ,  3-P ) :   1.1090 B(  3-P ,  4-S ) :   1.6361
B(  3-P ,  5-O ) :   1.1169 B(  3-P ,  8-S ) :   0.9426 B(  4-S ,  8-S ) :   0.1129
B(  5-O ,  6-C ) :   0.9112 B(  6-C ,  7-C ) :   1.1627 B(  6-C , 24-H ) :   0.9334
B(  6-C , 25-H ) :   0.9124 B(  7-C , 26-H ) :   0.9439 B(  7-C , 27-H ) :   0.9380
B(  7-C , 28-H ) :   0.9217 B(  8-S ,  9-C ) :   1.0056 B(  9-C , 10-S ) :   1.0062
B(  9-C , 29-H ) :   0.8986 B(  9-C , 30-H ) :   0.8991 B( 10-S , 11-P ) :   0.9487
B( 10-S , 12-S ) :   0.1078 B( 11-P , 12-S ) :   1.6715 B( 11-P , 13-O ) :   1.0520
B( 11-P , 16-O ) :   1.1340 B( 13-O , 14-C ) :   0.9082 B( 14-C , 15-C ) :   1.1695
B( 14-C , 31-H ) :   0.8958 B( 14-C , 32-H ) :   0.9333 B( 15-C , 33-H ) :   0.9309
B( 15-C , 34-H ) :   0.9371 B( 15-C , 35-H ) :   0.9424 B( 16-O , 17-C ) :   0.8959
B( 17-C , 18-C ) :   1.1643 B( 17-C , 36-H ) :   0.9310 B( 17-C , 37-H ) :   0.9170
B( 18-C , 38-H ) :   0.9409 B( 18-C , 39-H ) :   0.9500 B( 18-C , 40-H ) :   0.9495

Dispersion correction           -0.067149553
FINAL SINGLE POINT ENERGY     -2929.510135027298

DIPOLE MOMENT
-------------

Method             : SCF
Type of density    : Electron Density
Multiplicity       :   1
Irrep              :   0
Energy             : -2929.6270661597600338 Eh
Relativity type    :
Basis              : AO
                                X                 Y                 Z
Electronic contribution:      6.477997049       7.575364315      -2.271305264
Nuclear contribution   :     -6.920696329      -9.170851543       2.489709406
                        -----------------------------------------
Total Dipole Moment    :     -0.442699280      -1.595487228       0.218404142
                        -----------------------------------------
Magnitude (a.u.)       :      1.670108534
Magnitude (Debye)      :      4.245078533

Rotational constants in cm-1:             0.010978             0.005748             0.005060
Rotational constants in MHz :           329.110499           172.321336           151.689200

                             ****ORCA TERMINATED NORMALLY****
TOTAL RUN TIME: 0 days 0 hours 0 minutes 23 seconds 50 msec
