                         Program Version 6.0.0  -   RELEASE  -
|  1> ! pbe def2-sv(p) def2/J RI DEFGRID1 loosescf d4 GCP(DFT/SV(P)) printgap
|  2> %output
|  3>     printlevel normal
|  4> end
|  5> * xyz 0 1
|  6> C 4.2021149388 -1.3964198314 -2.5108928118
|  7> C 4.8251005053 -1.2321215548 -1.1399942772
|  8> O 3.8423615751 -1.2296933369 -0.0879380894
|  9> P 2.7577128687 -0.0797155473 0.070730835
| 10> S 3.3815021257 1.7455294209 -0.2474899003
| 11> O 2.2530050672 -0.2644402897 1.5514003843
| 12> C 1.7275878032 -1.5049319621 2.0848094263
| 13> C 2.8081274449 -2.2799162205 2.8102548797
| 14> S 1.1329017494 -0.7303171158 -1.1503723459
| 15> C 0.1781161101 0.7942265694 -0.998538447
| 16> S -0.6513673203 0.9634245179 0.6089856751
| 17> P -2.6682720108 0.6410908142 0.0261111495
| 18> S -2.9909967435 0.546408749 -1.9112609511
| 19> O -3.2831302082 1.8517142525 0.8381258075
| 20> C -4.6497546323 1.9080248647 1.3042111211
| 21> C -5.648696834 1.8571053665 0.166676354
| 22> O -3.2315567927 -0.6040441311 0.8427297021
| 23> C -3.2246228619 -1.9407875653 0.3142289263
| 24> C -1.8416705233 -2.5562392237 0.366118808
| 25> H 3.6277962075 -0.5081477999 -2.7694614567
| 26> H 4.9881029088 -1.5311206598 -3.2470318975
| 27> H 3.5401476075 -2.2586153129 -2.5262028727
| 28> H 5.3915581731 -0.2976508116 -1.083705355
| 29> H 5.4715786763 -2.0741235123 -0.8885287549
| 30> H 0.9344104689 -1.1878329827 2.7648563436
| 31> H 1.3038211376 -2.0918369891 1.2650080865
| 32> H 3.2527673784 -1.6619029939 3.5854461198
| 33> H 2.3679506647 -3.1626393951 3.2634243505
| 34> H 3.5853514191 -2.5827738433 2.1139995148
| 35> H -0.5776895987 0.7861717928 -1.7884050876
| 36> H 0.8582857139 1.6393909181 -1.1100997048
| 37> H -4.8088955769 1.084023555 2.0029017746
| 38> H -4.6959951256 2.8602522555 1.8352080478
| 39> H -6.6523299718 1.980076881 0.5614211071
| 40> H -5.4450472473 2.6483753025 -0.5511850451
| 41> H -5.5837773087 0.8997495693 -0.348917628
| 42> H -3.9290532758 -2.4798579535 0.949316993
| 43> H -3.5965813829 -1.9108461986 -0.7152423724
| 44> H -1.9004767194 -3.5984828653 0.0700348081
| 45> H -1.174347745 -2.036342667 -0.3206478586
| 46> H -1.438977939 -2.4888986118 1.373565358
| 47> *
| 48>
| 49>                          ****END OF INPUT****

CARTESIAN COORDINATES (ANGSTROEM)
---------------------------------
  C      4.202115   -1.396420   -2.510893
  C      4.825101   -1.232122   -1.139994
  O      3.842362   -1.229693   -0.087938
  P      2.757713   -0.079716    0.070731
  S      3.381502    1.745529   -0.247490
  O      2.253005   -0.264440    1.551400
  C      1.727588   -1.504932    2.084809
  C      2.808127   -2.279916    2.810255
  S      1.132902   -0.730317   -1.150372
  C      0.178116    0.794227   -0.998538
  S     -0.651367    0.963425    0.608986
  P     -2.668272    0.641091    0.026111
  S     -2.990997    0.546409   -1.911261
  O     -3.283130    1.851714    0.838126
  C     -4.649755    1.908025    1.304211
  C     -5.648697    1.857105    0.166676
  O     -3.231557   -0.604044    0.842730
  C     -3.224623   -1.940788    0.314229
  C     -1.841671   -2.556239    0.366119
  H      3.627796   -0.508148   -2.769461
  H      4.988103   -1.531121   -3.247032
  H      3.540148   -2.258615   -2.526203
  H      5.391558   -0.297651   -1.083705
  H      5.471579   -2.074124   -0.888529
  H      0.934410   -1.187833    2.764856
  H      1.303821   -2.091837    1.265008
  H      3.252767   -1.661903    3.585446
  H      2.367951   -3.162639    3.263424
  H      3.585351   -2.582774    2.114000
  H     -0.577690    0.786172   -1.788405
  H      0.858286    1.639391   -1.110100
  H     -4.808896    1.084024    2.002902
  H     -4.695995    2.860252    1.835208
  H     -6.652330    1.980077    0.561421
  H     -5.445047    2.648375   -0.551185
  H     -5.583777    0.899750   -0.348918
  H     -3.929053   -2.479858    0.949317
  H     -3.596581   -1.910846   -0.715242
  H     -1.900477   -3.598483    0.070035
  H     -1.174348   -2.036343   -0.320648
  H     -1.438978   -2.488899    1.373565

 Total Charge           Charge          ....    0
 Multiplicity           Mult            ....    1
 Number of Electrons    NEL             ....  202
 Basis Dimension        Dim             ....  334

ORBITAL ENERGIES
----------------

  NO   OCC          E(Eh)            E(eV)
   0   2.0000     -88.043463     -2395.7844
   1   2.0000     -88.040529     -2395.7046
   2   2.0000     -87.992922     -2394.4091
   3   2.0000     -87.985581     -2394.2094
   4   2.0000     -76.429103     -2079.7416
   5   2.0000     -76.426894     -2079.6815
   6   2.0000     -18.798373      -511.5297
   7   2.0000     -18.797658      -511.5103
   8   2.0000     -18.793057      -511.3851
   9   2.0000     -18.792956      -511.3823
  10   2.0000      -9.957294      -270.9517
  11   2.0000      -9.956687      -270.9352
  12   2.0000      -9.956115      -270.9197
  13   2.0000      -9.955205      -270.8949
  14   2.0000      -9.947179      -270.6765
  15   2.0000      -9.887395      -269.0497
  16   2.0000      -9.886952      -269.0377
  17   2.0000      -9.886476      -269.0247
  18   2.0000      -9.886131      -269.0153
  19   2.0000      -7.687862      -209.1974
  20   2.0000      -7.685545      -209.1343
  21   2.0000      -7.637756      -207.8339
  22   2.0000      -7.630863      -207.6463
  23   2.0000      -6.426685      -174.8790
  24   2.0000      -6.424594      -174.8221
  25   2.0000      -5.715464      -155.5257
  26   2.0000      -5.713394      -155.4693
  27   2.0000      -5.712474      -155.4443
  28   2.0000      -5.710075      -155.3790
  29   2.0000      -5.705100      -155.2437
  30   2.0000      -5.702530      -155.1737
  31   2.0000      -5.666443      -154.1918
  32   2.0000      -5.659844      -154.0122
  33   2.0000      -5.658624      -153.9790
  34   2.0000      -5.657918      -153.9598
  35   2.0000      -5.651393      -153.7822
  36   2.0000      -5.651015      -153.7719
  37   2.0000      -4.649500      -126.5193
  38   2.0000      -4.648077      -126.4806
  39   2.0000      -4.647558      -126.4665
  40   2.0000      -4.647262      -126.4584
  41   2.0000      -4.646259      -126.4311
  42   2.0000      -4.644751      -126.3901
  43   2.0000      -0.991631       -26.9836
  44   2.0000      -0.990916       -26.9642
  45   2.0000      -0.948645       -25.8140
  46   2.0000      -0.947585       -25.7851
  47   2.0000      -0.761318       -20.7165
  48   2.0000      -0.724163       -19.7055
  49   2.0000      -0.711728       -19.3671
  50   2.0000      -0.692738       -18.8504
  51   2.0000      -0.691993       -18.8301
  52   2.0000      -0.676877       -18.4187
  53   2.0000      -0.653206       -17.7746
  54   2.0000      -0.638327       -17.3698
  55   2.0000      -0.602512       -16.3952
  56   2.0000      -0.594718       -16.1831
  57   2.0000      -0.581144       -15.8137
  58   2.0000      -0.576544       -15.6886
  59   2.0000      -0.556280       -15.1372
  60   2.0000      -0.504028       -13.7153
  61   2.0000      -0.497343       -13.5334
  62   2.0000      -0.477752       -13.0003
  63   2.0000      -0.474845       -12.9212
  64   2.0000      -0.460231       -12.5235
  65   2.0000      -0.450232       -12.2514
  66   2.0000      -0.442347       -12.0369
  67   2.0000      -0.434198       -11.8151
  68   2.0000      -0.431057       -11.7297
  69   2.0000      -0.420719       -11.4483
  70   2.0000      -0.414912       -11.2903
  71   2.0000      -0.407921       -11.1001
  72   2.0000      -0.394643       -10.7388
  73   2.0000      -0.387747       -10.5511
  74   2.0000      -0.376726       -10.2512
  75   2.0000      -0.375930       -10.2296
  76   2.0000      -0.367218        -9.9925
  77   2.0000      -0.359609        -9.7855
  78   2.0000      -0.356986        -9.7141
  79   2.0000      -0.352869        -9.6021
  80   2.0000      -0.350912        -9.5488
  81   2.0000      -0.347113        -9.4454
  82   2.0000      -0.344357        -9.3704
  83   2.0000      -0.340657        -9.2697
  84   2.0000      -0.339077        -9.2267
  85   2.0000      -0.321714        -8.7543
  86   2.0000      -0.313814        -8.5393
  87   2.0000      -0.301149        -8.1947
  88   2.0000      -0.297755        -8.1023
  89   2.0000      -0.293819        -7.9952
  90   2.0000      -0.293133        -7.9766
  91   2.0000      -0.278773        -7.5858
  92   2.0000      -0.272705        -7.4207
  93   2.0000      -0.265814        -7.2332
  94   2.0000      -0.260698        -7.0940
  95   2.0000      -0.232476        -6.3260
  96   2.0000      -0.222456        -6.0533
  97   2.0000      -0.213808        -5.8180
  98   2.0000      -0.205884        -5.6024
  99   2.0000      -0.205216        -5.5842
 100   2.0000      -0.198765        -5.4087
 101   0.0000      -0.040271        -1.0958
 102   0.0000      -0.031138        -0.8473
 103   0.0000      -0.008617        -0.2345
 104   0.0000       0.004107         0.1118
 105   0.0000       0.009678         0.2633

MULLIKEN ATOMIC CHARGES
-----------------------
   0 C :   -0.321700
   1 C :   -0.000607
   2 O :   -0.381453
   3 P :    0.598505
   4 S :   -0.307814
   5 O :   -0.350464
   6 C :   -0.025844
   7 C :   -0.285430
   8 S :   -0.102887
   9 C :   -0.370998
  10 S :   -0.069981
  11 P :    0.625585
  12 S :   -0.327471
  13 O :   -0.370182
  14 C :   -0.001143
  15 C :   -0.316087
  16 O :   -0.381676
  17 C :   -0.001863
  18 C :   -0.328629
  19 H :    0.133041
  20 H :    0.116083
  21 H :    0.117601
  22 H :    0.115118
  23 H :    0.105566
  24 H :    0.113973
  25 H :    0.112304
  26 H :    0.120539
  27 H :    0.107958
  28 H :    0.119978
  29 H :    0.196446
  30 H :    0.196970
  31 H :    0.109420
  32 H :    0.110914
  33 H :    0.111523
  34 H :    0.127253
  35 H :    0.127216
  36 H :    0.102232
  37 H :    0.112303
  38 H :    0.111448
  39 H :    0.135355
  40 H :    0.116898
Sum of atomic charges:    0.0000000

LOEWDIN ATOMIC CHARGES
----------------------
   0 C :   -0.371600
   1 C :   -0.115635
   2 O :   -0.246874
   3 P :    0.569086
   4 S :   -0.307011
   5 O :   -0.232359
   6 C :   -0.118595
   7 C :   -0.358982
   8 S :    0.086044
   9 C :   -0.492704
  10 S :    0.095195
  11 P :    0.568339
  12 S :   -0.305265
  13 O :   -0.241980
  14 C :   -0.110392
  15 C :   -0.366493
  16 O :   -0.246988
  17 C :   -0.120773
  18 C :   -0.369316
  19 H :    0.123610
  20 H :    0.132704
  21 H :    0.123266
  22 H :    0.114593
  23 H :    0.118686
  24 H :    0.119610
  25 H :    0.104485
  26 H :    0.129115
  27 H :    0.128790
  28 H :    0.125602
  29 H :    0.125010
  30 H :    0.128702
  31 H :    0.113076
  32 H :    0.122411
  33 H :    0.130009
  34 H :    0.131329
  35 H :    0.121634
  36 H :    0.116959
  37 H :    0.108976
  38 H :    0.130930
  39 H :    0.113243
  40 H :    0.123564

  Mayer bond orders larger than 0.100000
B(  0-C ,  1-C ) :   1.1661 B(  0-C , 19-H ) :   0.9340 B(  0-C , 20-H ) :   0.9368
B(  0-C , 21-H ) :   0.9436 B(  1-C ,  2-O ) :   0.9035 B(  1-C , 22-H ) :   0.9189
B(  1-C , 23-H ) :   0.9340 B(  2-O ,  3-P ) :   1.0871 B(  3-P ,  4-S ) :   1.6422
B(  3-P ,  5-O ) :   1.1437 B(  3-P ,  8-S ) :   0.9491 B(  4-S ,  8-S ) :   0.1065
B(  5-O ,  6-C ) :   0.8908 B(  6-C ,  7-C ) :   1.1608 B(  6-C , 24-H ) :   0.9325
B(  6-C , 25-H ) :   0.9072 B(  7-C , 26-H ) :   0.9468 B(  7-C , 27-H ) :   0.9402
B(  7-C , 28-H ) :   0.9418 B(  8-S ,  9-C ) :   1.0010 B(  9-C , 10-S ) :   1.0075
B(  9-C , 29-H ) :   0.8480 B(  9-C , 30-H ) :   0.8673 B( 10-S , 11-P ) :   0.9692
B( 10-S , 12-S ) :   0.1229 B( 11-P , 12-S ) :   1.6002 B( 11-P , 13-O ) :   1.1371
B( 11-P , 16-O ) :   1.0765 B( 12-S , 29-H ) :   0.1175 B( 13-O , 14-C ) :   0.9065
B( 14-C , 15-C ) :   1.1660 B( 14-C , 31-H ) :   0.9291 B( 14-C , 32-H ) :   0.9345
B( 15-C , 33-H ) :   0.9363 B( 15-C , 34-H ) :   0.9451 B( 15-C , 35-H ) :   0.9366
B( 16-O , 17-C ) :   0.9135 B( 17-C , 18-C ) :   1.1630 B( 17-C , 36-H ) :   0.9322
B( 17-C , 37-H ) :   0.9103 B( 18-C , 38-H ) :   0.9380 B( 18-C , 39-H ) :   0.9269
B( 18-C , 40-H ) :   0.9424

Dispersion correction           -0.063474608
FINAL SINGLE POINT ENERGY     -2929.521093239177

DIPOLE MOMENT
-------------

Method             : SCF
Type of density    : Electron Density
Multiplicity       :   1
Irrep              :   0
Energy             : -2929.6427570187770471 Eh
Relativity type    :
Basis              : AO
                                X                 Y                 Z
Electronic contribution:      3.721864080      15.703517159      -3.491996250
Nuclear contribution   :     -4.315693794     -17.440127177       4.199700428
                        -----------------------------------------
Total Dipole Moment    :     -0.593829714      -1.736610018       0.707704178
                        -----------------------------------------
Magnitude (a.u.)       :      1.967051928
Magnitude (Debye)      :      4.999848657

Rotational constants in cm-1:             0.014278             0.004011             0.003872
Rotational constants in MHz :           428.041736           120.261668           116.075164

                             ****ORCA TERMINATED NORMALLY****
TOTAL RUN TIME: 0 days 0 hours 0 minutes 20 seconds 857 msec
