                         Program Version 6.0.0  -   RELEASE  -
|  1> ! pbe def2-sv(p) def2/J RI DEFGRID1 loosescf d4 GCP(DFT/SV(P)) printgap
|  2> %output
|  3>     printlevel normal
|  4> end
|  5> * xyz 0 1
|  6> C 5.4867892109 -0.7787811001 -1.2532062664
|  7> C 4.1193034216 -1.1082116126 -1.8134268549
|  8> O 3.1460668254 -1.3074970375 -0.7679374513
|  9> P 2.6358832175 -0.114334753 0.14557118
| 10> S 2.4849685674 1.6245205131 -0.7643002522
| 11> O 3.6520545984 -0.1426649522 1.3652383097
| 12> C 3.7813029759 0.9579271059 2.2823038175
| 13> C 2.5138127267 1.1749254486 3.0829079827
| 14> S 0.9165898114 -1.0590097948 0.9211006429
| 15> C -0.0387610603 -1.1188972724 -0.6164594943
| 16> S -0.7419064918 0.4960787764 -1.1064566775
| 17> P -2.7383904761 0.1632432342 -0.5012861846
| 18> S -3.9925199581 1.6471935797 -0.7407241282
| 19> O -2.6677536956 -0.430629366 0.9783616803
| 20> C -2.8234207352 0.4013781023 2.1384154443
| 21> C -1.5947290337 1.2501389977 2.3930476259
| 22> O -3.0262853315 -1.1495155787 -1.3499849871
| 23> C -4.3714146521 -1.5732974348 -1.6563373313
| 24> C -5.1187744061 -2.0293888147 -0.4208584213
| 25> H 6.2102518207 -0.7506403666 -2.0620322112
| 26> H 5.4613337573 0.1953595427 -0.7668582474
| 27> H 5.7843095702 -1.5284974237 -0.5248839011
| 28> H 4.1207157048 -2.0556905715 -2.3542427261
| 29> H 3.7667336582 -0.3035691167 -2.4672303952
| 30> H 4.6202831895 0.6726769191 2.9180879564
| 31> H 4.0316267442 1.8573341995 1.7107386392
| 32> H 2.2083895932 0.2491999953 3.5644548266
| 33> H 2.6859231118 1.9364653523 3.8366043774
| 34> H 1.7156332111 1.510167715 2.4207522919
| 35> H -0.8498230407 -1.8235067588 -0.4588878248
| 36> H 0.6107501315 -1.4411838159 -1.4262681692
| 37> H -3.7048029626 1.0351887247 1.9936567218
| 38> H -2.9980616664 -0.3048161358 2.9508890753
| 39> H -0.7190665194 0.6161080578 2.5074706696
| 40> H -1.4340113151 1.9309056599 1.5562321564
| 41> H -1.7390165732 1.8333212886 3.2966797361
| 42> H -4.8940604491 -0.7405035197 -2.1370970259
| 43> H -4.2306024849 -2.3858018982 -2.3704220855
| 44> H -6.0811377942 -2.4366493689 -0.7146404781
| 45> H -4.5493521776 -2.7897170467 0.1070745065
| 46> H -5.2820804714 -1.1833117928 0.2450868933
| 47> *
| 48>
| 49>                          ****END OF INPUT****

CARTESIAN COORDINATES (ANGSTROEM)
---------------------------------
  C      5.486789   -0.778781   -1.253206
  C      4.119303   -1.108212   -1.813427
  O      3.146067   -1.307497   -0.767937
  P      2.635883   -0.114335    0.145571
  S      2.484969    1.624521   -0.764300
  O      3.652055   -0.142665    1.365238
  C      3.781303    0.957927    2.282304
  C      2.513813    1.174925    3.082908
  S      0.916590   -1.059010    0.921101
  C     -0.038761   -1.118897   -0.616459
  S     -0.741906    0.496079   -1.106457
  P     -2.738390    0.163243   -0.501286
  S     -3.992520    1.647194   -0.740724
  O     -2.667754   -0.430629    0.978362
  C     -2.823421    0.401378    2.138415
  C     -1.594729    1.250139    2.393048
  O     -3.026285   -1.149516   -1.349985
  C     -4.371415   -1.573297   -1.656337
  C     -5.118774   -2.029389   -0.420858
  H      6.210252   -0.750640   -2.062032
  H      5.461334    0.195360   -0.766858
  H      5.784310   -1.528497   -0.524884
  H      4.120716   -2.055691   -2.354243
  H      3.766734   -0.303569   -2.467230
  H      4.620283    0.672677    2.918088
  H      4.031627    1.857334    1.710739
  H      2.208390    0.249200    3.564455
  H      2.685923    1.936465    3.836604
  H      1.715633    1.510168    2.420752
  H     -0.849823   -1.823507   -0.458888
  H      0.610750   -1.441184   -1.426268
  H     -3.704803    1.035189    1.993657
  H     -2.998062   -0.304816    2.950889
  H     -0.719067    0.616108    2.507471
  H     -1.434011    1.930906    1.556232
  H     -1.739017    1.833321    3.296680
  H     -4.894060   -0.740504   -2.137097
  H     -4.230602   -2.385802   -2.370422
  H     -6.081138   -2.436649   -0.714640
  H     -4.549352   -2.789717    0.107075
  H     -5.282080   -1.183312    0.245087

 Total Charge           Charge          ....    0
 Multiplicity           Mult            ....    1
 Number of Electrons    NEL             ....  202
 Basis Dimension        Dim             ....  334

ORBITAL ENERGIES
----------------

  NO   OCC          E(Eh)            E(eV)
   0   2.0000     -88.046241     -2395.8600
   1   2.0000     -88.036243     -2395.5880
   2   2.0000     -87.992414     -2394.3953
   3   2.0000     -87.985513     -2394.2075
   4   2.0000     -76.431307     -2079.8016
   5   2.0000     -76.421450     -2079.5334
   6   2.0000     -18.799981      -511.5735
   7   2.0000     -18.796079      -511.4673
   8   2.0000     -18.790263      -511.3090
   9   2.0000     -18.788806      -511.2694
  10   2.0000      -9.958676      -270.9894
  11   2.0000      -9.958239      -270.9775
  12   2.0000      -9.955085      -270.8916
  13   2.0000      -9.951097      -270.7831
  14   2.0000      -9.948012      -270.6992
  15   2.0000      -9.889712      -269.1128
  16   2.0000      -9.887241      -269.0455
  17   2.0000      -9.883918      -268.9551
  18   2.0000      -9.876649      -268.7573
  19   2.0000      -7.691511      -209.2967
  20   2.0000      -7.681196      -209.0160
  21   2.0000      -7.637075      -207.8154
  22   2.0000      -7.630670      -207.6411
  23   2.0000      -6.428899      -174.9392
  24   2.0000      -6.419557      -174.6850
  25   2.0000      -5.719296      -155.6300
  26   2.0000      -5.716120      -155.5435
  27   2.0000      -5.709506      -155.3636
  28   2.0000      -5.708387      -155.3331
  29   2.0000      -5.705647      -155.2586
  30   2.0000      -5.697794      -155.0448
  31   2.0000      -5.665864      -154.1760
  32   2.0000      -5.659607      -154.0057
  33   2.0000      -5.657736      -153.9548
  34   2.0000      -5.657436      -153.9467
  35   2.0000      -5.651271      -153.7789
  36   2.0000      -5.650831      -153.7669
  37   2.0000      -4.651473      -126.5730
  38   2.0000      -4.650674      -126.5513
  39   2.0000      -4.649333      -126.5148
  40   2.0000      -4.641939      -126.3136
  41   2.0000      -4.641522      -126.3022
  42   2.0000      -4.639926      -126.2588
  43   2.0000      -0.992679       -27.0122
  44   2.0000      -0.984164       -26.7805
  45   2.0000      -0.952802       -25.9271
  46   2.0000      -0.943320       -25.6690
  47   2.0000      -0.763856       -20.7856
  48   2.0000      -0.723253       -19.6807
  49   2.0000      -0.708040       -19.2667
  50   2.0000      -0.692126       -18.8337
  51   2.0000      -0.683863       -18.6089
  52   2.0000      -0.673119       -18.3165
  53   2.0000      -0.656600       -17.8670
  54   2.0000      -0.640537       -17.4299
  55   2.0000      -0.604278       -16.4432
  56   2.0000      -0.594074       -16.1656
  57   2.0000      -0.578231       -15.7345
  58   2.0000      -0.569256       -15.4902
  59   2.0000      -0.562156       -15.2970
  60   2.0000      -0.498134       -13.5549
  61   2.0000      -0.491933       -13.3862
  62   2.0000      -0.479312       -13.0427
  63   2.0000      -0.471036       -12.8175
  64   2.0000      -0.459753       -12.5105
  65   2.0000      -0.448408       -12.2018
  66   2.0000      -0.444831       -12.1045
  67   2.0000      -0.437616       -11.9081
  68   2.0000      -0.428677       -11.6649
  69   2.0000      -0.418362       -11.3842
  70   2.0000      -0.409112       -11.1325
  71   2.0000      -0.397948       -10.8287
  72   2.0000      -0.393805       -10.7160
  73   2.0000      -0.392727       -10.6866
  74   2.0000      -0.388625       -10.5750
  75   2.0000      -0.381842       -10.3904
  76   2.0000      -0.366759        -9.9800
  77   2.0000      -0.360507        -9.8099
  78   2.0000      -0.354599        -9.6491
  79   2.0000      -0.351722        -9.5708
  80   2.0000      -0.348383        -9.4800
  81   2.0000      -0.345559        -9.4031
  82   2.0000      -0.343822        -9.3559
  83   2.0000      -0.338960        -9.2236
  84   2.0000      -0.327911        -8.9229
  85   2.0000      -0.319897        -8.7048
  86   2.0000      -0.314448        -8.5566
  87   2.0000      -0.301717        -8.2101
  88   2.0000      -0.292707        -7.9650
  89   2.0000      -0.288297        -7.8450
  90   2.0000      -0.285360        -7.7650
  91   2.0000      -0.278869        -7.5884
  92   2.0000      -0.271703        -7.3934
  93   2.0000      -0.268703        -7.3118
  94   2.0000      -0.262792        -7.1509
  95   2.0000      -0.236724        -6.4416
  96   2.0000      -0.214220        -5.8292
  97   2.0000      -0.211327        -5.7505
  98   2.0000      -0.205365        -5.5883
  99   2.0000      -0.202884        -5.5207
 100   2.0000      -0.199882        -5.4391
 101   0.0000      -0.041852        -1.1388
 102   0.0000      -0.023000        -0.6259
 103   0.0000      -0.014083        -0.3832
 104   0.0000      -0.004600        -0.1252
 105   0.0000       0.020309         0.5526

MULLIKEN ATOMIC CHARGES
-----------------------
   0 C :   -0.306685
   1 C :   -0.006516
   2 O :   -0.371747
   3 P :    0.594183
   4 S :   -0.311420
   5 O :   -0.371006
   6 C :    0.001667
   7 C :   -0.344157
   8 S :   -0.071420
   9 C :   -0.355809
  10 S :   -0.035914
  11 P :    0.595285
  12 S :   -0.320442
  13 O :   -0.383727
  14 C :   -0.005000
  15 C :   -0.338751
  16 O :   -0.383296
  17 C :   -0.002788
  18 C :   -0.307264
  19 H :    0.113979
  20 H :    0.122380
  21 H :    0.118823
  22 H :    0.106054
  23 H :    0.112868
  24 H :    0.108070
  25 H :    0.113476
  26 H :    0.122082
  27 H :    0.117470
  28 H :    0.148865
  29 H :    0.194861
  30 H :    0.188600
  31 H :    0.109844
  32 H :    0.100766
  33 H :    0.139801
  34 H :    0.131950
  35 H :    0.106862
  36 H :    0.113971
  37 H :    0.104250
  38 H :    0.111987
  39 H :    0.113802
  40 H :    0.124045
Sum of atomic charges:    0.0000000

LOEWDIN ATOMIC CHARGES
----------------------
   0 C :   -0.364198
   1 C :   -0.119419
   2 O :   -0.243864
   3 P :    0.567059
   4 S :   -0.312510
   5 O :   -0.241811
   6 C :   -0.117838
   7 C :   -0.372233
   8 S :    0.103990
   9 C :   -0.473606
  10 S :    0.103650
  11 P :    0.564968
  12 S :   -0.318729
  13 O :   -0.251131
  14 C :   -0.121695
  15 C :   -0.374034
  16 O :   -0.252476
  17 C :   -0.115945
  18 C :   -0.365432
  19 H :    0.131384
  20 H :    0.122747
  21 H :    0.127376
  22 H :    0.118969
  23 H :    0.110992
  24 H :    0.120155
  25 H :    0.112375
  26 H :    0.124666
  27 H :    0.133732
  28 H :    0.126691
  29 H :    0.137543
  30 H :    0.135008
  31 H :    0.107629
  32 H :    0.116650
  33 H :    0.117112
  34 H :    0.124520
  35 H :    0.128467
  36 H :    0.112639
  37 H :    0.118249
  38 H :    0.130365
  39 H :    0.124878
  40 H :    0.123109

  Mayer bond orders larger than 0.100000
B(  0-C ,  1-C ) :   1.1669 B(  0-C , 19-H ) :   0.9388 B(  0-C , 20-H ) :   0.9372
B(  0-C , 21-H ) :   0.9459 B(  1-C ,  2-O ) :   0.9033 B(  1-C , 22-H ) :   0.9339
B(  1-C , 23-H ) :   0.9149 B(  2-O ,  3-P ) :   1.1072 B(  3-P ,  4-S ) :   1.6146
B(  3-P ,  5-O ) :   1.1090 B(  3-P ,  8-S ) :   0.9705 B(  4-S ,  8-S ) :   0.1152
B(  5-O ,  6-C ) :   0.9036 B(  6-C ,  7-C ) :   1.1644 B(  6-C , 24-H ) :   0.9329
B(  6-C , 25-H ) :   0.9162 B(  7-C , 26-H ) :   0.9437 B(  7-C , 27-H ) :   0.9364
B(  7-C , 28-H ) :   0.9274 B(  8-S ,  9-C ) :   0.9917 B(  9-C , 10-S ) :   0.9811
B(  9-C , 29-H ) :   0.8909 B(  9-C , 30-H ) :   0.8956 B( 10-S , 11-P ) :   0.9918
B( 11-P , 12-S ) :   1.6353 B( 11-P , 13-O ) :   1.0661 B( 11-P , 16-O ) :   1.0860
B( 13-O , 14-C ) :   0.9106 B( 14-C , 15-C ) :   1.1645 B( 14-C , 31-H ) :   0.9121
B( 14-C , 32-H ) :   0.9327 B( 15-C , 33-H ) :   0.9266 B( 15-C , 34-H ) :   0.9372
B( 15-C , 35-H ) :   0.9370 B( 16-O , 17-C ) :   0.9093 B( 17-C , 18-C ) :   1.1620
B( 17-C , 36-H ) :   0.9177 B( 17-C , 37-H ) :   0.9360 B( 18-C , 38-H ) :   0.9382
B( 18-C , 39-H ) :   0.9467 B( 18-C , 40-H ) :   0.9362

Dispersion correction           -0.063947610
FINAL SINGLE POINT ENERGY     -2929.519591643284

DIPOLE MOMENT
-------------

Method             : SCF
Type of density    : Electron Density
Multiplicity       :   1
Irrep              :   0
Energy             : -2929.6413284455557005 Eh
Relativity type    :
Basis              : AO
                                X                 Y                 Z
Electronic contribution:     -3.785554272       4.376766571     -10.664530183
Nuclear contribution   :      4.587769618      -5.708922307      11.464143548
                        -----------------------------------------
Total Dipole Moment    :      0.802215346      -1.332155736       0.799613365
                        -----------------------------------------
Magnitude (a.u.)       :      1.748590832
Magnitude (Debye)      :      4.444564681

Rotational constants in cm-1:             0.014416             0.004125             0.003795
Rotational constants in MHz :           432.184754           123.662909           113.771878

                             ****ORCA TERMINATED NORMALLY****
TOTAL RUN TIME: 0 days 0 hours 0 minutes 20 seconds 611 msec
