                         Program Version 6.0.1  -  RELEASE   -
|  1> ! pbe def2-sv(p) def2/J RI DEFGRID1 loosescf d4 GCP(DFT/SV(P)) printgap
|  2> %output
|  3>     printlevel normal
|  4> end
|  5> * xyz 0 1
|  6> C 2.4677596361 -2.9688073799 0.4022978989
|  7> C 3.2124736801 -2.6803879225 -0.8918732391
|  8> O 2.385208021 -1.8982879633 -1.7756654783
|  9> C 2.3591307624 -0.5944506888 -1.6182975737
| 10> O 3.0537155107 0.0250151056 -0.8399165902
| 11> C 1.3026885843 0.0561827483 -2.4914072355
| 12> C 0.1839672469 0.5452404026 -1.5638554283
| 13> H -0.5690778196 1.0905102602 -2.1389712889
| 14> C 0.7821089682 1.4975267644 -0.5416771368
| 15> O 1.1960762881 2.587686743 -0.8607861835
| 16> O 0.8286101221 1.005711131 0.6797893605
| 17> C 1.4933417426 1.8180880887 1.6700698577
| 18> C 1.5203653059 1.0672616255 2.9847454894
| 19> S -0.6153698604 -0.8913213864 -0.7767259443
| 20> P -1.905685178 0.1579701384 0.5450654106
| 21> S -2.204399524 2.0562155937 0.1556321003
| 22> O -3.2324059858 -0.7369829671 0.5039044897
| 23> C -4.0624386875 -0.7846608851 -0.6618624719
| 24> O -1.4315003328 -0.120525393 2.0234656415
| 25> C -1.2336295437 -1.466074275 2.5082717575
| 26> H 1.5278918954 -3.4685212892 0.1839499121
| 27> H 3.077436412 -3.6011762043 1.0387020442
| 28> H 2.2592374108 -2.0361458487 0.9228439694
| 29> H 3.4200634371 -3.5942644625 -1.4475101374
| 30> H 4.1375108468 -2.1301491519 -0.6973502945
| 31> H 0.914136025 -0.6668496878 -3.2062812926
| 32> H 1.7314611974 0.9215147971 -2.9985730411
| 33> H 2.4997952034 2.0234814275 1.2917047206
| 34> H 0.9478679053 2.764196139 1.7481682613
| 35> H 2.0203135929 0.1114940379 2.8573732314
| 36> H 2.0620170952 1.6595473654 3.7145827242
| 37> H 0.5069427125 0.9016226582 3.3373289325
| 38> H -3.5614376391 -1.346904571 -1.4496987704
| 39> H -4.284787303 0.2264875116 -1.0062162971
| 40> H -4.9741232234 -1.2881995841 -0.3508657507
| 41> H -2.179551474 -2.0031867098 2.5040387006
| 42> H -0.8566031683 -1.3544497691 3.5213088784
| 43> H -0.5066872478 -1.981402207 1.8808117771
| 44> *
| 45>
| 46>                          ****END OF INPUT****

CARTESIAN COORDINATES (ANGSTROEM)
---------------------------------
  C      2.467760   -2.968807    0.402298
  C      3.212474   -2.680388   -0.891873
  O      2.385208   -1.898288   -1.775665
  C      2.359131   -0.594451   -1.618298
  O      3.053716    0.025015   -0.839917
  C      1.302689    0.056183   -2.491407
  C      0.183967    0.545240   -1.563855
  H     -0.569078    1.090510   -2.138971
  C      0.782109    1.497527   -0.541677
  O      1.196076    2.587687   -0.860786
  O      0.828610    1.005711    0.679789
  C      1.493342    1.818088    1.670070
  C      1.520365    1.067262    2.984745
  S     -0.615370   -0.891321   -0.776726
  P     -1.905685    0.157970    0.545065
  S     -2.204400    2.056216    0.155632
  O     -3.232406   -0.736983    0.503904
  C     -4.062439   -0.784661   -0.661862
  O     -1.431500   -0.120525    2.023466
  C     -1.233630   -1.466074    2.508272
  H      1.527892   -3.468521    0.183950
  H      3.077436   -3.601176    1.038702
  H      2.259237   -2.036146    0.922844
  H      3.420063   -3.594264   -1.447510
  H      4.137511   -2.130149   -0.697350
  H      0.914136   -0.666850   -3.206281
  H      1.731461    0.921515   -2.998573
  H      2.499795    2.023481    1.291705
  H      0.947868    2.764196    1.748168
  H      2.020314    0.111494    2.857373
  H      2.062017    1.659547    3.714583
  H      0.506943    0.901623    3.337329
  H     -3.561438   -1.346905   -1.449699
  H     -4.284787    0.226488   -1.006216
  H     -4.974123   -1.288200   -0.350866
  H     -2.179551   -2.003187    2.504039
  H     -0.856603   -1.354450    3.521309
  H     -0.506687   -1.981402    1.880812

 Total Charge           Charge          ....    0
 Multiplicity           Mult            ....    1
 Number of Electrons    NEL             ....  174
 Basis Dimension        Dim             ....  316

ORBITAL ENERGIES
----------------

  NO   OCC          E(Eh)            E(eV)
   0   2.0000     -88.043446     -2395.7840
   1   2.0000     -87.986070     -2394.2227
   2   2.0000     -76.429134     -2079.7425
   3   2.0000     -18.811433      -511.8851
   4   2.0000     -18.799487      -511.5601
   5   2.0000     -18.798610      -511.5362
   6   2.0000     -18.795762      -511.4587
   7   2.0000     -18.743876      -510.0468
   8   2.0000     -18.724894      -509.5303
   9   2.0000     -10.016788      -272.5707
  10   2.0000     -10.006374      -272.2873
  11   2.0000      -9.955361      -270.8991
  12   2.0000      -9.954463      -270.8747
  13   2.0000      -9.949827      -270.7486
  14   2.0000      -9.948011      -270.6991
  15   2.0000      -9.936502      -270.3860
  16   2.0000      -9.917664      -269.8733
  17   2.0000      -9.892828      -269.1975
  18   2.0000      -9.881126      -268.8791
  19   2.0000      -7.688021      -209.2017
  20   2.0000      -7.631100      -207.6528
  21   2.0000      -6.426213      -174.8661
  22   2.0000      -5.715708      -155.5323
  23   2.0000      -5.712581      -155.4472
  24   2.0000      -5.705193      -155.2462
  25   2.0000      -5.660274      -154.0239
  26   2.0000      -5.651506      -153.7853
  27   2.0000      -5.651213      -153.7773
  28   2.0000      -4.648956      -126.5045
  29   2.0000      -4.648104      -126.4813
  30   2.0000      -4.646483      -126.4372
  31   2.0000      -1.019607       -27.7449
  32   2.0000      -1.005061       -27.3491
  33   2.0000      -0.992121       -26.9970
  34   2.0000      -0.947241       -25.7757
  35   2.0000      -0.922317       -25.0975
  36   2.0000      -0.906535       -24.6681
  37   2.0000      -0.770137       -20.9565
  38   2.0000      -0.718104       -19.5406
  39   2.0000      -0.700991       -19.0749
  40   2.0000      -0.694556       -18.8998
  41   2.0000      -0.662349       -18.0234
  42   2.0000      -0.641714       -17.4619
  43   2.0000      -0.624334       -16.9890
  44   2.0000      -0.616279       -16.7698
  45   2.0000      -0.594906       -16.1882
  46   2.0000      -0.559965       -15.2374
  47   2.0000      -0.519248       -14.1295
  48   2.0000      -0.506417       -13.7803
  49   2.0000      -0.500530       -13.6201
  50   2.0000      -0.480532       -13.0759
  51   2.0000      -0.474322       -12.9070
  52   2.0000      -0.469727       -12.7819
  53   2.0000      -0.451016       -12.2728
  54   2.0000      -0.439255       -11.9527
  55   2.0000      -0.435480       -11.8500
  56   2.0000      -0.429071       -11.6756
  57   2.0000      -0.420343       -11.4381
  58   2.0000      -0.413417       -11.2496
  59   2.0000      -0.408342       -11.1116
  60   2.0000      -0.405743       -11.0408
  61   2.0000      -0.400424       -10.8961
  62   2.0000      -0.391835       -10.6624
  63   2.0000      -0.385477       -10.4894
  64   2.0000      -0.375378       -10.2146
  65   2.0000      -0.363441        -9.8897
  66   2.0000      -0.354312        -9.6413
  67   2.0000      -0.353666        -9.6237
  68   2.0000      -0.348674        -9.4879
  69   2.0000      -0.340173        -9.2566
  70   2.0000      -0.337385        -9.1807
  71   2.0000      -0.332417        -9.0455
  72   2.0000      -0.323903        -8.8139
  73   2.0000      -0.312793        -8.5115
  74   2.0000      -0.307229        -8.3601
  75   2.0000      -0.304280        -8.2799
  76   2.0000      -0.298496        -8.1225
  77   2.0000      -0.296910        -8.0793
  78   2.0000      -0.274925        -7.4811
  79   2.0000      -0.268765        -7.3135
  80   2.0000      -0.263359        -7.1664
  81   2.0000      -0.250305        -6.8111
  82   2.0000      -0.235986        -6.4215
  83   2.0000      -0.228987        -6.2310
  84   2.0000      -0.207747        -5.6531
  85   2.0000      -0.203948        -5.5497
  86   2.0000      -0.202766        -5.5176
  87   0.0000      -0.040698        -1.1074
  88   0.0000      -0.034386        -0.9357
  89   0.0000      -0.013799        -0.3755
  90   0.0000       0.000731         0.0199
  91   0.0000       0.012476         0.3395

MULLIKEN ATOMIC CHARGES
-----------------------
   0 C :   -0.334089
   1 C :   -0.012399
   2 O :   -0.218226
   3 C :    0.094822
   4 O :   -0.199729
   5 C :   -0.048885
   6 C :   -0.306443
   7 H :    0.152438
   8 C :    0.198036
   9 O :   -0.191245
  10 O :   -0.235979
  11 C :   -0.018301
  12 C :   -0.301568
  13 S :   -0.110734
  14 P :    0.612523
  15 S :   -0.298781
  16 O :   -0.389004
  17 C :   -0.100249
  18 O :   -0.358488
  19 C :   -0.119978
  20 H :    0.120093
  21 H :    0.112705
  22 H :    0.148647
  23 H :    0.105689
  24 H :    0.111498
  25 H :    0.115836
  26 H :    0.140294
  27 H :    0.113699
  28 H :    0.110141
  29 H :    0.117261
  30 H :    0.107713
  31 H :    0.131819
  32 H :    0.113931
  33 H :    0.119728
  34 H :    0.126282
  35 H :    0.129216
  36 H :    0.133001
  37 H :    0.128727
Sum of atomic charges:    0.0000000

LOEWDIN ATOMIC CHARGES
----------------------
   0 C :   -0.360879
   1 C :   -0.109071
   2 O :   -0.050882
   3 C :    0.025917
   4 O :   -0.161259
   5 C :   -0.238513
   6 C :   -0.257384
   7 H :    0.142860
   8 C :   -0.000619
   9 O :   -0.150222
  10 O :   -0.063022
  11 C :   -0.102516
  12 C :   -0.355818
  13 S :    0.085837
  14 P :    0.573809
  15 S :   -0.291090
  16 O :   -0.260572
  17 C :   -0.216413
  18 O :   -0.233595
  19 C :   -0.211188
  20 H :    0.124039
  21 H :    0.129815
  22 H :    0.129665
  23 H :    0.119277
  24 H :    0.121433
  25 H :    0.134195
  26 H :    0.155489
  27 H :    0.121671
  28 H :    0.119687
  29 H :    0.122560
  30 H :    0.130149
  31 H :    0.127370
  32 H :    0.108401
  33 H :    0.112775
  34 H :    0.123046
  35 H :    0.117992
  36 H :    0.125043
  37 H :    0.112014

  Mayer bond orders larger than 0.100000
B(  0-C ,  1-C ) :   1.1734 B(  0-C , 20-H ) :   0.9439 B(  0-C , 21-H ) :   0.9413
B(  0-C , 22-H ) :   0.9335 B(  1-C ,  2-O ) :   0.9117 B(  1-C , 23-H ) :   0.9372
B(  1-C , 24-H ) :   0.9135 B(  2-O ,  3-C ) :   1.2458 B(  3-C ,  4-O ) :   2.0014
B(  3-C ,  5-C ) :   0.9931 B(  5-C ,  6-C ) :   1.0672 B(  5-C , 25-H ) :   0.9039
B(  5-C , 26-H ) :   0.8809 B(  6-C ,  7-H ) :   0.8704 B(  6-C ,  8-C ) :   0.8934
B(  6-C , 13-S ) :   1.0106 B(  8-C ,  9-O ) :   2.0600 B(  8-C , 10-O ) :   1.2140
B( 10-O , 11-C ) :   0.8936 B( 11-C , 12-C ) :   1.1570 B( 11-C , 27-H ) :   0.9277
B( 11-C , 28-H ) :   0.9283 B( 12-C , 29-H ) :   0.9468 B( 12-C , 30-H ) :   0.9405
B( 12-C , 31-H ) :   0.9373 B( 13-S , 14-P ) :   0.9536 B( 13-S , 15-S ) :   0.1123
B( 14-P , 15-S ) :   1.6434 B( 14-P , 16-O ) :   1.0691 B( 14-P , 18-O ) :   1.1220
B( 16-O , 17-C ) :   0.9315 B( 17-C , 32-H ) :   0.9458 B( 17-C , 33-H ) :   0.9360
B( 17-C , 34-H ) :   0.9585 B( 18-O , 19-C ) :   0.9147 B( 19-C , 35-H ) :   0.9465
B( 19-C , 36-H ) :   0.9550 B( 19-C , 37-H ) :   0.9355

Dispersion correction           -0.055243635
FINAL SINGLE POINT ENERGY     -1979.020393185285

DIPOLE MOMENT
-------------

Method             : SCF
Type of density    : Electron Density
Multiplicity       :   1
Irrep              :   0
Energy             : -1979.1489942098496613 Eh
Relativity type    :
Basis              : AO
                                X                 Y                 Z
Electronic contribution:     -9.565747451      10.775053142      -8.365244330
Nuclear contribution   :      9.492951364     -13.082960651       8.632251116
                        -----------------------------------------
Total Dipole Moment    :     -0.072796087      -2.307907509       0.267006785
                        -----------------------------------------
Magnitude (a.u.)       :      2.324441646
Magnitude (Debye)      :      5.908261126

Rotational constants in cm-1:             0.013336             0.007902             0.007429
Rotational constants in MHz :           399.803008           236.906772           222.703751

                             ****ORCA TERMINATED NORMALLY****
TOTAL RUN TIME: 0 days 0 hours 0 minutes 28 seconds 212 msec
