                         Program Version 6.0.0  -   RELEASE  -
|  1> ! pbe def2-sv(p) def2/J RI DEFGRID1 loosescf d4 GCP(DFT/SV(P)) printgap
|  2> %output
|  3>     printlevel normal
|  4> end
|  5> * xyz 0 1
|  6> C 3.215161722 2.2635121272 -1.2591583466
|  7> C 3.7787903208 1.265964483 -0.2668778423
|  8> O 3.1837786649 -0.0365128662 -0.455013808
|  9> P 2.1766760446 -0.7078506989 0.5603017118
| 10> S 1.6289645147 0.4354325472 2.0598063897
| 11> O 3.0086351211 -2.0049333778 0.9449545936
| 12> C 2.4371895298 -3.1699053964 1.5672187294
| 13> C 2.2870471031 -2.9958723611 3.0662368372
| 14> S 0.6736652448 -1.5309499519 -0.7181459062
| 15> C 0.3640244125 -0.0642358097 -1.7365576786
| 16> S -0.3603470366 1.3153871557 -0.8216323737
| 17> P -2.3191284214 0.487284568 -0.6841208097
| 18> S -2.940575713 -0.4429719499 -2.2884190969
| 19> O -3.1762928892 1.6971822568 -0.1146587309
| 20> C -3.183144978 3.0370733072 -0.6442353836
| 21> C -3.4765967482 3.0796376391 -2.1289732738
| 22> O -2.3404789876 -0.5150814495 0.5292835763
| 23> C -2.0019388404 -0.1590708099 1.8930619688
| 24> C -1.6627317119 -1.4390234097 2.6267073067
| 25> H 3.7362304044 3.2079658554 -1.1402615989
| 26> H 3.3553402424 1.9075010296 -2.2763756086
| 27> H 2.1533947086 2.4232686825 -1.0756247454
| 28> H 3.5966864169 1.5956668195 0.761125629
| 29> H 4.8482011662 1.1126904381 -0.4195391999
| 30> H 1.4743850212 -3.3887550092 1.0936776327
| 31> H 3.1433647015 -3.9681437953 1.3304374671
| 32> H 1.6020941721 -2.1811428163 3.2897600139
| 33> H 1.8988800357 -3.9138680988 3.4955871705
| 34> H 3.2510241976 -2.7683431544 3.5130527263
| 35> H -0.3393708529 -0.3823191599 -2.5090834444
| 36> H 1.2989156027 0.2827168463 -2.1685764627
| 37> H -3.9640442246 3.5354090059 -0.067152232
| 38> H -2.2130142866 3.4926897062 -0.4264922808
| 39> H -4.4112440568 2.5676729054 -2.3457492662
| 40> H -3.5482919283 4.1130319966 -2.452378353
| 41> H -2.6795571709 2.5873010676 -2.6846167215
| 42> H -1.1495394345 0.5278947948 1.8859474454
| 43> H -2.8650888927 0.3437837085 2.3319225891
| 44> H -2.5096904166 -2.1183200982 2.6085735574
| 45> H -0.8153119012 -1.9259887153 2.1488477907
| 46> H -1.4038453923 -1.200454873 3.6532927895
| 47> *
| 48>
| 49>                          ****END OF INPUT****

CARTESIAN COORDINATES (ANGSTROEM)
---------------------------------
  C      3.215162    2.263512   -1.259158
  C      3.778790    1.265964   -0.266878
  O      3.183779   -0.036513   -0.455014
  P      2.176676   -0.707851    0.560302
  S      1.628965    0.435433    2.059806
  O      3.008635   -2.004933    0.944955
  C      2.437190   -3.169905    1.567219
  C      2.287047   -2.995872    3.066237
  S      0.673665   -1.530950   -0.718146
  C      0.364024   -0.064236   -1.736558
  S     -0.360347    1.315387   -0.821632
  P     -2.319128    0.487285   -0.684121
  S     -2.940576   -0.442972   -2.288419
  O     -3.176293    1.697182   -0.114659
  C     -3.183145    3.037073   -0.644235
  C     -3.476597    3.079638   -2.128973
  O     -2.340479   -0.515081    0.529284
  C     -2.001939   -0.159071    1.893062
  C     -1.662732   -1.439023    2.626707
  H      3.736230    3.207966   -1.140262
  H      3.355340    1.907501   -2.276376
  H      2.153395    2.423269   -1.075625
  H      3.596686    1.595667    0.761126
  H      4.848201    1.112690   -0.419539
  H      1.474385   -3.388755    1.093678
  H      3.143365   -3.968144    1.330437
  H      1.602094   -2.181143    3.289760
  H      1.898880   -3.913868    3.495587
  H      3.251024   -2.768343    3.513053
  H     -0.339371   -0.382319   -2.509083
  H      1.298916    0.282717   -2.168576
  H     -3.964044    3.535409   -0.067152
  H     -2.213014    3.492690   -0.426492
  H     -4.411244    2.567673   -2.345749
  H     -3.548292    4.113032   -2.452378
  H     -2.679557    2.587301   -2.684617
  H     -1.149539    0.527895    1.885947
  H     -2.865089    0.343784    2.331923
  H     -2.509690   -2.118320    2.608574
  H     -0.815312   -1.925989    2.148848
  H     -1.403845   -1.200455    3.653293

 Total Charge           Charge          ....    0
 Multiplicity           Mult            ....    1
 Number of Electrons    NEL             ....  202
 Basis Dimension        Dim             ....  334

ORBITAL ENERGIES
----------------

  NO   OCC          E(Eh)            E(eV)
   0   2.0000     -88.044500     -2395.8126
   1   2.0000     -88.043384     -2395.7823
   2   2.0000     -87.990963     -2394.3558
   3   2.0000     -87.980118     -2394.0607
   4   2.0000     -76.431995     -2079.8203
   5   2.0000     -76.423992     -2079.6025
   6   2.0000     -18.799682      -511.5653
   7   2.0000     -18.795153      -511.4421
   8   2.0000     -18.792653      -511.3741
   9   2.0000     -18.784463      -511.1512
  10   2.0000      -9.960872      -271.0491
  11   2.0000      -9.959672      -271.0165
  12   2.0000      -9.958485      -270.9841
  13   2.0000      -9.957570      -270.9593
  14   2.0000      -9.942454      -270.5479
  15   2.0000      -9.893255      -269.2091
  16   2.0000      -9.884527      -268.9716
  17   2.0000      -9.883663      -268.9481
  18   2.0000      -9.878308      -268.8024
  19   2.0000      -7.689002      -209.2284
  20   2.0000      -7.688412      -209.2123
  21   2.0000      -7.635794      -207.7805
  22   2.0000      -7.625495      -207.5003
  23   2.0000      -6.429322      -174.9508
  24   2.0000      -6.421302      -174.7325
  25   2.0000      -5.716641      -155.5577
  26   2.0000      -5.716331      -155.5493
  27   2.0000      -5.713546      -155.4735
  28   2.0000      -5.713084      -155.4609
  29   2.0000      -5.706259      -155.2752
  30   2.0000      -5.705199      -155.2464
  31   2.0000      -5.664524      -154.1395
  32   2.0000      -5.656485      -153.9208
  33   2.0000      -5.656052      -153.9090
  34   2.0000      -5.654525      -153.8674
  35   2.0000      -5.646138      -153.6392
  36   2.0000      -5.645464      -153.6209
  37   2.0000      -4.651973      -126.5866
  38   2.0000      -4.651335      -126.5693
  39   2.0000      -4.649496      -126.5192
  40   2.0000      -4.644146      -126.3736
  41   2.0000      -4.643340      -126.3517
  42   2.0000      -4.641293      -126.2960
  43   2.0000      -0.992144       -26.9976
  44   2.0000      -0.985942       -26.8289
  45   2.0000      -0.951006       -25.8782
  46   2.0000      -0.941117       -25.6091
  47   2.0000      -0.765739       -20.8368
  48   2.0000      -0.724753       -19.7215
  49   2.0000      -0.712490       -19.3878
  50   2.0000      -0.691023       -18.8037
  51   2.0000      -0.687926       -18.7194
  52   2.0000      -0.674726       -18.3602
  53   2.0000      -0.654705       -17.8154
  54   2.0000      -0.638331       -17.3699
  55   2.0000      -0.599413       -16.3109
  56   2.0000      -0.589287       -16.0353
  57   2.0000      -0.576912       -15.6986
  58   2.0000      -0.570249       -15.5173
  59   2.0000      -0.562660       -15.3107
  60   2.0000      -0.509604       -13.8670
  61   2.0000      -0.501180       -13.6378
  62   2.0000      -0.481674       -13.1070
  63   2.0000      -0.472014       -12.8441
  64   2.0000      -0.464742       -12.6463
  65   2.0000      -0.445830       -12.1317
  66   2.0000      -0.441511       -12.0141
  67   2.0000      -0.434512       -11.8237
  68   2.0000      -0.427050       -11.6206
  69   2.0000      -0.417451       -11.3594
  70   2.0000      -0.411232       -11.1902
  71   2.0000      -0.409107       -11.1324
  72   2.0000      -0.396001       -10.7757
  73   2.0000      -0.389917       -10.6102
  74   2.0000      -0.380433       -10.3521
  75   2.0000      -0.378170       -10.2905
  76   2.0000      -0.365838        -9.9549
  77   2.0000      -0.355548        -9.6749
  78   2.0000      -0.350896        -9.5484
  79   2.0000      -0.348736        -9.4896
  80   2.0000      -0.346582        -9.4310
  81   2.0000      -0.345528        -9.4023
  82   2.0000      -0.341946        -9.3048
  83   2.0000      -0.340040        -9.2530
  84   2.0000      -0.333375        -9.0716
  85   2.0000      -0.323580        -8.8051
  86   2.0000      -0.314686        -8.5630
  87   2.0000      -0.302334        -8.2269
  88   2.0000      -0.296893        -8.0789
  89   2.0000      -0.293333        -7.9820
  90   2.0000      -0.289554        -7.8792
  91   2.0000      -0.281689        -7.6651
  92   2.0000      -0.271640        -7.3917
  93   2.0000      -0.266397        -7.2490
  94   2.0000      -0.257766        -7.0142
  95   2.0000      -0.243208        -6.6180
  96   2.0000      -0.220750        -6.0069
  97   2.0000      -0.207916        -5.6577
  98   2.0000      -0.202433        -5.5085
  99   2.0000      -0.198793        -5.4094
 100   2.0000      -0.191166        -5.2019
 101   0.0000      -0.049882        -1.3574
 102   0.0000      -0.027330        -0.7437
 103   0.0000      -0.023449        -0.6381
 104   0.0000      -0.005628        -0.1532
 105   0.0000       0.013465         0.3664

MULLIKEN ATOMIC CHARGES
-----------------------
   0 C :   -0.318698
   1 C :   -0.008984
   2 O :   -0.367129
   3 P :    0.606495
   4 S :   -0.320768
   5 O :   -0.360678
   6 C :   -0.030999
   7 C :   -0.302705
   8 S :   -0.090914
   9 C :   -0.368973
  10 S :   -0.117556
  11 P :    0.615528
  12 S :   -0.314069
  13 O :   -0.383073
  14 C :   -0.012047
  15 C :   -0.308538
  16 O :   -0.351344
  17 C :   -0.022452
  18 C :   -0.282524
  19 H :    0.116713
  20 H :    0.123572
  21 H :    0.132797
  22 H :    0.117367
  23 H :    0.109382
  24 H :    0.121995
  25 H :    0.112979
  26 H :    0.136994
  27 H :    0.109258
  28 H :    0.117311
  29 H :    0.196121
  30 H :    0.194744
  31 H :    0.110338
  32 H :    0.113692
  33 H :    0.128294
  34 H :    0.110936
  35 H :    0.124382
  36 H :    0.122613
  37 H :    0.101049
  38 H :    0.113686
  39 H :    0.115913
  40 H :    0.109292
Sum of atomic charges:    0.0000000

LOEWDIN ATOMIC CHARGES
----------------------
   0 C :   -0.362317
   1 C :   -0.118185
   2 O :   -0.237469
   3 P :    0.567341
   4 S :   -0.302705
   5 O :   -0.242441
   6 C :   -0.115243
   7 C :   -0.365872
   8 S :    0.081219
   9 C :   -0.482060
  10 S :    0.071184
  11 P :    0.570401
  12 S :   -0.311229
  13 O :   -0.245402
  14 C :   -0.113869
  15 C :   -0.369347
  16 O :   -0.231426
  17 C :   -0.119967
  18 C :   -0.351725
  19 H :    0.134430
  20 H :    0.125645
  21 H :    0.118343
  22 H :    0.108846
  23 H :    0.120073
  24 H :    0.106319
  25 H :    0.122612
  26 H :    0.123142
  27 H :    0.129458
  28 H :    0.128704
  29 H :    0.130184
  30 H :    0.131622
  31 H :    0.121915
  32 H :    0.108524
  33 H :    0.131275
  34 H :    0.129914
  35 H :    0.120827
  36 H :    0.102261
  37 H :    0.111900
  38 H :    0.125912
  39 H :    0.118004
  40 H :    0.129203

  Mayer bond orders larger than 0.100000
B(  0-C ,  1-C ) :   1.1691 B(  0-C , 19-H ) :   0.9366 B(  0-C , 20-H ) :   0.9411
B(  0-C , 21-H ) :   0.9316 B(  1-C ,  2-O ) :   0.9014 B(  1-C , 22-H ) :   0.8995
B(  1-C , 23-H ) :   0.9315 B(  2-O ,  3-P ) :   1.1198 B(  3-P ,  4-S ) :   1.6236
B(  3-P ,  5-O ) :   1.1206 B(  3-P ,  8-S ) :   0.9535 B(  4-S ,  8-S ) :   0.1094
B(  5-O ,  6-C ) :   0.9145 B(  6-C ,  7-C ) :   1.1616 B(  6-C , 24-H ) :   0.9178
B(  6-C , 25-H ) :   0.9346 B(  7-C , 26-H ) :   0.9290 B(  7-C , 27-H ) :   0.9383
B(  7-C , 28-H ) :   0.9453 B(  8-S ,  9-C ) :   1.0061 B(  9-C , 10-S ) :   1.0158
B(  9-C , 29-H ) :   0.8627 B(  9-C , 30-H ) :   0.8898 B( 10-S , 11-P ) :   0.9315
B( 10-S , 12-S ) :   0.1055 B( 11-P , 12-S ) :   1.6385 B( 11-P , 13-O ) :   1.0901
B( 11-P , 16-O ) :   1.1539 B( 12-S , 29-H ) :   0.1038 B( 13-O , 14-C ) :   0.9134
B( 14-C , 15-C ) :   1.1660 B( 14-C , 31-H ) :   0.9334 B( 14-C , 32-H ) :   0.9270
B( 15-C , 33-H ) :   0.9429 B( 15-C , 34-H ) :   0.9349 B( 15-C , 35-H ) :   0.9316
B( 16-O , 17-C ) :   0.8804 B( 17-C , 18-C ) :   1.1697 B( 17-C , 36-H ) :   0.9005
B( 17-C , 37-H ) :   0.9304 B( 18-C , 38-H ) :   0.9470 B( 18-C , 39-H ) :   0.9382
B( 18-C , 40-H ) :   0.9396

Dispersion correction           -0.066347503
FINAL SINGLE POINT ENERGY     -2929.516657386178

DIPOLE MOMENT
-------------

Method             : SCF
Type of density    : Electron Density
Multiplicity       :   1
Irrep              :   0
Energy             : -2929.6351797271981923 Eh
Relativity type    :
Basis              : AO
                                X                 Y                 Z
Electronic contribution:     -3.433616777      -4.898660898      -7.728947509
Nuclear contribution   :      4.349980243       5.679354467       8.193187845
                        -----------------------------------------
Total Dipole Moment    :      0.916363466       0.780693568       0.464240336
                        -----------------------------------------
Magnitude (a.u.)       :      1.290241659
Magnitude (Debye)      :      3.279533669

Rotational constants in cm-1:             0.011689             0.005403             0.004699
Rotational constants in MHz :           350.421311           161.978333           140.860267

                             ****ORCA TERMINATED NORMALLY****
TOTAL RUN TIME: 0 days 0 hours 0 minutes 21 seconds 390 msec
