                         Program Version 6.0.0  -   RELEASE  -
|  1> ! pbe def2-sv(p) def2/J RI DEFGRID1 loosescf d4 GCP(DFT/SV(P)) printgap
|  2> %output
|  3>     printlevel normal
|  4> end
|  5> * xyz 0 1
|  6> C 4.1433891181 0.6681140291 -2.3949114122
|  7> C 2.8126426791 -0.0390959974 -2.2435435861
|  8> O 2.0227915586 0.5640605111 -1.1882926201
|  9> P 2.0002170849 0.0798373263 0.3096280797
| 10> S 0.8763750747 1.2284358041 1.4252610887
| 11> O 3.5371869904 0.0774393264 0.7200013344
| 12> C 3.9707236597 0.0662342773 2.0911114301
| 13> C 3.6067274499 -1.2237301006 2.7968553319
| 14> S 1.5745643977 -2.0053908783 0.2051972467
| 15> C -0.075812776 -1.9697092446 -0.5371000359
| 16> S -1.4125408225 -1.6022465308 0.6522016435
| 17> P -2.1390740449 0.2120242479 -0.1342123198
| 18> S -1.1736892347 0.9405052074 -1.6872385844
| 19> O -2.2455669263 1.0119445234 1.221760574
| 20> C -3.0415569492 2.1972505507 1.4246119529
| 21> C -2.489153327 3.3884535655 0.6685072074
| 22> O -3.688920198 -0.0167393933 -0.4455501433
| 23> C -4.1692234048 -0.4638379129 -1.7226718124
| 24> C -3.7981641184 -1.9076038362 -1.994499096
| 25> H 3.9832522247 1.7304253234 -2.5585387648
| 26> H 4.7441769798 0.5370202002 -1.4990834011
| 27> H 4.670476549 0.249299529 -3.2464697075
| 28> H 2.953054302 -1.1003256484 -2.0199800653
| 29> H 2.1940657831 0.0780768322 -3.1359810584
| 30> H 5.0514861437 0.1981635115 2.0234092051
| 31> H 3.5214677315 0.9242463557 2.600994076
| 32> H 2.5256025686 -1.2923639489 2.9114230899
| 33> H 3.9536760466 -2.0803454094 2.2243788716
| 34> H 4.0643504383 -1.2358050195 3.7808358778
| 35> H -0.2415384645 -2.9719380697 -0.9228140982
| 36> H -0.1061677251 -1.2178871938 -1.3322946395
| 37> H -4.0710532891 1.9809193811 1.1285475149
| 38> H -2.9861844382 2.3531276909 2.5033740794
| 39> H -3.0417881297 4.2812289755 0.942925815
| 40> H -1.4372765871 3.5242622796 0.9134251079
| 41> H -2.5756603778 3.230918184 -0.4058084637
| 42> H -5.249867972 -0.3299832684 -1.6579860922
| 43> H -3.7564792138 0.1919805052 -2.4962580502
| 44> H -4.1003092587 -2.5378704243 -1.1620508896
| 45> H -4.2940079692 -2.2411770858 -2.9002680011
| 46> H -2.7207836952 -1.9925026166 -2.1292333647
| 47> *
| 48>
| 49>                          ****END OF INPUT****

CARTESIAN COORDINATES (ANGSTROEM)
---------------------------------
  C      4.143389    0.668114   -2.394911
  C      2.812643   -0.039096   -2.243544
  O      2.022792    0.564061   -1.188293
  P      2.000217    0.079837    0.309628
  S      0.876375    1.228436    1.425261
  O      3.537187    0.077439    0.720001
  C      3.970724    0.066234    2.091111
  C      3.606727   -1.223730    2.796855
  S      1.574564   -2.005391    0.205197
  C     -0.075813   -1.969709   -0.537100
  S     -1.412541   -1.602247    0.652202
  P     -2.139074    0.212024   -0.134212
  S     -1.173689    0.940505   -1.687239
  O     -2.245567    1.011945    1.221761
  C     -3.041557    2.197251    1.424612
  C     -2.489153    3.388454    0.668507
  O     -3.688920   -0.016739   -0.445550
  C     -4.169223   -0.463838   -1.722672
  C     -3.798164   -1.907604   -1.994499
  H      3.983252    1.730425   -2.558539
  H      4.744177    0.537020   -1.499083
  H      4.670477    0.249300   -3.246470
  H      2.953054   -1.100326   -2.019980
  H      2.194066    0.078077   -3.135981
  H      5.051486    0.198164    2.023409
  H      3.521468    0.924246    2.600994
  H      2.525603   -1.292364    2.911423
  H      3.953676   -2.080345    2.224379
  H      4.064350   -1.235805    3.780836
  H     -0.241538   -2.971938   -0.922814
  H     -0.106168   -1.217887   -1.332295
  H     -4.071053    1.980919    1.128548
  H     -2.986184    2.353128    2.503374
  H     -3.041788    4.281229    0.942926
  H     -1.437277    3.524262    0.913425
  H     -2.575660    3.230918   -0.405808
  H     -5.249868   -0.329983   -1.657986
  H     -3.756479    0.191981   -2.496258
  H     -4.100309   -2.537870   -1.162051
  H     -4.294008   -2.241177   -2.900268
  H     -2.720784   -1.992503   -2.129233

 Total Charge           Charge          ....    0
 Multiplicity           Mult            ....    1
 Number of Electrons    NEL             ....  202
 Basis Dimension        Dim             ....  334

ORBITAL ENERGIES
----------------

  NO   OCC          E(Eh)            E(eV)
   0   2.0000     -88.040047     -2395.6915
   1   2.0000     -88.036304     -2395.5896
   2   2.0000     -87.983010     -2394.1394
   3   2.0000     -87.973987     -2393.8939
   4   2.0000     -76.421185     -2079.5262
   5   2.0000     -76.418874     -2079.4633
   6   2.0000     -18.788327      -511.2564
   7   2.0000     -18.784982      -511.1653
   8   2.0000     -18.783963      -511.1376
   9   2.0000     -18.782744      -511.1045
  10   2.0000      -9.953861      -270.8583
  11   2.0000      -9.950506      -270.7670
  12   2.0000      -9.949546      -270.7409
  13   2.0000      -9.948095      -270.7014
  14   2.0000      -9.947814      -270.6938
  15   2.0000      -9.883849      -268.9532
  16   2.0000      -9.881983      -268.9024
  17   2.0000      -9.881799      -268.8974
  18   2.0000      -9.873673      -268.6763
  19   2.0000      -7.684967      -209.1186
  20   2.0000      -7.681718      -209.0302
  21   2.0000      -7.627788      -207.5627
  22   2.0000      -7.619016      -207.3240
  23   2.0000      -6.418320      -174.6514
  24   2.0000      -6.416370      -174.5983
  25   2.0000      -5.712682      -155.4500
  26   2.0000      -5.709587      -155.3658
  27   2.0000      -5.709351      -155.3593
  28   2.0000      -5.706314      -155.2767
  29   2.0000      -5.702238      -155.1658
  30   2.0000      -5.698543      -155.0652
  31   2.0000      -5.656538      -153.9222
  32   2.0000      -5.648919      -153.7149
  33   2.0000      -5.648083      -153.6921
  34   2.0000      -5.647604      -153.6791
  35   2.0000      -5.639443      -153.4570
  36   2.0000      -5.639208      -153.4506
  37   2.0000      -4.640979      -126.2875
  38   2.0000      -4.639801      -126.2554
  39   2.0000      -4.639396      -126.2444
  40   2.0000      -4.639019      -126.2341
  41   2.0000      -4.638211      -126.2121
  42   2.0000      -4.636343      -126.1613
  43   2.0000      -0.982494       -26.7350
  44   2.0000      -0.981023       -26.6950
  45   2.0000      -0.940779       -25.5999
  46   2.0000      -0.936430       -25.4816
  47   2.0000      -0.757612       -20.6157
  48   2.0000      -0.716013       -19.4837
  49   2.0000      -0.705769       -19.2050
  50   2.0000      -0.686745       -18.6873
  51   2.0000      -0.683579       -18.6011
  52   2.0000      -0.670934       -18.2570
  53   2.0000      -0.647156       -17.6100
  54   2.0000      -0.630776       -17.1643
  55   2.0000      -0.594996       -16.1907
  56   2.0000      -0.585823       -15.9411
  57   2.0000      -0.573555       -15.6072
  58   2.0000      -0.570639       -15.5279
  59   2.0000      -0.555490       -15.1157
  60   2.0000      -0.496191       -13.5020
  61   2.0000      -0.491424       -13.3723
  62   2.0000      -0.470893       -12.8136
  63   2.0000      -0.463270       -12.6062
  64   2.0000      -0.450358       -12.2549
  65   2.0000      -0.446461       -12.1488
  66   2.0000      -0.437926       -11.9166
  67   2.0000      -0.428265       -11.6537
  68   2.0000      -0.424965       -11.5639
  69   2.0000      -0.415389       -11.3033
  70   2.0000      -0.407663       -11.0931
  71   2.0000      -0.403419       -10.9776
  72   2.0000      -0.388633       -10.5752
  73   2.0000      -0.382594       -10.4109
  74   2.0000      -0.377347       -10.2681
  75   2.0000      -0.366431        -9.9711
  76   2.0000      -0.359840        -9.7918
  77   2.0000      -0.354456        -9.6453
  78   2.0000      -0.349827        -9.5193
  79   2.0000      -0.349024        -9.4974
  80   2.0000      -0.343406        -9.3445
  81   2.0000      -0.341056        -9.2806
  82   2.0000      -0.337823        -9.1926
  83   2.0000      -0.331699        -9.0260
  84   2.0000      -0.328831        -8.9479
  85   2.0000      -0.312887        -8.5141
  86   2.0000      -0.307849        -8.3770
  87   2.0000      -0.292625        -7.9627
  88   2.0000      -0.290316        -7.8999
  89   2.0000      -0.287064        -7.8114
  90   2.0000      -0.281788        -7.6679
  91   2.0000      -0.269011        -7.3202
  92   2.0000      -0.265779        -7.2322
  93   2.0000      -0.257437        -7.0052
  94   2.0000      -0.255759        -6.9596
  95   2.0000      -0.235617        -6.4115
  96   2.0000      -0.216376        -5.8879
  97   2.0000      -0.203453        -5.5362
  98   2.0000      -0.200571        -5.4578
  99   2.0000      -0.185952        -5.0600
 100   2.0000      -0.182738        -4.9726
 101   0.0000      -0.033389        -0.9086
 102   0.0000      -0.027110        -0.7377
 103   0.0000      -0.011430        -0.3110
 104   0.0000       0.007290         0.1984
 105   0.0000       0.019254         0.5239

MULLIKEN ATOMIC CHARGES
-----------------------
   0 C :   -0.288087
   1 C :   -0.015586
   2 O :   -0.345828
   3 P :    0.598679
   4 S :   -0.296975
   5 O :   -0.382857
   6 C :    0.001635
   7 C :   -0.327790
   8 S :   -0.102076
   9 C :   -0.370244
  10 S :   -0.067961
  11 P :    0.630519
  12 S :   -0.315424
  13 O :   -0.357703
  14 C :   -0.001039
  15 C :   -0.316229
  16 O :   -0.380968
  17 C :    0.000014
  18 C :   -0.314210
  19 H :    0.120838
  20 H :    0.121841
  21 H :    0.106726
  22 H :    0.097951
  23 H :    0.108822
  24 H :    0.102407
  25 H :    0.112409
  26 H :    0.135906
  27 H :    0.117855
  28 H :    0.114512
  29 H :    0.181969
  30 H :    0.197531
  31 H :    0.105016
  32 H :    0.107485
  33 H :    0.105496
  34 H :    0.133746
  35 H :    0.125423
  36 H :    0.101032
  37 H :    0.107117
  38 H :    0.119454
  39 H :    0.110841
  40 H :    0.117754
Sum of atomic charges:   -0.0000000

LOEWDIN ATOMIC CHARGES
----------------------
   0 C :   -0.359691
   1 C :   -0.117167
   2 O :   -0.227358
   3 P :    0.564335
   4 S :   -0.301253
   5 O :   -0.249360
   6 C :   -0.118815
   7 C :   -0.373576
   8 S :    0.075458
   9 C :   -0.487400
  10 S :    0.091299
  11 P :    0.570398
  12 S :   -0.296633
  13 O :   -0.228665
  14 C :   -0.108967
  15 C :   -0.367309
  16 O :   -0.251867
  17 C :   -0.122147
  18 C :   -0.367669
  19 H :    0.129211
  20 H :    0.125892
  21 H :    0.128256
  22 H :    0.100995
  23 H :    0.119774
  24 H :    0.117100
  25 H :    0.112279
  26 H :    0.124631
  27 H :    0.122538
  28 H :    0.132041
  29 H :    0.135216
  30 H :    0.119706
  31 H :    0.110308
  32 H :    0.121044
  33 H :    0.126944
  34 H :    0.132359
  35 H :    0.121381
  36 H :    0.116605
  37 H :    0.106857
  38 H :    0.125744
  39 H :    0.129588
  40 H :    0.117917

  Mayer bond orders larger than 0.100000
B(  0-C ,  1-C ) :   1.1676 B(  0-C , 19-H ) :   0.9475 B(  0-C , 20-H ) :   0.9414
B(  0-C , 21-H ) :   0.9396 B(  1-C ,  2-O ) :   0.8980 B(  1-C , 22-H ) :   0.9072
B(  1-C , 23-H ) :   0.9328 B(  2-O ,  3-P ) :   1.1352 B(  3-P ,  4-S ) :   1.6693
B(  3-P ,  5-O ) :   1.0720 B(  3-P ,  8-S ) :   0.9464 B(  4-S ,  8-S ) :   0.1110
B(  5-O ,  6-C ) :   0.9076 B(  6-C ,  7-C ) :   1.1654 B(  6-C , 24-H ) :   0.9334
B(  6-C , 25-H ) :   0.9155 B(  7-C , 26-H ) :   0.9326 B(  7-C , 27-H ) :   0.9426
B(  7-C , 28-H ) :   0.9374 B(  8-S ,  9-C ) :   0.9937 B(  9-C , 10-S ) :   1.0036
B(  9-C , 29-H ) :   0.9094 B(  9-C , 30-H ) :   0.8443 B( 10-S , 11-P ) :   0.9662
B( 10-S , 12-S ) :   0.1226 B( 11-P , 12-S ) :   1.5879 B( 11-P , 13-O ) :   1.1421
B( 11-P , 16-O ) :   1.0696 B( 12-S , 30-H ) :   0.1156 B( 13-O , 14-C ) :   0.9072
B( 14-C , 15-C ) :   1.1647 B( 14-C , 31-H ) :   0.9274 B( 14-C , 32-H ) :   0.9349
B( 15-C , 33-H ) :   0.9373 B( 15-C , 34-H ) :   0.9418 B( 15-C , 35-H ) :   0.9366
B( 16-O , 17-C ) :   0.9229 B( 17-C , 18-C ) :   1.1635 B( 17-C , 36-H ) :   0.9332
B( 17-C , 37-H ) :   0.9108 B( 18-C , 38-H ) :   0.9438 B( 18-C , 39-H ) :   0.9385
B( 18-C , 40-H ) :   0.9385

Dispersion correction           -0.067246475
FINAL SINGLE POINT ENERGY     -2929.515331321244

DIPOLE MOMENT
-------------

Method             : SCF
Type of density    : Electron Density
Multiplicity       :   1
Irrep              :   0
Energy             : -2929.6330410869354637 Eh
Relativity type    :
Basis              : AO
                                X                 Y                 Z
Electronic contribution:     -2.957896958      -2.547800935       5.727780467
Nuclear contribution   :      3.012469543       1.943640908      -6.208847118
                        -----------------------------------------
Total Dipole Moment    :      0.054572585      -0.604160027      -0.481066651
                        -----------------------------------------
Magnitude (a.u.)       :      0.774217429
Magnitude (Debye)      :      1.967904313

Rotational constants in cm-1:             0.012056             0.005266             0.005006
Rotational constants in MHz :           361.434433           157.864420           150.076227

                             ****ORCA TERMINATED NORMALLY****
TOTAL RUN TIME: 0 days 0 hours 0 minutes 21 seconds 462 msec
