                         Program Version 6.0.0  -   RELEASE  -
|  1> ! wb97x-v def2-tzvp def2/J RIJCOSX DEFGRID2 scfconv7 GCP(DFT/TZ) printgap
|  2> %output
|  3>     printlevel normal
|  4> end
|  5> * xyz 0 1
|  6> C -2.5843737054250973 0.6045140734396612 -0.0010888556824611244
|  7> C -1.232290699029481 -0.05629884914352592 0.00020076869645228746
|  8> C -1.151223855239371 -1.4545717339357236 -1.2951443963378801e-05
|  9> C 0.08065710471998841 -2.10000970304012 0.0004777082947145538
| 10> C 1.2561086980772984 -1.3580718241039433 0.0002878178902025969
| 11> C 1.1753600860705025 0.03230558889589336 5.286446159799858e-05
| 12> C -0.052942544019081814 0.7087226305291074 0.001296650290341071
| 13> C -0.04954048414167369 2.210677983184875 0.0011496539496079921
| 14> O 2.3127512378295916 0.8159153675653772 -0.002150351349138229
| 15> H -2.7260622380464166 1.2352667749142645 0.8833706155388619
| 16> H -2.7186538516439276 1.2470355084418872 -0.8781202262429069
| 17> H -3.3758418644670503 -0.14829156058623466 -0.009169772096616286
| 18> H -2.067449510041998 -2.0373150407864418 -0.000788052716776198
| 19> H 0.1293571497668831 -3.1845511915420617 0.0005011034058496602
| 20> H 2.229020254004284 -1.8422206002859962 -7.733385283256027e-05
| 21> H 0.5059796937791174 2.6020609781306234 0.8605245068264998
| 22> H 0.4433566396417041 2.602759727796155 -0.8958576898477875
| 23> H -1.0587442397103533 2.619878519678504 0.036934585555142445
| 24> H 3.0876802022722702 0.2368402356856065 -0.0013869021538743013
| 25> *
| 26>
| 27>                          ****END OF INPUT****

CARTESIAN COORDINATES (ANGSTROEM)
---------------------------------
  C     -2.584374    0.604514   -0.001089
  C     -1.232291   -0.056299    0.000201
  C     -1.151224   -1.454572   -0.000013
  C      0.080657   -2.100010    0.000478
  C      1.256109   -1.358072    0.000288
  C      1.175360    0.032306    0.000053
  C     -0.052943    0.708723    0.001297
  C     -0.049540    2.210678    0.001150
  O      2.312751    0.815915   -0.002150
  H     -2.726062    1.235267    0.883371
  H     -2.718654    1.247036   -0.878120
  H     -3.375842   -0.148292   -0.009170
  H     -2.067450   -2.037315   -0.000788
  H      0.129357   -3.184551    0.000501
  H      2.229020   -1.842221   -0.000077
  H      0.505980    2.602061    0.860525
  H      0.443357    2.602760   -0.895858
  H     -1.058744    2.619879    0.036935
  H      3.087680    0.236840   -0.001387

 Total Charge           Charge          ....    0
 Multiplicity           Mult            ....    1
 Number of Electrons    NEL             ....   66
 Basis Dimension        Dim             ....  339

ORBITAL ENERGIES
----------------

  NO   OCC          E(Eh)            E(eV)
   0   2.0000     -21.700700      -590.5061
   1   2.0000     -12.107069      -329.4501
   2   2.0000     -12.058171      -328.1195
   3   2.0000     -12.050558      -327.9124
   4   2.0000     -12.049635      -327.8872
   5   2.0000     -12.045687      -327.7798
   6   2.0000     -12.041579      -327.6680
   7   2.0000     -12.037702      -327.5625
   8   2.0000     -12.035674      -327.5074
   9   2.0000      -1.712838       -46.6087
  10   2.0000      -1.384787       -37.6820
  11   2.0000      -1.298928       -35.3456
  12   2.0000      -1.286354       -35.0035
  13   2.0000      -1.208340       -32.8806
  14   2.0000      -1.180175       -32.1142
  15   2.0000      -1.141637       -31.0655
  16   2.0000      -1.087811       -29.6008
  17   2.0000      -1.039981       -28.2993
  18   2.0000      -1.002497       -27.2793
  19   2.0000      -0.945768       -25.7356
  20   2.0000      -0.944489       -25.7008
  21   2.0000      -0.933909       -25.4130
  22   2.0000      -0.887177       -24.1413
  23   2.0000      -0.867687       -23.6110
  24   2.0000      -0.841966       -22.9111
  25   2.0000      -0.837910       -22.8007
  26   2.0000      -0.823311       -22.4034
  27   2.0000      -0.821381       -22.3509
  28   2.0000      -0.806042       -21.9335
  29   2.0000      -0.801404       -21.8073
  30   2.0000      -0.751382       -20.4461
  31   2.0000      -0.630856       -17.1665
  32   2.0000      -0.627836       -17.0843
  33   0.0000      -0.240475        -6.5437
  34   0.0000      -0.238850        -6.4994
  35   0.0000      -0.146998        -4.0000
  36   0.0000      -0.072864        -1.9827
  37   0.0000      -0.067103        -1.8260

MULLIKEN ATOMIC CHARGES
-----------------------
   0 C :   -0.400836
   1 C :    0.139152
   2 C :   -0.216195
   3 C :   -0.124500
   4 C :   -0.229818
   5 C :    0.219120
   6 C :   -0.025176
   7 C :   -0.349594
   8 O :   -0.395879
   9 H :    0.131163
  10 H :    0.131842
  11 H :    0.117271
  12 H :    0.104792
  13 H :    0.114930
  14 H :    0.100396
  15 H :    0.126795
  16 H :    0.125604
  17 H :    0.121031
  18 H :    0.309902
Sum of atomic charges:    0.0000000

LOEWDIN ATOMIC CHARGES
----------------------
   0 C :   -0.253086
   1 C :   -0.138866
   2 C :   -0.138478
   3 C :   -0.143193
   4 C :   -0.154665
   5 C :   -0.229028
   6 C :   -0.127446
   7 C :   -0.247330
   8 O :    0.065434
   9 H :    0.126655
  10 H :    0.126747
  11 H :    0.124535
  12 H :    0.141036
  13 H :    0.141719
  14 H :    0.138017
  15 H :    0.130293
  16 H :    0.130272
  17 H :    0.123180
  18 H :    0.184203

  Mayer bond orders larger than 0.100000
B(  0-C ,  1-C ) :   0.9048 B(  0-C ,  9-H ) :   0.9839 B(  0-C , 10-H ) :   0.9843
B(  0-C , 11-H ) :   0.9885 B(  1-C ,  2-C ) :   1.4189 B(  1-C ,  6-C ) :   1.3884
B(  2-C ,  3-C ) :   1.4490 B(  2-C , 12-H ) :   0.9727 B(  3-C ,  4-C ) :   1.4260
B(  3-C , 13-H ) :   0.9701 B(  4-C ,  5-C ) :   1.3893 B(  4-C , 14-H ) :   0.9672
B(  5-C ,  6-C ) :   1.3653 B(  5-C ,  8-O ) :   1.1748 B(  6-C ,  7-C ) :   0.9526
B(  7-C , 15-H ) :   0.9690 B(  7-C , 16-H ) :   0.9684 B(  7-C , 17-H ) :   0.9960
B(  8-O , 18-H ) :   0.8898

FINAL SINGLE POINT ENERGY      -386.121751587538

DIPOLE MOMENT
-------------

Method             : SCF
Type of density    : Electron Density
Multiplicity       :   1
Irrep              :   0
Energy             :  -386.1330887832381222 Eh
Relativity type    :
Basis              : AO
                                X                 Y                 Z
Electronic contribution:      5.383424036      -3.416230903       0.002814150
Nuclear contribution   :     -5.226163377       3.180361262      -0.003071372
                        -----------------------------------------
Total Dipole Moment    :      0.157260658      -0.235869642      -0.000257222
                        -----------------------------------------
Magnitude (a.u.)       :      0.283488040
Magnitude (Debye)      :      0.720569333

Rotational constants in cm-1:             0.074934             0.058983             0.033412
Rotational constants in MHz :          2246.456193          1768.256159          1001.678825

                             ****ORCA TERMINATED NORMALLY****
TOTAL RUN TIME: 0 days 0 hours 2 minutes 26 seconds 348 msec
