                         Program Version 6.0.0  -   RELEASE  -
|  1> ! wb97x-v def2-tzvp def2/J RIJCOSX DEFGRID2 scfconv7 GCP(DFT/TZ) printgap
|  2> %output
|  3>     printlevel normal
|  4> end
|  5> %cpcm
|  6>     smd true
|  7>     smdsolvent "water"
|  8> end
|  9> * xyz 0 1
| 10> C -2.5843737054250973 0.6045140734396612 -0.0010888556824611244
| 11> C -1.232290699029481 -0.05629884914352592 0.00020076869645228746
| 12> C -1.151223855239371 -1.4545717339357236 -1.2951443963378801e-05
| 13> C 0.08065710471998841 -2.10000970304012 0.0004777082947145538
| 14> C 1.2561086980772984 -1.3580718241039433 0.0002878178902025969
| 15> C 1.1753600860705025 0.03230558889589336 5.286446159799858e-05
| 16> C -0.052942544019081814 0.7087226305291074 0.001296650290341071
| 17> C -0.04954048414167369 2.210677983184875 0.0011496539496079921
| 18> O 2.3127512378295916 0.8159153675653772 -0.002150351349138229
| 19> H -2.7260622380464166 1.2352667749142645 0.8833706155388619
| 20> H -2.7186538516439276 1.2470355084418872 -0.8781202262429069
| 21> H -3.3758418644670503 -0.14829156058623466 -0.009169772096616286
| 22> H -2.067449510041998 -2.0373150407864418 -0.000788052716776198
| 23> H 0.1293571497668831 -3.1845511915420617 0.0005011034058496602
| 24> H 2.229020254004284 -1.8422206002859962 -7.733385283256027e-05
| 25> H 0.5059796937791174 2.6020609781306234 0.8605245068264998
| 26> H 0.4433566396417041 2.602759727796155 -0.8958576898477875
| 27> H -1.0587442397103533 2.619878519678504 0.036934585555142445
| 28> H 3.0876802022722702 0.2368402356856065 -0.0013869021538743013
| 29> *
| 30>
| 31>                          ****END OF INPUT****

CARTESIAN COORDINATES (ANGSTROEM)
---------------------------------
  C     -2.584374    0.604514   -0.001089
  C     -1.232291   -0.056299    0.000201
  C     -1.151224   -1.454572   -0.000013
  C      0.080657   -2.100010    0.000478
  C      1.256109   -1.358072    0.000288
  C      1.175360    0.032306    0.000053
  C     -0.052943    0.708723    0.001297
  C     -0.049540    2.210678    0.001150
  O      2.312751    0.815915   -0.002150
  H     -2.726062    1.235267    0.883371
  H     -2.718654    1.247036   -0.878120
  H     -3.375842   -0.148292   -0.009170
  H     -2.067450   -2.037315   -0.000788
  H      0.129357   -3.184551    0.000501
  H      2.229020   -1.842221   -0.000077
  H      0.505980    2.602061    0.860525
  H      0.443357    2.602760   -0.895858
  H     -1.058744    2.619879    0.036935
  H      3.087680    0.236840   -0.001387

 Total Charge           Charge          ....    0
 Multiplicity           Mult            ....    1
 Number of Electrons    NEL             ....   66
 Basis Dimension        Dim             ....  339

ORBITAL ENERGIES
----------------

  NO   OCC          E(Eh)            E(eV)
   0   2.0000     -21.698754      -590.4531
   1   2.0000     -12.107220      -329.4542
   2   2.0000     -12.057929      -328.1129
   3   2.0000     -12.051223      -327.9304
   4   2.0000     -12.047545      -327.8304
   5   2.0000     -12.042377      -327.6897
   6   2.0000     -12.036563      -327.5315
   7   2.0000     -12.032835      -327.4301
   8   2.0000     -12.032639      -327.4248
   9   2.0000      -1.711323       -46.5675
  10   2.0000      -1.385328       -37.6967
  11   2.0000      -1.297726       -35.3129
  12   2.0000      -1.285825       -34.9891
  13   2.0000      -1.205204       -32.7953
  14   2.0000      -1.177267       -32.0351
  15   2.0000      -1.139863       -31.0172
  16   2.0000      -1.086394       -29.5623
  17   2.0000      -1.038212       -28.2512
  18   2.0000      -1.003552       -27.3080
  19   2.0000      -0.945358       -25.7245
  20   2.0000      -0.944948       -25.7133
  21   2.0000      -0.930943       -25.3322
  22   2.0000      -0.883234       -24.0340
  23   2.0000      -0.864446       -23.5228
  24   2.0000      -0.837806       -22.7979
  25   2.0000      -0.834315       -22.7029
  26   2.0000      -0.818141       -22.2628
  27   2.0000      -0.817093       -22.2342
  28   2.0000      -0.802198       -21.8289
  29   2.0000      -0.796571       -21.6758
  30   2.0000      -0.752162       -20.4674
  31   2.0000      -0.631207       -17.1760
  32   2.0000      -0.629896       -17.1403
  33   0.0000      -0.242209        -6.5909
  34   0.0000      -0.239056        -6.5051
  35   0.0000      -0.145238        -3.9521
  36   0.0000      -0.072742        -1.9794
  37   0.0000      -0.038158        -1.0383

MULLIKEN ATOMIC CHARGES
-----------------------
   0 C :   -0.425321
   1 C :    0.104075
   2 C :   -0.271931
   3 C :   -0.150826
   4 C :   -0.292711
   5 C :    0.227308
   6 C :   -0.029295
   7 C :   -0.407138
   8 O :   -0.471983
   9 H :    0.148306
  10 H :    0.148645
  11 H :    0.142269
  12 H :    0.151732
  13 H :    0.160732
  14 H :    0.162806
  15 H :    0.139557
  16 H :    0.140364
  17 H :    0.149287
  18 H :    0.374124
Sum of atomic charges:    0.0000000

LOEWDIN ATOMIC CHARGES
----------------------
   0 C :   -0.254600
   1 C :   -0.148338
   2 C :   -0.151942
   3 C :   -0.155985
   4 C :   -0.154039
   5 C :   -0.238565
   6 C :   -0.137219
   7 C :   -0.252949
   8 O :    0.042791
   9 H :    0.131821
  10 H :    0.131807
  11 H :    0.129623
  12 H :    0.150115
  13 H :    0.150985
  14 H :    0.154335
  15 H :    0.131115
  16 H :    0.131612
  17 H :    0.130579
  18 H :    0.208854

  Mayer bond orders larger than 0.100000
B(  0-C ,  1-C ) :   0.9247 B(  0-C ,  9-H ) :   0.9762 B(  0-C , 10-H ) :   0.9767
B(  0-C , 11-H ) :   0.9836 B(  1-C ,  2-C ) :   1.3999 B(  1-C ,  6-C ) :   1.3731
B(  2-C ,  3-C ) :   1.4140 B(  2-C , 12-H ) :   0.9810 B(  3-C ,  4-C ) :   1.3805
B(  3-C , 13-H ) :   0.9733 B(  4-C ,  5-C ) :   1.3910 B(  4-C , 14-H ) :   0.9762
B(  5-C ,  6-C ) :   1.3549 B(  5-C ,  8-O ) :   1.1420 B(  6-C ,  7-C ) :   0.9415
B(  7-C , 15-H ) :   0.9699 B(  7-C , 16-H ) :   0.9696 B(  7-C , 17-H ) :   0.9902
B(  8-O , 18-H ) :   0.8498

FINAL SINGLE POINT ENERGY      -386.130103899704

DIPOLE MOMENT
-------------

Method             : SCF
Type of density    : Electron Density
Multiplicity       :   1
Irrep              :   0
Energy             :  -386.1414410954035930 Eh
Relativity type    :
Basis              : AO
                                X                 Y                 Z
Electronic contribution:      5.425598007      -3.530696585       0.002783868
Nuclear contribution   :     -5.226163377       3.180361262      -0.003071372
                        -----------------------------------------
Total Dipole Moment    :      0.199434630      -0.350335323      -0.000287504
                        -----------------------------------------
Magnitude (a.u.)       :      0.403124166
Magnitude (Debye)      :      1.024660198

Rotational constants in cm-1:             0.074934             0.058983             0.033412
Rotational constants in MHz :          2246.456193          1768.256159          1001.678825

                             ****ORCA TERMINATED NORMALLY****
TOTAL RUN TIME: 0 days 0 hours 2 minutes 32 seconds 392 msec
