                         Program Version 6.0.0  -   RELEASE  -
|  1> ! pbe def2-sv(p) def2/J RI DEFGRID1 loosescf d4 GCP(DFT/SV(P)) printgap
|  2> %output
|  3>     printlevel normal
|  4> end
|  5> * xyz 0 1
|  6> C 5.7478208751 -0.4912974355 -1.3679714433
|  7> C 4.5550876068 0.3373700246 -0.9363612151
|  8> O 3.531024503 -0.5691499667 -0.4742590278
|  9> P 2.3194793446 -0.0505968829 0.40959251
| 10> S 2.8045813522 0.957246684 2.0110587916
| 11> O 1.5350472823 -1.3735027652 0.7420511263
| 12> C 1.2194693165 -2.3873975885 -0.2458065628
| 13> C 2.2520343448 -3.4936768378 -0.225199887
| 14> S 1.1532800268 1.0285015514 -1.0194652817
| 15> C 0.2261535558 2.0218903573 0.176006939
| 16> S -0.7914745901 1.0473082419 1.3199009156
| 17> P -2.2758255537 0.3629871935 -0.0374526344
| 18> S -1.7729768823 -0.9277993465 -1.4285360406
| 19> O -2.8326998725 1.7447830534 -0.5614307152
| 20> C -3.5840609532 1.8402307881 -1.7923717475
| 21> C -4.9424469056 1.1861932033 -1.6613190639
| 22> O -3.4151652293 -0.1127105615 0.9630331209
| 23> C -3.3178145609 -1.3412117537 1.7114029113
| 24> C -4.0243182625 -2.4726596856 0.9891925694
| 25> H 6.131653021 -1.0605105742 -0.5260307836
| 26> H 5.4573705702 -1.1785881526 -2.1573201405
| 27> H 6.5249013747 0.1702069239 -1.7362505555
| 28> H 4.1460650582 0.9158832474 -1.7690358773
| 29> H 4.8121239967 1.017218449 -0.1174568982
| 30> H 0.2326246642 -2.7555329177 0.0420997408
| 31> H 1.1498027089 -1.9195220518 -1.2317538292
| 32> H 3.2237589601 -3.1071884378 -0.5200309931
| 33> H 2.3278152561 -3.9114119645 0.7750030999
| 34> H 1.947479219 -4.271094525 -0.9187797683
| 35> H -0.4036710064 2.702313128 -0.3912279842
| 36> H 0.930389072 2.5631096486 0.8084791858
| 37> H -3.6631455862 2.9136129419 -1.9685526208
| 38> H -3.0028512914 1.3697928654 -2.5920233446
| 39> H -4.8194688741 0.1145129937 -1.5100382122
| 40> H -5.4788490696 1.6010191865 -0.8120701709
| 41> H -5.513388007 1.3527790944 -2.5693190985
| 42> H -2.2631157201 -1.5776187583 1.8832683107
| 43> H -3.7951939541 -1.1198218445 2.6678427476
| 44> H -3.5465798086 -2.6659622017 0.0311805489
| 45> H -3.9759336088 -3.3700564344 1.5975300268
| 46> H -5.0645204158 -2.2109959065 0.8169265989
| 47> *
| 48>
| 49>                          ****END OF INPUT****

CARTESIAN COORDINATES (ANGSTROEM)
---------------------------------
  C      5.747821   -0.491297   -1.367971
  C      4.555088    0.337370   -0.936361
  O      3.531025   -0.569150   -0.474259
  P      2.319479   -0.050597    0.409593
  S      2.804581    0.957247    2.011059
  O      1.535047   -1.373503    0.742051
  C      1.219469   -2.387398   -0.245807
  C      2.252034   -3.493677   -0.225200
  S      1.153280    1.028502   -1.019465
  C      0.226154    2.021890    0.176007
  S     -0.791475    1.047308    1.319901
  P     -2.275826    0.362987   -0.037453
  S     -1.772977   -0.927799   -1.428536
  O     -2.832700    1.744783   -0.561431
  C     -3.584061    1.840231   -1.792372
  C     -4.942447    1.186193   -1.661319
  O     -3.415165   -0.112711    0.963033
  C     -3.317815   -1.341212    1.711403
  C     -4.024318   -2.472660    0.989193
  H      6.131653   -1.060511   -0.526031
  H      5.457371   -1.178588   -2.157320
  H      6.524901    0.170207   -1.736251
  H      4.146065    0.915883   -1.769036
  H      4.812124    1.017218   -0.117457
  H      0.232625   -2.755533    0.042100
  H      1.149803   -1.919522   -1.231754
  H      3.223759   -3.107188   -0.520031
  H      2.327815   -3.911412    0.775003
  H      1.947479   -4.271095   -0.918780
  H     -0.403671    2.702313   -0.391228
  H      0.930389    2.563110    0.808479
  H     -3.663146    2.913613   -1.968553
  H     -3.002851    1.369793   -2.592023
  H     -4.819469    0.114513   -1.510038
  H     -5.478849    1.601019   -0.812070
  H     -5.513388    1.352779   -2.569319
  H     -2.263116   -1.577619    1.883268
  H     -3.795194   -1.119822    2.667843
  H     -3.546580   -2.665962    0.031181
  H     -3.975934   -3.370056    1.597530
  H     -5.064520   -2.210996    0.816927

 Total Charge           Charge          ....    0
 Multiplicity           Mult            ....    1
 Number of Electrons    NEL             ....  202
 Basis Dimension        Dim             ....  334

ORBITAL ENERGIES
----------------

  NO   OCC          E(Eh)            E(eV)
   0   2.0000     -88.038135     -2395.6394
   1   2.0000     -88.035279     -2395.5617
   2   2.0000     -87.988158     -2394.2795
   3   2.0000     -87.980844     -2394.0805
   4   2.0000     -76.427641     -2079.7018
   5   2.0000     -76.422086     -2079.5507
   6   2.0000     -18.797089      -511.4948
   7   2.0000     -18.794255      -511.4177
   8   2.0000     -18.793498      -511.3971
   9   2.0000     -18.786670      -511.2113
  10   2.0000      -9.958022      -270.9716
  11   2.0000      -9.955534      -270.9039
  12   2.0000      -9.953724      -270.8546
  13   2.0000      -9.953362      -270.8448
  14   2.0000      -9.945882      -270.6412
  15   2.0000      -9.889330      -269.1024
  16   2.0000      -9.886456      -269.0242
  17   2.0000      -9.883684      -268.9487
  18   2.0000      -9.879851      -268.8444
  19   2.0000      -7.683259      -209.0721
  20   2.0000      -7.680446      -208.9956
  21   2.0000      -7.632978      -207.7039
  22   2.0000      -7.626210      -207.5197
  23   2.0000      -6.425356      -174.8428
  24   2.0000      -6.419627      -174.6869
  25   2.0000      -5.711242      -155.4108
  26   2.0000      -5.708190      -155.3277
  27   2.0000      -5.707898      -155.3198
  28   2.0000      -5.705021      -155.2415
  29   2.0000      -5.699979      -155.1043
  30   2.0000      -5.697476      -155.0362
  31   2.0000      -5.661697      -154.0626
  32   2.0000      -5.655182      -153.8853
  33   2.0000      -5.653675      -153.8443
  34   2.0000      -5.653252      -153.8328
  35   2.0000      -5.646733      -153.6554
  36   2.0000      -5.646366      -153.6454
  37   2.0000      -4.648008      -126.4787
  38   2.0000      -4.647209      -126.4570
  39   2.0000      -4.645645      -126.4144
  40   2.0000      -4.642560      -126.3305
  41   2.0000      -4.641359      -126.2978
  42   2.0000      -4.639783      -126.2549
  43   2.0000      -0.990623       -26.9562
  44   2.0000      -0.986602       -26.8468
  45   2.0000      -0.950497       -25.8643
  46   2.0000      -0.942618       -25.6499
  47   2.0000      -0.760212       -20.6864
  48   2.0000      -0.720636       -19.6095
  49   2.0000      -0.709109       -19.2958
  50   2.0000      -0.690053       -18.7773
  51   2.0000      -0.689517       -18.7627
  52   2.0000      -0.669510       -18.2183
  53   2.0000      -0.650561       -17.7027
  54   2.0000      -0.636568       -17.3219
  55   2.0000      -0.598014       -16.2728
  56   2.0000      -0.586133       -15.9495
  57   2.0000      -0.572395       -15.5757
  58   2.0000      -0.565943       -15.4001
  59   2.0000      -0.564507       -15.3610
  60   2.0000      -0.509560       -13.8658
  61   2.0000      -0.500161       -13.6101
  62   2.0000      -0.480406       -13.0725
  63   2.0000      -0.476492       -12.9660
  64   2.0000      -0.456921       -12.4335
  65   2.0000      -0.443453       -12.0670
  66   2.0000      -0.440888       -11.9972
  67   2.0000      -0.436824       -11.8866
  68   2.0000      -0.427767       -11.6401
  69   2.0000      -0.408362       -11.1121
  70   2.0000      -0.404145       -10.9973
  71   2.0000      -0.399420       -10.8688
  72   2.0000      -0.393434       -10.7059
  73   2.0000      -0.385768       -10.4973
  74   2.0000      -0.379560       -10.3284
  75   2.0000      -0.375007       -10.2045
  76   2.0000      -0.364527        -9.9193
  77   2.0000      -0.357470        -9.7273
  78   2.0000      -0.354691        -9.6516
  79   2.0000      -0.349941        -9.5224
  80   2.0000      -0.348852        -9.4927
  81   2.0000      -0.346185        -9.4202
  82   2.0000      -0.340898        -9.2763
  83   2.0000      -0.339692        -9.2435
  84   2.0000      -0.333196        -9.0667
  85   2.0000      -0.320621        -8.7246
  86   2.0000      -0.311638        -8.4801
  87   2.0000      -0.300756        -8.1840
  88   2.0000      -0.299112        -8.1393
  89   2.0000      -0.291449        -7.9307
  90   2.0000      -0.287893        -7.8340
  91   2.0000      -0.277514        -7.5515
  92   2.0000      -0.271308        -7.3827
  93   2.0000      -0.264045        -7.1850
  94   2.0000      -0.256114        -6.9692
  95   2.0000      -0.239125        -6.5069
  96   2.0000      -0.216124        -5.8810
  97   2.0000      -0.205936        -5.6038
  98   2.0000      -0.202228        -5.5029
  99   2.0000      -0.198991        -5.4148
 100   2.0000      -0.188619        -5.1326
 101   0.0000      -0.042342        -1.1522
 102   0.0000      -0.021295        -0.5795
 103   0.0000      -0.011075        -0.3014
 104   0.0000       0.006141         0.1671
 105   0.0000       0.017525         0.4769

MULLIKEN ATOMIC CHARGES
-----------------------
   0 C :   -0.283618
   1 C :   -0.010254
   2 O :   -0.384685
   3 P :    0.605344
   4 S :   -0.320692
   5 O :   -0.350013
   6 C :   -0.019154
   7 C :   -0.284825
   8 S :   -0.096827
   9 C :   -0.355752
  10 S :   -0.068015
  11 P :    0.604513
  12 S :   -0.325046
  13 O :   -0.369401
  14 C :   -0.008191
  15 C :   -0.308275
  16 O :   -0.372287
  17 C :   -0.020231
  18 C :   -0.293363
  19 H :    0.122802
  20 H :    0.116877
  21 H :    0.113259
  22 H :    0.104244
  23 H :    0.106136
  24 H :    0.110204
  25 H :    0.111776
  26 H :    0.119402
  27 H :    0.115290
  28 H :    0.108220
  29 H :    0.181531
  30 H :    0.195265
  31 H :    0.106063
  32 H :    0.113708
  33 H :    0.126113
  34 H :    0.119575
  35 H :    0.113102
  36 H :    0.114262
  37 H :    0.112042
  38 H :    0.128030
  39 H :    0.108186
  40 H :    0.114682
Sum of atomic charges:    0.0000000

LOEWDIN ATOMIC CHARGES
----------------------
   0 C :   -0.350781
   1 C :   -0.120150
   2 O :   -0.248488
   3 P :    0.568581
   4 S :   -0.316407
   5 O :   -0.230095
   6 C :   -0.116065
   7 C :   -0.360420
   8 S :    0.062364
   9 C :   -0.479514
  10 S :    0.091002
  11 P :    0.565813
  12 S :   -0.311293
  13 O :   -0.238842
  14 C :   -0.118285
  15 C :   -0.364888
  16 O :   -0.246260
  17 C :   -0.114700
  18 C :   -0.364196
  19 H :    0.129521
  20 H :    0.126032
  21 H :    0.131511
  22 H :    0.109102
  23 H :    0.110070
  24 H :    0.114664
  25 H :    0.106535
  26 H :    0.123923
  27 H :    0.126850
  28 H :    0.128922
  29 H :    0.131621
  30 H :    0.131599
  31 H :    0.118831
  32 H :    0.111215
  33 H :    0.123302
  34 H :    0.127833
  35 H :    0.131201
  36 H :    0.111248
  37 H :    0.121085
  38 H :    0.122951
  39 H :    0.128938
  40 H :    0.125671

  Mayer bond orders larger than 0.100000
B(  0-C ,  1-C ) :   1.1593 B(  0-C , 19-H ) :   0.9507 B(  0-C , 20-H ) :   0.9505
B(  0-C , 21-H ) :   0.9418 B(  1-C ,  2-O ) :   0.9042 B(  1-C , 22-H ) :   0.9276
B(  1-C , 23-H ) :   0.9100 B(  2-O ,  3-P ) :   1.0774 B(  3-P ,  4-S ) :   1.6403
B(  3-P ,  5-O ) :   1.1516 B(  3-P ,  8-S ) :   0.9522 B(  4-S ,  8-S ) :   0.1113
B(  5-O ,  6-C ) :   0.8875 B(  6-C ,  7-C ) :   1.1565 B(  6-C , 24-H ) :   0.9288
B(  6-C , 25-H ) :   0.9163 B(  7-C , 26-H ) :   0.9409 B(  7-C , 27-H ) :   0.9462
B(  7-C , 28-H ) :   0.9407 B(  8-S ,  9-C ) :   1.0075 B(  9-C , 10-S ) :   1.0036
B(  9-C , 29-H ) :   0.8993 B(  9-C , 30-H ) :   0.8804 B( 10-S , 11-P ) :   0.9677
B( 10-S , 12-S ) :   0.1143 B( 11-P , 12-S ) :   1.6151 B( 11-P , 13-O ) :   1.1176
B( 11-P , 16-O ) :   1.1041 B( 13-O , 14-C ) :   0.8983 B( 14-C , 15-C ) :   1.1673
B( 14-C , 31-H ) :   0.9335 B( 14-C , 32-H ) :   0.9144 B( 15-C , 33-H ) :   0.9336
B( 15-C , 34-H ) :   0.9458 B( 15-C , 35-H ) :   0.9382 B( 16-O , 17-C ) :   0.9025
B( 17-C , 18-C ) :   1.1682 B( 17-C , 36-H ) :   0.9174 B( 17-C , 37-H ) :   0.9350
B( 18-C , 38-H ) :   0.9307 B( 18-C , 39-H ) :   0.9393 B( 18-C , 40-H ) :   0.9460

Dispersion correction           -0.064138991
FINAL SINGLE POINT ENERGY     -2929.520869882802

DIPOLE MOMENT
-------------

Method             : SCF
Type of density    : Electron Density
Multiplicity       :   1
Irrep              :   0
Energy             : -2929.6403619509055716 Eh
Relativity type    :
Basis              : AO
                                X                 Y                 Z
Electronic contribution:      3.904593054      13.633870962       8.937996092
Nuclear contribution   :     -4.452524425     -13.880470504      -9.915217546
                        -----------------------------------------
Total Dipole Moment    :     -0.547931371      -0.246599542      -0.977221454
                        -----------------------------------------
Magnitude (a.u.)       :      1.147171256
Magnitude (Debye)      :      2.915877605

Rotational constants in cm-1:             0.013340             0.004580             0.004316
Rotational constants in MHz :           399.929352           137.291834           129.389496

                             ****ORCA TERMINATED NORMALLY****
TOTAL RUN TIME: 0 days 0 hours 0 minutes 20 seconds 766 msec
