                         Program Version 6.0.0  -   RELEASE  -
|  1> ! pbe def2-sv(p) def2/J RI DEFGRID1 loosescf d4 GCP(DFT/SV(P)) printgap
|  2> %output
|  3>     printlevel normal
|  4> end
|  5> * xyz 0 1
|  6> C 4.1903778837 -1.1216802479 -2.3536520445
|  7> C 4.2786488213 0.2648089674 -1.7505334597
|  8> O 3.5733793639 0.3591074356 -0.5003058417
|  9> P 1.9922413593 0.2165129202 -0.4013829541
| 10> S 1.0175535195 1.1124244542 -1.8384055329
| 11> O 1.6554027558 0.836169059 1.0069025823
| 12> C 2.3185569974 0.4652665055 2.2426543704
| 13> C 3.4322059609 1.4388163538 2.5646733674
| 14> S 1.7560684298 -1.8866590296 -0.153517574
| 15> C 0.0722621341 -1.9763550173 0.5096058079
| 16> S -1.2230993434 -1.445310055 -0.6489783271
| 17> P -2.0425157117 0.2008438104 0.4392992307
| 18> S -1.3133791049 0.5106856908 2.2256146637
| 19> O -3.6088857187 -0.0659174805 0.3264855207
| 20> C -4.2717146314 -1.3014473192 0.6522748836
| 21> C -4.0250184058 -1.7433186555 2.0796143879
| 22> O -1.8949230726 1.499422426 -0.4345388206
| 23> C -2.4005411306 1.6082093496 -1.7874595734
| 24> C -3.6963338941 2.3908402425 -1.8050550772
| 25> H 4.8314992001 -1.1740423798 -3.2276830689
| 26> H 4.501461976 -1.8712693486 -1.6302330493
| 27> H 3.1648362341 -1.3298629083 -2.6565717249
| 28> H 3.8644472275 1.0104291263 -2.4364037652
| 29> H 5.3048350024 0.5281276309 -1.4906186467
| 30> H 1.5243658946 0.5005312002 2.9927480194
| 31> H 2.7014488028 -0.5546778422 2.1486429887
| 32> H 3.8560959768 1.1811295848 3.5301589125
| 33> H 4.2077776303 1.3900328826 1.8048259639
| 34> H 3.039873806 2.4514457607 2.6039504778
| 35> H -0.0121577129 -1.3675819362 1.4156744675
| 36> H -0.0878690419 -3.0303901359 0.7234612183
| 37> H -5.3262088799 -1.0770047337 0.4825995861
| 38> H -3.9373127586 -2.0661614962 -0.0545470882
| 39> H -4.6250607995 -2.6222357622 2.2918222084
| 40> H -2.9735062412 -1.9858139009 2.2246758721
| 41> H -4.2903128268 -0.9491581536 2.7733882842
| 42> H -1.6081381054 2.1194556354 -2.3386693699
| 43> H -2.5314526963 0.6043298612 -2.2012101523
| 44> H -3.5416472684 3.3719274947 -1.3645758486
| 45> H -4.0248130521 2.5057495328 -2.8330853763
| 46> H -4.4604075234 1.867000332 -1.2364896238
| 47> *
| 48>
| 49>                          ****END OF INPUT****

CARTESIAN COORDINATES (ANGSTROEM)
---------------------------------
  C      4.190378   -1.121680   -2.353652
  C      4.278649    0.264809   -1.750533
  O      3.573379    0.359107   -0.500306
  P      1.992241    0.216513   -0.401383
  S      1.017554    1.112424   -1.838406
  O      1.655403    0.836169    1.006903
  C      2.318557    0.465267    2.242654
  C      3.432206    1.438816    2.564673
  S      1.756068   -1.886659   -0.153518
  C      0.072262   -1.976355    0.509606
  S     -1.223099   -1.445310   -0.648978
  P     -2.042516    0.200844    0.439299
  S     -1.313379    0.510686    2.225615
  O     -3.608886   -0.065917    0.326486
  C     -4.271715   -1.301447    0.652275
  C     -4.025018   -1.743319    2.079614
  O     -1.894923    1.499422   -0.434539
  C     -2.400541    1.608209   -1.787460
  C     -3.696334    2.390840   -1.805055
  H      4.831499   -1.174042   -3.227683
  H      4.501462   -1.871269   -1.630233
  H      3.164836   -1.329863   -2.656572
  H      3.864447    1.010429   -2.436404
  H      5.304835    0.528128   -1.490619
  H      1.524366    0.500531    2.992748
  H      2.701449   -0.554678    2.148643
  H      3.856096    1.181130    3.530159
  H      4.207778    1.390033    1.804826
  H      3.039874    2.451446    2.603950
  H     -0.012158   -1.367582    1.415674
  H     -0.087869   -3.030390    0.723461
  H     -5.326209   -1.077005    0.482600
  H     -3.937313   -2.066161   -0.054547
  H     -4.625061   -2.622236    2.291822
  H     -2.973506   -1.985814    2.224676
  H     -4.290313   -0.949158    2.773388
  H     -1.608138    2.119456   -2.338669
  H     -2.531453    0.604330   -2.201210
  H     -3.541647    3.371927   -1.364576
  H     -4.024813    2.505750   -2.833085
  H     -4.460408    1.867000   -1.236490

 Total Charge           Charge          ....    0
 Multiplicity           Mult            ....    1
 Number of Electrons    NEL             ....  202
 Basis Dimension        Dim             ....  334

ORBITAL ENERGIES
----------------

  NO   OCC          E(Eh)            E(eV)
   0   2.0000     -88.041812     -2395.7395
   1   2.0000     -88.040987     -2395.7170
   2   2.0000     -87.983157     -2394.1434
   3   2.0000     -87.977882     -2393.9999
   4   2.0000     -76.422838     -2079.5711
   5   2.0000     -76.421386     -2079.5316
   6   2.0000     -18.791276      -511.3366
   7   2.0000     -18.790956      -511.3279
   8   2.0000     -18.784623      -511.1556
   9   2.0000     -18.782154      -511.0884
  10   2.0000      -9.955715      -270.9088
  11   2.0000      -9.955504      -270.9030
  12   2.0000      -9.951960      -270.8066
  13   2.0000      -9.947041      -270.6727
  14   2.0000      -9.946887      -270.6686
  15   2.0000      -9.884824      -268.9797
  16   2.0000      -9.883690      -268.9489
  17   2.0000      -9.879960      -268.8474
  18   2.0000      -9.879778      -268.8424
  19   2.0000      -7.686444      -209.1588
  20   2.0000      -7.685985      -209.1463
  21   2.0000      -7.628391      -207.5791
  22   2.0000      -7.623045      -207.4336
  23   2.0000      -6.420256      -174.7040
  24   2.0000      -6.418873      -174.6664
  25   2.0000      -5.714223      -155.4919
  26   2.0000      -5.713812      -155.4807
  27   2.0000      -5.710986      -155.4038
  28   2.0000      -5.710352      -155.3866
  29   2.0000      -5.703562      -155.2018
  30   2.0000      -5.703162      -155.1909
  31   2.0000      -5.657343      -153.9441
  32   2.0000      -5.652034      -153.7997
  33   2.0000      -5.649142      -153.7210
  34   2.0000      -5.648274      -153.6974
  35   2.0000      -5.643563      -153.5692
  36   2.0000      -5.643194      -153.5591
  37   2.0000      -4.642888      -126.3394
  38   2.0000      -4.642169      -126.3198
  39   2.0000      -4.641968      -126.3144
  40   2.0000      -4.640662      -126.2788
  41   2.0000      -4.640559      -126.2760
  42   2.0000      -4.638854      -126.2296
  43   2.0000      -0.984154       -26.7802
  44   2.0000      -0.983733       -26.7687
  45   2.0000      -0.941435       -25.6178
  46   2.0000      -0.939001       -25.5515
  47   2.0000      -0.759248       -20.6602
  48   2.0000      -0.716933       -19.5087
  49   2.0000      -0.707649       -19.2561
  50   2.0000      -0.687879       -18.7182
  51   2.0000      -0.687584       -18.7101
  52   2.0000      -0.673940       -18.3388
  53   2.0000      -0.647515       -17.6198
  54   2.0000      -0.636767       -17.3273
  55   2.0000      -0.593173       -16.1411
  56   2.0000      -0.586755       -15.9664
  57   2.0000      -0.570952       -15.5364
  58   2.0000      -0.568890       -15.4803
  59   2.0000      -0.562881       -15.3168
  60   2.0000      -0.501628       -13.6500
  61   2.0000      -0.495220       -13.4756
  62   2.0000      -0.471866       -12.8401
  63   2.0000      -0.469666       -12.7803
  64   2.0000      -0.450590       -12.2612
  65   2.0000      -0.448046       -12.1919
  66   2.0000      -0.438211       -11.9243
  67   2.0000      -0.432138       -11.7591
  68   2.0000      -0.424075       -11.5397
  69   2.0000      -0.423226       -11.5166
  70   2.0000      -0.408546       -11.1171
  71   2.0000      -0.405262       -11.0277
  72   2.0000      -0.387292       -10.5388
  73   2.0000      -0.381453       -10.3799
  74   2.0000      -0.378383       -10.2963
  75   2.0000      -0.363188        -9.8828
  76   2.0000      -0.357724        -9.7342
  77   2.0000      -0.356932        -9.7126
  78   2.0000      -0.351207        -9.5568
  79   2.0000      -0.350121        -9.5273
  80   2.0000      -0.347425        -9.4539
  81   2.0000      -0.343923        -9.3586
  82   2.0000      -0.341005        -9.2792
  83   2.0000      -0.336157        -9.1473
  84   2.0000      -0.330183        -8.9847
  85   2.0000      -0.315369        -8.5816
  86   2.0000      -0.313038        -8.5182
  87   2.0000      -0.295865        -8.0509
  88   2.0000      -0.292371        -7.9558
  89   2.0000      -0.288237        -7.8433
  90   2.0000      -0.281915        -7.6713
  91   2.0000      -0.272331        -7.4105
  92   2.0000      -0.263973        -7.1831
  93   2.0000      -0.260439        -7.0869
  94   2.0000      -0.256539        -6.9808
  95   2.0000      -0.240125        -6.5341
  96   2.0000      -0.221099        -6.0164
  97   2.0000      -0.201759        -5.4901
  98   2.0000      -0.198129        -5.3914
  99   2.0000      -0.193879        -5.2757
 100   2.0000      -0.187778        -5.1097
 101   0.0000      -0.040470        -1.1012
 102   0.0000      -0.029745        -0.8094
 103   0.0000      -0.012772        -0.3475
 104   0.0000      -0.000039        -0.0011
 105   0.0000       0.018727         0.5096

MULLIKEN ATOMIC CHARGES
-----------------------
   0 C :   -0.329711
   1 C :    0.001871
   2 O :   -0.381233
   3 P :    0.602510
   4 S :   -0.311380
   5 O :   -0.342537
   6 C :   -0.024983
   7 C :   -0.281011
   8 S :   -0.110643
   9 C :   -0.347518
  10 S :   -0.104630
  11 P :    0.604687
  12 S :   -0.301508
  13 O :   -0.380836
  14 C :   -0.004736
  15 C :   -0.306319
  16 O :   -0.337012
  17 C :   -0.016294
  18 C :   -0.279966
  19 H :    0.116081
  20 H :    0.120041
  21 H :    0.133460
  22 H :    0.112914
  23 H :    0.104251
  24 H :    0.115870
  25 H :    0.097285
  26 H :    0.106457
  27 H :    0.117733
  28 H :    0.122467
  29 H :    0.195633
  30 H :    0.179497
  31 H :    0.105934
  32 H :    0.107020
  33 H :    0.109462
  34 H :    0.117499
  35 H :    0.126468
  36 H :    0.121323
  37 H :    0.097769
  38 H :    0.120889
  39 H :    0.106903
  40 H :    0.116293
Sum of atomic charges:    0.0000000

LOEWDIN ATOMIC CHARGES
----------------------
   0 C :   -0.373968
   1 C :   -0.118546
   2 O :   -0.247743
   3 P :    0.564571
   4 S :   -0.304978
   5 O :   -0.225581
   6 C :   -0.120109
   7 C :   -0.357746
   8 S :    0.070150
   9 C :   -0.485524
  10 S :    0.070983
  11 P :    0.570678
  12 S :   -0.285096
  13 O :   -0.246920
  14 C :   -0.119129
  15 C :   -0.368200
  16 O :   -0.220861
  17 C :   -0.115039
  18 C :   -0.357722
  19 H :    0.132856
  20 H :    0.123536
  21 H :    0.123290
  22 H :    0.112523
  23 H :    0.118117
  24 H :    0.115486
  25 H :    0.101706
  26 H :    0.128522
  27 H :    0.124401
  28 H :    0.130091
  29 H :    0.119134
  30 H :    0.136247
  31 H :    0.119296
  32 H :    0.104525
  33 H :    0.128954
  34 H :    0.117982
  35 H :    0.130519
  36 H :    0.117812
  37 H :    0.103489
  38 H :    0.129568
  39 H :    0.128229
  40 H :    0.124497

  Mayer bond orders larger than 0.100000
B(  0-C ,  1-C ) :   1.1653 B(  0-C , 19-H ) :   0.9372 B(  0-C , 20-H ) :   0.9422
B(  0-C , 21-H ) :   0.9320 B(  1-C ,  2-O ) :   0.9080 B(  1-C , 22-H ) :   0.9160
B(  1-C , 23-H ) :   0.9331 B(  2-O ,  3-P ) :   1.0729 B(  3-P ,  4-S ) :   1.6625
B(  3-P ,  5-O ) :   1.1475 B(  3-P ,  8-S ) :   0.9477 B(  4-S ,  8-S ) :   0.1093
B(  5-O ,  6-C ) :   0.8932 B(  6-C ,  7-C ) :   1.1679 B(  6-C , 24-H ) :   0.9205
B(  6-C , 25-H ) :   0.9094 B(  7-C , 26-H ) :   0.9397 B(  7-C , 27-H ) :   0.9426
B(  7-C , 28-H ) :   0.9470 B(  8-S ,  9-C ) :   0.9946 B(  9-C , 10-S ) :   1.0065
B(  9-C , 29-H ) :   0.8425 B(  9-C , 30-H ) :   0.9110 B( 10-S , 11-P ) :   0.9446
B( 10-S , 12-S ) :   0.1186 B( 11-P , 12-S ) :   1.6232 B( 11-P , 13-O ) :   1.0704
B( 11-P , 16-O ) :   1.1644 B( 12-S , 29-H ) :   0.1276 B( 13-O , 14-C ) :   0.9170
B( 14-C , 15-C ) :   1.1664 B( 14-C , 31-H ) :   0.9327 B( 14-C , 32-H ) :   0.9200
B( 15-C , 33-H ) :   0.9357 B( 15-C , 34-H ) :   0.9351 B( 15-C , 35-H ) :   0.9439
B( 16-O , 17-C ) :   0.8887 B( 17-C , 18-C ) :   1.1635 B( 17-C , 36-H ) :   0.9236
B( 17-C , 37-H ) :   0.9193 B( 18-C , 38-H ) :   0.9471 B( 18-C , 39-H ) :   0.9406
B( 18-C , 40-H ) :   0.9429

Dispersion correction           -0.067076268
FINAL SINGLE POINT ENERGY     -2929.513536454376

DIPOLE MOMENT
-------------

Method             : SCF
Type of density    : Electron Density
Multiplicity       :   1
Irrep              :   0
Energy             : -2929.6325056435684928 Eh
Relativity type    :
Basis              : AO
                                X                 Y                 Z
Electronic contribution:      0.383862270      -0.255378264      -1.541427464
Nuclear contribution   :     -0.362155927      -0.751757654       1.411811801
                        -----------------------------------------
Total Dipole Moment    :      0.021706342      -1.007135918      -0.129615663
                        -----------------------------------------
Magnitude (a.u.)       :      1.015674231
Magnitude (Debye)      :      2.581638728

Rotational constants in cm-1:             0.012288             0.005281             0.004928
Rotational constants in MHz :           368.399029           158.329786           147.752523

                             ****ORCA TERMINATED NORMALLY****
TOTAL RUN TIME: 0 days 0 hours 0 minutes 21 seconds 113 msec
