                         Program Version 6.0.0  -   RELEASE  -
|  1> ! pbe def2-sv(p) def2/J RI DEFGRID1 loosescf d4 GCP(DFT/SV(P)) printgap
|  2> %output
|  3>     printlevel normal
|  4> end
|  5> * xyz 0 1
|  6> C 4.2155408911 -1.6727527283 -1.7684851287
|  7> C 4.6733907981 -1.0587411531 -0.4610946554
|  8> O 3.580938835 -0.8164235761 0.4415160842
|  9> P 2.4627975488 0.2749725781 0.1541262517
| 10> S 3.1159050071 1.9279343324 -0.66489819
| 11> O 1.8597864363 0.5545160261 1.5821153115
| 12> C 1.0336420713 -0.3251370789 2.3819880926
| 13> C 1.644863294 -1.694864759 2.5817131126
| 14> S 0.9591848676 -0.7755913036 -0.9465785715
| 15> C 0.1674994951 0.6894126946 -1.6431149267
| 16> S -0.838761512 1.5954313235 -0.4395772843
| 17> P -2.4324956507 0.1961164086 -0.4209444091
| 18> S -2.9422469944 -0.5908176513 -2.135132829
| 19> O -3.6419144412 0.9816839245 0.2298859
| 20> C -3.5537355668 1.9889978514 1.263882395
| 21> C -3.0056706324 1.4391335335 2.5637799463
| 22> O -1.8923600413 -0.856119522 0.6566123186
| 23> C -2.1822588856 -2.2633025516 0.574245773
| 24> C -3.586103118 -2.5533125421 1.0635663599
| 25> H 3.6043641443 -2.5522140636 -1.5824251822
| 26> H 3.6298699669 -0.9506508237 -2.3353855182
| 27> H 5.0840586696 -1.9551110841 -2.3547902363
| 28> H 5.1895646307 -0.1107390609 -0.6423716426
| 29> H 5.3240237416 -1.7352300561 0.0948163218
| 30> H 0.9388435045 0.2167161321 3.3245144527
| 31> H 0.0553670244 -0.403398182 1.9007532452
| 32> H 1.6973963027 -2.226205966 1.6332751664
| 33> H 2.64857697 -1.6034766943 2.9883421015
| 34> H 1.0276175297 -2.2600209101 3.2736887041
| 35> H -0.4682282335 0.3532176744 -2.4629911574
| 36> H 0.9357826615 1.3829110989 -1.9882821657
| 37> H -2.9320642401 2.8086971312 0.8936022522
| 38> H -4.5854452746 2.3278579347 1.3712247524
| 39> H -3.0470086605 2.2155855251 3.3213211619
| 40> H -3.5956162363 0.5872846514 2.8911492191
| 41> H -1.9715111514 1.128132142 2.4330834112
| 42> H -2.0578664149 -2.5878435801 -0.4634698993
| 43> H -1.424244693 -2.7343976052 1.2012205163
| 44> H -4.3060188972 -2.0271008518 0.4368597949
| 45> H -3.7775918637 -3.6198037 1.0027428336
| 46> H -3.7057362836 -2.2233172171 2.091886739
| 47> *
| 48>
| 49>                          ****END OF INPUT****

CARTESIAN COORDINATES (ANGSTROEM)
---------------------------------
  C      4.215541   -1.672753   -1.768485
  C      4.673391   -1.058741   -0.461095
  O      3.580939   -0.816424    0.441516
  P      2.462798    0.274973    0.154126
  S      3.115905    1.927934   -0.664898
  O      1.859786    0.554516    1.582115
  C      1.033642   -0.325137    2.381988
  C      1.644863   -1.694865    2.581713
  S      0.959185   -0.775591   -0.946579
  C      0.167499    0.689413   -1.643115
  S     -0.838762    1.595431   -0.439577
  P     -2.432496    0.196116   -0.420944
  S     -2.942247   -0.590818   -2.135133
  O     -3.641914    0.981684    0.229886
  C     -3.553736    1.988998    1.263882
  C     -3.005671    1.439134    2.563780
  O     -1.892360   -0.856120    0.656612
  C     -2.182259   -2.263303    0.574246
  C     -3.586103   -2.553313    1.063566
  H      3.604364   -2.552214   -1.582425
  H      3.629870   -0.950651   -2.335386
  H      5.084059   -1.955111   -2.354790
  H      5.189565   -0.110739   -0.642372
  H      5.324024   -1.735230    0.094816
  H      0.938844    0.216716    3.324514
  H      0.055367   -0.403398    1.900753
  H      1.697396   -2.226206    1.633275
  H      2.648577   -1.603477    2.988342
  H      1.027618   -2.260021    3.273689
  H     -0.468228    0.353218   -2.462991
  H      0.935783    1.382911   -1.988282
  H     -2.932064    2.808697    0.893602
  H     -4.585445    2.327858    1.371225
  H     -3.047009    2.215586    3.321321
  H     -3.595616    0.587285    2.891149
  H     -1.971511    1.128132    2.433083
  H     -2.057866   -2.587844   -0.463470
  H     -1.424245   -2.734398    1.201221
  H     -4.306019   -2.027101    0.436860
  H     -3.777592   -3.619804    1.002743
  H     -3.705736   -2.223317    2.091887

 Total Charge           Charge          ....    0
 Multiplicity           Mult            ....    1
 Number of Electrons    NEL             ....  202
 Basis Dimension        Dim             ....  334

ORBITAL ENERGIES
----------------

  NO   OCC          E(Eh)            E(eV)
   0   2.0000     -88.045277     -2395.8338
   1   2.0000     -88.044572     -2395.8146
   2   2.0000     -87.989339     -2394.3116
   3   2.0000     -87.985401     -2394.2045
   4   2.0000     -76.430012     -2079.7663
   5   2.0000     -76.427716     -2079.7039
   6   2.0000     -18.799378      -511.5571
   7   2.0000     -18.796392      -511.4758
   8   2.0000     -18.795373      -511.4481
   9   2.0000     -18.790348      -511.3114
  10   2.0000      -9.965933      -271.1868
  11   2.0000      -9.954784      -270.8835
  12   2.0000      -9.954291      -270.8700
  13   2.0000      -9.954255      -270.8690
  14   2.0000      -9.953465      -270.8476
  15   2.0000      -9.896614      -269.3006
  16   2.0000      -9.890028      -269.1213
  17   2.0000      -9.888906      -269.0908
  18   2.0000      -9.884963      -268.9835
  19   2.0000      -7.690310      -209.2640
  20   2.0000      -7.689143      -209.2322
  21   2.0000      -7.634552      -207.7467
  22   2.0000      -7.630678      -207.6413
  23   2.0000      -6.427844      -174.9105
  24   2.0000      -6.425025      -174.8338
  25   2.0000      -5.718065      -155.5965
  26   2.0000      -5.716840      -155.5631
  27   2.0000      -5.714994      -155.5129
  28   2.0000      -5.713761      -155.4793
  29   2.0000      -5.707248      -155.3021
  30   2.0000      -5.706259      -155.2752
  31   2.0000      -5.663574      -154.1137
  32   2.0000      -5.659613      -154.0059
  33   2.0000      -5.655356      -153.8901
  34   2.0000      -5.654355      -153.8628
  35   2.0000      -5.651247      -153.7783
  36   2.0000      -5.650819      -153.7666
  37   2.0000      -4.650682      -126.5515
  38   2.0000      -4.649395      -126.5165
  39   2.0000      -4.648234      -126.4849
  40   2.0000      -4.647810      -126.4734
  41   2.0000      -4.646807      -126.4460
  42   2.0000      -4.645314      -126.4054
  43   2.0000      -0.989653       -26.9298
  44   2.0000      -0.987837       -26.8804
  45   2.0000      -0.951897       -25.9024
  46   2.0000      -0.946390       -25.7526
  47   2.0000      -0.766794       -20.8655
  48   2.0000      -0.725161       -19.7326
  49   2.0000      -0.714309       -19.4373
  50   2.0000      -0.697871       -18.9900
  51   2.0000      -0.691900       -18.8276
  52   2.0000      -0.679052       -18.4780
  53   2.0000      -0.653687       -17.7877
  54   2.0000      -0.640133       -17.4189
  55   2.0000      -0.603067       -16.4103
  56   2.0000      -0.598565       -16.2878
  57   2.0000      -0.582162       -15.8414
  58   2.0000      -0.577793       -15.7226
  59   2.0000      -0.563635       -15.3373
  60   2.0000      -0.503775       -13.7084
  61   2.0000      -0.491698       -13.3798
  62   2.0000      -0.483725       -13.1628
  63   2.0000      -0.472648       -12.8614
  64   2.0000      -0.464011       -12.6264
  65   2.0000      -0.450042       -12.2463
  66   2.0000      -0.445312       -12.1176
  67   2.0000      -0.441664       -12.0183
  68   2.0000      -0.433148       -11.7866
  69   2.0000      -0.419933       -11.4269
  70   2.0000      -0.417153       -11.3513
  71   2.0000      -0.399620       -10.8742
  72   2.0000      -0.396133       -10.7793
  73   2.0000      -0.392622       -10.6838
  74   2.0000      -0.380476       -10.3533
  75   2.0000      -0.378575       -10.3016
  76   2.0000      -0.370353       -10.0778
  77   2.0000      -0.364963        -9.9312
  78   2.0000      -0.360514        -9.8101
  79   2.0000      -0.356016        -9.6877
  80   2.0000      -0.352701        -9.5975
  81   2.0000      -0.351826        -9.5737
  82   2.0000      -0.348228        -9.4758
  83   2.0000      -0.345424        -9.3995
  84   2.0000      -0.337547        -9.1851
  85   2.0000      -0.322125        -8.7655
  86   2.0000      -0.315561        -8.5869
  87   2.0000      -0.310757        -8.4561
  88   2.0000      -0.295001        -8.0274
  89   2.0000      -0.292977        -7.9723
  90   2.0000      -0.286108        -7.7854
  91   2.0000      -0.281777        -7.6675
  92   2.0000      -0.270784        -7.3684
  93   2.0000      -0.268384        -7.3031
  94   2.0000      -0.262503        -7.1431
  95   2.0000      -0.234955        -6.3935
  96   2.0000      -0.219447        -5.9715
  97   2.0000      -0.213511        -5.8099
  98   2.0000      -0.203676        -5.5423
  99   2.0000      -0.203180        -5.5288
 100   2.0000      -0.201776        -5.4906
 101   0.0000      -0.046771        -1.2727
 102   0.0000      -0.027191        -0.7399
 103   0.0000      -0.008392        -0.2284
 104   0.0000       0.001137         0.0309
 105   0.0000       0.010685         0.2908

MULLIKEN ATOMIC CHARGES
-----------------------
   0 C :   -0.314566
   1 C :   -0.003227
   2 O :   -0.375465
   3 P :    0.606112
   4 S :   -0.317429
   5 O :   -0.353917
   6 C :   -0.068645
   7 C :   -0.302728
   8 S :   -0.103451
   9 C :   -0.358861
  10 S :   -0.094735
  11 P :    0.619886
  12 S :   -0.312629
  13 O :   -0.369072
  14 C :   -0.022144
  15 C :   -0.325577
  16 O :   -0.379125
  17 C :   -0.009157
  18 C :   -0.307898
  19 H :    0.115360
  20 H :    0.127797
  21 H :    0.114046
  22 H :    0.115137
  23 H :    0.104790
  24 H :    0.108419
  25 H :    0.171000
  26 H :    0.117951
  27 H :    0.122372
  28 H :    0.111080
  29 H :    0.194690
  30 H :    0.196386
  31 H :    0.126586
  32 H :    0.117604
  33 H :    0.117626
  34 H :    0.122521
  35 H :    0.137910
  36 H :    0.115644
  37 H :    0.100597
  38 H :    0.127994
  39 H :    0.113858
  40 H :    0.113259
Sum of atomic charges:   -0.0000000

LOEWDIN ATOMIC CHARGES
----------------------
   0 C :   -0.370090
   1 C :   -0.117796
   2 O :   -0.241884
   3 P :    0.575086
   4 S :   -0.311537
   5 O :   -0.232669
   6 C :   -0.123805
   7 C :   -0.366056
   8 S :    0.076703
   9 C :   -0.487258
  10 S :    0.084257
  11 P :    0.574038
  12 S :   -0.304593
  13 O :   -0.240968
  14 C :   -0.113713
  15 C :   -0.367310
  16 O :   -0.248137
  17 C :   -0.123606
  18 C :   -0.362846
  19 H :    0.122932
  20 H :    0.121756
  21 H :    0.131596
  22 H :    0.113281
  23 H :    0.118607
  24 H :    0.121124
  25 H :    0.112930
  26 H :    0.117114
  27 H :    0.128626
  28 H :    0.129136
  29 H :    0.129493
  30 H :    0.128899
  31 H :    0.112739
  32 H :    0.125797
  33 H :    0.133864
  34 H :    0.127142
  35 H :    0.124182
  36 H :    0.109317
  37 H :    0.113980
  38 H :    0.126417
  39 H :    0.131588
  40 H :    0.121665

  Mayer bond orders larger than 0.100000
B(  0-C ,  1-C ) :   1.1656 B(  0-C , 19-H ) :   0.9450 B(  0-C , 20-H ) :   0.9349
B(  0-C , 21-H ) :   0.9375 B(  1-C ,  2-O ) :   0.9053 B(  1-C , 22-H ) :   0.9161
B(  1-C , 23-H ) :   0.9339 B(  2-O ,  3-P ) :   1.0936 B(  3-P ,  4-S ) :   1.6213
B(  3-P ,  5-O ) :   1.1539 B(  3-P ,  8-S ) :   0.9321 B(  4-S ,  8-S ) :   0.1083
B(  5-O ,  6-C ) :   0.8957 B(  6-C ,  7-C ) :   1.1691 B(  6-C , 24-H ) :   0.9334
B(  6-C , 25-H ) :   0.8835 B(  7-C , 26-H ) :   0.9361 B(  7-C , 27-H ) :   0.9420
B(  7-C , 28-H ) :   0.9352 B(  8-S ,  9-C ) :   1.0102 B(  9-C , 10-S ) :   1.0060
B(  9-C , 29-H ) :   0.8680 B(  9-C , 30-H ) :   0.8651 B( 10-S , 11-P ) :   0.9599
B( 10-S , 12-S ) :   0.1007 B( 11-P , 12-S ) :   1.6259 B( 11-P , 13-O ) :   1.1306
B( 11-P , 16-O ) :   1.0623 B( 13-O , 14-C ) :   0.9050 B( 14-C , 15-C ) :   1.1643
B( 14-C , 31-H ) :   0.9191 B( 14-C , 32-H ) :   0.9344 B( 15-C , 33-H ) :   0.9347
B( 15-C , 34-H ) :   0.9427 B( 15-C , 35-H ) :   0.9347 B( 16-O , 17-C ) :   0.8975
B( 17-C , 18-C ) :   1.1631 B( 17-C , 36-H ) :   0.9081 B( 17-C , 37-H ) :   0.9304
B( 18-C , 38-H ) :   0.9373 B( 18-C , 39-H ) :   0.9401 B( 18-C , 40-H ) :   0.9450

Dispersion correction           -0.066790594
FINAL SINGLE POINT ENERGY     -2929.518946524182

DIPOLE MOMENT
-------------

Method             : SCF
Type of density    : Electron Density
Multiplicity       :   1
Irrep              :   0
Energy             : -2929.6392967873225643 Eh
Relativity type    :
Basis              : AO
                                X                 Y                 Z
Electronic contribution:      1.520434876      14.392060673     -14.802776758
Nuclear contribution   :     -1.665514521     -15.467144016      16.378588575
                        -----------------------------------------
Total Dipole Moment    :     -0.145079645      -1.075083343       1.575811817
                        -----------------------------------------
Magnitude (a.u.)       :      1.913121841
Magnitude (Debye)      :      4.862769270

Rotational constants in cm-1:             0.012550             0.004914             0.004875
Rotational constants in MHz :           376.241800           147.328417           146.138515

                             ****ORCA TERMINATED NORMALLY****
TOTAL RUN TIME: 0 days 0 hours 0 minutes 22 seconds 130 msec
