                         Program Version 6.0.1  -  RELEASE   -
|  1> ! pbe def2-sv(p) def2/J RI DEFGRID1 loosescf d4 GCP(DFT/SV(P)) printgap
|  2> %output
|  3>     printlevel normal
|  4> end
|  5> * xyz 0 1
|  6> C 2.6752023083 -4.418348038 0.6932150838
|  7> C 2.778568341 -3.5974374115 -0.5820659563
|  8> O 2.9220717542 -2.1946595855 -0.280078105
|  9> C 1.8382507427 -1.4766912017 -0.0913989063
| 10> O 0.7059435523 -1.9114151222 -0.1864204131
| 11> C 2.1656918932 -0.0446111966 0.2598683919
| 12> C 0.9487395552 0.8452889799 0.0733447418
| 13> H 0.5314918213 0.7139925151 -0.9374041798
| 14> C 1.2641223585 2.3212695155 0.2553828458
| 15> O 2.3834787142 2.7472588741 0.4176995054
| 16> O 0.1723008834 3.0517772067 0.1945386882
| 17> C 0.3038069588 4.4840275102 0.3074263899
| 18> C 0.5794468792 5.11120587 -1.0494366519
| 19> S -0.40408266 0.3918784785 1.2147161893
| 20> P -1.666919042 -0.6394543552 -0.1620988361
| 21> S -1.2702864526 -0.4689301787 -2.0722497699
| 22> O -1.92276271 -2.1122710604 0.3384113447
| 23> C -2.3199570004 -2.399521141 1.6928690991
| 24> O -3.0959512932 0.0040148596 0.2123128698
| 25> C -3.3805813394 1.3698047539 -0.0958173915
| 26> H 2.6406188589 -5.4723090748 0.4381678636
| 27> H 3.5357196295 -4.2304649709 1.3292722835
| 28> H 1.7685501882 -4.1568955302 1.2340227769
| 29> H 1.8895149415 -3.7307634026 -1.2054490079
| 30> H 3.6783494633 -3.8457329914 -1.1447667523
| 31> H 2.9871174194 0.3049032068 -0.3672988831
| 32> H 2.5060546821 -0.0105907824 1.2978202454
| 33> H -0.6528157105 4.8138744163 0.7121012617
| 34> H 1.1132654382 4.7029360381 1.0089225334
| 35> H -0.1952810325 4.8295715248 -1.7573982269
| 36> H 0.5963549793 6.1911349528 -0.9473327049
| 37> H 1.5426475358 4.777146306 -1.4282345929
| 38> H -3.3143097845 -1.9980064721 1.8802210612
| 39> H -1.6033234958 -1.966411572 2.3910440248
| 40> H -2.3189879038 -3.484236307 1.7630062224
| 41> H -2.7419898925 2.026676578 0.4961145456
| 42> H -4.4266138683 1.5168765881 0.1594537824
| 43> H -3.214948281 1.5553113305 -1.1584130079
| 44> *
| 45>
| 46>                          ****END OF INPUT****

CARTESIAN COORDINATES (ANGSTROEM)
---------------------------------
  C      2.675202   -4.418348    0.693215
  C      2.778568   -3.597437   -0.582066
  O      2.922072   -2.194660   -0.280078
  C      1.838251   -1.476691   -0.091399
  O      0.705944   -1.911415   -0.186420
  C      2.165692   -0.044611    0.259868
  C      0.948740    0.845289    0.073345
  H      0.531492    0.713993   -0.937404
  C      1.264122    2.321270    0.255383
  O      2.383479    2.747259    0.417700
  O      0.172301    3.051777    0.194539
  C      0.303807    4.484028    0.307426
  C      0.579447    5.111206   -1.049437
  S     -0.404083    0.391878    1.214716
  P     -1.666919   -0.639454   -0.162099
  S     -1.270286   -0.468930   -2.072250
  O     -1.922763   -2.112271    0.338411
  C     -2.319957   -2.399521    1.692869
  O     -3.095951    0.004015    0.212313
  C     -3.380581    1.369805   -0.095817
  H      2.640619   -5.472309    0.438168
  H      3.535720   -4.230465    1.329272
  H      1.768550   -4.156896    1.234023
  H      1.889515   -3.730763   -1.205449
  H      3.678349   -3.845733   -1.144767
  H      2.987117    0.304903   -0.367299
  H      2.506055   -0.010591    1.297820
  H     -0.652816    4.813874    0.712101
  H      1.113265    4.702936    1.008923
  H     -0.195281    4.829572   -1.757398
  H      0.596355    6.191135   -0.947333
  H      1.542648    4.777146   -1.428235
  H     -3.314310   -1.998006    1.880221
  H     -1.603323   -1.966412    2.391044
  H     -2.318988   -3.484236    1.763006
  H     -2.741990    2.026677    0.496115
  H     -4.426614    1.516877    0.159454
  H     -3.214948    1.555311   -1.158413

 Total Charge           Charge          ....    0
 Multiplicity           Mult            ....    1
 Number of Electrons    NEL             ....  174
 Basis Dimension        Dim             ....  316

ORBITAL ENERGIES
----------------

  NO   OCC          E(Eh)            E(eV)
   0   2.0000     -88.033815     -2395.5219
   1   2.0000     -87.974958     -2393.9203
   2   2.0000     -76.417523     -2079.4265
   3   2.0000     -18.808195      -511.7970
   4   2.0000     -18.806468      -511.7500
   5   2.0000     -18.784670      -511.1568
   6   2.0000     -18.778667      -510.9935
   7   2.0000     -18.745443      -510.0894
   8   2.0000     -18.741921      -509.9936
   9   2.0000     -10.017660      -272.5944
  10   2.0000     -10.013287      -272.4754
  11   2.0000      -9.952401      -270.8186
  12   2.0000      -9.949746      -270.7463
  13   2.0000      -9.945605      -270.6337
  14   2.0000      -9.938857      -270.4501
  15   2.0000      -9.933322      -270.2994
  16   2.0000      -9.908542      -269.6251
  17   2.0000      -9.889688      -269.1121
  18   2.0000      -9.889668      -269.1115
  19   2.0000      -7.678152      -208.9331
  20   2.0000      -7.620234      -207.3571
  21   2.0000      -6.414066      -174.5356
  22   2.0000      -5.706071      -155.2701
  23   2.0000      -5.702982      -155.1860
  24   2.0000      -5.694894      -154.9660
  25   2.0000      -5.649378      -153.7274
  26   2.0000      -5.641123      -153.5028
  27   2.0000      -5.639816      -153.4672
  28   2.0000      -4.636837      -126.1748
  29   2.0000      -4.635934      -126.1502
  30   2.0000      -4.634453      -126.1099
  31   2.0000      -1.017510       -27.6879
  32   2.0000      -1.014872       -27.6161
  33   2.0000      -0.977649       -26.6032
  34   2.0000      -0.931563       -25.3491
  35   2.0000      -0.924023       -25.1439
  36   2.0000      -0.919092       -25.0098
  37   2.0000      -0.760061       -20.6823
  38   2.0000      -0.715416       -19.4675
  39   2.0000      -0.704374       -19.1670
  40   2.0000      -0.688596       -18.7376
  41   2.0000      -0.655512       -17.8374
  42   2.0000      -0.627967       -17.0878
  43   2.0000      -0.621012       -16.8986
  44   2.0000      -0.612399       -16.6642
  45   2.0000      -0.600850       -16.3500
  46   2.0000      -0.562502       -15.3065
  47   2.0000      -0.507316       -13.8048
  48   2.0000      -0.504359       -13.7243
  49   2.0000      -0.497718       -13.5436
  50   2.0000      -0.476473       -12.9655
  51   2.0000      -0.467173       -12.7124
  52   2.0000      -0.456009       -12.4086
  53   2.0000      -0.451972       -12.2988
  54   2.0000      -0.432755       -11.7759
  55   2.0000      -0.428823       -11.6689
  56   2.0000      -0.426545       -11.6069
  57   2.0000      -0.418473       -11.3872
  58   2.0000      -0.412553       -11.2261
  59   2.0000      -0.406750       -11.0682
  60   2.0000      -0.401295       -10.9198
  61   2.0000      -0.396597       -10.7919
  62   2.0000      -0.392441       -10.6789
  63   2.0000      -0.383883       -10.4460
  64   2.0000      -0.378205       -10.2915
  65   2.0000      -0.366695        -9.9783
  66   2.0000      -0.360835        -9.8188
  67   2.0000      -0.358753        -9.7622
  68   2.0000      -0.346287        -9.4230
  69   2.0000      -0.340300        -9.2600
  70   2.0000      -0.335073        -9.1178
  71   2.0000      -0.328967        -8.9516
  72   2.0000      -0.325448        -8.8559
  73   2.0000      -0.306265        -8.3339
  74   2.0000      -0.301265        -8.1978
  75   2.0000      -0.297611        -8.0984
  76   2.0000      -0.291305        -7.9268
  77   2.0000      -0.287173        -7.8144
  78   2.0000      -0.267585        -7.2813
  79   2.0000      -0.265687        -7.2297
  80   2.0000      -0.261334        -7.1113
  81   2.0000      -0.254115        -6.9148
  82   2.0000      -0.240340        -6.5400
  83   2.0000      -0.228310        -6.2126
  84   2.0000      -0.206375        -5.6157
  85   2.0000      -0.195427        -5.3178
  86   2.0000      -0.186850        -5.0844
  87   0.0000      -0.042044        -1.1441
  88   0.0000      -0.032503        -0.8844
  89   0.0000      -0.023583        -0.6417
  90   0.0000       0.021739         0.5915
  91   0.0000       0.030567         0.8318

MULLIKEN ATOMIC CHARGES
-----------------------
   0 C :   -0.305097
   1 C :   -0.013840
   2 O :   -0.225246
   3 C :    0.149539
   4 O :   -0.201430
   5 C :   -0.071385
   6 C :   -0.361542
   7 H :    0.158210
   8 C :    0.221453
   9 O :   -0.194602
  10 O :   -0.219590
  11 C :   -0.010135
  12 C :   -0.304818
  13 S :   -0.109478
  14 P :    0.631142
  15 S :   -0.307595
  16 O :   -0.355149
  17 C :   -0.105028
  18 O :   -0.394542
  19 C :   -0.100895
  20 H :    0.115121
  21 H :    0.114987
  22 H :    0.123590
  23 H :    0.119871
  24 H :    0.105169
  25 H :    0.126916
  26 H :    0.125570
  27 H :    0.104996
  28 H :    0.109561
  29 H :    0.119473
  30 H :    0.114348
  31 H :    0.127278
  32 H :    0.124463
  33 H :    0.116908
  34 H :    0.129680
  35 H :    0.112346
  36 H :    0.117556
  37 H :    0.112194
Sum of atomic charges:    0.0000000

LOEWDIN ATOMIC CHARGES
----------------------
   0 C :   -0.355645
   1 C :   -0.109494
   2 O :   -0.054076
   3 C :    0.041097
   4 O :   -0.166502
   5 C :   -0.250210
   6 C :   -0.277892
   7 H :    0.135785
   8 C :    0.019222
   9 O :   -0.157731
  10 O :   -0.052584
  11 C :   -0.108275
  12 C :   -0.355589
  13 S :    0.091162
  14 P :    0.596152
  15 S :   -0.302432
  16 O :   -0.229964
  17 C :   -0.208494
  18 O :   -0.268729
  19 C :   -0.222729
  20 H :    0.131750
  21 H :    0.125109
  22 H :    0.129142
  23 H :    0.124939
  24 H :    0.119234
  25 H :    0.149683
  26 H :    0.147727
  27 H :    0.118195
  28 H :    0.120693
  29 H :    0.127461
  30 H :    0.131380
  31 H :    0.130972
  32 H :    0.115829
  33 H :    0.108702
  34 H :    0.125309
  35 H :    0.104321
  36 H :    0.118245
  37 H :    0.108238

  Mayer bond orders larger than 0.100000
B(  0-C ,  1-C ) :   1.1743 B(  0-C , 20-H ) :   0.9443 B(  0-C , 21-H ) :   0.9488
B(  0-C , 22-H ) :   0.9464 B(  1-C ,  2-O ) :   0.9108 B(  1-C , 23-H ) :   0.9140
B(  1-C , 24-H ) :   0.9370 B(  2-O ,  3-C ) :   1.2549 B(  3-C ,  4-O ) :   1.9586
B(  3-C ,  5-C ) :   1.0069 B(  5-C ,  6-C ) :   1.0370 B(  5-C , 25-H ) :   0.8832
B(  5-C , 26-H ) :   0.8849 B(  6-C ,  7-H ) :   0.8077 B(  6-C ,  8-C ) :   0.9079
B(  6-C , 13-S ) :   1.0172 B(  7-H , 15-S ) :   0.1442 B(  8-C ,  9-O ) :   2.0572
B(  8-C , 10-O ) :   1.2548 B( 10-O , 11-C ) :   0.9136 B( 11-C , 12-C ) :   1.1770
B( 11-C , 27-H ) :   0.9359 B( 11-C , 28-H ) :   0.9140 B( 12-C , 29-H ) :   0.9478
B( 12-C , 30-H ) :   0.9438 B( 12-C , 31-H ) :   0.9462 B( 13-S , 14-P ) :   0.9330
B( 13-S , 15-S ) :   0.1148 B( 14-P , 15-S ) :   1.6065 B( 14-P , 16-O ) :   1.1343
B( 14-P , 18-O ) :   1.0472 B( 16-O , 17-C ) :   0.9236 B( 17-C , 32-H ) :   0.9468
B( 17-C , 33-H ) :   0.9395 B( 17-C , 34-H ) :   0.9597 B( 18-O , 19-C ) :   0.9418
B( 19-C , 35-H ) :   0.9393 B( 19-C , 36-H ) :   0.9581 B( 19-C , 37-H ) :   0.9363

Dispersion correction           -0.050584169
FINAL SINGLE POINT ENERGY     -1979.016882270201

DIPOLE MOMENT
-------------

Method             : SCF
Type of density    : Electron Density
Multiplicity       :   1
Irrep              :   0
Energy             : -1979.1481729814067876 Eh
Relativity type    :
Basis              : AO
                                X                 Y                 Z
Electronic contribution:     -5.567099604      -2.838692716      -2.723192456
Nuclear contribution   :      5.609356316       2.947588690       3.711111065
                        -----------------------------------------
Total Dipole Moment    :      0.042256712       0.108895974       0.987918609
                        -----------------------------------------
Magnitude (a.u.)       :      0.994800050
Magnitude (Debye)      :      2.528580779

Rotational constants in cm-1:             0.011395             0.007655             0.005411
Rotational constants in MHz :           341.611194           229.486481           162.211522

                             ****ORCA TERMINATED NORMALLY****
TOTAL RUN TIME: 0 days 0 hours 0 minutes 38 seconds 706 msec
