                         Program Version 6.0.1  -  RELEASE   -
|  1> ! pbe def2-sv(p) def2/J RI DEFGRID1 loosescf d4 GCP(DFT/SV(P)) printgap
|  2> %output
|  3>     printlevel normal
|  4> end
|  5> * xyz 0 1
|  6> C 4.0922403519 -2.6025283121 0.7519581738
|  7> C 2.5864528933 -2.6823310359 0.5612153996
|  8> O 2.1773387298 -1.9637912608 -0.6180249085
|  9> C 2.0026415323 -0.6642972392 -0.5394067902
| 10> O 2.1338696435 0.003411553 0.4667107257
| 11> C 1.6175321188 -0.0583928736 -1.8765367679
| 12> C 0.3615507866 0.8053892473 -1.7301932715
| 13> H 0.27320296 1.4807438242 -2.5843654624
| 14> C 0.3984888781 1.6182851093 -0.4519140616
| 15> O -0.4156367585 1.4597716283 0.4429115858
| 16> O 1.3306258864 2.5206452186 -0.4609382642
| 17> C 1.5314391124 3.2993625791 0.7393150359
| 18> C 2.613013615 4.3206991296 0.4532085767
| 19> S -1.1675405736 -0.1858219388 -1.7496500986
| 20> P -1.7399553306 -0.5659261515 0.2721362261
| 21> S -0.5832074736 -1.1984668813 1.7208528869
| 22> O -2.9028324386 0.47522338 0.6484411973
| 23> C -2.8533251403 1.4640250937 1.6741139742
| 24> O -2.6580653321 -1.8367415605 -0.0690617783
| 25> C -3.7681055682 -1.8240606549 -0.981171408
| 26> H 4.3742171875 -3.2116588527 1.6041219132
| 27> H 4.6012529718 -2.9667182649 -0.1362609328
| 28> H 4.3907439334 -1.5738971559 0.940562401
| 29> H 2.0537929884 -2.2683601663 1.4232398469
| 30> H 2.2577134693 -3.7054166072 0.3790547301
| 31> H 1.4521892054 -0.847407872 -2.6082725254
| 32> H 2.4447796907 0.5790374123 -2.1957812864
| 33> H 0.5814191433 3.7702031702 1.0089345159
| 34> H 1.8174705109 2.6048248189 1.5353158836
| 35> H 3.5365128081 3.8175572377 0.1845152802
| 36> H 2.3103014518 4.9668893417 -0.3650985662
| 37> H 2.779025692 4.9203390009 1.3417552153
| 38> H -3.8354008403 1.4606977814 2.1430732603
| 39> H -2.6395489449 2.4340100555 1.2286605458
| 40> H -2.0820386231 1.2154637708 2.4041650723
| 41> H -4.2921976633 -2.7595288517 -0.8012409547
| 42> H -3.4040636226 -1.7799018423 -2.0073008635
| 43> H -4.4163754595 -0.9744579493 -0.7744582285
| 44> *
| 45>
| 46>                          ****END OF INPUT****

CARTESIAN COORDINATES (ANGSTROEM)
---------------------------------
  C      4.092240   -2.602528    0.751958
  C      2.586453   -2.682331    0.561215
  O      2.177339   -1.963791   -0.618025
  C      2.002642   -0.664297   -0.539407
  O      2.133870    0.003412    0.466711
  C      1.617532   -0.058393   -1.876537
  C      0.361551    0.805389   -1.730193
  H      0.273203    1.480744   -2.584365
  C      0.398489    1.618285   -0.451914
  O     -0.415637    1.459772    0.442912
  O      1.330626    2.520645   -0.460938
  C      1.531439    3.299363    0.739315
  C      2.613014    4.320699    0.453209
  S     -1.167541   -0.185822   -1.749650
  P     -1.739955   -0.565926    0.272136
  S     -0.583207   -1.198467    1.720853
  O     -2.902832    0.475223    0.648441
  C     -2.853325    1.464025    1.674114
  O     -2.658065   -1.836742   -0.069062
  C     -3.768106   -1.824061   -0.981171
  H      4.374217   -3.211659    1.604122
  H      4.601253   -2.966718   -0.136261
  H      4.390744   -1.573897    0.940562
  H      2.053793   -2.268360    1.423240
  H      2.257713   -3.705417    0.379055
  H      1.452189   -0.847408   -2.608273
  H      2.444780    0.579037   -2.195781
  H      0.581419    3.770203    1.008935
  H      1.817471    2.604825    1.535316
  H      3.536513    3.817557    0.184515
  H      2.310301    4.966889   -0.365099
  H      2.779026    4.920339    1.341755
  H     -3.835401    1.460698    2.143073
  H     -2.639549    2.434010    1.228661
  H     -2.082039    1.215464    2.404165
  H     -4.292198   -2.759529   -0.801241
  H     -3.404064   -1.779902   -2.007301
  H     -4.416375   -0.974458   -0.774458

 Total Charge           Charge          ....    0
 Multiplicity           Mult            ....    1
 Number of Electrons    NEL             ....  174
 Basis Dimension        Dim             ....  316

ORBITAL ENERGIES
----------------

  NO   OCC          E(Eh)            E(eV)
   0   2.0000     -88.030212     -2395.4238
   1   2.0000     -87.956034     -2393.4054
   2   2.0000     -76.412419     -2079.2876
   3   2.0000     -18.817680      -512.0551
   4   2.0000     -18.802051      -511.6298
   5   2.0000     -18.770336      -510.7668
   6   2.0000     -18.762138      -510.5437
   7   2.0000     -18.760473      -510.4984
   8   2.0000     -18.740109      -509.9443
   9   2.0000     -10.029982      -272.9297
  10   2.0000     -10.012170      -272.4450
  11   2.0000      -9.955444      -270.9014
  12   2.0000      -9.954718      -270.8816
  13   2.0000      -9.938194      -270.4320
  14   2.0000      -9.930162      -270.2134
  15   2.0000      -9.927130      -270.1310
  16   2.0000      -9.916444      -269.8402
  17   2.0000      -9.894777      -269.2506
  18   2.0000      -9.882592      -268.9190
  19   2.0000      -7.675348      -208.8568
  20   2.0000      -7.601405      -206.8448
  21   2.0000      -6.407127      -174.3468
  22   2.0000      -5.703617      -155.2033
  23   2.0000      -5.699541      -155.0924
  24   2.0000      -5.692192      -154.8924
  25   2.0000      -5.630880      -153.2240
  26   2.0000      -5.622204      -152.9880
  27   2.0000      -5.620720      -152.9476
  28   2.0000      -4.630188      -125.9938
  29   2.0000      -4.629019      -125.9620
  30   2.0000      -4.627660      -125.9250
  31   2.0000      -1.031246       -28.0616
  32   2.0000      -1.009301       -27.4645
  33   2.0000      -0.960403       -26.1339
  34   2.0000      -0.936236       -25.4763
  35   2.0000      -0.917441       -24.9648
  36   2.0000      -0.915077       -24.9005
  37   2.0000      -0.767091       -20.8736
  38   2.0000      -0.716270       -19.4907
  39   2.0000      -0.704436       -19.1687
  40   2.0000      -0.683159       -18.5897
  41   2.0000      -0.652786       -17.7632
  42   2.0000      -0.622856       -16.9488
  43   2.0000      -0.620159       -16.8754
  44   2.0000      -0.596233       -16.2243
  45   2.0000      -0.593682       -16.1549
  46   2.0000      -0.562087       -15.2952
  47   2.0000      -0.519977       -14.1493
  48   2.0000      -0.499439       -13.5904
  49   2.0000      -0.497426       -13.5356
  50   2.0000      -0.486021       -13.2253
  51   2.0000      -0.462810       -12.5937
  52   2.0000      -0.459684       -12.5086
  53   2.0000      -0.450239       -12.2516
  54   2.0000      -0.436204       -11.8697
  55   2.0000      -0.434308       -11.8181
  56   2.0000      -0.422679       -11.5017
  57   2.0000      -0.412668       -11.2293
  58   2.0000      -0.406020       -11.0484
  59   2.0000      -0.399027       -10.8581
  60   2.0000      -0.397669       -10.8211
  61   2.0000      -0.393156       -10.6983
  62   2.0000      -0.387016       -10.5312
  63   2.0000      -0.380639       -10.3577
  64   2.0000      -0.373375       -10.1600
  65   2.0000      -0.366882        -9.9834
  66   2.0000      -0.359450        -9.7811
  67   2.0000      -0.356836        -9.7100
  68   2.0000      -0.353748        -9.6260
  69   2.0000      -0.334864        -9.1121
  70   2.0000      -0.330303        -8.9880
  71   2.0000      -0.326212        -8.8767
  72   2.0000      -0.318993        -8.6802
  73   2.0000      -0.314715        -8.5638
  74   2.0000      -0.297408        -8.0929
  75   2.0000      -0.289497        -7.8776
  76   2.0000      -0.284326        -7.7369
  77   2.0000      -0.279487        -7.6052
  78   2.0000      -0.276219        -7.5163
  79   2.0000      -0.257379        -7.0036
  80   2.0000      -0.253993        -6.9115
  81   2.0000      -0.245003        -6.6669
  82   2.0000      -0.238542        -6.4911
  83   2.0000      -0.226369        -6.1598
  84   2.0000      -0.210182        -5.7193
  85   2.0000      -0.178177        -4.8484
  86   2.0000      -0.166365        -4.5270
  87   0.0000      -0.041560        -1.1309
  88   0.0000      -0.031837        -0.8663
  89   0.0000      -0.026465        -0.7202
  90   0.0000      -0.000341        -0.0093
  91   0.0000       0.035200         0.9578

MULLIKEN ATOMIC CHARGES
-----------------------
   0 C :   -0.306683
   1 C :   -0.021149
   2 O :   -0.214891
   3 C :    0.105738
   4 O :   -0.202487
   5 C :   -0.030673
   6 C :   -0.278782
   7 H :    0.146110
   8 C :    0.223256
   9 O :   -0.209087
  10 O :   -0.217943
  11 C :   -0.031158
  12 C :   -0.276872
  13 S :   -0.132071
  14 P :    0.648929
  15 S :   -0.327477
  16 O :   -0.403353
  17 C :   -0.080473
  18 O :   -0.381640
  19 C :   -0.115588
  20 H :    0.114463
  21 H :    0.109016
  22 H :    0.122235
  23 H :    0.135124
  24 H :    0.105462
  25 H :    0.117958
  26 H :    0.122067
  27 H :    0.108250
  28 H :    0.130282
  29 H :    0.120622
  30 H :    0.113981
  31 H :    0.115369
  32 H :    0.112350
  33 H :    0.101717
  34 H :    0.118386
  35 H :    0.123474
  36 H :    0.118936
  37 H :    0.116606
Sum of atomic charges:   -0.0000000

LOEWDIN ATOMIC CHARGES
----------------------
   0 C :   -0.357489
   1 C :   -0.111791
   2 O :   -0.040452
   3 C :    0.030893
   4 O :   -0.157036
   5 C :   -0.246732
   6 C :   -0.257547
   7 H :    0.147413
   8 C :    0.027901
   9 O :   -0.145778
  10 O :   -0.036001
  11 C :   -0.101938
  12 C :   -0.350259
  13 S :    0.084985
  14 P :    0.579712
  15 S :   -0.322081
  16 O :   -0.262037
  17 C :   -0.210311
  18 O :   -0.263988
  19 C :   -0.218359
  20 H :    0.131668
  21 H :    0.122045
  22 H :    0.127737
  23 H :    0.122317
  24 H :    0.120661
  25 H :    0.137341
  26 H :    0.146761
  27 H :    0.116970
  28 H :    0.129619
  29 H :    0.129462
  30 H :    0.125983
  31 H :    0.133346
  32 H :    0.113638
  33 H :    0.106238
  34 H :    0.111001
  35 H :    0.121660
  36 H :    0.104084
  37 H :    0.110366

  Mayer bond orders larger than 0.100000
B(  0-C ,  1-C ) :   1.1643 B(  0-C , 20-H ) :   0.9450 B(  0-C , 21-H ) :   0.9477
B(  0-C , 22-H ) :   0.9464 B(  1-C ,  2-O ) :   0.9052 B(  1-C , 23-H ) :   0.9066
B(  1-C , 24-H ) :   0.9389 B(  2-O ,  3-C ) :   1.2723 B(  3-C ,  4-O ) :   1.9487
B(  3-C ,  5-C ) :   0.9998 B(  4-O ,  8-C ) :   0.1102 B(  5-C ,  6-C ) :   1.0235
B(  5-C , 25-H ) :   0.9034 B(  5-C , 26-H ) :   0.8763 B(  6-C ,  7-H ) :   0.8770
B(  6-C ,  8-C ) :   0.9193 B(  6-C , 13-S ) :   1.0486 B(  8-C ,  9-O ) :   1.8760
B(  8-C , 10-O ) :   1.2755 B(  9-O , 14-P ) :   0.1546 B( 10-O , 11-C ) :   0.8887
B( 11-C , 12-C ) :   1.1561 B( 11-C , 27-H ) :   0.9314 B( 11-C , 28-H ) :   0.9248
B( 12-C , 29-H ) :   0.9491 B( 12-C , 30-H ) :   0.9507 B( 12-C , 31-H ) :   0.9428
B( 13-S , 14-P ) :   0.9187 B( 13-S , 15-S ) :   0.1102 B( 14-P , 15-S ) :   1.5993
B( 14-P , 16-O ) :   1.0651 B( 14-P , 18-O ) :   1.0718 B( 16-O , 17-C ) :   0.9348
B( 17-C , 32-H ) :   0.9542 B( 17-C , 33-H ) :   0.9555 B( 17-C , 34-H ) :   0.9346
B( 18-O , 19-C ) :   0.9392 B( 19-C , 35-H ) :   0.9608 B( 19-C , 36-H ) :   0.9416
B( 19-C , 37-H ) :   0.9426

Dispersion correction           -0.053199475
FINAL SINGLE POINT ENERGY     -1979.001942129745

DIPOLE MOMENT
-------------

Method             : SCF
Type of density    : Electron Density
Multiplicity       :   1
Irrep              :   0
Energy             : -1979.1327355709286167 Eh
Relativity type    :
Basis              : AO
                                X                 Y                 Z
Electronic contribution:    -12.376561493      -6.059521126      -3.237551557
Nuclear contribution   :     13.048888054       7.275060887       2.316158269
                        -----------------------------------------
Total Dipole Moment    :      0.672326561       1.215539761      -0.921393289
                        -----------------------------------------
Magnitude (a.u.)       :      1.666890971
Magnitude (Debye)      :      4.236900136

Rotational constants in cm-1:             0.011372             0.008673             0.006487
Rotational constants in MHz :           340.923551           260.019179           194.484073

                             ****ORCA TERMINATED NORMALLY****
TOTAL RUN TIME: 0 days 0 hours 0 minutes 39 seconds 845 msec
