                         Program Version 6.0.0  -   RELEASE  -
|  1> ! pbe def2-sv(p) def2/J RI DEFGRID1 loosescf d4 GCP(DFT/SV(P)) printgap
|  2> %output
|  3>     printlevel normal
|  4> end
|  5> * xyz 0 1
|  6> C 1.5953407223 -2.3603968047 1.3419861123
|  7> C 3.0564181777 -2.0181762283 1.1347368171
|  8> O 3.2696713328 -0.6002452728 1.0203225991
|  9> P 2.8420309765 0.2297606962 -0.2684745098
| 10> S 3.1100409738 -0.6913939541 -1.9722261729
| 11> O 3.7337276904 1.5241639343 -0.1636166994
| 12> C 3.6659265699 2.517463725 0.8871168675
| 13> C 4.4495334023 2.0976280888 2.1134746702
| 14> S 0.856453841 0.9514430561 0.1271320553
| 15> C 0.0154455791 0.3436058846 -1.3542493055
| 16> S -1.0998207841 -1.0360061621 -1.0095416957
| 17> P -2.6797555142 0.1547083234 -0.2087797118
| 18> S -3.0453691489 1.8041138066 -1.1941342671
| 19> O -2.3371759025 0.4307811042 1.2978384527
| 20> C -2.0448486333 -0.6214369759 2.2572948131
| 21> C -1.1143156917 -0.0453001199 3.3038840297
| 22> O -3.8751762927 -0.8850888663 -0.1038130195
| 23> C -4.5570969366 -1.3711748646 -1.2791055084
| 24> C -5.8354857673 -2.0452872664 -0.8246517584
| 25> H 1.1910888234 -1.7941758576 2.1768412271
| 26> H 1.0250183692 -2.1320800009 0.442234633
| 27> H 1.5027395891 -3.4216299 1.5489831263
| 28> H 3.4428252919 -2.5013055009 0.231854784
| 29> H 3.6623954355 -2.3041526028 1.9956697468
| 30> H 4.095223979 3.4088065679 0.4260117266
| 31> H 2.6150616983 2.6981381001 1.1308529114
| 32> H 4.456484575 2.9183156163 2.8241250834
| 33> H 3.9947925095 1.2267799597 2.5766335712
| 34> H 5.4718841202 1.8548902529 1.8365898121
| 35> H 0.7626980879 -0.0130078092 -2.0672548754
| 36> H -0.572040217 1.1649274872 -1.7670099434
| 37> H -2.9947477219 -0.9392094466 2.6899378377
| 38> H -1.5881767574 -1.4626546435 1.7275249351
| 39> H -1.5871768765 0.798985177 3.7968123945
| 40> H -0.8868729583 -0.8104881076 4.0392516705
| 41> H -0.1956519503 0.3005204706 2.8363109523
| 42> H -4.7609523009 -0.522264252 -1.9398408839
| 43> H -3.8940634038 -2.07293782 -1.792278552
| 44> H -5.6031734219 -2.8653295446 -0.1517139811
| 45> H -6.4693271312 -1.3314491867 -0.3061454525
| 46> H -6.3628799398 -2.4290949701 -1.6916151499
| 47> *
| 48>
| 49>                          ****END OF INPUT****

CARTESIAN COORDINATES (ANGSTROEM)
---------------------------------
  C      1.595341   -2.360397    1.341986
  C      3.056418   -2.018176    1.134737
  O      3.269671   -0.600245    1.020323
  P      2.842031    0.229761   -0.268475
  S      3.110041   -0.691394   -1.972226
  O      3.733728    1.524164   -0.163617
  C      3.665927    2.517464    0.887117
  C      4.449533    2.097628    2.113475
  S      0.856454    0.951443    0.127132
  C      0.015446    0.343606   -1.354249
  S     -1.099821   -1.036006   -1.009542
  P     -2.679756    0.154708   -0.208780
  S     -3.045369    1.804114   -1.194134
  O     -2.337176    0.430781    1.297838
  C     -2.044849   -0.621437    2.257295
  C     -1.114316   -0.045300    3.303884
  O     -3.875176   -0.885089   -0.103813
  C     -4.557097   -1.371175   -1.279106
  C     -5.835486   -2.045287   -0.824652
  H      1.191089   -1.794176    2.176841
  H      1.025018   -2.132080    0.442235
  H      1.502740   -3.421630    1.548983
  H      3.442825   -2.501306    0.231855
  H      3.662395   -2.304153    1.995670
  H      4.095224    3.408807    0.426012
  H      2.615062    2.698138    1.130853
  H      4.456485    2.918316    2.824125
  H      3.994793    1.226780    2.576634
  H      5.471884    1.854890    1.836590
  H      0.762698   -0.013008   -2.067255
  H     -0.572040    1.164927   -1.767010
  H     -2.994748   -0.939209    2.689938
  H     -1.588177   -1.462655    1.727525
  H     -1.587177    0.798985    3.796812
  H     -0.886873   -0.810488    4.039252
  H     -0.195652    0.300520    2.836311
  H     -4.760952   -0.522264   -1.939841
  H     -3.894063   -2.072938   -1.792279
  H     -5.603173   -2.865330   -0.151714
  H     -6.469327   -1.331449   -0.306145
  H     -6.362880   -2.429095   -1.691615

 Total Charge           Charge          ....    0
 Multiplicity           Mult            ....    1
 Number of Electrons    NEL             ....  202
 Basis Dimension        Dim             ....  334

ORBITAL ENERGIES
----------------

  NO   OCC          E(Eh)            E(eV)
   0   2.0000     -88.044859     -2395.8224
   1   2.0000     -88.044245     -2395.8057
   2   2.0000     -87.992036     -2394.3850
   3   2.0000     -87.985423     -2394.2051
   4   2.0000     -76.430081     -2079.7682
   5   2.0000     -76.426595     -2079.6734
   6   2.0000     -18.797325      -511.5012
   7   2.0000     -18.796296      -511.4732
   8   2.0000     -18.796041      -511.4663
   9   2.0000     -18.794906      -511.4354
  10   2.0000      -9.960418      -271.0367
  11   2.0000      -9.958948      -270.9968
  12   2.0000      -9.957207      -270.9494
  13   2.0000      -9.956176      -270.9213
  14   2.0000      -9.949574      -270.7417
  15   2.0000      -9.891932      -269.1732
  16   2.0000      -9.889994      -269.1204
  17   2.0000      -9.889451      -269.1057
  18   2.0000      -9.887528      -269.0533
  19   2.0000      -7.689397      -209.2391
  20   2.0000      -7.688742      -209.2213
  21   2.0000      -7.637191      -207.8185
  22   2.0000      -7.630715      -207.6423
  23   2.0000      -6.427769      -174.9085
  24   2.0000      -6.424545      -174.8208
  25   2.0000      -5.716943      -155.5659
  26   2.0000      -5.716487      -155.5535
  27   2.0000      -5.713949      -155.4844
  28   2.0000      -5.713297      -155.4667
  29   2.0000      -5.706763      -155.2889
  30   2.0000      -5.705883      -155.2650
  31   2.0000      -5.666122      -154.1830
  32   2.0000      -5.659771      -154.0102
  33   2.0000      -5.657833      -153.9575
  34   2.0000      -5.657269      -153.9421
  35   2.0000      -5.651244      -153.7782
  36   2.0000      -5.650801      -153.7661
  37   2.0000      -4.650465      -126.5456
  38   2.0000      -4.649350      -126.5152
  39   2.0000      -4.648268      -126.4858
  40   2.0000      -4.647419      -126.4627
  41   2.0000      -4.646314      -126.4326
  42   2.0000      -4.644637      -126.3870
  43   2.0000      -0.992694       -27.0126
  44   2.0000      -0.990991       -26.9662
  45   2.0000      -0.949451       -25.8359
  46   2.0000      -0.949385       -25.8341
  47   2.0000      -0.763115       -20.7654
  48   2.0000      -0.726213       -19.7613
  49   2.0000      -0.716796       -19.5050
  50   2.0000      -0.695682       -18.9305
  51   2.0000      -0.693825       -18.8799
  52   2.0000      -0.678511       -18.4632
  53   2.0000      -0.651409       -17.7258
  54   2.0000      -0.639475       -17.4010
  55   2.0000      -0.601166       -16.3586
  56   2.0000      -0.586970       -15.9723
  57   2.0000      -0.579409       -15.7665
  58   2.0000      -0.574118       -15.6225
  59   2.0000      -0.563700       -15.3391
  60   2.0000      -0.514888       -14.0108
  61   2.0000      -0.501159       -13.6372
  62   2.0000      -0.487235       -13.2583
  63   2.0000      -0.479067       -13.0361
  64   2.0000      -0.460870       -12.5409
  65   2.0000      -0.451487       -12.2856
  66   2.0000      -0.444967       -12.1082
  67   2.0000      -0.440716       -11.9925
  68   2.0000      -0.434120       -11.8130
  69   2.0000      -0.427089       -11.6217
  70   2.0000      -0.408455       -11.1146
  71   2.0000      -0.399477       -10.8703
  72   2.0000      -0.396033       -10.7766
  73   2.0000      -0.385382       -10.4868
  74   2.0000      -0.380272       -10.3477
  75   2.0000      -0.374636       -10.1944
  76   2.0000      -0.368671       -10.0321
  77   2.0000      -0.361571        -9.8388
  78   2.0000      -0.358120        -9.7449
  79   2.0000      -0.355182        -9.6650
  80   2.0000      -0.352896        -9.6028
  81   2.0000      -0.351301        -9.5594
  82   2.0000      -0.346822        -9.4375
  83   2.0000      -0.341568        -9.2945
  84   2.0000      -0.339640        -9.2421
  85   2.0000      -0.321047        -8.7361
  86   2.0000      -0.316539        -8.6135
  87   2.0000      -0.305170        -8.3041
  88   2.0000      -0.303411        -8.2562
  89   2.0000      -0.299909        -8.1609
  90   2.0000      -0.293911        -7.9977
  91   2.0000      -0.279346        -7.6014
  92   2.0000      -0.274539        -7.4706
  93   2.0000      -0.266517        -7.2523
  94   2.0000      -0.259072        -7.0497
  95   2.0000      -0.235195        -6.4000
  96   2.0000      -0.222238        -6.0474
  97   2.0000      -0.214299        -5.8314
  98   2.0000      -0.208296        -5.6680
  99   2.0000      -0.204962        -5.5773
 100   2.0000      -0.198980        -5.4145
 101   0.0000      -0.044325        -1.2061
 102   0.0000      -0.032204        -0.8763
 103   0.0000      -0.017599        -0.4789
 104   0.0000       0.005368         0.1461
 105   0.0000       0.013265         0.3610

MULLIKEN ATOMIC CHARGES
-----------------------
   0 C :   -0.342615
   1 C :    0.004338
   2 O :   -0.378787
   3 P :    0.612163
   4 S :   -0.305619
   5 O :   -0.354059
   6 C :   -0.021553
   7 C :   -0.297037
   8 S :   -0.112449
   9 C :   -0.361385
  10 S :   -0.108186
  11 P :    0.596310
  12 S :   -0.307531
  13 O :   -0.354078
  14 C :   -0.015182
  15 C :   -0.293908
  16 O :   -0.387909
  17 C :   -0.013013
  18 C :   -0.280897
  19 H :    0.121263
  20 H :    0.137454
  21 H :    0.111187
  22 H :    0.114408
  23 H :    0.103866
  24 H :    0.115378
  25 H :    0.115348
  26 H :    0.112129
  27 H :    0.122576
  28 H :    0.121394
  29 H :    0.196229
  30 H :    0.198184
  31 H :    0.109765
  32 H :    0.109519
  33 H :    0.121120
  34 H :    0.108922
  35 H :    0.135089
  36 H :    0.109475
  37 H :    0.106330
  38 H :    0.114600
  39 H :    0.122488
  40 H :    0.114672
Sum of atomic charges:   -0.0000000

LOEWDIN ATOMIC CHARGES
----------------------
   0 C :   -0.373210
   1 C :   -0.116892
   2 O :   -0.246234
   3 P :    0.571938
   4 S :   -0.294073
   5 O :   -0.234346
   6 C :   -0.113532
   7 C :   -0.362525
   8 S :    0.072943
   9 C :   -0.490697
  10 S :    0.075463
  11 P :    0.563069
  12 S :   -0.307592
  13 O :   -0.233125
  14 C :   -0.112693
  15 C :   -0.356506
  16 O :   -0.252309
  17 C :   -0.118256
  18 C :   -0.350338
  19 H :    0.123657
  20 H :    0.113548
  21 H :    0.130850
  22 H :    0.112080
  23 H :    0.118007
  24 H :    0.124556
  25 H :    0.105442
  26 H :    0.130511
  27 H :    0.124230
  28 H :    0.129887
  29 H :    0.125656
  30 H :    0.127670
  31 H :    0.117248
  32 H :    0.104956
  33 H :    0.130178
  34 H :    0.128481
  35 H :    0.122013
  36 H :    0.112068
  37 H :    0.109667
  38 H :    0.126026
  39 H :    0.129949
  40 H :    0.132235

  Mayer bond orders larger than 0.100000
B(  0-C ,  1-C ) :   1.1619 B(  0-C , 19-H ) :   0.9377 B(  0-C , 20-H ) :   0.9257
B(  0-C , 21-H ) :   0.9367 B(  1-C ,  2-O ) :   0.9100 B(  1-C , 22-H ) :   0.9145
B(  1-C , 23-H ) :   0.9331 B(  2-O ,  3-P ) :   1.0841 B(  3-P ,  4-S ) :   1.6279
B(  3-P ,  5-O ) :   1.1504 B(  3-P ,  8-S ) :   0.9392 B(  4-S ,  8-S ) :   0.1141
B(  4-S , 29-H ) :   0.1173 B(  5-O ,  6-C ) :   0.9017 B(  6-C ,  7-C ) :   1.1609
B(  6-C , 24-H ) :   0.9358 B(  6-C , 25-H ) :   0.9132 B(  7-C , 26-H ) :   0.9383
B(  7-C , 27-H ) :   0.9395 B(  7-C , 28-H ) :   0.9468 B(  8-S ,  9-C ) :   1.0079
B(  9-C , 10-S ) :   1.0077 B(  9-C , 29-H ) :   0.8485 B(  9-C , 30-H ) :   0.8621
B( 10-S , 11-P ) :   0.9477 B( 10-S , 12-S ) :   0.1077 B( 11-P , 12-S ) :   1.6584
B( 11-P , 13-O ) :   1.1501 B( 11-P , 16-O ) :   1.0876 B( 13-O , 14-C ) :   0.8821
B( 14-C , 15-C ) :   1.1712 B( 14-C , 31-H ) :   0.9316 B( 14-C , 32-H ) :   0.9086
B( 15-C , 33-H ) :   0.9456 B( 15-C , 34-H ) :   0.9383 B( 15-C , 35-H ) :   0.9327
B( 16-O , 17-C ) :   0.9028 B( 17-C , 18-C ) :   1.1603 B( 17-C , 36-H ) :   0.9129
B( 17-C , 37-H ) :   0.9285 B( 18-C , 38-H ) :   0.9510 B( 18-C , 39-H ) :   0.9507
B( 18-C , 40-H ) :   0.9415

Dispersion correction           -0.062309171
FINAL SINGLE POINT ENERGY     -2929.519687680860

DIPOLE MOMENT
-------------

Method             : SCF
Type of density    : Electron Density
Multiplicity       :   1
Irrep              :   0
Energy             : -2929.6419831462349066 Eh
Relativity type    :
Basis              : AO
                                X                 Y                 Z
Electronic contribution:      2.500197662       8.930551268     -18.168762982
Nuclear contribution   :     -2.656338172      -9.962343871      19.866355947
                        -----------------------------------------
Total Dipole Moment    :     -0.156140510      -1.031792603       1.697592965
                        -----------------------------------------
Magnitude (a.u.)       :      1.992686054
Magnitude (Debye)      :      5.065005427

Rotational constants in cm-1:             0.013134             0.004113             0.004058
Rotational constants in MHz :           393.745160           123.306778           121.647663

                             ****ORCA TERMINATED NORMALLY****
TOTAL RUN TIME: 0 days 0 hours 0 minutes 20 seconds 760 msec
