                         Program Version 6.0.0  -   RELEASE  -
|  1> ! pbe def2-sv(p) def2/J RI DEFGRID1 loosescf d4 GCP(DFT/SV(P)) printgap
|  2> %output
|  3>     printlevel normal
|  4> end
|  5> * xyz 0 1
|  6> C 1.4616658676 -0.9960188587 -2.8434608161
|  7> C 2.5233120726 -0.331230803 -1.9905130332
|  8> O 1.905925504 0.3904459583 -0.8965574242
|  9> P 1.9979985001 -0.106621488 0.6103606599
| 10> S 0.9968640714 1.099065662 1.7766163401
| 11> O 3.554688543 -0.2893176551 0.9184570151
| 12> C 4.41163912 0.8646767246 1.0606848248
| 13> C 4.6163785607 1.1981186989 2.5251869226
| 14> S 1.5278655001 -2.1509063826 0.6866446115
| 15> C -0.2419933976 -1.9901600384 1.0618616016
| 16> S -1.3004370788 -1.8060858441 -0.4075073781
| 17> P -1.9705799245 0.2055040696 -0.3667866741
| 18> S -0.9725164939 1.6541540027 -1.2426471629
| 19> O -2.255033338 0.3361625261 1.185490172
| 20> C -2.4713934625 1.6105254319 1.8225687094
| 21> C -3.749007225 2.2695201895 1.3501718971
| 22> O -3.4395316425 0.0461740741 -0.9608550541
| 23> C -3.7134762064 0.1694937563 -2.3640095737
| 24> C -3.1710365533 -1.0110820431 -3.1435358035
| 25> H 0.7173264492 -0.2582889233 -3.1352616666
| 26> H 1.9260093039 -1.4084140136 -3.7331923818
| 27> H 0.9682387378 -1.7961719631 -2.2954676708
| 28> H 3.0629110145 0.4295855716 -2.5571505488
| 29> H 3.2271032729 -1.0644312063 -1.5844243746
| 30> H 5.3506555478 0.5756939783 0.5844873062
| 31> H 3.9720733027 1.7116058 0.5221415608
| 32> H 3.671301661 1.4872677855 2.9805052504
| 33> H 5.0071635379 0.331382359 3.0506165217
| 34> H 5.3184103446 2.0213727526 2.611083159
| 35> H -0.3946870475 -1.1396337744 1.7273847323
| 36> H -0.5359868346 -2.9228391231 1.5354762827
| 37> H -2.50524378 1.3654038305 2.8851649502
| 38> H -1.6026478268 2.2481065436 1.6274892568
| 39> H -4.5867773908 1.5866132851 1.4645877924
| 40> H -3.9261062571 3.165906578 1.9360664026
| 41> H -3.6571843866 2.544900024 0.3002170802
| 42> H -4.8012175762 0.2269401942 -2.4191164564
| 43> H -3.2703951308 1.1050820163 -2.7224329876
| 44> H -3.4567290964 -0.9198900813 -4.1863875483
| 45> H -2.0834710445 -1.0288342955 -3.0724871706
| 46> H -3.5591083682 -1.9419847349 -2.7389902996
| 47> *
| 48>
| 49>                          ****END OF INPUT****

CARTESIAN COORDINATES (ANGSTROEM)
---------------------------------
  C      1.461666   -0.996019   -2.843461
  C      2.523312   -0.331231   -1.990513
  O      1.905926    0.390446   -0.896557
  P      1.997999   -0.106621    0.610361
  S      0.996864    1.099066    1.776616
  O      3.554689   -0.289318    0.918457
  C      4.411639    0.864677    1.060685
  C      4.616379    1.198119    2.525187
  S      1.527866   -2.150906    0.686645
  C     -0.241993   -1.990160    1.061862
  S     -1.300437   -1.806086   -0.407507
  P     -1.970580    0.205504   -0.366787
  S     -0.972516    1.654154   -1.242647
  O     -2.255033    0.336163    1.185490
  C     -2.471393    1.610525    1.822569
  C     -3.749007    2.269520    1.350172
  O     -3.439532    0.046174   -0.960855
  C     -3.713476    0.169494   -2.364010
  C     -3.171037   -1.011082   -3.143536
  H      0.717326   -0.258289   -3.135262
  H      1.926009   -1.408414   -3.733192
  H      0.968239   -1.796172   -2.295468
  H      3.062911    0.429586   -2.557151
  H      3.227103   -1.064431   -1.584424
  H      5.350656    0.575694    0.584487
  H      3.972073    1.711606    0.522142
  H      3.671302    1.487268    2.980505
  H      5.007164    0.331382    3.050617
  H      5.318410    2.021373    2.611083
  H     -0.394687   -1.139634    1.727385
  H     -0.535987   -2.922839    1.535476
  H     -2.505244    1.365404    2.885165
  H     -1.602648    2.248107    1.627489
  H     -4.586777    1.586613    1.464588
  H     -3.926106    3.165907    1.936066
  H     -3.657184    2.544900    0.300217
  H     -4.801218    0.226940   -2.419116
  H     -3.270395    1.105082   -2.722433
  H     -3.456729   -0.919890   -4.186388
  H     -2.083471   -1.028834   -3.072487
  H     -3.559108   -1.941985   -2.738990

 Total Charge           Charge          ....    0
 Multiplicity           Mult            ....    1
 Number of Electrons    NEL             ....  202
 Basis Dimension        Dim             ....  334

ORBITAL ENERGIES
----------------

  NO   OCC          E(Eh)            E(eV)
   0   2.0000     -88.044104     -2395.8019
   1   2.0000     -88.037898     -2395.6330
   2   2.0000     -87.984325     -2394.1752
   3   2.0000     -87.977272     -2393.9833
   4   2.0000     -76.422583     -2079.5642
   5   2.0000     -76.420003     -2079.4940
   6   2.0000     -18.790536      -511.3165
   7   2.0000     -18.785955      -511.1918
   8   2.0000     -18.785792      -511.1874
   9   2.0000     -18.784342      -511.1479
  10   2.0000      -9.956890      -270.9407
  11   2.0000      -9.955637      -270.9066
  12   2.0000      -9.951341      -270.7897
  13   2.0000      -9.947128      -270.6751
  14   2.0000      -9.943407      -270.5739
  15   2.0000      -9.883848      -268.9532
  16   2.0000      -9.880460      -268.8610
  17   2.0000      -9.877329      -268.7758
  18   2.0000      -9.875135      -268.7161
  19   2.0000      -7.689711      -209.2477
  20   2.0000      -7.683098      -209.0677
  21   2.0000      -7.629430      -207.6074
  22   2.0000      -7.622108      -207.4081
  23   2.0000      -6.420920      -174.7221
  24   2.0000      -6.417496      -174.6290
  25   2.0000      -5.717457      -155.5799
  26   2.0000      -5.714249      -155.4926
  27   2.0000      -5.711286      -155.4120
  28   2.0000      -5.707404      -155.3063
  29   2.0000      -5.706653      -155.2859
  30   2.0000      -5.699895      -155.1020
  31   2.0000      -5.658399      -153.9729
  32   2.0000      -5.651027      -153.7723
  33   2.0000      -5.650467      -153.7570
  34   2.0000      -5.649018      -153.7176
  35   2.0000      -5.642892      -153.5509
  36   2.0000      -5.642128      -153.5301
  37   2.0000      -4.643861      -126.3659
  38   2.0000      -4.642442      -126.3273
  39   2.0000      -4.641229      -126.2942
  40   2.0000      -4.640017      -126.2613
  41   2.0000      -4.639371      -126.2437
  42   2.0000      -4.637914      -126.2041
  43   2.0000      -0.982922       -26.7467
  44   2.0000      -0.981001       -26.6944
  45   2.0000      -0.940796       -25.6004
  46   2.0000      -0.939524       -25.5658
  47   2.0000      -0.761151       -20.7120
  48   2.0000      -0.718708       -19.5570
  49   2.0000      -0.704528       -19.1712
  50   2.0000      -0.687466       -18.7069
  51   2.0000      -0.683322       -18.5941
  52   2.0000      -0.670066       -18.2334
  53   2.0000      -0.649608       -17.6767
  54   2.0000      -0.632624       -17.2146
  55   2.0000      -0.597595       -16.2614
  56   2.0000      -0.583365       -15.8742
  57   2.0000      -0.569872       -15.5070
  58   2.0000      -0.568019       -15.4566
  59   2.0000      -0.556630       -15.1467
  60   2.0000      -0.507282       -13.8039
  61   2.0000      -0.487285       -13.2597
  62   2.0000      -0.472654       -12.8616
  63   2.0000      -0.468714       -12.7544
  64   2.0000      -0.453976       -12.3533
  65   2.0000      -0.447805       -12.1854
  66   2.0000      -0.435139       -11.8407
  67   2.0000      -0.430461       -11.7134
  68   2.0000      -0.429071       -11.6756
  69   2.0000      -0.415182       -11.2977
  70   2.0000      -0.406842       -11.0707
  71   2.0000      -0.389395       -10.5960
  72   2.0000      -0.384808       -10.4711
  73   2.0000      -0.381228       -10.3737
  74   2.0000      -0.378177       -10.2907
  75   2.0000      -0.371921       -10.1205
  76   2.0000      -0.369113       -10.0441
  77   2.0000      -0.353101        -9.6084
  78   2.0000      -0.349444        -9.5089
  79   2.0000      -0.347519        -9.4565
  80   2.0000      -0.344332        -9.3698
  81   2.0000      -0.340400        -9.2628
  82   2.0000      -0.338969        -9.2238
  83   2.0000      -0.334726        -9.1084
  84   2.0000      -0.326950        -8.8968
  85   2.0000      -0.311916        -8.4877
  86   2.0000      -0.306949        -8.3525
  87   2.0000      -0.305085        -8.3018
  88   2.0000      -0.290679        -7.9098
  89   2.0000      -0.279459        -7.6045
  90   2.0000      -0.278620        -7.5816
  91   2.0000      -0.272568        -7.4169
  92   2.0000      -0.268833        -7.3153
  93   2.0000      -0.266382        -7.2486
  94   2.0000      -0.256408        -6.9772
  95   2.0000      -0.233473        -6.3531
  96   2.0000      -0.219203        -5.9648
  97   2.0000      -0.210802        -5.7362
  98   2.0000      -0.204497        -5.5646
  99   2.0000      -0.190329        -5.1791
 100   2.0000      -0.179542        -4.8856
 101   0.0000      -0.039750        -1.0816
 102   0.0000      -0.028276        -0.7694
 103   0.0000      -0.020137        -0.5479
 104   0.0000       0.005094         0.1386
 105   0.0000       0.020442         0.5563

MULLIKEN ATOMIC CHARGES
-----------------------
   0 C :   -0.309002
   1 C :   -0.018218
   2 O :   -0.348523
   3 P :    0.616069
   4 S :   -0.310093
   5 O :   -0.389129
   6 C :   -0.019302
   7 C :   -0.284833
   8 S :   -0.088561
   9 C :   -0.350195
  10 S :   -0.107928
  11 P :    0.609924
  12 S :   -0.302877
  13 O :   -0.371634
  14 C :   -0.008667
  15 C :   -0.303029
  16 O :   -0.370821
  17 C :   -0.003712
  18 C :   -0.331785
  19 H :    0.135140
  20 H :    0.100753
  21 H :    0.129459
  22 H :    0.105829
  23 H :    0.099726
  24 H :    0.105067
  25 H :    0.111282
  26 H :    0.128239
  27 H :    0.114398
  28 H :    0.107067
  29 H :    0.209537
  30 H :    0.186084
  31 H :    0.102390
  32 H :    0.127759
  33 H :    0.114794
  34 H :    0.110203
  35 H :    0.122064
  36 H :    0.103572
  37 H :    0.106782
  38 H :    0.114225
  39 H :    0.136273
  40 H :    0.121672
Sum of atomic charges:   -0.0000000

LOEWDIN ATOMIC CHARGES
----------------------
   0 C :   -0.367307
   1 C :   -0.116684
   2 O :   -0.235001
   3 P :    0.566466
   4 S :   -0.290675
   5 O :   -0.260092
   6 C :   -0.115091
   7 C :   -0.360779
   8 S :    0.087234
   9 C :   -0.476323
  10 S :    0.081318
  11 P :    0.565611
  12 S :   -0.299702
  13 O :   -0.237213
  14 C :   -0.119029
  15 C :   -0.365738
  16 O :   -0.244214
  17 C :   -0.124316
  18 C :   -0.370872
  19 H :    0.127012
  20 H :    0.125504
  21 H :    0.115292
  22 H :    0.118889
  23 H :    0.103888
  24 H :    0.117031
  25 H :    0.112480
  26 H :    0.125961
  27 H :    0.126687
  28 H :    0.128407
  29 H :    0.131092
  30 H :    0.140721
  31 H :    0.118017
  32 H :    0.110869
  33 H :    0.125396
  34 H :    0.129812
  35 H :    0.122170
  36 H :    0.118034
  37 H :    0.106399
  38 H :    0.131742
  39 H :    0.121121
  40 H :    0.125880

  Mayer bond orders larger than 0.100000
B(  0-C ,  1-C ) :   1.1696 B(  0-C , 19-H ) :   0.9341 B(  0-C , 20-H ) :   0.9363
B(  0-C , 21-H ) :   0.9308 B(  1-C ,  2-O ) :   0.8982 B(  1-C , 22-H ) :   0.9321
B(  1-C , 23-H ) :   0.9144 B(  2-O ,  3-P ) :   1.1243 B(  3-P ,  4-S ) :   1.6322
B(  3-P ,  5-O ) :   1.0858 B(  3-P ,  8-S ) :   0.9546 B(  4-S ,  8-S ) :   0.1044
B(  5-O ,  6-C ) :   0.8972 B(  6-C ,  7-C ) :   1.1724 B(  6-C , 24-H ) :   0.9348
B(  6-C , 25-H ) :   0.9139 B(  7-C , 26-H ) :   0.9339 B(  7-C , 27-H ) :   0.9472
B(  7-C , 28-H ) :   0.9399 B(  8-S ,  9-C ) :   1.0074 B(  9-C , 10-S ) :   0.9978
B(  9-C , 29-H ) :   0.8577 B(  9-C , 30-H ) :   0.9116 B( 10-S , 11-P ) :   0.9470
B( 10-S , 12-S ) :   0.1092 B( 11-P , 12-S ) :   1.6341 B( 11-P , 13-O ) :   1.1226
B( 11-P , 16-O ) :   1.0834 B( 13-O , 14-C ) :   0.8955 B( 14-C , 15-C ) :   1.1640
B( 14-C , 31-H ) :   0.9361 B( 14-C , 32-H ) :   0.9109 B( 15-C , 33-H ) :   0.9448
B( 15-C , 34-H ) :   0.9390 B( 15-C , 35-H ) :   0.9352 B( 16-O , 17-C ) :   0.9168
B( 17-C , 18-C ) :   1.1643 B( 17-C , 36-H ) :   0.9318 B( 17-C , 37-H ) :   0.9079
B( 18-C , 38-H ) :   0.9386 B( 18-C , 39-H ) :   0.9305 B( 18-C , 40-H ) :   0.9431

Dispersion correction           -0.068075123
FINAL SINGLE POINT ENERGY     -2929.515897620212

DIPOLE MOMENT
-------------

Method             : SCF
Type of density    : Electron Density
Multiplicity       :   1
Irrep              :   0
Energy             : -2929.6337566349652661 Eh
Relativity type    :
Basis              : AO
                                X                 Y                 Z
Electronic contribution:      1.384003797      -6.194493764       6.626040977
Nuclear contribution   :     -1.121993766       5.882311198      -7.010831008
                        -----------------------------------------
Total Dipole Moment    :      0.262010030      -0.312182566      -0.384790031
                        -----------------------------------------
Magnitude (a.u.)       :      0.560509213
Magnitude (Debye)      :      1.424701198

Rotational constants in cm-1:             0.012263             0.005674             0.004975
Rotational constants in MHz :           367.643943           170.090978           149.136331

                             ****ORCA TERMINATED NORMALLY****
TOTAL RUN TIME: 0 days 0 hours 0 minutes 21 seconds 462 msec
