                         Program Version 6.0.0  -   RELEASE  -
|  1> ! pbe def2-sv(p) def2/J RI DEFGRID1 loosescf d4 GCP(DFT/SV(P)) printgap
|  2> %output
|  3>     printlevel normal
|  4> end
|  5> * xyz 0 1
|  6> C 5.0247829824 -1.1896130825 -1.816940289
|  7> C 4.6673237295 -0.2887807502 -0.6521365944
|  8> O 3.5017931408 0.5119074108 -0.969275195
|  9> P 2.058635396 0.2182211012 -0.3839822303
| 10> S 0.8284470636 1.6067027729 -0.9990824817
| 11> O 2.1989398222 0.0602025416 1.2025251532
| 12> C 2.0966493628 1.1861375092 2.0918547963
| 13> C 3.3112578772 2.0855245044 1.9956935525
| 14> S 1.7477185983 -1.8095626626 -0.8626094484
| 15> C 0.1787206233 -2.1495917355 -0.0232303223
| 16> S -1.2927962206 -1.7878807871 -1.0377084687
| 17> P -2.1468369159 -0.1724107771 0.0173054473
| 18> S -1.2618052177 0.2536416613 1.7206030029
| 19> O -3.6833209606 -0.5669156981 0.1764992879
| 20> C -4.1544253372 -1.4302660113 1.2303945888
| 21> C -4.7898071224 -0.6137753333 2.3390957027
| 22> O -2.2419126667 0.8883697582 -1.1442663273
| 23> C -3.1335989063 2.0239195557 -1.1557780081
| 24> C -2.8290683614 2.9979316032 -0.0371767921
| 25> H 5.9446496362 -1.7178724736 -1.5872618568
| 26> H 4.2320024189 -1.9128220981 -1.9955522654
| 27> H 5.1658249272 -0.5951083583 -2.715264421
| 28> H 5.4573933538 0.4397489828 -0.4608879318
| 29> H 4.4685603275 -0.8681103915 0.2527228119
| 30> H 1.1827359169 1.7386999354 1.8523244777
| 31> H 1.9939156689 0.7342366251 3.079480859
| 32> H 3.2156072909 2.8924174347 2.7153154981
| 33> H 4.2172217607 1.522076575 2.2035321687
| 34> H 3.3752862211 2.5104851373 0.9941313735
| 35> H 0.1226490586 -1.570149087 0.9029036763
| 36> H 0.1785585668 -3.2181672627 0.1733721848
| 37> H -4.8800195131 -2.0895077226 0.7510162884
| 38> H -3.3193885696 -2.0220357917 1.6151018209
| 39> H -4.0428394544 0.0230099053 2.8083483689
| 40> H -5.5845463555 0.0089541403 1.938194179
| 41> H -5.2007802951 -1.2850840861 3.0859573856
| 42> H -2.952161368 2.4726940633 -2.1337799016
| 43> H -4.1602244047 1.6553111077 -1.0947559612
| 44> H -3.0294481511 2.5377620311 0.9295445924
| 45> H -1.7794024957 3.2838778203 -0.0749661527
| 46> H -3.4483852244 3.8823605007 -0.1464852124
| 47> *
| 48>
| 49>                          ****END OF INPUT****

CARTESIAN COORDINATES (ANGSTROEM)
---------------------------------
  C      5.024783   -1.189613   -1.816940
  C      4.667324   -0.288781   -0.652137
  O      3.501793    0.511907   -0.969275
  P      2.058635    0.218221   -0.383982
  S      0.828447    1.606703   -0.999082
  O      2.198940    0.060203    1.202525
  C      2.096649    1.186138    2.091855
  C      3.311258    2.085525    1.995694
  S      1.747719   -1.809563   -0.862609
  C      0.178721   -2.149592   -0.023230
  S     -1.292796   -1.787881   -1.037708
  P     -2.146837   -0.172411    0.017305
  S     -1.261805    0.253642    1.720603
  O     -3.683321   -0.566916    0.176499
  C     -4.154425   -1.430266    1.230395
  C     -4.789807   -0.613775    2.339096
  O     -2.241913    0.888370   -1.144266
  C     -3.133599    2.023920   -1.155778
  C     -2.829068    2.997932   -0.037177
  H      5.944650   -1.717872   -1.587262
  H      4.232002   -1.912822   -1.995552
  H      5.165825   -0.595108   -2.715264
  H      5.457393    0.439749   -0.460888
  H      4.468560   -0.868110    0.252723
  H      1.182736    1.738700    1.852324
  H      1.993916    0.734237    3.079481
  H      3.215607    2.892417    2.715315
  H      4.217222    1.522077    2.203532
  H      3.375286    2.510485    0.994131
  H      0.122649   -1.570149    0.902904
  H      0.178559   -3.218167    0.173372
  H     -4.880020   -2.089508    0.751016
  H     -3.319389   -2.022036    1.615102
  H     -4.042839    0.023010    2.808348
  H     -5.584546    0.008954    1.938194
  H     -5.200780   -1.285084    3.085957
  H     -2.952161    2.472694   -2.133780
  H     -4.160224    1.655311   -1.094756
  H     -3.029448    2.537762    0.929545
  H     -1.779402    3.283878   -0.074966
  H     -3.448385    3.882361   -0.146485

 Total Charge           Charge          ....    0
 Multiplicity           Mult            ....    1
 Number of Electrons    NEL             ....  202
 Basis Dimension        Dim             ....  334

ORBITAL ENERGIES
----------------

  NO   OCC          E(Eh)            E(eV)
   0   2.0000     -88.038636     -2395.6531
   1   2.0000     -88.037659     -2395.6265
   2   2.0000     -87.986502     -2394.2344
   3   2.0000     -87.971545     -2393.8274
   4   2.0000     -76.424884     -2079.6268
   5   2.0000     -76.416710     -2079.4044
   6   2.0000     -18.788572      -511.2630
   7   2.0000     -18.788087      -511.2498
   8   2.0000     -18.785116      -511.1690
   9   2.0000     -18.783429      -511.1231
  10   2.0000      -9.954355      -270.8718
  11   2.0000      -9.953203      -270.8404
  12   2.0000      -9.953187      -270.8400
  13   2.0000      -9.950140      -270.7571
  14   2.0000      -9.940218      -270.4871
  15   2.0000      -9.886429      -269.0234
  16   2.0000      -9.882673      -268.9212
  17   2.0000      -9.879731      -268.8411
  18   2.0000      -9.877313      -268.7754
  19   2.0000      -7.684162      -209.0967
  20   2.0000      -7.683250      -209.0719
  21   2.0000      -7.631226      -207.6562
  22   2.0000      -7.616753      -207.2624
  23   2.0000      -6.422109      -174.7545
  24   2.0000      -6.414616      -174.5506
  25   2.0000      -5.712109      -155.4344
  26   2.0000      -5.711115      -155.4073
  27   2.0000      -5.708512      -155.3365
  28   2.0000      -5.707681      -155.3139
  29   2.0000      -5.701118      -155.1353
  30   2.0000      -5.700236      -155.1113
  31   2.0000      -5.659914      -154.0141
  32   2.0000      -5.652262      -153.8059
  33   2.0000      -5.651147      -153.7755
  34   2.0000      -5.645860      -153.6317
  35   2.0000      -5.637345      -153.4000
  36   2.0000      -5.636677      -153.3818
  37   2.0000      -4.644841      -126.3926
  38   2.0000      -4.643558      -126.3576
  39   2.0000      -4.642784      -126.3366
  40   2.0000      -4.637601      -126.1955
  41   2.0000      -4.636206      -126.1576
  42   2.0000      -4.634856      -126.1209
  43   2.0000      -0.984397       -26.7868
  44   2.0000      -0.978654       -26.6305
  45   2.0000      -0.939558       -25.5667
  46   2.0000      -0.938173       -25.5290
  47   2.0000      -0.758009       -20.6265
  48   2.0000      -0.718890       -19.5620
  49   2.0000      -0.706518       -19.2253
  50   2.0000      -0.687547       -18.7091
  51   2.0000      -0.684960       -18.6387
  52   2.0000      -0.669854       -18.2277
  53   2.0000      -0.649238       -17.6667
  54   2.0000      -0.631227       -17.1765
  55   2.0000      -0.593627       -16.1534
  56   2.0000      -0.580963       -15.8088
  57   2.0000      -0.573729       -15.6120
  58   2.0000      -0.572478       -15.5779
  59   2.0000      -0.557945       -15.1825
  60   2.0000      -0.500744       -13.6259
  61   2.0000      -0.494356       -13.4521
  62   2.0000      -0.472696       -12.8627
  63   2.0000      -0.469434       -12.7740
  64   2.0000      -0.450399       -12.2560
  65   2.0000      -0.445265       -12.1163
  66   2.0000      -0.436708       -11.8834
  67   2.0000      -0.432797       -11.7770
  68   2.0000      -0.422006       -11.4834
  69   2.0000      -0.409777       -11.1506
  70   2.0000      -0.406617       -11.0646
  71   2.0000      -0.399419       -10.8687
  72   2.0000      -0.394336       -10.7304
  73   2.0000      -0.385063       -10.4781
  74   2.0000      -0.376085       -10.2338
  75   2.0000      -0.367499       -10.0002
  76   2.0000      -0.362923        -9.8756
  77   2.0000      -0.354561        -9.6481
  78   2.0000      -0.351527        -9.5655
  79   2.0000      -0.348870        -9.4932
  80   2.0000      -0.342991        -9.3333
  81   2.0000      -0.340032        -9.2527
  82   2.0000      -0.335975        -9.1423
  83   2.0000      -0.332591        -9.0503
  84   2.0000      -0.331116        -9.0101
  85   2.0000      -0.313884        -8.5412
  86   2.0000      -0.308232        -8.3874
  87   2.0000      -0.300653        -8.1812
  88   2.0000      -0.296798        -8.0763
  89   2.0000      -0.286309        -7.7909
  90   2.0000      -0.273930        -7.4540
  91   2.0000      -0.269025        -7.3205
  92   2.0000      -0.266496        -7.2517
  93   2.0000      -0.261278        -7.1097
  94   2.0000      -0.257726        -7.0131
  95   2.0000      -0.234873        -6.3912
  96   2.0000      -0.220076        -5.9886
  97   2.0000      -0.206434        -5.6174
  98   2.0000      -0.202377        -5.5070
  99   2.0000      -0.187897        -5.1129
 100   2.0000      -0.179574        -4.8864
 101   0.0000      -0.032180        -0.8757
 102   0.0000      -0.026362        -0.7174
 103   0.0000      -0.010906        -0.2968
 104   0.0000       0.010466         0.2848
 105   0.0000       0.016194         0.4407

MULLIKEN ATOMIC CHARGES
-----------------------
   0 C :   -0.290157
   1 C :   -0.033224
   2 O :   -0.367183
   3 P :    0.609927
   4 S :   -0.303095
   5 O :   -0.387429
   6 C :   -0.016004
   7 C :   -0.310737
   8 S :   -0.105837
   9 C :   -0.354559
  10 S :   -0.073861
  11 P :    0.637297
  12 S :   -0.330109
  13 O :   -0.384611
  14 C :    0.003915
  15 C :   -0.292551
  16 O :   -0.354527
  17 C :    0.001831
  18 C :   -0.322791
  19 H :    0.109813
  20 H :    0.131066
  21 H :    0.122979
  22 H :    0.109742
  23 H :    0.109498
  24 H :    0.128814
  25 H :    0.100050
  26 H :    0.111526
  27 H :    0.107731
  28 H :    0.129546
  29 H :    0.204334
  30 H :    0.180786
  31 H :    0.106067
  32 H :    0.092374
  33 H :    0.125755
  34 H :    0.110487
  35 H :    0.107489
  36 H :    0.110760
  37 H :    0.106604
  38 H :    0.125223
  39 H :    0.135368
  40 H :    0.107693
Sum of atomic charges:   -0.0000000

LOEWDIN ATOMIC CHARGES
----------------------
   0 C :   -0.359705
   1 C :   -0.122071
   2 O :   -0.242079
   3 P :    0.559923
   4 S :   -0.304596
   5 O :   -0.253779
   6 C :   -0.125957
   7 C :   -0.366213
   8 S :    0.082192
   9 C :   -0.481699
  10 S :    0.085920
  11 P :    0.572597
  12 S :   -0.296286
  13 O :   -0.253239
  14 C :   -0.116042
  15 C :   -0.361580
  16 O :   -0.226432
  17 C :   -0.107769
  18 C :   -0.368410
  19 H :    0.130201
  20 H :    0.120229
  21 H :    0.130569
  22 H :    0.119690
  23 H :    0.108723
  24 H :    0.108775
  25 H :    0.116079
  26 H :    0.130634
  27 H :    0.120018
  28 H :    0.125808
  29 H :    0.123883
  30 H :    0.136858
  31 H :    0.117909
  32 H :    0.105159
  33 H :    0.124131
  34 H :    0.123766
  35 H :    0.128722
  36 H :    0.122990
  37 H :    0.110963
  38 H :    0.120228
  39 H :    0.131856
  40 H :    0.128033

  Mayer bond orders larger than 0.100000
B(  0-C ,  1-C ) :   1.1674 B(  0-C , 19-H ) :   0.9393 B(  0-C , 20-H ) :   0.9371
B(  0-C , 21-H ) :   0.9455 B(  1-C ,  2-O ) :   0.8982 B(  1-C , 22-H ) :   0.9319
B(  1-C , 23-H ) :   0.9139 B(  2-O ,  3-P ) :   1.1084 B(  3-P ,  4-S ) :   1.6740
B(  3-P ,  5-O ) :   1.0657 B(  3-P ,  8-S ) :   0.9629 B(  4-S ,  8-S ) :   0.1077
B(  5-O ,  6-C ) :   0.9042 B(  6-C ,  7-C ) :   1.1588 B(  6-C , 24-H ) :   0.9045
B(  6-C , 25-H ) :   0.9361 B(  7-C , 26-H ) :   0.9404 B(  7-C , 27-H ) :   0.9454
B(  7-C , 28-H ) :   0.9357 B(  8-S ,  9-C ) :   0.9958 B(  9-C , 10-S ) :   1.0057
B(  9-C , 29-H ) :   0.8435 B(  9-C , 30-H ) :   0.9125 B( 10-S , 11-P ) :   0.9739
B( 10-S , 12-S ) :   0.1236 B( 11-P , 12-S ) :   1.5761 B( 11-P , 13-O ) :   1.0781
B( 11-P , 16-O ) :   1.1516 B( 12-S , 29-H ) :   0.1083 B( 13-O , 14-C ) :   0.9042
B( 14-C , 15-C ) :   1.1664 B( 14-C , 31-H ) :   0.9354 B( 14-C , 32-H ) :   0.9117
B( 15-C , 33-H ) :   0.9353 B( 15-C , 34-H ) :   0.9480 B( 15-C , 35-H ) :   0.9405
B( 16-O , 17-C ) :   0.9035 B( 17-C , 18-C ) :   1.1658 B( 17-C , 36-H ) :   0.9340
B( 17-C , 37-H ) :   0.9289 B( 18-C , 38-H ) :   0.9359 B( 18-C , 39-H ) :   0.9412
B( 18-C , 40-H ) :   0.9364

Dispersion correction           -0.066381337
FINAL SINGLE POINT ENERGY     -2929.516147257758

DIPOLE MOMENT
-------------

Method             : SCF
Type of density    : Electron Density
Multiplicity       :   1
Irrep              :   0
Energy             : -2929.6347902821853495 Eh
Relativity type    :
Basis              : AO
                                X                 Y                 Z
Electronic contribution:     -1.207124548      -8.401192060     -11.807885468
Nuclear contribution   :      1.160520517       7.924598167      12.634348002
                        -----------------------------------------
Total Dipole Moment    :     -0.046604032      -0.476593894       0.826462534
                        -----------------------------------------
Magnitude (a.u.)       :      0.955172233
Magnitude (Debye)      :      2.427854872

Rotational constants in cm-1:             0.013346             0.004981             0.004592
Rotational constants in MHz :           400.105959           149.319625           137.659825

                             ****ORCA TERMINATED NORMALLY****
TOTAL RUN TIME: 0 days 0 hours 0 minutes 21 seconds 178 msec
