                         Program Version 6.0.0  -   RELEASE  -
|  1> ! pbe def2-sv(p) def2/J RI DEFGRID1 loosescf d4 GCP(DFT/SV(P)) printgap
|  2> %output
|  3>     printlevel normal
|  4> end
|  5> * xyz 0 1
|  6> C 4.1030508009 -1.2829931626 -2.6803060402
|  7> C 4.2542835164 0.0521862343 -1.9814787849
|  8> O 3.671891888 0.0418120019 -0.6653447556
|  9> P 2.1038468791 -0.0667551113 -0.4304267858
| 10> S 1.0401794079 0.9428177485 -1.7416753561
| 11> O 1.9880130381 0.339267937 1.0948492997
| 12> C 2.4117428159 1.6299481135 1.5913031587
| 13> C 2.1534319563 1.6475442355 3.0823231443
| 14> S 1.6799959865 -2.1146245648 -0.2804769189
| 15> C -0.1027162505 -2.0374154839 -0.5964077989
| 16> S -1.0862080198 -1.63438705 0.8851232
| 17> P -1.8886071335 0.2844646749 0.5045112797
| 18> S -0.991062987 1.9397305858 1.0220664183
| 19> O -3.2581775493 0.2289163303 1.3045831455
| 20> C -4.2446273539 -0.8180857332 1.1417314862
| 21> C -4.2721984537 -1.7079474937 2.3681856459
| 22> O -2.2294645646 0.0990596163 -1.048112215
| 23> C -2.4707653385 1.2252720275 -1.9102048307
| 24> C -3.7990919419 1.8846837118 -1.6045219505
| 25> H 4.6641283039 -1.2661614586 -3.6090709083
| 26> H 4.4733245249 -2.084997422 -2.0469632461
| 27> H 3.0535111636 -1.4679659052 -2.9042283396
| 28> H 3.777956323 0.8482374476 -2.5627654505
| 29> H 5.3012792306 0.2988813397 -1.8006218611
| 30> H 3.472727418 1.7514211681 1.3608580552
| 31> H 1.8329606304 2.4056471337 1.0799264219
| 32> H 2.6693233674 0.8190380453 3.5588802718
| 33> H 2.5096892213 2.5861828272 3.4934331779
| 34> H 1.0862710036 1.5589591536 3.2694992845
| 35> H -0.4014301498 -3.0352766447 -0.9053734357
| 36> H -0.3011713033 -1.2980939162 -1.3729588239
| 37> H -5.1927547647 -0.2918690634 1.0161394765
| 38> H -4.0167715345 -1.3899159822 0.2386903741
| 39> H -3.3224059725 -2.2255049795 2.4827455449
| 40> H -4.4527948546 -1.10825778 3.2558766798
| 41> H -5.0673545545 -2.4385426757 2.259625579
| 42> H -1.6451948624 1.9354881875 -1.7974223138
| 43> H -2.4443464495 0.7996608336 -2.9144634399
| 44> H -3.9629412901 2.6985828428 -2.303606238
| 45> H -4.6082861625 1.1641955467 -1.6922966537
| 46> H -3.7855583049 2.2864027804 -0.591442203
| 47> *
| 48>
| 49>                          ****END OF INPUT****

CARTESIAN COORDINATES (ANGSTROEM)
---------------------------------
  C      4.103051   -1.282993   -2.680306
  C      4.254284    0.052186   -1.981479
  O      3.671892    0.041812   -0.665345
  P      2.103847   -0.066755   -0.430427
  S      1.040179    0.942818   -1.741675
  O      1.988013    0.339268    1.094849
  C      2.411743    1.629948    1.591303
  C      2.153432    1.647544    3.082323
  S      1.679996   -2.114625   -0.280477
  C     -0.102716   -2.037415   -0.596408
  S     -1.086208   -1.634387    0.885123
  P     -1.888607    0.284465    0.504511
  S     -0.991063    1.939731    1.022066
  O     -3.258178    0.228916    1.304583
  C     -4.244627   -0.818086    1.141731
  C     -4.272198   -1.707947    2.368186
  O     -2.229465    0.099060   -1.048112
  C     -2.470765    1.225272   -1.910205
  C     -3.799092    1.884684   -1.604522
  H      4.664128   -1.266161   -3.609071
  H      4.473325   -2.084997   -2.046963
  H      3.053511   -1.467966   -2.904228
  H      3.777956    0.848237   -2.562765
  H      5.301279    0.298881   -1.800622
  H      3.472727    1.751421    1.360858
  H      1.832961    2.405647    1.079926
  H      2.669323    0.819038    3.558880
  H      2.509689    2.586183    3.493433
  H      1.086271    1.558959    3.269499
  H     -0.401430   -3.035277   -0.905373
  H     -0.301171   -1.298094   -1.372959
  H     -5.192755   -0.291869    1.016139
  H     -4.016772   -1.389916    0.238690
  H     -3.322406   -2.225505    2.482746
  H     -4.452795   -1.108258    3.255877
  H     -5.067355   -2.438543    2.259626
  H     -1.645195    1.935488   -1.797422
  H     -2.444346    0.799661   -2.914463
  H     -3.962941    2.698583   -2.303606
  H     -4.608286    1.164196   -1.692297
  H     -3.785558    2.286403   -0.591442

 Total Charge           Charge          ....    0
 Multiplicity           Mult            ....    1
 Number of Electrons    NEL             ....  202
 Basis Dimension        Dim             ....  334

ORBITAL ENERGIES
----------------

  NO   OCC          E(Eh)            E(eV)
   0   2.0000     -88.043231     -2395.7781
   1   2.0000     -88.040067     -2395.6920
   2   2.0000     -87.984064     -2394.1681
   3   2.0000     -87.974086     -2393.8966
   4   2.0000     -76.422881     -2079.5723
   5   2.0000     -76.420396     -2079.5047
   6   2.0000     -18.792881      -511.3803
   7   2.0000     -18.789738      -511.2948
   8   2.0000     -18.788339      -511.2567
   9   2.0000     -18.781028      -511.0577
  10   2.0000      -9.957938      -270.9693
  11   2.0000      -9.953563      -270.8502
  12   2.0000      -9.951743      -270.8007
  13   2.0000      -9.944888      -270.6142
  14   2.0000      -9.939802      -270.4758
  15   2.0000      -9.885393      -268.9952
  16   2.0000      -9.884162      -268.9617
  17   2.0000      -9.881547      -268.8906
  18   2.0000      -9.871764      -268.6244
  19   2.0000      -7.689004      -209.2284
  20   2.0000      -7.685466      -209.1322
  21   2.0000      -7.628816      -207.5906
  22   2.0000      -7.619330      -207.3325
  23   2.0000      -6.420737      -174.7171
  24   2.0000      -6.418073      -174.6447
  25   2.0000      -5.716898      -155.5647
  26   2.0000      -5.713656      -155.4765
  27   2.0000      -5.713460      -155.4711
  28   2.0000      -5.709606      -155.3663
  29   2.0000      -5.705857      -155.2643
  30   2.0000      -5.702405      -155.1703
  31   2.0000      -5.657467      -153.9475
  32   2.0000      -5.649722      -153.7368
  33   2.0000      -5.648958      -153.7160
  34   2.0000      -5.648429      -153.7016
  35   2.0000      -5.639919      -153.4700
  36   2.0000      -5.639223      -153.4510
  37   2.0000      -4.643398      -126.3533
  38   2.0000      -4.642254      -126.3221
  39   2.0000      -4.641286      -126.2958
  40   2.0000      -4.641094      -126.2906
  41   2.0000      -4.639800      -126.2554
  42   2.0000      -4.638201      -126.2119
  43   2.0000      -0.983536       -26.7634
  44   2.0000      -0.980940       -26.6927
  45   2.0000      -0.941293       -25.6139
  46   2.0000      -0.938670       -25.5425
  47   2.0000      -0.762321       -20.7438
  48   2.0000      -0.719354       -19.5746
  49   2.0000      -0.706436       -19.2231
  50   2.0000      -0.689386       -18.7591
  51   2.0000      -0.683572       -18.6009
  52   2.0000      -0.669921       -18.2295
  53   2.0000      -0.648399       -17.6438
  54   2.0000      -0.631415       -17.1817
  55   2.0000      -0.596804       -16.2399
  56   2.0000      -0.582627       -15.8541
  57   2.0000      -0.573062       -15.5938
  58   2.0000      -0.568171       -15.4607
  59   2.0000      -0.553723       -15.0676
  60   2.0000      -0.500351       -13.6152
  61   2.0000      -0.495464       -13.4823
  62   2.0000      -0.475773       -12.9464
  63   2.0000      -0.469605       -12.7786
  64   2.0000      -0.453530       -12.3412
  65   2.0000      -0.445218       -12.1150
  66   2.0000      -0.439115       -11.9489
  67   2.0000      -0.429495       -11.6872
  68   2.0000      -0.421389       -11.4666
  69   2.0000      -0.420117       -11.4320
  70   2.0000      -0.409644       -11.1470
  71   2.0000      -0.398833       -10.8528
  72   2.0000      -0.385332       -10.4854
  73   2.0000      -0.382682       -10.4133
  74   2.0000      -0.380074       -10.3423
  75   2.0000      -0.369447       -10.0532
  76   2.0000      -0.362988        -9.8774
  77   2.0000      -0.354927        -9.6581
  78   2.0000      -0.350769        -9.5449
  79   2.0000      -0.347346        -9.4518
  80   2.0000      -0.345037        -9.3889
  81   2.0000      -0.342563        -9.3216
  82   2.0000      -0.335232        -9.1221
  83   2.0000      -0.331531        -9.0214
  84   2.0000      -0.324342        -8.8258
  85   2.0000      -0.312877        -8.5138
  86   2.0000      -0.309347        -8.4178
  87   2.0000      -0.300293        -8.1714
  88   2.0000      -0.294985        -8.0270
  89   2.0000      -0.286106        -7.7853
  90   2.0000      -0.275481        -7.4962
  91   2.0000      -0.270679        -7.3655
  92   2.0000      -0.267853        -7.2887
  93   2.0000      -0.261463        -7.1148
  94   2.0000      -0.258018        -7.0210
  95   2.0000      -0.238388        -6.4869
  96   2.0000      -0.220352        -5.9961
  97   2.0000      -0.212349        -5.7783
  98   2.0000      -0.204421        -5.5626
  99   2.0000      -0.191002        -5.1974
 100   2.0000      -0.176567        -4.8046
 101   0.0000      -0.038498        -1.0476
 102   0.0000      -0.027623        -0.7517
 103   0.0000      -0.019030        -0.5178
 104   0.0000       0.007178         0.1953
 105   0.0000       0.020333         0.5533

MULLIKEN ATOMIC CHARGES
-----------------------
   0 C :   -0.314389
   1 C :   -0.004145
   2 O :   -0.380191
   3 P :    0.627603
   4 S :   -0.336223
   5 O :   -0.359504
   6 C :   -0.005483
   7 C :   -0.282145
   8 S :   -0.075044
   9 C :   -0.363549
  10 S :   -0.094801
  11 P :    0.617336
  12 S :   -0.302056
  13 O :   -0.368063
  14 C :   -0.024763
  15 C :   -0.286393
  16 O :   -0.389670
  17 C :   -0.014224
  18 C :   -0.311016
  19 H :    0.113053
  20 H :    0.117630
  21 H :    0.122848
  22 H :    0.112128
  23 H :    0.104280
  24 H :    0.098181
  25 H :    0.114472
  26 H :    0.110269
  27 H :    0.103747
  28 H :    0.128193
  29 H :    0.182486
  30 H :    0.209029
  31 H :    0.108432
  32 H :    0.103207
  33 H :    0.125454
  34 H :    0.120767
  35 H :    0.108201
  36 H :    0.130348
  37 H :    0.101082
  38 H :    0.112976
  39 H :    0.108085
  40 H :    0.131853
Sum of atomic charges:    0.0000000

LOEWDIN ATOMIC CHARGES
----------------------
   0 C :   -0.369785
   1 C :   -0.120005
   2 O :   -0.244155
   3 P :    0.571281
   4 S :   -0.311647
   5 O :   -0.236935
   6 C :   -0.116602
   7 C :   -0.352770
   8 S :    0.094288
   9 C :   -0.478159
  10 S :    0.082735
  11 P :    0.562930
  12 S :   -0.293810
  13 O :   -0.243120
  14 C :   -0.122873
  15 C :   -0.359238
  16 O :   -0.251597
  17 C :   -0.123345
  18 C :   -0.366041
  19 H :    0.131101
  20 H :    0.124376
  21 H :    0.119775
  22 H :    0.110526
  23 H :    0.118219
  24 H :    0.107172
  25 H :    0.109715
  26 H :    0.124544
  27 H :    0.127672
  28 H :    0.127937
  29 H :    0.138014
  30 H :    0.129698
  31 H :    0.118896
  32 H :    0.105955
  33 H :    0.120450
  34 H :    0.129451
  35 H :    0.129238
  36 H :    0.111122
  37 H :    0.116500
  38 H :    0.131473
  39 H :    0.120486
  40 H :    0.126529

  Mayer bond orders larger than 0.100000
B(  0-C ,  1-C ) :   1.1658 B(  0-C , 19-H ) :   0.9380 B(  0-C , 20-H ) :   0.9451
B(  0-C , 21-H ) :   0.9346 B(  1-C ,  2-O ) :   0.9079 B(  1-C , 22-H ) :   0.9137
B(  1-C , 23-H ) :   0.9331 B(  2-O ,  3-P ) :   1.0970 B(  3-P ,  4-S ) :   1.6055
B(  3-P ,  5-O ) :   1.1574 B(  3-P ,  8-S ) :   0.9598 B(  4-S ,  8-S ) :   0.1157
B(  5-O ,  6-C ) :   0.8888 B(  6-C ,  7-C ) :   1.1697 B(  6-C , 24-H ) :   0.9279
B(  6-C , 25-H ) :   0.9117 B(  7-C , 26-H ) :   0.9493 B(  7-C , 27-H ) :   0.9412
B(  7-C , 28-H ) :   0.9415 B(  8-S ,  9-C ) :   1.0132 B(  9-C , 10-S ) :   0.9887
B(  9-C , 29-H ) :   0.9109 B(  9-C , 30-H ) :   0.8558 B( 10-S , 11-P ) :   0.9651
B( 10-S , 12-S ) :   0.1029 B( 11-P , 12-S ) :   1.6540 B( 11-P , 13-O ) :   1.1055
B( 11-P , 16-O ) :   1.0675 B( 13-O , 14-C ) :   0.8986 B( 14-C , 15-C ) :   1.1666
B( 14-C , 31-H ) :   0.9309 B( 14-C , 32-H ) :   0.9134 B( 15-C , 33-H ) :   0.9392
B( 15-C , 34-H ) :   0.9459 B( 15-C , 35-H ) :   0.9401 B( 16-O , 17-C ) :   0.8986
B( 17-C , 18-C ) :   1.1610 B( 17-C , 36-H ) :   0.9077 B( 17-C , 37-H ) :   0.9355
B( 18-C , 38-H ) :   0.9401 B( 18-C , 39-H ) :   0.9455 B( 18-C , 40-H ) :   0.9344

Dispersion correction           -0.066747887
FINAL SINGLE POINT ENERGY     -2929.516887083809

DIPOLE MOMENT
-------------

Method             : SCF
Type of density    : Electron Density
Multiplicity       :   1
Irrep              :   0
Energy             : -2929.6356402061433073 Eh
Relativity type    :
Basis              : AO
                                X                 Y                 Z
Electronic contribution:      5.959138576      -2.969662828       1.655284467
Nuclear contribution   :     -6.174998394       2.229748362      -2.384569341
                        -----------------------------------------
Total Dipole Moment    :     -0.215859818      -0.739914466      -0.729284874
                        -----------------------------------------
Magnitude (a.u.)       :      1.061096275
Magnitude (Debye)      :      2.697092390

Rotational constants in cm-1:             0.012087             0.005155             0.005114
Rotational constants in MHz :           362.362965           154.551221           153.311243

                             ****ORCA TERMINATED NORMALLY****
TOTAL RUN TIME: 0 days 0 hours 0 minutes 22 seconds 349 msec
