                         Program Version 6.0.0  -   RELEASE  -
|  1> ! r2scan-3c def2/J RI DEFGRID2 scfconv6 printgap
|  2> %output
|  3>     printlevel normal
|  4> end
|  5> * xyz 0 1
|  6> C 3.4040740635 2.25709698 -1.5187836571
|  7> C 4.1813489021 1.6624802093 -0.3622785558
|  8> O 3.7899444254 0.3046383617 -0.102049925
|  9> P 2.3449795078 -0.0660722965 0.4470394354
| 10> S 1.6957918213 1.1708845697 1.8328341089
| 11> O 2.5182079672 -1.577291793 0.8845847267
| 12> C 2.8584961569 -1.9432052839 2.2382494463
| 13> C 4.2787460292 -1.5489146557 2.5838712286
| 14> S 1.2102070674 -0.3557567626 -1.3188206475
| 15> C 0.000909606 -1.5691224985 -0.7150286592
| 16> S -0.9669228228 -0.9996701504 0.7064993672
| 17> P -2.5294394703 0.0352118441 -0.3248491498
| 18> S -2.7516417872 -0.5122600461 -2.1982763905
| 19> O -2.3750796077 1.5705313324 0.0094783122
| 20> C -1.2360958606 2.3976360827 -0.2769894564
| 21> C -1.0144044901 2.5939829939 -1.7637336039
| 22> O -3.7852715297 -0.184906002 0.6078721543
| 23> C -4.5997430737 -1.3709022373 0.4994963413
| 24> C -5.8767033886 -1.0621930188 -0.2574996787
| 25> H 3.4986327987 1.6301304713 -2.4016542628
| 26> H 2.3488617974 2.3272010009 -1.2536803949
| 27> H 3.7807142767 3.2510757467 -1.7372444639
| 28> H 4.0232506971 2.2492291927 0.5487815448
| 29> H 5.2474721703 1.5935210669 -0.5813479452
| 30> H 2.1449692389 -1.4641051329 2.9166284499
| 31> H 2.7206872595 -3.025008673 2.2600937775
| 32> H 4.3694591873 -0.4634344896 2.5922855477
| 33> H 4.5294854061 -1.9314650977 3.5682851752
| 34> H 4.9699362976 -1.9534720062 1.8492284953
| 35> H 0.5187622988 -2.4734031057 -0.4091198956
| 36> H -0.6728264965 -1.7555847982 -1.5552176393
| 37> H -1.4782600941 3.3414124473 0.2155834654
| 38> H -0.3518877013 1.966704284 0.2048197023
| 39> H -0.7008772407 1.6638642818 -2.2350062049
| 40> H -1.9342267503 2.9311862269 -2.2351090014
| 41> H -0.241227554 3.3411939391 -1.912963215
| 42> H -4.0333720734 -2.1610387895 -0.0031215371
| 43> H -4.8068276609 -1.6684381988 1.5290209952
| 44> H -6.5114184964 -1.9423706054 -0.2652915767
| 45> H -6.4021355331 -0.240226518 0.220052453
| 46> H -5.6435929151 -0.7820293411 -1.2825384475
| 47> *
| 48>
| 49>                          ****END OF INPUT****

CARTESIAN COORDINATES (ANGSTROEM)
---------------------------------
  C      3.404074    2.257097   -1.518784
  C      4.181349    1.662480   -0.362279
  O      3.789944    0.304638   -0.102050
  P      2.344980   -0.066072    0.447039
  S      1.695792    1.170885    1.832834
  O      2.518208   -1.577292    0.884585
  C      2.858496   -1.943205    2.238249
  C      4.278746   -1.548915    2.583871
  S      1.210207   -0.355757   -1.318821
  C      0.000910   -1.569122   -0.715029
  S     -0.966923   -0.999670    0.706499
  P     -2.529439    0.035212   -0.324849
  S     -2.751642   -0.512260   -2.198276
  O     -2.375080    1.570531    0.009478
  C     -1.236096    2.397636   -0.276989
  C     -1.014404    2.593983   -1.763734
  O     -3.785272   -0.184906    0.607872
  C     -4.599743   -1.370902    0.499496
  C     -5.876703   -1.062193   -0.257500
  H      3.498633    1.630130   -2.401654
  H      2.348862    2.327201   -1.253680
  H      3.780714    3.251076   -1.737244
  H      4.023251    2.249229    0.548782
  H      5.247472    1.593521   -0.581348
  H      2.144969   -1.464105    2.916628
  H      2.720687   -3.025009    2.260094
  H      4.369459   -0.463434    2.592286
  H      4.529485   -1.931465    3.568285
  H      4.969936   -1.953472    1.849228
  H      0.518762   -2.473403   -0.409120
  H     -0.672826   -1.755585   -1.555218
  H     -1.478260    3.341412    0.215583
  H     -0.351888    1.966704    0.204820
  H     -0.700877    1.663864   -2.235006
  H     -1.934227    2.931186   -2.235109
  H     -0.241228    3.341194   -1.912963
  H     -4.033372   -2.161039   -0.003122
  H     -4.806828   -1.668438    1.529021
  H     -6.511418   -1.942371   -0.265292
  H     -6.402136   -0.240227    0.220052
  H     -5.643593   -0.782029   -1.282538

 Total Charge           Charge          ....    0
 Multiplicity           Mult            ....    1
 Number of Electrons    NEL             ....  202
 Basis Dimension        Dim             ....  539

ORBITAL ENERGIES
----------------

  NO   OCC          E(Eh)            E(eV)
   0   2.0000     -88.576811     -2410.2976
   1   2.0000     -88.574585     -2410.2370
   2   2.0000     -88.522305     -2408.8144
   3   2.0000     -88.520496     -2408.7651
   4   2.0000     -76.918817     -2093.0674
   5   2.0000     -76.912766     -2092.9028
   6   2.0000     -18.998903      -516.9864
   7   2.0000     -18.996053      -516.9089
   8   2.0000     -18.987828      -516.6851
   9   2.0000     -18.985899      -516.6326
  10   2.0000     -10.105618      -274.9878
  11   2.0000     -10.103285      -274.9244
  12   2.0000     -10.103017      -274.9171
  13   2.0000     -10.096596      -274.7424
  14   2.0000     -10.088405      -274.5195
  15   2.0000     -10.035883      -273.0903
  16   2.0000     -10.032667      -273.0027
  17   2.0000     -10.023474      -272.7526
  18   2.0000     -10.017445      -272.5885
  19   2.0000      -7.871212      -214.1866
  20   2.0000      -7.868514      -214.1131
  21   2.0000      -7.817003      -212.7115
  22   2.0000      -7.815453      -212.6693
  23   2.0000      -6.597291      -179.5214
  24   2.0000      -6.591064      -179.3520
  25   2.0000      -5.818317      -158.3245
  26   2.0000      -5.815427      -158.2458
  27   2.0000      -5.814942      -158.2326
  28   2.0000      -5.812243      -158.1592
  29   2.0000      -5.808203      -158.0492
  30   2.0000      -5.805799      -157.9838
  31   2.0000      -5.764674      -156.8648
  32   2.0000      -5.763026      -156.8199
  33   2.0000      -5.757411      -156.6671
  34   2.0000      -5.756887      -156.6529
  35   2.0000      -5.755694      -156.6204
  36   2.0000      -5.755546      -156.6164
  37   2.0000      -4.742876      -129.0602
  38   2.0000      -4.742302      -129.0446
  39   2.0000      -4.740833      -129.0046
  40   2.0000      -4.736417      -128.8845
  41   2.0000      -4.736214      -128.8789
  42   2.0000      -4.734765      -128.8395
  43   2.0000      -1.056236       -28.7416
  44   2.0000      -1.049134       -28.5484
  45   2.0000      -1.018577       -27.7169
  46   2.0000      -1.005639       -27.3648
  47   2.0000      -0.799961       -21.7680
  48   2.0000      -0.759185       -20.6585
  49   2.0000      -0.749120       -20.3846
  50   2.0000      -0.736986       -20.0544
  51   2.0000      -0.721851       -19.6426
  52   2.0000      -0.710771       -19.3411
  53   2.0000      -0.689539       -18.7633
  54   2.0000      -0.670804       -18.2535
  55   2.0000      -0.634747       -17.2723
  56   2.0000      -0.623828       -16.9752
  57   2.0000      -0.611705       -16.6453
  58   2.0000      -0.595157       -16.1951
  59   2.0000      -0.593969       -16.1627
  60   2.0000      -0.527328       -14.3493
  61   2.0000      -0.518993       -14.1225
  62   2.0000      -0.498556       -13.5664
  63   2.0000      -0.485699       -13.2165
  64   2.0000      -0.478988       -13.0339
  65   2.0000      -0.463216       -12.6047
  66   2.0000      -0.459261       -12.4971
  67   2.0000      -0.452658       -12.3175
  68   2.0000      -0.438557       -11.9337
  69   2.0000      -0.436171       -11.8688
  70   2.0000      -0.424156       -11.5419
  71   2.0000      -0.419559       -11.4168
  72   2.0000      -0.414042       -11.2667
  73   2.0000      -0.409749       -11.1498
  74   2.0000      -0.396240       -10.7822
  75   2.0000      -0.392168       -10.6714
  76   2.0000      -0.383361       -10.4318
  77   2.0000      -0.376871       -10.2552
  78   2.0000      -0.372077       -10.1247
  79   2.0000      -0.367608       -10.0031
  80   2.0000      -0.363018        -9.8782
  81   2.0000      -0.359409        -9.7800
  82   2.0000      -0.351978        -9.5778
  83   2.0000      -0.347097        -9.4450
  84   2.0000      -0.345308        -9.3963
  85   2.0000      -0.333486        -9.0746
  86   2.0000      -0.323324        -8.7981
  87   2.0000      -0.315176        -8.5764
  88   2.0000      -0.308153        -8.3853
  89   2.0000      -0.305452        -8.3118
  90   2.0000      -0.302110        -8.2208
  91   2.0000      -0.293620        -7.9898
  92   2.0000      -0.283634        -7.7181
  93   2.0000      -0.280333        -7.6282
  94   2.0000      -0.271008        -7.3745
  95   2.0000      -0.255792        -6.9604
  96   2.0000      -0.233667        -6.3584
  97   2.0000      -0.222351        -6.0505
  98   2.0000      -0.219996        -5.9864
  99   2.0000      -0.214843        -5.8462
 100   2.0000      -0.207296        -5.6408
 101   0.0000      -0.051302        -1.3960
 102   0.0000      -0.026639        -0.7249
 103   0.0000      -0.018939        -0.5154
 104   0.0000      -0.000879        -0.0239
 105   0.0000       0.009281         0.2525

MULLIKEN ATOMIC CHARGES
-----------------------
   0 C :   -0.473484
   1 C :   -0.138648
   2 O :   -0.290252
   3 P :    0.692633
   4 S :   -0.460336
   5 O :   -0.330967
   6 C :   -0.147638
   7 C :   -0.443284
   8 S :   -0.132396
   9 C :   -0.211800
  10 S :   -0.134018
  11 P :    0.677836
  12 S :   -0.467900
  13 O :   -0.270334
  14 C :   -0.160859
  15 C :   -0.430022
  16 O :   -0.315815
  17 C :   -0.119513
  18 C :   -0.449119
  19 H :    0.166645
  20 H :    0.171406
  21 H :    0.153155
  22 H :    0.174474
  23 H :    0.149898
  24 H :    0.175388
  25 H :    0.148781
  26 H :    0.170228
  27 H :    0.148465
  28 H :    0.156763
  29 H :    0.196344
  30 H :    0.214856
  31 H :    0.149556
  32 H :    0.183404
  33 H :    0.173810
  34 H :    0.153271
  35 H :    0.142877
  36 H :    0.153929
  37 H :    0.150724
  38 H :    0.143731
  39 H :    0.153058
  40 H :    0.175152
Sum of atomic charges:   -0.0000000

LOEWDIN ATOMIC CHARGES
----------------------
   0 C :   -0.405083
   1 C :    0.018659
   2 O :   -0.662930
   3 P :    0.382236
   4 S :   -0.129704
   5 O :   -0.678904
   6 C :    0.022882
   7 C :   -0.398418
   8 S :    0.156310
   9 C :   -0.420519
  10 S :    0.152411
  11 P :    0.389716
  12 S :   -0.131353
  13 O :   -0.641560
  14 C :    0.020324
  15 C :   -0.415205
  16 O :   -0.652056
  17 C :    0.021423
  18 C :   -0.397283
  19 H :    0.162442
  20 H :    0.164261
  21 H :    0.161554
  22 H :    0.180066
  23 H :    0.180643
  24 H :    0.181712
  25 H :    0.179495
  26 H :    0.165955
  27 H :    0.160500
  28 H :    0.161543
  29 H :    0.184404
  30 H :    0.197099
  31 H :    0.181511
  32 H :    0.185670
  33 H :    0.165247
  34 H :    0.161664
  35 H :    0.157310
  36 H :    0.176798
  37 H :    0.177169
  38 H :    0.157911
  39 H :    0.159285
  40 H :    0.166815

  Mayer bond orders larger than 0.100000
B(  0-C ,  1-C ) :   0.9063 B(  0-C , 19-H ) :   0.9677 B(  0-C , 20-H ) :   0.9643
B(  0-C , 21-H ) :   0.9569 B(  1-C ,  2-O ) :   0.8162 B(  1-C , 22-H ) :   0.9657
B(  1-C , 23-H ) :   0.9544 B(  2-O ,  3-P ) :   1.0739 B(  3-P ,  4-S ) :   1.7511
B(  3-P ,  5-O ) :   1.1561 B(  3-P ,  8-S ) :   1.0713 B(  5-O ,  6-C ) :   0.8027
B(  6-C ,  7-C ) :   0.9320 B(  6-C , 24-H ) :   0.9622 B(  6-C , 25-H ) :   0.9588
B(  7-C , 26-H ) :   0.9588 B(  7-C , 27-H ) :   0.9615 B(  7-C , 28-H ) :   0.9703
B(  8-S ,  9-C ) :   0.9017 B(  9-C , 10-S ) :   0.9215 B(  9-C , 29-H ) :   0.9208
B(  9-C , 30-H ) :   0.8940 B( 10-S , 11-P ) :   1.0446 B( 11-P , 12-S ) :   1.7420
B( 11-P , 13-O ) :   1.1674 B( 11-P , 16-O ) :   1.1211 B( 13-O , 14-C ) :   0.8054
B( 14-C , 15-C ) :   0.9113 B( 14-C , 31-H ) :   0.9650 B( 14-C , 32-H ) :   0.9533
B( 15-C , 33-H ) :   0.9541 B( 15-C , 34-H ) :   0.9643 B( 15-C , 35-H ) :   0.9647
B( 16-O , 17-C ) :   0.7664 B( 17-C , 18-C ) :   0.9576 B( 17-C , 36-H ) :   0.9636
B( 17-C , 37-H ) :   0.9620 B( 18-C , 38-H ) :   0.9664 B( 18-C , 39-H ) :   0.9743
B( 18-C , 40-H ) :   0.9608

Dispersion correction           -0.021692873
FINAL SINGLE POINT ENERGY     -2932.460400926669

DIPOLE MOMENT
-------------

Method             : SCF
Type of density    : Electron Density
Multiplicity       :   1
Irrep              :   0
Energy             : -2932.4853657798776112 Eh
Relativity type    :
Basis              : AO
                                X                 Y                 Z
Electronic contribution:     -4.269090868      -4.596716565       0.420688668
Nuclear contribution   :      5.233743033       4.210155105      -0.029664949
                        -----------------------------------------
Total Dipole Moment    :      0.964652165      -0.386561461       0.391023719
                        -----------------------------------------
Magnitude (a.u.)       :      1.110352697
Magnitude (Debye)      :      2.822292265

Rotational constants in cm-1:             0.013823             0.004680             0.004190
Rotational constants in MHz :           414.412971           140.311596           125.627198

                             ****ORCA TERMINATED NORMALLY****
TOTAL RUN TIME: 0 days 0 hours 1 minutes 18 seconds 616 msec
