                         Program Version 6.0.0  -   RELEASE  -
|  1> ! r2scan-3c def2/J RI DEFGRID2 scfconv6 printgap
|  2> %output
|  3>     printlevel normal
|  4> end
|  5> %cpcm
|  6>     smd true
|  7>     smdsolvent "water"
|  8> end
|  9> * xyz 0 1
| 10> C 3.4040740635 2.25709698 -1.5187836571
| 11> C 4.1813489021 1.6624802093 -0.3622785558
| 12> O 3.7899444254 0.3046383617 -0.102049925
| 13> P 2.3449795078 -0.0660722965 0.4470394354
| 14> S 1.6957918213 1.1708845697 1.8328341089
| 15> O 2.5182079672 -1.577291793 0.8845847267
| 16> C 2.8584961569 -1.9432052839 2.2382494463
| 17> C 4.2787460292 -1.5489146557 2.5838712286
| 18> S 1.2102070674 -0.3557567626 -1.3188206475
| 19> C 0.000909606 -1.5691224985 -0.7150286592
| 20> S -0.9669228228 -0.9996701504 0.7064993672
| 21> P -2.5294394703 0.0352118441 -0.3248491498
| 22> S -2.7516417872 -0.5122600461 -2.1982763905
| 23> O -2.3750796077 1.5705313324 0.0094783122
| 24> C -1.2360958606 2.3976360827 -0.2769894564
| 25> C -1.0144044901 2.5939829939 -1.7637336039
| 26> O -3.7852715297 -0.184906002 0.6078721543
| 27> C -4.5997430737 -1.3709022373 0.4994963413
| 28> C -5.8767033886 -1.0621930188 -0.2574996787
| 29> H 3.4986327987 1.6301304713 -2.4016542628
| 30> H 2.3488617974 2.3272010009 -1.2536803949
| 31> H 3.7807142767 3.2510757467 -1.7372444639
| 32> H 4.0232506971 2.2492291927 0.5487815448
| 33> H 5.2474721703 1.5935210669 -0.5813479452
| 34> H 2.1449692389 -1.4641051329 2.9166284499
| 35> H 2.7206872595 -3.025008673 2.2600937775
| 36> H 4.3694591873 -0.4634344896 2.5922855477
| 37> H 4.5294854061 -1.9314650977 3.5682851752
| 38> H 4.9699362976 -1.9534720062 1.8492284953
| 39> H 0.5187622988 -2.4734031057 -0.4091198956
| 40> H -0.6728264965 -1.7555847982 -1.5552176393
| 41> H -1.4782600941 3.3414124473 0.2155834654
| 42> H -0.3518877013 1.966704284 0.2048197023
| 43> H -0.7008772407 1.6638642818 -2.2350062049
| 44> H -1.9342267503 2.9311862269 -2.2351090014
| 45> H -0.241227554 3.3411939391 -1.912963215
| 46> H -4.0333720734 -2.1610387895 -0.0031215371
| 47> H -4.8068276609 -1.6684381988 1.5290209952
| 48> H -6.5114184964 -1.9423706054 -0.2652915767
| 49> H -6.4021355331 -0.240226518 0.220052453
| 50> H -5.6435929151 -0.7820293411 -1.2825384475
| 51> *
| 52>
| 53>                          ****END OF INPUT****

CARTESIAN COORDINATES (ANGSTROEM)
---------------------------------
  C      3.404074    2.257097   -1.518784
  C      4.181349    1.662480   -0.362279
  O      3.789944    0.304638   -0.102050
  P      2.344980   -0.066072    0.447039
  S      1.695792    1.170885    1.832834
  O      2.518208   -1.577292    0.884585
  C      2.858496   -1.943205    2.238249
  C      4.278746   -1.548915    2.583871
  S      1.210207   -0.355757   -1.318821
  C      0.000910   -1.569122   -0.715029
  S     -0.966923   -0.999670    0.706499
  P     -2.529439    0.035212   -0.324849
  S     -2.751642   -0.512260   -2.198276
  O     -2.375080    1.570531    0.009478
  C     -1.236096    2.397636   -0.276989
  C     -1.014404    2.593983   -1.763734
  O     -3.785272   -0.184906    0.607872
  C     -4.599743   -1.370902    0.499496
  C     -5.876703   -1.062193   -0.257500
  H      3.498633    1.630130   -2.401654
  H      2.348862    2.327201   -1.253680
  H      3.780714    3.251076   -1.737244
  H      4.023251    2.249229    0.548782
  H      5.247472    1.593521   -0.581348
  H      2.144969   -1.464105    2.916628
  H      2.720687   -3.025009    2.260094
  H      4.369459   -0.463434    2.592286
  H      4.529485   -1.931465    3.568285
  H      4.969936   -1.953472    1.849228
  H      0.518762   -2.473403   -0.409120
  H     -0.672826   -1.755585   -1.555218
  H     -1.478260    3.341412    0.215583
  H     -0.351888    1.966704    0.204820
  H     -0.700877    1.663864   -2.235006
  H     -1.934227    2.931186   -2.235109
  H     -0.241228    3.341194   -1.912963
  H     -4.033372   -2.161039   -0.003122
  H     -4.806828   -1.668438    1.529021
  H     -6.511418   -1.942371   -0.265292
  H     -6.402136   -0.240227    0.220052
  H     -5.643593   -0.782029   -1.282538

 Total Charge           Charge          ....    0
 Multiplicity           Mult            ....    1
 Number of Electrons    NEL             ....  202
 Basis Dimension        Dim             ....  539

ORBITAL ENERGIES
----------------

  NO   OCC          E(Eh)            E(eV)
   0   2.0000     -88.580002     -2410.3844
   1   2.0000     -88.578672     -2410.3482
   2   2.0000     -88.530043     -2409.0249
   3   2.0000     -88.525859     -2408.9111
   4   2.0000     -76.921178     -2093.1317
   5   2.0000     -76.920380     -2093.1100
   6   2.0000     -18.997111      -516.9377
   7   2.0000     -18.995745      -516.9005
   8   2.0000     -18.995507      -516.8940
   9   2.0000     -18.995241      -516.8868
  10   2.0000     -10.104217      -274.9497
  11   2.0000     -10.091182      -274.5950
  12   2.0000     -10.090464      -274.5755
  13   2.0000     -10.090267      -274.5701
  14   2.0000     -10.088711      -274.5278
  15   2.0000     -10.021311      -272.6937
  16   2.0000     -10.019021      -272.6314
  17   2.0000     -10.017420      -272.5878
  18   2.0000     -10.015723      -272.5417
  19   2.0000      -7.873910      -214.2600
  20   2.0000      -7.873078      -214.2373
  21   2.0000      -7.825216      -212.9350
  22   2.0000      -7.820830      -212.8156
  23   2.0000      -6.599597      -179.5842
  24   2.0000      -6.598896      -179.5651
  25   2.0000      -5.820826      -158.3927
  26   2.0000      -5.820158      -158.3746
  27   2.0000      -5.817633      -158.3058
  28   2.0000      -5.816774      -158.2825
  29   2.0000      -5.811217      -158.1313
  30   2.0000      -5.810134      -158.1018
  31   2.0000      -5.772752      -157.0846
  32   2.0000      -5.768452      -156.9676
  33   2.0000      -5.765427      -156.8852
  34   2.0000      -5.765336      -156.8828
  35   2.0000      -5.761199      -156.7702
  36   2.0000      -5.760752      -156.7580
  37   2.0000      -4.744922      -129.1159
  38   2.0000      -4.744757      -129.1114
  39   2.0000      -4.744423      -129.1023
  40   2.0000      -4.743897      -129.0880
  41   2.0000      -4.743311      -129.0721
  42   2.0000      -4.742536      -129.0510
  43   2.0000      -1.057707       -28.7817
  44   2.0000      -1.054706       -28.7000
  45   2.0000      -1.016322       -27.6555
  46   2.0000      -1.013484       -27.5783
  47   2.0000      -0.801238       -21.8028
  48   2.0000      -0.756623       -20.5888
  49   2.0000      -0.745105       -20.2753
  50   2.0000      -0.725152       -19.7324
  51   2.0000      -0.719682       -19.5835
  52   2.0000      -0.710342       -19.3294
  53   2.0000      -0.692499       -18.8439
  54   2.0000      -0.676192       -18.4001
  55   2.0000      -0.631057       -17.1719
  56   2.0000      -0.624877       -17.0038
  57   2.0000      -0.601423       -16.3656
  58   2.0000      -0.594745       -16.1838
  59   2.0000      -0.592534       -16.1237
  60   2.0000      -0.526181       -14.3181
  61   2.0000      -0.514196       -13.9920
  62   2.0000      -0.492191       -13.3932
  63   2.0000      -0.488603       -13.2956
  64   2.0000      -0.476968       -12.9790
  65   2.0000      -0.459982       -12.5167
  66   2.0000      -0.455361       -12.3910
  67   2.0000      -0.452086       -12.3019
  68   2.0000      -0.436290       -11.8720
  69   2.0000      -0.431825       -11.7505
  70   2.0000      -0.426846       -11.6151
  71   2.0000      -0.417768       -11.3680
  72   2.0000      -0.406913       -11.0727
  73   2.0000      -0.405797       -11.0423
  74   2.0000      -0.396346       -10.7851
  75   2.0000      -0.388844       -10.5810
  76   2.0000      -0.383550       -10.4369
  77   2.0000      -0.371964       -10.1216
  78   2.0000      -0.366492        -9.9728
  79   2.0000      -0.358970        -9.7681
  80   2.0000      -0.354369        -9.6429
  81   2.0000      -0.352444        -9.5905
  82   2.0000      -0.349710        -9.5161
  83   2.0000      -0.347035        -9.4433
  84   2.0000      -0.342698        -9.3253
  85   2.0000      -0.331782        -9.0282
  86   2.0000      -0.322402        -8.7730
  87   2.0000      -0.308140        -8.3849
  88   2.0000      -0.306815        -8.3489
  89   2.0000      -0.304631        -8.2894
  90   2.0000      -0.300308        -8.1718
  91   2.0000      -0.289047        -7.8654
  92   2.0000      -0.286703        -7.8016
  93   2.0000      -0.280209        -7.6249
  94   2.0000      -0.276916        -7.5353
  95   2.0000      -0.258615        -7.0373
  96   2.0000      -0.238379        -6.4866
  97   2.0000      -0.231127        -6.2893
  98   2.0000      -0.228601        -6.2206
  99   2.0000      -0.219200        -5.9647
 100   2.0000      -0.213266        -5.8033
 101   0.0000      -0.055801        -1.5184
 102   0.0000      -0.032053        -0.8722
 103   0.0000      -0.020089        -0.5467
 104   0.0000      -0.006531        -0.1777
 105   0.0000       0.005417         0.1474

MULLIKEN ATOMIC CHARGES
-----------------------
   0 C :   -0.504866
   1 C :   -0.140506
   2 O :   -0.318336
   3 P :    0.731424
   4 S :   -0.510252
   5 O :   -0.350852
   6 C :   -0.143576
   7 C :   -0.483913
   8 S :   -0.147967
   9 C :   -0.213147
  10 S :   -0.145070
  11 P :    0.695024
  12 S :   -0.500283
  13 O :   -0.303405
  14 C :   -0.157574
  15 C :   -0.467522
  16 O :   -0.345544
  17 C :   -0.117375
  18 C :   -0.488413
  19 H :    0.177256
  20 H :    0.172345
  21 H :    0.178079
  22 H :    0.178783
  23 H :    0.176253
  24 H :    0.177809
  25 H :    0.176980
  26 H :    0.168877
  27 H :    0.173051
  28 H :    0.169636
  29 H :    0.231545
  30 H :    0.223115
  31 H :    0.176838
  32 H :    0.179155
  33 H :    0.168524
  34 H :    0.163649
  35 H :    0.171898
  36 H :    0.166243
  37 H :    0.176978
  38 H :    0.170386
  39 H :    0.166029
  40 H :    0.168722
Sum of atomic charges:   -0.0000000

LOEWDIN ATOMIC CHARGES
----------------------
   0 C :   -0.406886
   1 C :    0.024037
   2 O :   -0.676296
   3 P :    0.387359
   4 S :   -0.159125
   5 O :   -0.686505
   6 C :    0.028433
   7 C :   -0.402499
   8 S :    0.150384
   9 C :   -0.412144
  10 S :    0.150221
  11 P :    0.389598
  12 S :   -0.153717
  13 O :   -0.662040
  14 C :    0.022318
  15 C :   -0.417833
  16 O :   -0.671217
  17 C :    0.026289
  18 C :   -0.401643
  19 H :    0.164846
  20 H :    0.162418
  21 H :    0.170929
  22 H :    0.181639
  23 H :    0.191685
  24 H :    0.182589
  25 H :    0.191178
  26 H :    0.162862
  27 H :    0.169476
  28 H :    0.164446
  29 H :    0.197292
  30 H :    0.200562
  31 H :    0.191887
  32 H :    0.184639
  33 H :    0.161494
  34 H :    0.162644
  35 H :    0.168397
  36 H :    0.181310
  37 H :    0.188304
  38 H :    0.168133
  39 H :    0.162631
  40 H :    0.161908

  Mayer bond orders larger than 0.100000
B(  0-C ,  1-C ) :   0.8952 B(  0-C , 19-H ) :   0.9646 B(  0-C , 20-H ) :   0.9624
B(  0-C , 21-H ) :   0.9509 B(  1-C ,  2-O ) :   0.8048 B(  1-C , 22-H ) :   0.9640
B(  1-C , 23-H ) :   0.9450 B(  2-O ,  3-P ) :   1.0820 B(  3-P ,  4-S ) :   1.7037
B(  3-P ,  5-O ) :   1.1670 B(  3-P ,  8-S ) :   1.0829 B(  5-O ,  6-C ) :   0.7913
B(  6-C ,  7-C ) :   0.9177 B(  6-C , 24-H ) :   0.9598 B(  6-C , 25-H ) :   0.9497
B(  7-C , 26-H ) :   0.9590 B(  7-C , 27-H ) :   0.9558 B(  7-C , 28-H ) :   0.9695
B(  8-S ,  9-C ) :   0.8974 B(  9-C , 10-S ) :   0.9186 B(  9-C , 29-H ) :   0.9088
B(  9-C , 30-H ) :   0.8929 B( 10-S , 11-P ) :   1.0582 B( 11-P , 12-S ) :   1.7261
B( 11-P , 13-O ) :   1.1607 B( 11-P , 16-O ) :   1.1202 B( 13-O , 14-C ) :   0.7973
B( 14-C , 15-C ) :   0.9015 B( 14-C , 31-H ) :   0.9558 B( 14-C , 32-H ) :   0.9512
B( 15-C , 33-H ) :   0.9553 B( 15-C , 34-H ) :   0.9663 B( 15-C , 35-H ) :   0.9572
B( 16-O , 17-C ) :   0.7542 B( 17-C , 18-C ) :   0.9458 B( 17-C , 36-H ) :   0.9573
B( 17-C , 37-H ) :   0.9515 B( 18-C , 38-H ) :   0.9605 B( 18-C , 39-H ) :   0.9717
B( 18-C , 40-H ) :   0.9646

Dispersion correction           -0.021692873
FINAL SINGLE POINT ENERGY     -2932.467475713561

DIPOLE MOMENT
-------------

Method             : SCF
Type of density    : Electron Density
Multiplicity       :   1
Irrep              :   0
Energy             : -2932.4924405667698011 Eh
Relativity type    :
Basis              : AO
                                X                 Y                 Z
Electronic contribution:     -3.919542546      -4.866261627       0.499298520
Nuclear contribution   :      5.233743033       4.210155105      -0.029664949
                        -----------------------------------------
Total Dipole Moment    :      1.314200488      -0.656106523       0.469633571
                        -----------------------------------------
Magnitude (a.u.)       :      1.542126578
Magnitude (Debye)      :      3.919774251

Rotational constants in cm-1:             0.013823             0.004680             0.004190
Rotational constants in MHz :           414.412971           140.311596           125.627198

                             ****ORCA TERMINATED NORMALLY****
TOTAL RUN TIME: 0 days 0 hours 1 minutes 52 seconds 815 msec
