                         Program Version 6.0.0  -   RELEASE  -
|  1> ! pbe def2-sv(p) def2/J RI DEFGRID1 loosescf d4 GCP(DFT/SV(P)) printgap
|  2> %output
|  3>     printlevel normal
|  4> end
|  5> * xyz 0 1
|  6> C 0.6279997816 1.6891746407 -0.0249253727
|  7> C 1.4153659438 0.3879412462 -0.2515187103
|  8> H 1.6279386 0.2615148297 -1.3183236475
|  9> C 0.549115252 -0.79060194 0.2167427819
| 10> H 0.3620742822 -0.6926726183 1.3006041717
| 11> C -0.8016714242 -0.7415397475 -0.5182123172
| 12> H -0.6256084747 -0.8875091268 -1.5887729825
| 13> C -1.4667813209 0.6293384645 -0.3018115978
| 14> H -2.3442958232 0.7182431262 -0.9576865985
| 15> O -0.6240632046 1.6806642788 -0.6948165845
| 16> O -1.828167904 0.7046225666 1.0436794685
| 17> O -1.6400793787 -1.7879023661 -0.1049542788
| 18> O 1.2166981401 -2.0015558812 -0.0412764724
| 19> O 2.6694556648 0.4370616995 0.3734118652
| 20> H 1.1730733429 2.5393048587 -0.4331799702
| 21> H 0.4732793547 1.8335021462 1.0521074745
| 22> H -2.37862944 1.4859509786 1.2028475529
| 23> H -2.0030644251 -1.5647759675 0.7677431746
| 24> H 0.5641344789 -2.7192207872 -0.0204252806
| 25> H 2.5622302866 0.3834416744 1.334525761
| 26> *
| 27>
| 28>                          ****END OF INPUT****

CARTESIAN COORDINATES (ANGSTROEM)
---------------------------------
  C      0.628000    1.689175   -0.024925
  C      1.415366    0.387941   -0.251519
  H      1.627939    0.261515   -1.318324
  C      0.549115   -0.790602    0.216743
  H      0.362074   -0.692673    1.300604
  C     -0.801671   -0.741540   -0.518212
  H     -0.625608   -0.887509   -1.588773
  C     -1.466781    0.629338   -0.301812
  H     -2.344296    0.718243   -0.957687
  O     -0.624063    1.680664   -0.694817
  O     -1.828168    0.704623    1.043679
  O     -1.640079   -1.787902   -0.104954
  O      1.216698   -2.001556   -0.041276
  O      2.669456    0.437062    0.373412
  H      1.173073    2.539305   -0.433180
  H      0.473279    1.833502    1.052107
  H     -2.378629    1.485951    1.202848
  H     -2.003064   -1.564776    0.767743
  H      0.564134   -2.719221   -0.020425
  H      2.562230    0.383442    1.334526

 Total Charge           Charge          ....    0
 Multiplicity           Mult            ....    1
 Number of Electrons    NEL             ....   80
 Basis Dimension        Dim             ....  160

ORBITAL ENERGIES
----------------

  NO   OCC          E(Eh)            E(eV)
   0   2.0000     -18.784703      -511.1578
   1   2.0000     -18.773058      -510.8409
   2   2.0000     -18.761237      -510.5192
   3   2.0000     -18.747372      -510.1419
   4   2.0000     -18.741791      -509.9901
   5   2.0000      -9.993439      -271.9353
   6   2.0000      -9.945782      -270.6385
   7   2.0000      -9.939136      -270.4576
   8   2.0000      -9.938334      -270.4358
   9   2.0000      -9.933862      -270.3141
  10   2.0000      -0.992461       -27.0062
  11   2.0000      -0.943370       -25.6704
  12   2.0000      -0.933890       -25.4124
  13   2.0000      -0.920597       -25.0507
  14   2.0000      -0.909640       -24.7526
  15   2.0000      -0.699264       -19.0279
  16   2.0000      -0.682457       -18.5706
  17   2.0000      -0.585947       -15.9444
  18   2.0000      -0.579801       -15.7772
  19   2.0000      -0.551896       -15.0179
  20   2.0000      -0.497301       -13.5322
  21   2.0000      -0.486881       -13.2487
  22   2.0000      -0.471758       -12.8372
  23   2.0000      -0.447960       -12.1896
  24   2.0000      -0.430057       -11.7025
  25   2.0000      -0.427413       -11.6305
  26   2.0000      -0.399267       -10.8646
  27   2.0000      -0.374883       -10.2011
  28   2.0000      -0.363586        -9.8937
  29   2.0000      -0.353577        -9.6213
  30   2.0000      -0.339328        -9.2336
  31   2.0000      -0.314833        -8.5671
  32   2.0000      -0.300093        -8.1659
  33   2.0000      -0.280654        -7.6370
  34   2.0000      -0.272995        -7.4286
  35   2.0000      -0.268209        -7.2983
  36   2.0000      -0.255845        -6.9619
  37   2.0000      -0.229571        -6.2469
  38   2.0000      -0.215424        -5.8620
  39   2.0000      -0.201877        -5.4933
  40   0.0000       0.007287         0.1983
  41   0.0000       0.025788         0.7017
  42   0.0000       0.040443         1.1005
  43   0.0000       0.054921         1.4945
  44   0.0000       0.073507         2.0002

MULLIKEN ATOMIC CHARGES
-----------------------
   0 C :    0.073238
   1 C :    0.033908
   2 H :    0.072329
   3 C :    0.039273
   4 H :    0.035668
   5 C :    0.036699
   6 H :    0.083579
   7 C :    0.148911
   8 H :    0.074255
   9 O :   -0.310173
  10 O :   -0.413083
  11 O :   -0.426480
  12 O :   -0.406376
  13 O :   -0.407237
  14 H :    0.103269
  15 H :    0.046529
  16 H :    0.314482
  17 H :    0.303800
  18 H :    0.300041
  19 H :    0.297367
Sum of atomic charges:    0.0000000

LOEWDIN ATOMIC CHARGES
----------------------
   0 C :   -0.130379
   1 C :   -0.075950
   2 H :    0.120356
   3 C :   -0.084004
   4 H :    0.092159
   5 C :   -0.091050
   6 H :    0.124210
   7 C :   -0.011667
   8 H :    0.101499
   9 O :   -0.154437
  10 O :   -0.311190
  11 O :   -0.313144
  12 O :   -0.321334
  13 O :   -0.305462
  14 H :    0.121537
  15 H :    0.094538
  16 H :    0.295882
  17 H :    0.282460
  18 H :    0.281647
  19 H :    0.284327

  Mayer bond orders larger than 0.100000
B(  0-C ,  1-C ) :   1.0397 B(  0-C ,  9-O ) :   0.9853 B(  0-C , 14-H ) :   0.9262
B(  0-C , 15-H ) :   0.8896 B(  1-C ,  2-H ) :   0.8706 B(  1-C ,  3-C ) :   1.0131
B(  1-C , 13-O ) :   1.0502 B(  3-C ,  4-H ) :   0.8707 B(  3-C ,  5-C ) :   0.9908
B(  3-C , 12-O ) :   1.1119 B(  5-C ,  6-H ) :   0.8785 B(  5-C ,  7-C ) :   0.9922
B(  5-C , 11-O ) :   1.0362 B(  7-C ,  8-H ) :   0.9042 B(  7-C ,  9-O ) :   1.0766
B(  7-C , 10-O ) :   1.0746 B( 10-O , 16-H ) :   0.8371 B( 11-O , 17-H ) :   0.8342
B( 12-O , 18-H ) :   0.8326 B( 13-O , 19-H ) :   0.8488

Dispersion correction           -0.019175144
FINAL SINGLE POINT ENERGY      -571.419341201540

DIPOLE MOMENT
-------------

Method             : SCF
Type of density    : Electron Density
Multiplicity       :   1
Irrep              :   0
Energy             :  -571.5279138840049882 Eh
Relativity type    :
Basis              : AO
                                X                 Y                 Z
Electronic contribution:     -0.566519725      -0.736107403      -0.423919398
Nuclear contribution   :     -0.555512296       1.259500553       1.265156058
                        -----------------------------------------
Total Dipole Moment    :     -1.122032022       0.523393151       0.841236661
                        -----------------------------------------
Magnitude (a.u.)       :      1.496855159
Magnitude (Debye)      :      3.804703449

Rotational constants in cm-1:             0.057008             0.044505             0.028871
Rotational constants in MHz :          1709.071306          1334.212224           865.538474

                             ****ORCA TERMINATED NORMALLY****
TOTAL RUN TIME: 0 days 0 hours 0 minutes 13 seconds 942 msec
