                         Program Version 6.0.0  -   RELEASE  -
|  1> ! r2scan-3c def2/J RI DEFGRID2 scfconv6 printgap
|  2> %output
|  3>     printlevel normal
|  4> end
|  5> * xyz 0 1
|  6> C 4.746304129 -2.5240414369 -0.2316284687
|  7> C 4.4215463233 -1.470749309 -1.2709385097
|  8> O 3.0057889978 -1.1937908955 -1.3168974596
|  9> P 2.2955897702 -0.142827192 -0.373166527
| 10> S 3.3453381003 1.4046275954 0.2130294032
| 11> O 1.6918705183 -1.0298554672 0.8059006085
| 12> C 1.6441964292 -0.6202107313 2.1880283943
| 13> C 2.8611710474 -1.116197776 2.9426706654
| 14> S 0.6785508701 0.2432948671 -1.6840975053
| 15> C 0.0513911117 1.7042243853 -0.8061861161
| 16> S -0.8253708447 1.2845847082 0.7142761905
| 17> P -2.4660360144 0.2976775827 -0.2443959494
| 18> S -3.0461075538 1.0772364879 -1.9404626843
| 19> O -3.5181389231 0.1545989439 0.9355695736
| 20> C -3.96328415 1.2259664059 1.7905439745
| 21> C -4.4991150016 2.4111170178 1.0159967607
| 22> O -2.0284247086 -1.1988307297 -0.4700413943
| 23> C -1.6345961466 -2.0862839089 0.60370828
| 24> C -2.7344315853 -3.0911276198 0.8768028554
| 25> H 5.7979071953 -2.7836030945 -0.3040068313
| 26> H 4.5420325664 -2.1429127446 0.7658356722
| 27> H 4.1435684402 -3.4120900396 -0.4013206769
| 28> H 4.6592056767 -1.8149190177 -2.2789260889
| 29> H 4.9545268723 -0.536142191 -1.0658671358
| 30> H 1.576496501 0.4698731458 2.2418564758
| 31> H 0.7270356875 -1.0626750416 2.5786559808
| 32> H 2.962037684 -2.1923755754 2.8319029801
| 33> H 3.7573995532 -0.6262054463 2.5669984252
| 34> H 2.7467355898 -0.873363772 3.9942249938
| 35> H -0.6371392275 2.2031993308 -1.488637192
| 36> H 0.88254202 2.3541370294 -0.5310392392
| 37> H -4.742242829 0.7616856328 2.3977934007
| 38> H -3.1241630452 1.5260683668 2.424217032
| 39> H -3.7027308568 2.8707963784 0.432452587
| 40> H -5.2838433591 2.0953660972 0.3326508732
| 41> H -4.8983663451 3.1444376744 1.7091853515
| 42> H -0.7210368154 -2.5711303381 0.2515929017
| 43> H -1.4157090851 -1.4903100211 1.4941036054
| 44> H -2.4062049857 -3.7803811164 1.648413185
| 45> H -3.6335787635 -2.5778458329 1.2080776437
| 46> H -2.9628991604 -3.6460571645 -0.0288081186
| 47> *
| 48>
| 49>                          ****END OF INPUT****

CARTESIAN COORDINATES (ANGSTROEM)
---------------------------------
  C      4.746304   -2.524041   -0.231628
  C      4.421546   -1.470749   -1.270939
  O      3.005789   -1.193791   -1.316897
  P      2.295590   -0.142827   -0.373167
  S      3.345338    1.404628    0.213029
  O      1.691871   -1.029855    0.805901
  C      1.644196   -0.620211    2.188028
  C      2.861171   -1.116198    2.942671
  S      0.678551    0.243295   -1.684098
  C      0.051391    1.704224   -0.806186
  S     -0.825371    1.284585    0.714276
  P     -2.466036    0.297678   -0.244396
  S     -3.046108    1.077236   -1.940463
  O     -3.518139    0.154599    0.935570
  C     -3.963284    1.225966    1.790544
  C     -4.499115    2.411117    1.015997
  O     -2.028425   -1.198831   -0.470041
  C     -1.634596   -2.086284    0.603708
  C     -2.734432   -3.091128    0.876803
  H      5.797907   -2.783603   -0.304007
  H      4.542033   -2.142913    0.765836
  H      4.143568   -3.412090   -0.401321
  H      4.659206   -1.814919   -2.278926
  H      4.954527   -0.536142   -1.065867
  H      1.576497    0.469873    2.241856
  H      0.727036   -1.062675    2.578656
  H      2.962038   -2.192376    2.831903
  H      3.757400   -0.626205    2.566998
  H      2.746736   -0.873364    3.994225
  H     -0.637139    2.203199   -1.488637
  H      0.882542    2.354137   -0.531039
  H     -4.742243    0.761686    2.397793
  H     -3.124163    1.526068    2.424217
  H     -3.702731    2.870796    0.432453
  H     -5.283843    2.095366    0.332651
  H     -4.898366    3.144438    1.709185
  H     -0.721037   -2.571130    0.251593
  H     -1.415709   -1.490310    1.494104
  H     -2.406205   -3.780381    1.648413
  H     -3.633579   -2.577846    1.208078
  H     -2.962899   -3.646057   -0.028808

 Total Charge           Charge          ....    0
 Multiplicity           Mult            ....    1
 Number of Electrons    NEL             ....  202
 Basis Dimension        Dim             ....  539

ORBITAL ENERGIES
----------------

  NO   OCC          E(Eh)            E(eV)
   0   2.0000     -88.576156     -2410.2797
   1   2.0000     -88.570709     -2410.1315
   2   2.0000     -88.525238     -2408.8942
   3   2.0000     -88.517624     -2408.6870
   4   2.0000     -76.915829     -2092.9861
   5   2.0000     -76.914968     -2092.9627
   6   2.0000     -18.998412      -516.9731
   7   2.0000     -18.994327      -516.8619
   8   2.0000     -18.993433      -516.8376
   9   2.0000     -18.988507      -516.7035
  10   2.0000     -10.108694      -275.0715
  11   2.0000     -10.102607      -274.9059
  12   2.0000     -10.102600      -274.9057
  13   2.0000     -10.101919      -274.8872
  14   2.0000     -10.100763      -274.8557
  15   2.0000     -10.035264      -273.0734
  16   2.0000     -10.033621      -273.0287
  17   2.0000     -10.031959      -272.9835
  18   2.0000     -10.030081      -272.9324
  19   2.0000      -7.870734      -214.1736
  20   2.0000      -7.864694      -214.0092
  21   2.0000      -7.820114      -212.7961
  22   2.0000      -7.812385      -212.5858
  23   2.0000      -6.594280      -179.4395
  24   2.0000      -6.593234      -179.4110
  25   2.0000      -5.817389      -158.2992
  26   2.0000      -5.814506      -158.2207
  27   2.0000      -5.811669      -158.1436
  28   2.0000      -5.808745      -158.0640
  29   2.0000      -5.808132      -158.0473
  30   2.0000      -5.801564      -157.8686
  31   2.0000      -5.767660      -156.9460
  32   2.0000      -5.760702      -156.7567
  33   2.0000      -5.760230      -156.7438
  34   2.0000      -5.759886      -156.7345
  35   2.0000      -5.752639      -156.5373
  36   2.0000      -5.752228      -156.5261
  37   2.0000      -4.739679      -128.9732
  38   2.0000      -4.739075      -128.9568
  39   2.0000      -4.739016      -128.9552
  40   2.0000      -4.738468      -128.9403
  41   2.0000      -4.738266      -128.9348
  42   2.0000      -4.736398      -128.8840
  43   2.0000      -1.053896       -28.6780
  44   2.0000      -1.050482       -28.5851
  45   2.0000      -1.013500       -27.5787
  46   2.0000      -1.011517       -27.5248
  47   2.0000      -0.801147       -21.8003
  48   2.0000      -0.762545       -20.7499
  49   2.0000      -0.753462       -20.5027
  50   2.0000      -0.737551       -20.0698
  51   2.0000      -0.736206       -20.0332
  52   2.0000      -0.711130       -19.3508
  53   2.0000      -0.688048       -18.7227
  54   2.0000      -0.670260       -18.2387
  55   2.0000      -0.635879       -17.3031
  56   2.0000      -0.623303       -16.9609
  57   2.0000      -0.608964       -16.5708
  58   2.0000      -0.607391       -16.5280
  59   2.0000      -0.594236       -16.1700
  60   2.0000      -0.533695       -14.5226
  61   2.0000      -0.522536       -14.2189
  62   2.0000      -0.501597       -13.6492
  63   2.0000      -0.495865       -13.4932
  64   2.0000      -0.478652       -13.0248
  65   2.0000      -0.468109       -12.7379
  66   2.0000      -0.456986       -12.4352
  67   2.0000      -0.455495       -12.3947
  68   2.0000      -0.452816       -12.3217
  69   2.0000      -0.432982       -11.7820
  70   2.0000      -0.424624       -11.5546
  71   2.0000      -0.420159       -11.4331
  72   2.0000      -0.412417       -11.2224
  73   2.0000      -0.401958       -10.9378
  74   2.0000      -0.400797       -10.9062
  75   2.0000      -0.391737       -10.6597
  76   2.0000      -0.384304       -10.4575
  77   2.0000      -0.378914       -10.3108
  78   2.0000      -0.374062       -10.1787
  79   2.0000      -0.368472       -10.0266
  80   2.0000      -0.366198        -9.9648
  81   2.0000      -0.362203        -9.8560
  82   2.0000      -0.357300        -9.7226
  83   2.0000      -0.355726        -9.6798
  84   2.0000      -0.351507        -9.5650
  85   2.0000      -0.340977        -9.2785
  86   2.0000      -0.327463        -8.9107
  87   2.0000      -0.315832        -8.5942
  88   2.0000      -0.313910        -8.5419
  89   2.0000      -0.306186        -8.3317
  90   2.0000      -0.301789        -8.2121
  91   2.0000      -0.295386        -8.0378
  92   2.0000      -0.293365        -7.9829
  93   2.0000      -0.283230        -7.7071
  94   2.0000      -0.272960        -7.4276
  95   2.0000      -0.246605        -6.7105
  96   2.0000      -0.231082        -6.2881
  97   2.0000      -0.230553        -6.2737
  98   2.0000      -0.216853        -5.9009
  99   2.0000      -0.212624        -5.7858
 100   2.0000      -0.211007        -5.7418
 101   0.0000      -0.048582        -1.3220
 102   0.0000      -0.025043        -0.6814
 103   0.0000      -0.005518        -0.1501
 104   0.0000       0.005506         0.1498
 105   0.0000       0.010986         0.2989

MULLIKEN ATOMIC CHARGES
-----------------------
   0 C :   -0.429654
   1 C :   -0.161211
   2 O :   -0.313787
   3 P :    0.667442
   4 S :   -0.487595
   5 O :   -0.258145
   6 C :   -0.082566
   7 C :   -0.511844
   8 S :   -0.095534
   9 C :   -0.242905
  10 S :   -0.190709
  11 P :    0.645125
  12 S :   -0.420188
  13 O :   -0.296171
  14 C :   -0.160528
  15 C :   -0.426720
  16 O :   -0.256612
  17 C :   -0.083482
  18 C :   -0.483641
  19 H :    0.149022
  20 H :    0.154892
  21 H :    0.157527
  22 H :    0.153259
  23 H :    0.175492
  24 H :    0.171016
  25 H :    0.146142
  26 H :    0.158341
  27 H :    0.179002
  28 H :    0.147704
  29 H :    0.220141
  30 H :    0.213472
  31 H :    0.149827
  32 H :    0.151143
  33 H :    0.170298
  34 H :    0.165724
  35 H :    0.146791
  36 H :    0.172787
  37 H :    0.138035
  38 H :    0.144373
  39 H :    0.163388
  40 H :    0.160352
Sum of atomic charges:   -0.0000000

LOEWDIN ATOMIC CHARGES
----------------------
   0 C :   -0.395039
   1 C :    0.026177
   2 O :   -0.666621
   3 P :    0.383719
   4 S :   -0.133010
   5 O :   -0.670653
   6 C :   -0.000571
   7 C :   -0.405600
   8 S :    0.195815
   9 C :   -0.423397
  10 S :    0.123346
  11 P :    0.380641
  12 S :   -0.092582
  13 O :   -0.668588
  14 C :    0.023372
  15 C :   -0.405334
  16 O :   -0.653535
  17 C :    0.020130
  18 C :   -0.390694
  19 H :    0.160412
  20 H :    0.160430
  21 H :    0.161366
  22 H :    0.180380
  23 H :    0.181308
  24 H :    0.180758
  25 H :    0.174886
  26 H :    0.157558
  27 H :    0.164071
  28 H :    0.160364
  29 H :    0.193519
  30 H :    0.190523
  31 H :    0.181064
  32 H :    0.171468
  33 H :    0.167365
  34 H :    0.166261
  35 H :    0.158646
  36 H :    0.185954
  37 H :    0.171417
  38 H :    0.157801
  39 H :    0.163818
  40 H :    0.163054

  Mayer bond orders larger than 0.100000
B(  0-C ,  1-C ) :   0.9418 B(  0-C , 19-H ) :   0.9648 B(  0-C , 20-H ) :   0.9597
B(  0-C , 21-H ) :   0.9721 B(  1-C ,  2-O ) :   0.7788 B(  1-C , 22-H ) :   0.9632
B(  1-C , 23-H ) :   0.9631 B(  2-O ,  3-P ) :   1.1778 B(  3-P ,  4-S ) :   1.7439
B(  3-P ,  5-O ) :   1.0476 B(  3-P ,  8-S ) :   1.1048 B(  5-O ,  6-C ) :   0.7488
B(  6-C ,  7-C ) :   0.9206 B(  6-C , 24-H ) :   0.9563 B(  6-C , 25-H ) :   0.9607
B(  7-C , 26-H ) :   0.9774 B(  7-C , 27-H ) :   0.9689 B(  7-C , 28-H ) :   0.9608
B(  8-S ,  9-C ) :   0.9152 B(  9-C , 10-S ) :   0.9064 B(  9-C , 29-H ) :   0.9049
B(  9-C , 30-H ) :   0.9073 B( 10-S , 11-P ) :   0.9856 B( 11-P , 12-S ) :   1.8714
B( 11-P , 13-O ) :   1.0385 B( 11-P , 16-O ) :   1.1377 B( 13-O , 14-C ) :   0.8040
B( 14-C , 15-C ) :   0.9441 B( 14-C , 31-H ) :   0.9582 B( 14-C , 32-H ) :   0.9605
B( 15-C , 33-H ) :   0.9541 B( 15-C , 34-H ) :   0.9653 B( 15-C , 35-H ) :   0.9615
B( 16-O , 17-C ) :   0.7369 B( 17-C , 18-C ) :   0.9470 B( 17-C , 36-H ) :   0.9523
B( 17-C , 37-H ) :   0.9666 B( 18-C , 38-H ) :   0.9666 B( 18-C , 39-H ) :   0.9716
B( 18-C , 40-H ) :   0.9721

Dispersion correction           -0.021570669
FINAL SINGLE POINT ENERGY     -2932.459723985248

DIPOLE MOMENT
-------------

Method             : SCF
Type of density    : Electron Density
Multiplicity       :   1
Irrep              :   0
Energy             : -2932.4845863201762768 Eh
Relativity type    :
Basis              : AO
                                X                 Y                 Z
Electronic contribution:     -2.888323096      12.462067214     -18.156541858
Nuclear contribution   :      3.157699557     -13.516460195      20.123805713
                        -----------------------------------------
Total Dipole Moment    :      0.269376461      -1.054392981       1.967263855
                        -----------------------------------------
Magnitude (a.u.)       :      2.248207133
Magnitude (Debye)      :      5.714488393

Rotational constants in cm-1:             0.013240             0.004654             0.004458
Rotational constants in MHz :           396.913763           139.514415           133.643733

                             ****ORCA TERMINATED NORMALLY****
TOTAL RUN TIME: 0 days 0 hours 1 minutes 20 seconds 72 msec
