                         Program Version 6.0.0  -   RELEASE  -
|  1> ! r2scan-3c def2/J RI DEFGRID2 scfconv6 printgap
|  2> %output
|  3>     printlevel normal
|  4> end
|  5> %cpcm
|  6>     smd true
|  7>     smdsolvent "water"
|  8> end
|  9> * xyz 0 1
| 10> C 4.746304129 -2.5240414369 -0.2316284687
| 11> C 4.4215463233 -1.470749309 -1.2709385097
| 12> O 3.0057889978 -1.1937908955 -1.3168974596
| 13> P 2.2955897702 -0.142827192 -0.373166527
| 14> S 3.3453381003 1.4046275954 0.2130294032
| 15> O 1.6918705183 -1.0298554672 0.8059006085
| 16> C 1.6441964292 -0.6202107313 2.1880283943
| 17> C 2.8611710474 -1.116197776 2.9426706654
| 18> S 0.6785508701 0.2432948671 -1.6840975053
| 19> C 0.0513911117 1.7042243853 -0.8061861161
| 20> S -0.8253708447 1.2845847082 0.7142761905
| 21> P -2.4660360144 0.2976775827 -0.2443959494
| 22> S -3.0461075538 1.0772364879 -1.9404626843
| 23> O -3.5181389231 0.1545989439 0.9355695736
| 24> C -3.96328415 1.2259664059 1.7905439745
| 25> C -4.4991150016 2.4111170178 1.0159967607
| 26> O -2.0284247086 -1.1988307297 -0.4700413943
| 27> C -1.6345961466 -2.0862839089 0.60370828
| 28> C -2.7344315853 -3.0911276198 0.8768028554
| 29> H 5.7979071953 -2.7836030945 -0.3040068313
| 30> H 4.5420325664 -2.1429127446 0.7658356722
| 31> H 4.1435684402 -3.4120900396 -0.4013206769
| 32> H 4.6592056767 -1.8149190177 -2.2789260889
| 33> H 4.9545268723 -0.536142191 -1.0658671358
| 34> H 1.576496501 0.4698731458 2.2418564758
| 35> H 0.7270356875 -1.0626750416 2.5786559808
| 36> H 2.962037684 -2.1923755754 2.8319029801
| 37> H 3.7573995532 -0.6262054463 2.5669984252
| 38> H 2.7467355898 -0.873363772 3.9942249938
| 39> H -0.6371392275 2.2031993308 -1.488637192
| 40> H 0.88254202 2.3541370294 -0.5310392392
| 41> H -4.742242829 0.7616856328 2.3977934007
| 42> H -3.1241630452 1.5260683668 2.424217032
| 43> H -3.7027308568 2.8707963784 0.432452587
| 44> H -5.2838433591 2.0953660972 0.3326508732
| 45> H -4.8983663451 3.1444376744 1.7091853515
| 46> H -0.7210368154 -2.5711303381 0.2515929017
| 47> H -1.4157090851 -1.4903100211 1.4941036054
| 48> H -2.4062049857 -3.7803811164 1.648413185
| 49> H -3.6335787635 -2.5778458329 1.2080776437
| 50> H -2.9628991604 -3.6460571645 -0.0288081186
| 51> *
| 52>
| 53>                          ****END OF INPUT****

CARTESIAN COORDINATES (ANGSTROEM)
---------------------------------
  C      4.746304   -2.524041   -0.231628
  C      4.421546   -1.470749   -1.270939
  O      3.005789   -1.193791   -1.316897
  P      2.295590   -0.142827   -0.373167
  S      3.345338    1.404628    0.213029
  O      1.691871   -1.029855    0.805901
  C      1.644196   -0.620211    2.188028
  C      2.861171   -1.116198    2.942671
  S      0.678551    0.243295   -1.684098
  C      0.051391    1.704224   -0.806186
  S     -0.825371    1.284585    0.714276
  P     -2.466036    0.297678   -0.244396
  S     -3.046108    1.077236   -1.940463
  O     -3.518139    0.154599    0.935570
  C     -3.963284    1.225966    1.790544
  C     -4.499115    2.411117    1.015997
  O     -2.028425   -1.198831   -0.470041
  C     -1.634596   -2.086284    0.603708
  C     -2.734432   -3.091128    0.876803
  H      5.797907   -2.783603   -0.304007
  H      4.542033   -2.142913    0.765836
  H      4.143568   -3.412090   -0.401321
  H      4.659206   -1.814919   -2.278926
  H      4.954527   -0.536142   -1.065867
  H      1.576497    0.469873    2.241856
  H      0.727036   -1.062675    2.578656
  H      2.962038   -2.192376    2.831903
  H      3.757400   -0.626205    2.566998
  H      2.746736   -0.873364    3.994225
  H     -0.637139    2.203199   -1.488637
  H      0.882542    2.354137   -0.531039
  H     -4.742243    0.761686    2.397793
  H     -3.124163    1.526068    2.424217
  H     -3.702731    2.870796    0.432453
  H     -5.283843    2.095366    0.332651
  H     -4.898366    3.144438    1.709185
  H     -0.721037   -2.571130    0.251593
  H     -1.415709   -1.490310    1.494104
  H     -2.406205   -3.780381    1.648413
  H     -3.633579   -2.577846    1.208078
  H     -2.962899   -3.646057   -0.028808

 Total Charge           Charge          ....    0
 Multiplicity           Mult            ....    1
 Number of Electrons    NEL             ....  202
 Basis Dimension        Dim             ....  539

ORBITAL ENERGIES
----------------

  NO   OCC          E(Eh)            E(eV)
   0   2.0000     -88.578430     -2410.3416
   1   2.0000     -88.577831     -2410.3253
   2   2.0000     -88.530864     -2409.0473
   3   2.0000     -88.528707     -2408.9886
   4   2.0000     -76.921041     -2093.1279
   5   2.0000     -76.920154     -2093.1038
   6   2.0000     -18.997645      -516.9522
   7   2.0000     -18.995832      -516.9029
   8   2.0000     -18.993386      -516.8363
   9   2.0000     -18.993131      -516.8294
  10   2.0000     -10.104074      -274.9458
  11   2.0000     -10.094039      -274.6728
  12   2.0000     -10.091060      -274.5917
  13   2.0000     -10.090974      -274.5894
  14   2.0000     -10.088702      -274.5275
  15   2.0000     -10.019019      -272.6314
  16   2.0000     -10.018789      -272.6251
  17   2.0000     -10.018361      -272.6135
  18   2.0000     -10.016745      -272.5695
  19   2.0000      -7.872897      -214.2324
  20   2.0000      -7.872010      -214.2083
  21   2.0000      -7.825993      -212.9561
  22   2.0000      -7.823883      -212.8987
  23   2.0000      -6.599351      -179.5775
  24   2.0000      -6.598603      -179.5571
  25   2.0000      -5.819608      -158.3596
  26   2.0000      -5.818868      -158.3394
  27   2.0000      -5.816716      -158.2809
  28   2.0000      -5.815989      -158.2611
  29   2.0000      -5.810197      -158.1035
  30   2.0000      -5.809066      -158.0727
  31   2.0000      -5.773510      -157.1052
  32   2.0000      -5.771578      -157.0526
  33   2.0000      -5.766497      -156.9143
  34   2.0000      -5.765834      -156.8963
  35   2.0000      -5.764150      -156.8505
  36   2.0000      -5.763782      -156.8405
  37   2.0000      -4.745115      -129.1212
  38   2.0000      -4.744541      -129.1055
  39   2.0000      -4.743941      -129.0892
  40   2.0000      -4.743312      -129.0721
  41   2.0000      -4.742713      -129.0558
  42   2.0000      -4.742681      -129.0549
  43   2.0000      -1.055053       -28.7095
  44   2.0000      -1.050921       -28.5970
  45   2.0000      -1.012920       -27.5629
  46   2.0000      -1.012555       -27.5530
  47   2.0000      -0.804316       -21.8866
  48   2.0000      -0.757822       -20.6214
  49   2.0000      -0.746128       -20.3032
  50   2.0000      -0.727173       -19.7874
  51   2.0000      -0.723002       -19.6739
  52   2.0000      -0.709260       -19.2999
  53   2.0000      -0.690597       -18.7921
  54   2.0000      -0.676038       -18.3959
  55   2.0000      -0.630635       -17.1605
  56   2.0000      -0.619305       -16.8522
  57   2.0000      -0.601836       -16.3768
  58   2.0000      -0.598532       -16.2869
  59   2.0000      -0.591613       -16.0986
  60   2.0000      -0.528602       -14.3840
  61   2.0000      -0.516790       -14.0626
  62   2.0000      -0.495953       -13.4956
  63   2.0000      -0.489620       -13.3232
  64   2.0000      -0.477040       -12.9809
  65   2.0000      -0.462296       -12.5797
  66   2.0000      -0.452123       -12.3029
  67   2.0000      -0.447809       -12.1855
  68   2.0000      -0.444894       -12.1062
  69   2.0000      -0.427195       -11.6246
  70   2.0000      -0.420178       -11.4336
  71   2.0000      -0.413929       -11.2636
  72   2.0000      -0.409479       -11.1425
  73   2.0000      -0.397161       -10.8073
  74   2.0000      -0.392677       -10.6853
  75   2.0000      -0.389560       -10.6005
  76   2.0000      -0.381415       -10.3788
  77   2.0000      -0.370560       -10.0835
  78   2.0000      -0.367518       -10.0007
  79   2.0000      -0.359722        -9.7885
  80   2.0000      -0.355143        -9.6639
  81   2.0000      -0.352387        -9.5889
  82   2.0000      -0.349187        -9.5019
  83   2.0000      -0.347841        -9.4652
  84   2.0000      -0.342641        -9.3237
  85   2.0000      -0.335985        -9.1426
  86   2.0000      -0.324210        -8.8222
  87   2.0000      -0.309031        -8.4092
  88   2.0000      -0.306346        -8.3361
  89   2.0000      -0.301584        -8.2065
  90   2.0000      -0.298639        -8.1264
  91   2.0000      -0.292628        -7.9628
  92   2.0000      -0.290401        -7.9022
  93   2.0000      -0.281461        -7.6589
  94   2.0000      -0.273892        -7.4530
  95   2.0000      -0.250550        -6.8178
  96   2.0000      -0.237769        -6.4700
  97   2.0000      -0.236672        -6.4402
  98   2.0000      -0.227453        -6.1893
  99   2.0000      -0.223659        -6.0861
 100   2.0000      -0.218503        -5.9458
 101   0.0000      -0.054145        -1.4734
 102   0.0000      -0.031628        -0.8607
 103   0.0000      -0.009209        -0.2506
 104   0.0000       0.001827         0.0497
 105   0.0000       0.011470         0.3121

MULLIKEN ATOMIC CHARGES
-----------------------
   0 C :   -0.475978
   1 C :   -0.147046
   2 O :   -0.344195
   3 P :    0.697022
   4 S :   -0.522549
   5 O :   -0.281505
   6 C :   -0.083001
   7 C :   -0.530635
   8 S :   -0.141384
   9 C :   -0.249343
  10 S :   -0.174189
  11 P :    0.666058
  12 S :   -0.488738
  13 O :   -0.313599
  14 C :   -0.160310
  15 C :   -0.465400
  16 O :   -0.289868
  17 C :   -0.080228
  18 C :   -0.527259
  19 H :    0.171150
  20 H :    0.168817
  21 H :    0.168637
  22 H :    0.175726
  23 H :    0.175122
  24 H :    0.168358
  25 H :    0.181274
  26 H :    0.170938
  27 H :    0.172993
  28 H :    0.169696
  29 H :    0.235416
  30 H :    0.233294
  31 H :    0.178319
  32 H :    0.173121
  33 H :    0.164934
  34 H :    0.170669
  35 H :    0.173925
  36 H :    0.181260
  37 H :    0.170147
  38 H :    0.171254
  39 H :    0.169076
  40 H :    0.168024
Sum of atomic charges:   -0.0000000

LOEWDIN ATOMIC CHARGES
----------------------
   0 C :   -0.398575
   1 C :    0.031310
   2 O :   -0.682086
   3 P :    0.386641
   4 S :   -0.154699
   5 O :   -0.678038
   6 C :    0.006004
   7 C :   -0.406084
   8 S :    0.164968
   9 C :   -0.419268
  10 S :    0.141786
  11 P :    0.383891
  12 S :   -0.143749
  13 O :   -0.672351
  14 C :    0.031626
  15 C :   -0.409225
  16 O :   -0.678501
  17 C :    0.026036
  18 C :   -0.393201
  19 H :    0.168962
  20 H :    0.163917
  21 H :    0.164119
  22 H :    0.189493
  23 H :    0.182256
  24 H :    0.180341
  25 H :    0.188322
  26 H :    0.163148
  27 H :    0.161768
  28 H :    0.167917
  29 H :    0.197735
  30 H :    0.196421
  31 H :    0.193397
  32 H :    0.180004
  33 H :    0.162053
  34 H :    0.164532
  35 H :    0.168874
  36 H :    0.190012
  37 H :    0.183239
  38 H :    0.168956
  39 H :    0.164240
  40 H :    0.163807

  Mayer bond orders larger than 0.100000
B(  0-C ,  1-C ) :   0.9333 B(  0-C , 19-H ) :   0.9587 B(  0-C , 20-H ) :   0.9577
B(  0-C , 21-H ) :   0.9707 B(  1-C ,  2-O ) :   0.7693 B(  1-C , 22-H ) :   0.9547
B(  1-C , 23-H ) :   0.9579 B(  2-O ,  3-P ) :   1.1837 B(  3-P ,  4-S ) :   1.7277
B(  3-P ,  5-O ) :   1.0571 B(  3-P ,  8-S ) :   1.1050 B(  5-O ,  6-C ) :   0.7327
B(  6-C ,  7-C ) :   0.9256 B(  6-C , 24-H ) :   0.9532 B(  6-C , 25-H ) :   0.9495
B(  7-C , 26-H ) :   0.9722 B(  7-C , 27-H ) :   0.9679 B(  7-C , 28-H ) :   0.9572
B(  8-S ,  9-C ) :   0.9007 B(  9-C , 10-S ) :   0.8988 B(  9-C , 29-H ) :   0.8998
B(  9-C , 30-H ) :   0.9040 B( 10-S , 11-P ) :   0.9999 B( 11-P , 12-S ) :   1.8306
B( 11-P , 13-O ) :   1.0602 B( 11-P , 16-O ) :   1.1445 B( 13-O , 14-C ) :   0.7919
B( 14-C , 15-C ) :   0.9211 B( 14-C , 31-H ) :   0.9484 B( 14-C , 32-H ) :   0.9569
B( 15-C , 33-H ) :   0.9578 B( 15-C , 34-H ) :   0.9665 B( 15-C , 35-H ) :   0.9556
B( 16-O , 17-C ) :   0.7235 B( 17-C , 18-C ) :   0.9410 B( 17-C , 36-H ) :   0.9448
B( 17-C , 37-H ) :   0.9535 B( 18-C , 38-H ) :   0.9592 B( 18-C , 39-H ) :   0.9703
B( 18-C , 40-H ) :   0.9713

Dispersion correction           -0.021570669
FINAL SINGLE POINT ENERGY     -2932.471138783183

DIPOLE MOMENT
-------------

Method             : SCF
Type of density    : Electron Density
Multiplicity       :   1
Irrep              :   0
Energy             : -2932.4960011181115078 Eh
Relativity type    :
Basis              : AO
                                X                 Y                 Z
Electronic contribution:     -2.690468383      12.252193663     -17.047519108
Nuclear contribution   :      3.157699557     -13.516460195      20.123805713
                        -----------------------------------------
Total Dipole Moment    :      0.467231174      -1.264266532       3.076286605
                        -----------------------------------------
Magnitude (a.u.)       :      3.358603000
Magnitude (Debye)      :      8.536890387

Rotational constants in cm-1:             0.013240             0.004654             0.004458
Rotational constants in MHz :           396.913763           139.514415           133.643733

                             ****ORCA TERMINATED NORMALLY****
TOTAL RUN TIME: 0 days 0 hours 1 minutes 50 seconds 794 msec
