                         Program Version 6.0.0  -   RELEASE  -
|  1> ! r2scan-3c def2/J RI DEFGRID2 scfconv6 printgap
|  2> %output
|  3>     printlevel normal
|  4> end
|  5> * xyz 0 1
|  6> C 1.8564126391 0.1053852136 0.2415806603
|  7> C 0.7076209235 0.1190698168 -0.4072949015
|  8> C -0.5423758394 -0.5587947593 0.0708279551
|  9> O -1.6651028874 0.3031536801 0.1072886653
| 10> H 2.733350284 0.594644006 -0.1453480096
| 11> H 1.9663276245 -0.4038287315 1.1841367451
| 12> H 0.615705643 0.6393755935 -1.352035477
| 13> H -0.4170631709 -0.9211876938 1.0931508977
| 14> H -0.758734274 -1.4208139533 -0.5801418223
| 15> H -1.7991128835 0.6837737191 -0.7721180782
| 16> *
| 17>
| 18>                          ****END OF INPUT****

CARTESIAN COORDINATES (ANGSTROEM)
---------------------------------
  C      1.856413    0.105385    0.241581
  C      0.707621    0.119070   -0.407295
  C     -0.542376   -0.558795    0.070828
  O     -1.665103    0.303154    0.107289
  H      2.733350    0.594644   -0.145348
  H      1.966328   -0.403829    1.184137
  H      0.615706    0.639376   -1.352035
  H     -0.417063   -0.921188    1.093151
  H     -0.758734   -1.420814   -0.580142
  H     -1.799113    0.683774   -0.772118

 Total Charge           Charge          ....    0
 Multiplicity           Mult            ....    1
 Number of Electrons    NEL             ....   32
 Basis Dimension        Dim             ....  111

ORBITAL ENERGIES
----------------

  NO   OCC          E(Eh)            E(eV)
   0   2.0000     -18.952205      -515.7157
   1   2.0000     -10.082849      -274.3683
   2   2.0000     -10.040518      -273.2164
   3   2.0000     -10.030340      -272.9394
   4   2.0000      -0.988471       -26.8977
   5   2.0000      -0.756326       -20.5807
   6   2.0000      -0.646151       -17.5827
   7   2.0000      -0.546972       -14.8839
   8   2.0000      -0.471693       -12.8354
   9   2.0000      -0.448019       -12.1912
  10   2.0000      -0.413537       -11.2529
  11   2.0000      -0.374352       -10.1866
  12   2.0000      -0.346439        -9.4271
  13   2.0000      -0.309721        -8.4279
  14   2.0000      -0.249373        -6.7858
  15   2.0000      -0.241236        -6.5644
  16   0.0000      -0.025410        -0.6914
  17   0.0000       0.064702         1.7606
  18   0.0000       0.105434         2.8690
  19   0.0000       0.123756         3.3676
  20   0.0000       0.145401         3.9566

MULLIKEN ATOMIC CHARGES
-----------------------
   0 C :   -0.348171
   1 C :   -0.078040
   2 C :   -0.159758
   3 O :   -0.410458
   4 H :    0.142078
   5 H :    0.141774
   6 H :    0.144991
   7 H :    0.142399
   8 H :    0.132389
   9 H :    0.292795
Sum of atomic charges:   -0.0000000

LOEWDIN ATOMIC CHARGES
----------------------
   0 C :   -0.297274
   1 C :   -0.185888
   2 C :    0.008602
   3 O :   -0.608190
   4 H :    0.158159
   5 H :    0.157498
   6 H :    0.159192
   7 H :    0.180338
   8 H :    0.162429
   9 H :    0.265133

  Mayer bond orders larger than 0.100000
B(  0-C ,  1-C ) :   1.9391 B(  0-C ,  4-H ) :   0.9532 B(  0-C ,  5-H ) :   0.9860
B(  1-C ,  2-C ) :   0.9516 B(  1-C ,  6-H ) :   0.9164 B(  2-C ,  3-O ) :   0.9107
B(  2-C ,  7-H ) :   0.9971 B(  2-C ,  8-H ) :   0.9568 B(  3-O ,  9-H ) :   0.8980

Dispersion correction           -0.001709617
FINAL SINGLE POINT ENERGY      -193.065718911988

DIPOLE MOMENT
-------------

Method             : SCF
Type of density    : Electron Density
Multiplicity       :   1
Irrep              :   0
Energy             :  -193.0689137623655256 Eh
Relativity type    :
Basis              : AO
                                X                 Y                 Z
Electronic contribution:     -1.861179969       0.671311332       0.019623178
Nuclear contribution   :      2.171020202      -0.772336135      -0.535373985
                        -----------------------------------------
Total Dipole Moment    :      0.309840233      -0.101024803      -0.515750806
                        -----------------------------------------
Magnitude (a.u.)       :      0.610086777
Magnitude (Debye)      :      1.550717349

Rotational constants in cm-1:             0.927990             0.143200             0.137359
Rotational constants in MHz :         27820.436521          4293.034577          4117.929722

                             ****ORCA TERMINATED NORMALLY****
TOTAL RUN TIME: 0 days 0 hours 0 minutes 7 seconds 268 msec
