                         Program Version 6.0.0  -   RELEASE  -
|  1> ! r2scan-3c def2/J RI DEFGRID2 scfconv6 printgap
|  2> %output
|  3>     printlevel normal
|  4> end
|  5> %cpcm
|  6>     smd true
|  7>     smdsolvent "water"
|  8> end
|  9> * xyz 0 1
| 10> C 1.8564126391 0.1053852136 0.2415806603
| 11> C 0.7076209235 0.1190698168 -0.4072949015
| 12> C -0.5423758394 -0.5587947593 0.0708279551
| 13> O -1.6651028874 0.3031536801 0.1072886653
| 14> H 2.733350284 0.594644006 -0.1453480096
| 15> H 1.9663276245 -0.4038287315 1.1841367451
| 16> H 0.615705643 0.6393755935 -1.352035477
| 17> H -0.4170631709 -0.9211876938 1.0931508977
| 18> H -0.758734274 -1.4208139533 -0.5801418223
| 19> H -1.7991128835 0.6837737191 -0.7721180782
| 20> *
| 21>
| 22>                          ****END OF INPUT****

CARTESIAN COORDINATES (ANGSTROEM)
---------------------------------
  C      1.856413    0.105385    0.241581
  C      0.707621    0.119070   -0.407295
  C     -0.542376   -0.558795    0.070828
  O     -1.665103    0.303154    0.107289
  H      2.733350    0.594644   -0.145348
  H      1.966328   -0.403829    1.184137
  H      0.615706    0.639376   -1.352035
  H     -0.417063   -0.921188    1.093151
  H     -0.758734   -1.420814   -0.580142
  H     -1.799113    0.683774   -0.772118

 Total Charge           Charge          ....    0
 Multiplicity           Mult            ....    1
 Number of Electrons    NEL             ....   32
 Basis Dimension        Dim             ....  111

ORBITAL ENERGIES
----------------

  NO   OCC          E(Eh)            E(eV)
   0   2.0000     -18.954104      -515.7674
   1   2.0000     -10.075606      -274.1712
   2   2.0000     -10.033025      -273.0125
   3   2.0000     -10.022575      -272.7281
   4   2.0000      -0.989147       -26.9160
   5   2.0000      -0.750050       -20.4099
   6   2.0000      -0.640146       -17.4193
   7   2.0000      -0.538737       -14.6598
   8   2.0000      -0.466362       -12.6904
   9   2.0000      -0.440956       -11.9990
  10   2.0000      -0.408628       -11.1193
  11   2.0000      -0.368989       -10.0407
  12   2.0000      -0.342580        -9.3221
  13   2.0000      -0.305846        -8.3225
  14   2.0000      -0.248632        -6.7656
  15   2.0000      -0.243188        -6.6175
  16   0.0000      -0.021256        -0.5784
  17   0.0000       0.084132         2.2893
  18   0.0000       0.115775         3.1504
  19   0.0000       0.136606         3.7172
  20   0.0000       0.153450         4.1756

MULLIKEN ATOMIC CHARGES
-----------------------
   0 C :   -0.401032
   1 C :   -0.132125
   2 C :   -0.149475
   3 O :   -0.501671
   4 H :    0.168712
   5 H :    0.169373
   6 H :    0.184138
   7 H :    0.162264
   8 H :    0.148179
   9 H :    0.351638
Sum of atomic charges:   -0.0000000

LOEWDIN ATOMIC CHARGES
----------------------
   0 C :   -0.313901
   1 C :   -0.192382
   2 C :    0.006968
   3 O :   -0.645395
   4 H :    0.165202
   5 H :    0.165082
   6 H :    0.172011
   7 H :    0.185118
   8 H :    0.172066
   9 H :    0.285233

  Mayer bond orders larger than 0.100000
B(  0-C ,  1-C ) :   1.9000 B(  0-C ,  4-H ) :   0.9534 B(  0-C ,  5-H ) :   0.9772
B(  1-C ,  2-C ) :   0.9498 B(  1-C ,  6-H ) :   0.9204 B(  2-C ,  3-O ) :   0.9022
B(  2-C ,  7-H ) :   0.9939 B(  2-C ,  8-H ) :   0.9464 B(  3-O ,  9-H ) :   0.8690

Dispersion correction           -0.001709617
FINAL SINGLE POINT ENERGY      -193.073901083282

DIPOLE MOMENT
-------------

Method             : SCF
Type of density    : Electron Density
Multiplicity       :   1
Irrep              :   0
Energy             :  -193.0770959336595922 Eh
Relativity type    :
Basis              : AO
                                X                 Y                 Z
Electronic contribution:     -1.773723141       0.614625928      -0.200699411
Nuclear contribution   :      2.171020202      -0.772336135      -0.535373985
                        -----------------------------------------
Total Dipole Moment    :      0.397297061      -0.157710208      -0.736073396
                        -----------------------------------------
Magnitude (a.u.)       :      0.851188292
Magnitude (Debye)      :      2.163548698

Rotational constants in cm-1:             0.927990             0.143200             0.137359
Rotational constants in MHz :         27820.436521          4293.034577          4117.929722

                             ****ORCA TERMINATED NORMALLY****
TOTAL RUN TIME: 0 days 0 hours 0 minutes 8 seconds 510 msec
