                         Program Version 6.0.0  -   RELEASE  -
|  1> ! r2scan-3c def2/J RI DEFGRID2 scfconv6 printgap
|  2> %output
|  3>     printlevel normal
|  4> end
|  5> * xyz 0 1
|  6> C 0.6974611943 -0.5478702922 -0.2068079598
|  7> C -0.5736092722 0.1581166874 0.3098558532
|  8> F -0.4899091557 0.2869876077 1.6482188875
|  9> Cl -1.9972521578 -0.827455977 -0.0758541825
| 10> Cl -0.6940465228 1.7624835204 -0.4160866788
| 11> F 0.7842810611 -1.783581112 0.3053627873
| 12> F 0.6406189677 -0.6904957303 -1.5352032354
| 13> Cl 2.1483003397 0.3690232292 0.2328310689
| 14> *
| 15>
| 16>                          ****END OF INPUT****

CARTESIAN COORDINATES (ANGSTROEM)
---------------------------------
  C      0.697461   -0.547870   -0.206808
  C     -0.573609    0.158117    0.309856
  F     -0.489909    0.286988    1.648219
  Cl    -1.997252   -0.827456   -0.075854
  Cl    -0.694047    1.762484   -0.416087
  F      0.784281   -1.783581    0.305363
  F      0.640619   -0.690496   -1.535203
  Cl     2.148300    0.369023    0.232831

 Total Charge           Charge          ....    0
 Multiplicity           Mult            ....    1
 Number of Electrons    NEL             ....   90
 Basis Dimension        Dim             ....  191

ORBITAL ENERGIES
----------------

  NO   OCC          E(Eh)            E(eV)
   0   2.0000    -101.257344     -2755.3524
   1   2.0000    -101.257091     -2755.3455
   2   2.0000    -101.253214     -2755.2400
   3   2.0000     -24.552532      -668.1084
   4   2.0000     -24.550534      -668.0540
   5   2.0000     -24.550094      -668.0420
   6   2.0000     -10.302658      -280.3496
   7   2.0000     -10.281385      -279.7707
   8   2.0000      -9.413240      -256.1473
   9   2.0000      -9.413232      -256.1471
  10   2.0000      -9.409486      -256.0451
  11   2.0000      -7.160293      -194.8415
  12   2.0000      -7.160253      -194.8404
  13   2.0000      -7.156292      -194.7326
  14   2.0000      -7.148950      -194.5328
  15   2.0000      -7.148926      -194.5322
  16   2.0000      -7.148778      -194.5281
  17   2.0000      -7.148748      -194.5273
  18   2.0000      -7.145238      -194.4318
  19   2.0000      -7.145136      -194.4290
  20   2.0000      -1.284514       -34.9534
  21   2.0000      -1.249443       -33.9991
  22   2.0000      -1.216335       -33.0982
  23   2.0000      -0.907258       -24.6877
  24   2.0000      -0.860338       -23.4110
  25   2.0000      -0.826993       -22.5036
  26   2.0000      -0.724754       -19.7216
  27   2.0000      -0.638924       -17.3860
  28   2.0000      -0.583446       -15.8764
  29   2.0000      -0.575170       -15.6512
  30   2.0000      -0.546886       -14.8815
  31   2.0000      -0.519177       -14.1275
  32   2.0000      -0.507016       -13.7966
  33   2.0000      -0.451931       -12.2977
  34   2.0000      -0.436731       -11.8841
  35   2.0000      -0.420526       -11.4431
  36   2.0000      -0.411762       -11.2046
  37   2.0000      -0.400535       -10.8991
  38   2.0000      -0.376647       -10.2491
  39   2.0000      -0.345339        -9.3972
  40   2.0000      -0.335615        -9.1325
  41   2.0000      -0.332894        -9.0585
  42   2.0000      -0.319579        -8.6962
  43   2.0000      -0.318991        -8.6802
  44   2.0000      -0.302599        -8.2342
  45   0.0000      -0.068214        -1.8562
  46   0.0000      -0.052038        -1.4160
  47   0.0000      -0.011881        -0.3233
  48   0.0000       0.019901         0.5415
  49   0.0000       0.092489         2.5168

MULLIKEN ATOMIC CHARGES
-----------------------
   0 C :    0.352539
   1 C :    0.249736
   2 F :   -0.138582
   3 Cl:   -0.050722
   4 Cl:   -0.044454
   5 F :   -0.156803
   6 F :   -0.156842
   7 Cl:   -0.054871
Sum of atomic charges:   -0.0000000

LOEWDIN ATOMIC CHARGES
----------------------
   0 C :    0.202275
   1 C :   -0.068737
   2 F :   -0.275447
   3 Cl:    0.197488
   4 Cl:    0.196412
   5 F :   -0.228205
   6 F :   -0.232051
   7 Cl:    0.208265

  Mayer bond orders larger than 0.100000
B(  0-C ,  1-C ) :   0.9253 B(  0-C ,  5-F ) :   0.9910 B(  0-C ,  6-F ) :   0.9918
B(  0-C ,  7-Cl) :   1.1374 B(  1-C ,  2-F ) :   0.9333 B(  1-C ,  3-Cl) :   1.0890
B(  1-C ,  4-Cl) :   1.1006

Dispersion correction           -0.003025361
FINAL SINGLE POINT ENERGY     -1756.246297366578

DIPOLE MOMENT
-------------

Method             : SCF
Type of density    : Electron Density
Multiplicity       :   1
Irrep              :   0
Energy             : -1756.2584383998844260 Eh
Relativity type    :
Basis              : AO
                                X                 Y                 Z
Electronic contribution:      0.081283596      -0.133586017      -0.006140674
Nuclear contribution   :     -0.137497944       0.276136638      -0.039868389
                        -----------------------------------------
Total Dipole Moment    :     -0.056214348       0.142550622      -0.046009062
                        -----------------------------------------
Magnitude (a.u.)       :      0.159992395
Magnitude (Debye)      :      0.406668349

Rotational constants in cm-1:             0.052307             0.036327             0.029567
Rotational constants in MHz :          1568.121657          1089.068228           886.389982

                             ****ORCA TERMINATED NORMALLY****
TOTAL RUN TIME: 0 days 0 hours 0 minutes 15 seconds 494 msec
