                         Program Version 6.0.0  -   RELEASE  -
|  1> ! r2scan-3c def2/J RI DEFGRID2 scfconv6 printgap
|  2> %output
|  3>     printlevel normal
|  4> end
|  5> %cpcm
|  6>     smd true
|  7>     smdsolvent "water"
|  8> end
|  9> * xyz 0 1
| 10> C 0.6974611943 -0.5478702922 -0.2068079598
| 11> C -0.5736092722 0.1581166874 0.3098558532
| 12> F -0.4899091557 0.2869876077 1.6482188875
| 13> Cl -1.9972521578 -0.827455977 -0.0758541825
| 14> Cl -0.6940465228 1.7624835204 -0.4160866788
| 15> F 0.7842810611 -1.783581112 0.3053627873
| 16> F 0.6406189677 -0.6904957303 -1.5352032354
| 17> Cl 2.1483003397 0.3690232292 0.2328310689
| 18> *
| 19>
| 20>                          ****END OF INPUT****

CARTESIAN COORDINATES (ANGSTROEM)
---------------------------------
  C      0.697461   -0.547870   -0.206808
  C     -0.573609    0.158117    0.309856
  F     -0.489909    0.286988    1.648219
  Cl    -1.997252   -0.827456   -0.075854
  Cl    -0.694047    1.762484   -0.416087
  F      0.784281   -1.783581    0.305363
  F      0.640619   -0.690496   -1.535203
  Cl     2.148300    0.369023    0.232831

 Total Charge           Charge          ....    0
 Multiplicity           Mult            ....    1
 Number of Electrons    NEL             ....   90
 Basis Dimension        Dim             ....  191

ORBITAL ENERGIES
----------------

  NO   OCC          E(Eh)            E(eV)
   0   2.0000    -101.257160     -2755.3474
   1   2.0000    -101.256883     -2755.3399
   2   2.0000    -101.253568     -2755.2497
   3   2.0000     -24.552916      -668.1188
   4   2.0000     -24.551517      -668.0807
   5   2.0000     -24.550907      -668.0642
   6   2.0000     -10.302948      -280.3575
   7   2.0000     -10.281041      -279.7613
   8   2.0000      -9.412997      -256.1407
   9   2.0000      -9.412976      -256.1401
  10   2.0000      -9.409786      -256.0533
  11   2.0000      -7.160057      -194.8350
  12   2.0000      -7.159990      -194.8332
  13   2.0000      -7.156593      -194.7408
  14   2.0000      -7.148699      -194.5260
  15   2.0000      -7.148694      -194.5259
  16   2.0000      -7.148548      -194.5219
  17   2.0000      -7.148487      -194.5202
  18   2.0000      -7.145544      -194.4401
  19   2.0000      -7.145443      -194.4374
  20   2.0000      -1.285343       -34.9760
  21   2.0000      -1.249874       -34.0108
  22   2.0000      -1.217278       -33.1238
  23   2.0000      -0.907137       -24.6844
  24   2.0000      -0.860495       -23.4153
  25   2.0000      -0.826681       -22.4951
  26   2.0000      -0.724964       -19.7273
  27   2.0000      -0.639539       -17.4027
  28   2.0000      -0.584096       -15.8941
  29   2.0000      -0.575911       -15.6713
  30   2.0000      -0.547059       -14.8862
  31   2.0000      -0.519104       -14.1255
  32   2.0000      -0.507119       -13.7994
  33   2.0000      -0.452635       -12.3168
  34   2.0000      -0.437739       -11.9115
  35   2.0000      -0.421073       -11.4580
  36   2.0000      -0.412701       -11.2302
  37   2.0000      -0.400529       -10.8990
  38   2.0000      -0.376978       -10.2581
  39   2.0000      -0.345346        -9.3973
  40   2.0000      -0.335630        -9.1330
  41   2.0000      -0.333039        -9.0624
  42   2.0000      -0.319703        -8.6996
  43   2.0000      -0.318964        -8.6794
  44   2.0000      -0.302463        -8.2304
  45   0.0000      -0.067349        -1.8327
  46   0.0000      -0.051389        -1.3984
  47   0.0000      -0.011441        -0.3113
  48   0.0000       0.019815         0.5392
  49   0.0000       0.092277         2.5110

MULLIKEN ATOMIC CHARGES
-----------------------
   0 C :    0.351487
   1 C :    0.247673
   2 F :   -0.140266
   3 Cl:   -0.048244
   4 Cl:   -0.041397
   5 F :   -0.158104
   6 F :   -0.158266
   7 Cl:   -0.052882
Sum of atomic charges:    0.0000000

LOEWDIN ATOMIC CHARGES
----------------------
   0 C :    0.201844
   1 C :   -0.069811
   2 F :   -0.277051
   3 Cl:    0.199382
   4 Cl:    0.198580
   5 F :   -0.229509
   6 F :   -0.233453
   7 Cl:    0.210018

  Mayer bond orders larger than 0.100000
B(  0-C ,  1-C ) :   0.9248 B(  0-C ,  5-F ) :   0.9902 B(  0-C ,  6-F ) :   0.9906
B(  0-C ,  7-Cl) :   1.1390 B(  1-C ,  2-F ) :   0.9321 B(  1-C ,  3-Cl) :   1.0901
B(  1-C ,  4-Cl) :   1.1026

Dispersion correction           -0.003025361
FINAL SINGLE POINT ENERGY     -1756.241634254246

DIPOLE MOMENT
-------------

Method             : SCF
Type of density    : Electron Density
Multiplicity       :   1
Irrep              :   0
Energy             : -1756.2537752875521164 Eh
Relativity type    :
Basis              : AO
                                X                 Y                 Z
Electronic contribution:      0.074291771      -0.113394028      -0.012301061
Nuclear contribution   :     -0.137497944       0.276136638      -0.039868389
                        -----------------------------------------
Total Dipole Moment    :     -0.063206173       0.162742611      -0.052169450
                        -----------------------------------------
Magnitude (a.u.)       :      0.182213691
Magnitude (Debye)      :      0.463150395

Rotational constants in cm-1:             0.052307             0.036327             0.029567
Rotational constants in MHz :          1568.121657          1089.068228           886.389982

                             ****ORCA TERMINATED NORMALLY****
TOTAL RUN TIME: 0 days 0 hours 0 minutes 18 seconds 417 msec
