                         Program Version 6.0.0  -   RELEASE  -
|  1> ! pbe def2-sv(p) def2/J RI DEFGRID1 loosescf d4 GCP(DFT/SV(P)) printgap
|  2> %output
|  3>     printlevel normal
|  4> end
|  5> * xyz 0 1
|  6> C 2.9455612452 -0.3100229904 -2.661618125
|  7> C 1.7101334369 0.3031352338 -2.0394209378
|  8> O 1.2244798229 -0.5008492599 -0.9499961183
|  9> P 1.979572991 -0.5458497076 0.4529864827
| 10> S 3.0107376663 1.0724296496 0.878549498
| 11> O 2.8071932081 -1.8902296473 0.2750198526
| 12> C 3.3281866598 -2.7089096657 1.3396222707
| 13> C 4.1214773982 -1.9219221912 2.3619135693
| 14> S 0.4482199984 -1.1401691403 1.7694108381
| 15> C -0.3674293234 0.4654088108 2.0551267792
| 16> S -0.4452065867 1.5617430471 0.6141973513
| 17> P -1.9228547032 0.6044926512 -0.5658597196
| 18> S -1.9812123164 1.132734611 -2.4496473377
| 19> O -3.2930844931 0.7948358865 0.2323482004
| 20> C -4.1608098553 1.9152110604 0.0040750145
| 21> C -3.5596455946 3.2131890494 0.5052436708
| 22> O -1.6096469731 -0.9127569288 -0.2524284977
| 23> C -1.9825353043 -1.9750672625 -1.1516675833
| 24> C -3.4813171781 -2.1857846158 -1.1748937837
| 25> H 2.7390346272 -1.3282742979 -2.9799646956
| 26> H 3.2519907643 0.2849956267 -3.5160096863
| 27> H 3.7509451765 -0.326047917 -1.927785035
| 28> H 0.8743838694 0.3482022766 -2.7412976102
| 29> H 1.9201769288 1.3114885929 -1.6642815069
| 30> H 2.4865462278 -3.2208950412 1.8145542215
| 31> H 3.9568212564 -3.4337884004 0.8190473196
| 32> H 4.9166027891 -1.3604832323 1.8769706891
| 33> H 3.4722615195 -1.2186515079 2.8816012224
| 34> H 4.5536524781 -2.6061242009 3.0850059183
| 35> H 0.1981203386 1.0221948671 2.8001231754
| 36> H -1.3713534652 0.2371073054 2.4053802711
| 37> H -4.3670113976 1.9796992548 -1.069211354
| 38> H -5.0734910519 1.6579580054 0.5433635817
| 39> H -3.2943262543 3.1312740509 1.5560748821
| 40> H -2.6613428632 3.4512847526 -0.0647116633
| 41> H -4.2793514488 4.015400303 0.3776557218
| 42> H -1.6074179878 -1.7322948491 -2.150925899
| 43> H -1.452438346 -2.8440581041 -0.758574558
| 44> H -3.7125505142 -3.0545483434 -1.7831612282
| 45> H -3.8545226039 -2.3389266198 -0.1658207743
| 46> H -3.9700028434 -1.3122731827 -1.6048034729
| 47> *
| 48>
| 49>                          ****END OF INPUT****

CARTESIAN COORDINATES (ANGSTROEM)
---------------------------------
  C      2.945561   -0.310023   -2.661618
  C      1.710133    0.303135   -2.039421
  O      1.224480   -0.500849   -0.949996
  P      1.979573   -0.545850    0.452986
  S      3.010738    1.072430    0.878549
  O      2.807193   -1.890230    0.275020
  C      3.328187   -2.708910    1.339622
  C      4.121477   -1.921922    2.361914
  S      0.448220   -1.140169    1.769411
  C     -0.367429    0.465409    2.055127
  S     -0.445207    1.561743    0.614197
  P     -1.922855    0.604493   -0.565860
  S     -1.981212    1.132735   -2.449647
  O     -3.293084    0.794836    0.232348
  C     -4.160810    1.915211    0.004075
  C     -3.559646    3.213189    0.505244
  O     -1.609647   -0.912757   -0.252428
  C     -1.982535   -1.975067   -1.151668
  C     -3.481317   -2.185785   -1.174894
  H      2.739035   -1.328274   -2.979965
  H      3.251991    0.284996   -3.516010
  H      3.750945   -0.326048   -1.927785
  H      0.874384    0.348202   -2.741298
  H      1.920177    1.311489   -1.664282
  H      2.486546   -3.220895    1.814554
  H      3.956821   -3.433788    0.819047
  H      4.916603   -1.360483    1.876971
  H      3.472262   -1.218652    2.881601
  H      4.553652   -2.606124    3.085006
  H      0.198120    1.022195    2.800123
  H     -1.371353    0.237107    2.405380
  H     -4.367011    1.979699   -1.069211
  H     -5.073491    1.657958    0.543364
  H     -3.294326    3.131274    1.556075
  H     -2.661343    3.451285   -0.064712
  H     -4.279351    4.015400    0.377656
  H     -1.607418   -1.732295   -2.150926
  H     -1.452438   -2.844058   -0.758575
  H     -3.712551   -3.054548   -1.783161
  H     -3.854523   -2.338927   -0.165821
  H     -3.970003   -1.312273   -1.604803

 Total Charge           Charge          ....    0
 Multiplicity           Mult            ....    1
 Number of Electrons    NEL             ....  202
 Basis Dimension        Dim             ....  334

ORBITAL ENERGIES
----------------

  NO   OCC          E(Eh)            E(eV)
   0   2.0000     -88.044777     -2395.8202
   1   2.0000     -88.041417     -2395.7288
   2   2.0000     -87.993100     -2394.4140
   3   2.0000     -87.979857     -2394.0536
   4   2.0000     -76.427697     -2079.7034
   5   2.0000     -76.423806     -2079.5975
   6   2.0000     -18.793550      -511.3985
   7   2.0000     -18.790170      -511.3065
   8   2.0000     -18.789701      -511.2938
   9   2.0000     -18.779393      -511.0133
  10   2.0000      -9.963674      -271.1254
  11   2.0000      -9.957058      -270.9453
  12   2.0000      -9.953651      -270.8526
  13   2.0000      -9.951507      -270.7943
  14   2.0000      -9.933519      -270.3048
  15   2.0000      -9.885654      -269.0023
  16   2.0000      -9.884591      -268.9734
  17   2.0000      -9.881672      -268.8940
  18   2.0000      -9.871950      -268.6294
  19   2.0000      -7.689309      -209.2367
  20   2.0000      -7.686603      -209.1631
  21   2.0000      -7.638043      -207.8417
  22   2.0000      -7.624880      -207.4835
  23   2.0000      -6.425368      -174.8432
  24   2.0000      -6.420515      -174.7111
  25   2.0000      -5.717702      -155.5866
  26   2.0000      -5.714630      -155.5030
  27   2.0000      -5.713618      -155.4755
  28   2.0000      -5.711110      -155.4072
  29   2.0000      -5.705959      -155.2670
  30   2.0000      -5.703362      -155.1964
  31   2.0000      -5.666872      -154.2034
  32   2.0000      -5.658794      -153.9836
  33   2.0000      -5.658177      -153.9668
  34   2.0000      -5.653849      -153.8490
  35   2.0000      -5.645587      -153.6242
  36   2.0000      -5.644959      -153.6071
  37   2.0000      -4.647690      -126.4701
  38   2.0000      -4.647311      -126.4598
  39   2.0000      -4.645915      -126.4218
  40   2.0000      -4.643025      -126.3431
  41   2.0000      -4.642510      -126.3291
  42   2.0000      -4.640979      -126.2874
  43   2.0000      -0.988053       -26.8863
  44   2.0000      -0.980236       -26.6736
  45   2.0000      -0.946544       -25.7568
  46   2.0000      -0.937538       -25.5117
  47   2.0000      -0.764832       -20.8121
  48   2.0000      -0.719689       -19.5837
  49   2.0000      -0.705582       -19.1999
  50   2.0000      -0.687555       -18.7093
  51   2.0000      -0.681791       -18.5525
  52   2.0000      -0.672215       -18.2919
  53   2.0000      -0.654813       -17.8184
  54   2.0000      -0.639299       -17.3962
  55   2.0000      -0.601062       -16.3557
  56   2.0000      -0.590098       -16.0574
  57   2.0000      -0.574103       -15.6221
  58   2.0000      -0.572435       -15.5768
  59   2.0000      -0.560581       -15.2542
  60   2.0000      -0.496708       -13.5161
  61   2.0000      -0.488514       -13.2931
  62   2.0000      -0.473746       -12.8913
  63   2.0000      -0.463174       -12.6036
  64   2.0000      -0.460742       -12.5374
  65   2.0000      -0.443353       -12.0642
  66   2.0000      -0.441500       -12.0138
  67   2.0000      -0.429775       -11.6948
  68   2.0000      -0.423982       -11.5371
  69   2.0000      -0.416399       -11.3308
  70   2.0000      -0.413707       -11.2575
  71   2.0000      -0.397820       -10.8252
  72   2.0000      -0.393468       -10.7068
  73   2.0000      -0.387558       -10.5460
  74   2.0000      -0.381388       -10.3781
  75   2.0000      -0.375273       -10.2117
  76   2.0000      -0.368939       -10.0393
  77   2.0000      -0.356965        -9.7135
  78   2.0000      -0.350378        -9.5343
  79   2.0000      -0.349325        -9.5056
  80   2.0000      -0.345007        -9.3881
  81   2.0000      -0.341066        -9.2809
  82   2.0000      -0.338313        -9.2060
  83   2.0000      -0.337913        -9.1951
  84   2.0000      -0.329020        -8.9531
  85   2.0000      -0.319310        -8.6889
  86   2.0000      -0.309930        -8.4336
  87   2.0000      -0.297304        -8.0901
  88   2.0000      -0.294235        -8.0066
  89   2.0000      -0.291232        -7.9248
  90   2.0000      -0.280457        -7.6316
  91   2.0000      -0.271545        -7.3891
  92   2.0000      -0.267304        -7.2737
  93   2.0000      -0.263315        -7.1652
  94   2.0000      -0.253900        -6.9090
  95   2.0000      -0.226212        -6.1555
  96   2.0000      -0.221836        -6.0365
  97   2.0000      -0.214784        -5.8446
  98   2.0000      -0.207007        -5.6329
  99   2.0000      -0.194727        -5.2988
 100   2.0000      -0.190494        -5.1836
 101   0.0000      -0.047481        -1.2920
 102   0.0000      -0.026593        -0.7236
 103   0.0000      -0.010802        -0.2939
 104   0.0000      -0.003411        -0.0928
 105   0.0000       0.015435         0.4200

MULLIKEN ATOMIC CHARGES
-----------------------
   0 C :   -0.294465
   1 C :   -0.022934
   2 O :   -0.363132
   3 P :    0.608862
   4 S :   -0.330115
   5 O :   -0.372513
   6 C :   -0.012435
   7 C :   -0.308082
   8 S :   -0.105226
   9 C :   -0.316022
  10 S :   -0.068932
  11 P :    0.625062
  12 S :   -0.322571
  13 O :   -0.377189
  14 C :   -0.007795
  15 C :   -0.308528
  16 O :   -0.365657
  17 C :    0.003613
  18 C :   -0.305913
  19 H :    0.108512
  20 H :    0.108270
  21 H :    0.117377
  22 H :    0.111969
  23 H :    0.112363
  24 H :    0.112075
  25 H :    0.109243
  26 H :    0.127194
  27 H :    0.123839
  28 H :    0.109404
  29 H :    0.191809
  30 H :    0.180329
  31 H :    0.110421
  32 H :    0.104309
  33 H :    0.113247
  34 H :    0.126501
  35 H :    0.113377
  36 H :    0.112555
  37 H :    0.103241
  38 H :    0.111958
  39 H :    0.114673
  40 H :    0.121308
Sum of atomic charges:   -0.0000000

LOEWDIN ATOMIC CHARGES
----------------------
   0 C :   -0.362999
   1 C :   -0.130983
   2 O :   -0.241100
   3 P :    0.568240
   4 S :   -0.327653
   5 O :   -0.245551
   6 C :   -0.113929
   7 C :   -0.370584
   8 S :    0.080071
   9 C :   -0.465398
  10 S :    0.117233
  11 P :    0.573915
  12 S :   -0.310702
  13 O :   -0.251562
  14 C :   -0.121806
  15 C :   -0.366870
  16 O :   -0.235373
  17 C :   -0.112971
  18 C :   -0.364506
  19 H :    0.122607
  20 H :    0.128674
  21 H :    0.120096
  22 H :    0.110694
  23 H :    0.107352
  24 H :    0.108454
  25 H :    0.121451
  26 H :    0.129812
  27 H :    0.120416
  28 H :    0.128943
  29 H :    0.139714
  30 H :    0.134592
  31 H :    0.109317
  32 H :    0.117933
  33 H :    0.123207
  34 H :    0.120717
  35 H :    0.130951
  36 H :    0.111746
  37 H :    0.117913
  38 H :    0.130250
  39 H :    0.125652
  40 H :    0.122035

  Mayer bond orders larger than 0.100000
B(  0-C ,  1-C ) :   1.1623 B(  0-C , 19-H ) :   0.9472 B(  0-C , 20-H ) :   0.9409
B(  0-C , 21-H ) :   0.9362 B(  1-C ,  2-O ) :   0.8971 B(  1-C , 22-H ) :   0.9177
B(  1-C , 23-H ) :   0.9117 B(  2-O ,  3-P ) :   1.1119 B(  3-P ,  4-S ) :   1.6015
B(  3-P ,  5-O ) :   1.1072 B(  3-P ,  8-S ) :   0.9676 B(  4-S ,  8-S ) :   0.1124
B(  5-O ,  6-C ) :   0.9175 B(  6-C ,  7-C ) :   1.1649 B(  6-C , 24-H ) :   0.9280
B(  6-C , 25-H ) :   0.9343 B(  7-C , 26-H ) :   0.9419 B(  7-C , 27-H ) :   0.9326
B(  7-C , 28-H ) :   0.9343 B(  8-S ,  9-C ) :   0.9793 B(  9-C , 10-S ) :   1.0071
B(  9-C , 29-H ) :   0.9037 B(  9-C , 30-H ) :   0.9058 B( 10-S , 11-P ) :   0.9550
B( 11-P , 12-S ) :   1.6173 B( 11-P , 13-O ) :   1.0732 B( 11-P , 16-O ) :   1.1264
B( 13-O , 14-C ) :   0.9165 B( 14-C , 15-C ) :   1.1641 B( 14-C , 31-H ) :   0.9153
B( 14-C , 32-H ) :   0.9340 B( 15-C , 33-H ) :   0.9456 B( 15-C , 34-H ) :   0.9368
B( 15-C , 35-H ) :   0.9384 B( 16-O , 17-C ) :   0.9005 B( 17-C , 18-C ) :   1.1621
B( 17-C , 36-H ) :   0.9194 B( 17-C , 37-H ) :   0.9324 B( 18-C , 38-H ) :   0.9394
B( 18-C , 39-H ) :   0.9461 B( 18-C , 40-H ) :   0.9375

Dispersion correction           -0.068408035
FINAL SINGLE POINT ENERGY     -2929.516176519276

DIPOLE MOMENT
-------------

Method             : SCF
Type of density    : Electron Density
Multiplicity       :   1
Irrep              :   0
Energy             : -2929.6336371549032265 Eh
Relativity type    :
Basis              : AO
                                X                 Y                 Z
Electronic contribution:      2.520563637       6.021023508       2.706408802
Nuclear contribution   :     -3.398902946      -7.048735303      -2.059581224
                        -----------------------------------------
Total Dipole Moment    :     -0.878339309      -1.027711796       0.646827578
                        -----------------------------------------
Magnitude (a.u.)       :      1.498685221
Magnitude (Debye)      :      3.809355098

Rotational constants in cm-1:             0.012956             0.005238             0.005149
Rotational constants in MHz :           388.415102           157.040583           154.360627

                             ****ORCA TERMINATED NORMALLY****
TOTAL RUN TIME: 0 days 0 hours 0 minutes 21 seconds 795 msec
