                         Program Version 6.0.0  -   RELEASE  -
|  1> ! pbe def2-sv(p) def2/J RI DEFGRID1 loosescf d4 GCP(DFT/SV(P)) printgap
|  2> %output
|  3>     printlevel normal
|  4> end
|  5> * xyz 0 1
|  6> C 3.060981398 -1.3700069512 -2.6003983223
|  7> C 3.18622312 -0.264896935 -1.5713104644
|  8> O 2.8353962971 -0.7823371383 -0.273482714
|  9> P 1.8771104345 -0.106918099 0.801165293
| 10> S 1.2406988552 1.6996246949 0.3288547832
| 11> O 2.6940479134 -0.1373901873 2.1649088979
| 12> C 3.500761084 0.9643044014 2.6178798402
| 13> C 4.7225075435 1.1634603883 1.7435320147
| 14> S 0.6382196092 -1.6869918242 1.4100293211
| 15> C -0.1578549449 -2.182921937 -0.1661276307
| 16> S -0.2258923625 -0.8761872127 -1.4181902007
| 17> P -1.8106016529 0.2939499254 -0.6505208412
| 18> S -2.0953472583 2.021503841 -1.522109367
| 19> O -1.5292621429 0.2603415767 0.9054245502
| 20> C -2.0066929477 1.2963123743 1.7858419344
| 21> C -3.5138203465 1.2642455873 1.9110817453
| 22> O -3.0550361515 -0.7014139228 -0.7286935897
| 23> C -3.7826077518 -0.9048794486 -1.9542318382
| 24> C -5.1358614618 -1.489545993 -1.6025463978
| 25> H 3.4258893152 -1.0041444042 -3.5544345377
| 26> H 3.6522886938 -2.2273806936 -2.2925847538
| 27> H 2.0215307706 -1.6698780358 -2.7095610222
| 28> H 2.5341079103 0.5832111787 -1.8067553591
| 29> H 4.2183473791 0.0864409679 -1.4978094314
| 30> H 2.883440856 1.868751953 2.6270957225
| 31> H 3.772165345 0.6887177125 3.6378948197
| 32> H 4.4140606846 1.4965468736 0.7526771695
| 33> H 5.3632289297 1.9203500531 2.1849599948
| 34> H 5.2727253497 0.2305583376 1.651151264
| 35> H -1.1662553454 -2.5072740847 0.0830225185
| 36> H 0.421623486 -2.989961301 -0.6088520069
| 37> H -1.5097300998 1.0793903714 2.7332294724
| 38> H -1.6606063917 2.2625852422 1.4032893324
| 39> H -3.8418473127 0.2766420468 2.2242137565
| 40> H -3.8292468482 2.0026765478 2.6413203607
| 41> H -3.9650183395 1.5015823476 0.9481220889
| 42> H -3.880035833 0.0592931249 -2.4646848808
| 43> H -3.2051994744 -1.584078093 -2.5879818194
| 44> H -5.6936449864 -0.7948103265 -0.9811764602
| 45> H -5.690016105 -1.6753912472 -2.5165878973
| 46> H -5.0093990584 -2.4226163469 -1.0614786434
| 47> *
| 48>
| 49>                          ****END OF INPUT****

CARTESIAN COORDINATES (ANGSTROEM)
---------------------------------
  C      3.060981   -1.370007   -2.600398
  C      3.186223   -0.264897   -1.571310
  O      2.835396   -0.782337   -0.273483
  P      1.877110   -0.106918    0.801165
  S      1.240699    1.699625    0.328855
  O      2.694048   -0.137390    2.164909
  C      3.500761    0.964304    2.617880
  C      4.722508    1.163460    1.743532
  S      0.638220   -1.686992    1.410029
  C     -0.157855   -2.182922   -0.166128
  S     -0.225892   -0.876187   -1.418190
  P     -1.810602    0.293950   -0.650521
  S     -2.095347    2.021504   -1.522109
  O     -1.529262    0.260342    0.905425
  C     -2.006693    1.296312    1.785842
  C     -3.513820    1.264246    1.911082
  O     -3.055036   -0.701414   -0.728694
  C     -3.782608   -0.904879   -1.954232
  C     -5.135861   -1.489546   -1.602546
  H      3.425889   -1.004144   -3.554435
  H      3.652289   -2.227381   -2.292585
  H      2.021531   -1.669878   -2.709561
  H      2.534108    0.583211   -1.806755
  H      4.218347    0.086441   -1.497809
  H      2.883441    1.868752    2.627096
  H      3.772165    0.688718    3.637895
  H      4.414061    1.496547    0.752677
  H      5.363229    1.920350    2.184960
  H      5.272725    0.230558    1.651151
  H     -1.166255   -2.507274    0.083023
  H      0.421623   -2.989961   -0.608852
  H     -1.509730    1.079390    2.733229
  H     -1.660606    2.262585    1.403289
  H     -3.841847    0.276642    2.224214
  H     -3.829247    2.002677    2.641320
  H     -3.965018    1.501582    0.948122
  H     -3.880036    0.059293   -2.464685
  H     -3.205199   -1.584078   -2.587982
  H     -5.693645   -0.794810   -0.981176
  H     -5.690016   -1.675391   -2.516588
  H     -5.009399   -2.422616   -1.061479

 Total Charge           Charge          ....    0
 Multiplicity           Mult            ....    1
 Number of Electrons    NEL             ....  202
 Basis Dimension        Dim             ....  334

ORBITAL ENERGIES
----------------

  NO   OCC          E(Eh)            E(eV)
   0   2.0000     -88.048430     -2395.9196
   1   2.0000     -88.035105     -2395.5570
   2   2.0000     -87.984973     -2394.1928
   3   2.0000     -87.978860     -2394.0265
   4   2.0000     -76.424633     -2079.6200
   5   2.0000     -76.422281     -2079.5560
   6   2.0000     -18.790037      -511.3029
   7   2.0000     -18.788153      -511.2516
   8   2.0000     -18.785680      -511.1843
   9   2.0000     -18.783634      -511.1287
  10   2.0000      -9.961144      -271.0565
  11   2.0000      -9.950808      -270.7753
  12   2.0000      -9.949190      -270.7312
  13   2.0000      -9.947624      -270.6886
  14   2.0000      -9.943996      -270.5899
  15   2.0000      -9.888519      -269.0803
  16   2.0000      -9.885892      -269.0088
  17   2.0000      -9.883085      -268.9324
  18   2.0000      -9.878195      -268.7993
  19   2.0000      -7.692668      -209.3281
  20   2.0000      -7.680591      -208.9995
  21   2.0000      -7.630131      -207.6264
  22   2.0000      -7.623419      -207.4438
  23   2.0000      -6.422068      -174.7533
  24   2.0000      -6.419099      -174.6726
  25   2.0000      -5.720931      -155.6745
  26   2.0000      -5.716857      -155.5636
  27   2.0000      -5.709619      -155.3666
  28   2.0000      -5.708940      -155.3482
  29   2.0000      -5.705141      -155.2448
  30   2.0000      -5.696946      -155.0218
  31   2.0000      -5.659133      -153.9928
  32   2.0000      -5.652450      -153.8110
  33   2.0000      -5.650811      -153.7664
  34   2.0000      -5.650160      -153.7487
  35   2.0000      -5.644007      -153.5812
  36   2.0000      -5.643543      -153.5686
  37   2.0000      -4.644301      -126.3779
  38   2.0000      -4.644082      -126.3719
  39   2.0000      -4.642633      -126.3325
  40   2.0000      -4.641789      -126.3095
  41   2.0000      -4.640787      -126.2822
  42   2.0000      -4.639671      -126.2519
  43   2.0000      -0.984292       -26.7839
  44   2.0000      -0.978312       -26.6212
  45   2.0000      -0.941979       -25.6326
  46   2.0000      -0.940309       -25.5871
  47   2.0000      -0.763827       -20.7848
  48   2.0000      -0.721204       -19.6250
  49   2.0000      -0.707627       -19.2555
  50   2.0000      -0.686600       -18.6833
  51   2.0000      -0.684334       -18.6217
  52   2.0000      -0.668602       -18.1936
  53   2.0000      -0.649846       -17.6832
  54   2.0000      -0.635708       -17.2985
  55   2.0000      -0.597224       -16.2513
  56   2.0000      -0.591186       -16.0870
  57   2.0000      -0.569926       -15.5085
  58   2.0000      -0.566018       -15.4021
  59   2.0000      -0.560185       -15.2434
  60   2.0000      -0.503216       -13.6932
  61   2.0000      -0.495192       -13.4749
  62   2.0000      -0.475119       -12.9286
  63   2.0000      -0.471516       -12.8306
  64   2.0000      -0.457610       -12.4522
  65   2.0000      -0.439689       -11.9645
  66   2.0000      -0.435271       -11.8443
  67   2.0000      -0.432194       -11.7606
  68   2.0000      -0.425276       -11.5724
  69   2.0000      -0.416473       -11.3328
  70   2.0000      -0.400052       -10.8860
  71   2.0000      -0.394609       -10.7379
  72   2.0000      -0.391400       -10.6505
  73   2.0000      -0.389466       -10.5979
  74   2.0000      -0.376574       -10.2471
  75   2.0000      -0.373381       -10.1602
  76   2.0000      -0.365095        -9.9347
  77   2.0000      -0.357208        -9.7201
  78   2.0000      -0.356295        -9.6953
  79   2.0000      -0.353004        -9.6057
  80   2.0000      -0.346981        -9.4418
  81   2.0000      -0.342109        -9.3093
  82   2.0000      -0.339504        -9.2384
  83   2.0000      -0.336011        -9.1433
  84   2.0000      -0.329293        -8.9605
  85   2.0000      -0.321108        -8.7378
  86   2.0000      -0.315217        -8.5775
  87   2.0000      -0.297084        -8.0841
  88   2.0000      -0.290562        -7.9066
  89   2.0000      -0.286458        -7.7949
  90   2.0000      -0.276734        -7.5303
  91   2.0000      -0.273556        -7.4438
  92   2.0000      -0.269284        -7.3276
  93   2.0000      -0.262046        -7.1306
  94   2.0000      -0.255100        -6.9416
  95   2.0000      -0.235486        -6.4079
  96   2.0000      -0.213613        -5.8127
  97   2.0000      -0.206857        -5.6289
  98   2.0000      -0.200651        -5.4600
  99   2.0000      -0.191864        -5.2209
 100   2.0000      -0.187153        -5.0927
 101   0.0000      -0.052471        -1.4278
 102   0.0000      -0.028367        -0.7719
 103   0.0000      -0.005001        -0.1361
 104   0.0000       0.001052         0.0286
 105   0.0000       0.022280         0.6063

MULLIKEN ATOMIC CHARGES
-----------------------
   0 C :   -0.295956
   1 C :   -0.010747
   2 O :   -0.384336
   3 P :    0.625945
   4 S :   -0.319773
   5 O :   -0.381392
   6 C :    0.000526
   7 C :   -0.316814
   8 S :   -0.082016
   9 C :   -0.319486
  10 S :   -0.116925
  11 P :    0.633631
  12 S :   -0.305465
  13 O :   -0.365893
  14 C :    0.000478
  15 C :   -0.304301
  16 O :   -0.380614
  17 C :   -0.011488
  18 C :   -0.279316
  19 H :    0.111438
  20 H :    0.114173
  21 H :    0.122913
  22 H :    0.119604
  23 H :    0.104028
  24 H :    0.110000
  25 H :    0.103145
  26 H :    0.123124
  27 H :    0.112197
  28 H :    0.116687
  29 H :    0.182781
  30 H :    0.183008
  31 H :    0.102801
  32 H :    0.119517
  33 H :    0.112207
  34 H :    0.110717
  35 H :    0.121081
  36 H :    0.105807
  37 H :    0.094542
  38 H :    0.119933
  39 H :    0.111591
  40 H :    0.112647
Sum of atomic charges:   -0.0000000

LOEWDIN ATOMIC CHARGES
----------------------
   0 C :   -0.356832
   1 C :   -0.120556
   2 O :   -0.252305
   3 P :    0.558390
   4 S :   -0.308229
   5 O :   -0.252168
   6 C :   -0.118996
   7 C :   -0.365818
   8 S :    0.090671
   9 C :   -0.468798
  10 S :    0.103043
  11 P :    0.572727
  12 S :   -0.304996
  13 O :   -0.234616
  14 C :   -0.115653
  15 C :   -0.366348
  16 O :   -0.253137
  17 C :   -0.124490
  18 C :   -0.350069
  19 H :    0.131562
  20 H :    0.125438
  21 H :    0.114265
  22 H :    0.109190
  23 H :    0.112766
  24 H :    0.109132
  25 H :    0.117943
  26 H :    0.121024
  27 H :    0.130594
  28 H :    0.125696
  29 H :    0.133317
  30 H :    0.135054
  31 H :    0.118238
  32 H :    0.112635
  33 H :    0.124250
  34 H :    0.129951
  35 H :    0.120127
  36 H :    0.107211
  37 H :    0.106199
  38 H :    0.128189
  39 H :    0.130527
  40 H :    0.124873

  Mayer bond orders larger than 0.100000
B(  0-C ,  1-C ) :   1.1626 B(  0-C , 19-H ) :   0.9402 B(  0-C , 20-H ) :   0.9475
B(  0-C , 21-H ) :   0.9407 B(  1-C ,  2-O ) :   0.9024 B(  1-C , 22-H ) :   0.9024
B(  1-C , 23-H ) :   0.9292 B(  2-O ,  3-P ) :   1.0981 B(  3-P ,  4-S ) :   1.5772
B(  3-P ,  5-O ) :   1.1062 B(  3-P ,  8-S ) :   0.9858 B(  4-S ,  8-S ) :   0.1123
B(  5-O ,  6-C ) :   0.9163 B(  6-C ,  7-C ) :   1.1619 B(  6-C , 24-H ) :   0.9131
B(  6-C , 25-H ) :   0.9341 B(  7-C , 26-H ) :   0.9321 B(  7-C , 27-H ) :   0.9386
B(  7-C , 28-H ) :   0.9464 B(  8-S ,  9-C ) :   0.9723 B(  9-C , 10-S ) :   1.0033
B(  9-C , 29-H ) :   0.9045 B(  9-C , 30-H ) :   0.9099 B( 10-S , 11-P ) :   0.9357
B( 11-P , 12-S ) :   1.6549 B( 11-P , 13-O ) :   1.1326 B( 11-P , 16-O ) :   1.0713
B( 13-O , 14-C ) :   0.8915 B( 14-C , 15-C ) :   1.1615 B( 14-C , 31-H ) :   0.9330
B( 14-C , 32-H ) :   0.9172 B( 15-C , 33-H ) :   0.9453 B( 15-C , 34-H ) :   0.9392
B( 15-C , 35-H ) :   0.9334 B( 16-O , 17-C ) :   0.9087 B( 17-C , 18-C ) :   1.1601
B( 17-C , 36-H ) :   0.9071 B( 17-C , 37-H ) :   0.9269 B( 18-C , 38-H ) :   0.9515
B( 18-C , 39-H ) :   0.9422 B( 18-C , 40-H ) :   0.9512

Dispersion correction           -0.067741162
FINAL SINGLE POINT ENERGY     -2929.513807471736

DIPOLE MOMENT
-------------

Method             : SCF
Type of density    : Electron Density
Multiplicity       :   1
Irrep              :   0
Energy             : -2929.6306785034730638 Eh
Relativity type    :
Basis              : AO
                                X                 Y                 Z
Electronic contribution:      1.526864947       1.801279506       1.245875919
Nuclear contribution   :     -1.413229414      -2.865294084      -1.190244126
                        -----------------------------------------
Total Dipole Moment    :      0.113635533      -1.064014579       0.055631793
                        -----------------------------------------
Magnitude (a.u.)       :      1.071510595
Magnitude (Debye)      :      2.723563486

Rotational constants in cm-1:             0.012870             0.005392             0.004902
Rotational constants in MHz :           385.838362           161.646216           146.963881

                             ****ORCA TERMINATED NORMALLY****
TOTAL RUN TIME: 0 days 0 hours 0 minutes 21 seconds 558 msec
