                         Program Version 6.0.0  -   RELEASE  -
|  1> ! pbe def2-sv(p) def2/J RI DEFGRID1 loosescf d4 GCP(DFT/SV(P)) printgap
|  2> %output
|  3>     printlevel normal
|  4> end
|  5> * xyz 0 1
|  6> C 4.6512506522 -1.423962549 -1.0550321008
|  7> C 4.6413145315 -0.022256015 -0.4808032205
|  8> O 3.5228853097 0.1952930517 0.3957274634
|  9> P 2.0266488458 0.293214564 -0.1413606942
| 10> S 1.8925295769 1.1761300102 -1.8936444359
| 11> O 1.3139669448 0.923475889 1.1282796898
| 12> C 1.7751759538 2.1264451254 1.7827143239
| 13> C 1.419683124 3.3723531824 0.9965572573
| 14> S 1.2957347104 -1.6799601723 -0.0419183594
| 15> C 0.1300291763 -1.6698678491 -1.4431422624
| 16> S -1.5624644355 -2.0632560619 -0.9470506013
| 17> P -1.994421928 -0.3387534413 0.1946750719
| 18> S -1.4746899149 1.3753251532 -0.6152204169
| 19> O -1.3186711186 -0.7344468289 1.5712999707
| 20> C -1.7808275426 -0.3133403474 2.8739842689
| 21> C -1.9663605265 1.1861640602 2.9715765159
| 22> O -3.5411958504 -0.4689222366 0.5339014716
| 23> C -4.5623489405 0.073874756 -0.3211562839
| 24> C -4.6868778981 -0.6968459313 -1.6189688807
| 25> H 3.8138777536 -1.5495437433 -1.7396508427
| 26> H 5.5772438885 -1.5816087245 -1.5984384656
| 27> H 4.5671062091 -2.1593960506 -0.2591104782
| 28> H 4.5997905154 0.7209266611 -1.2836408075
| 29> H 5.5099958994 0.1604256833 0.1532283116
| 30> H 1.2677520118 2.1054254681 2.7492596135
| 31> H 2.8542105263 2.0490078561 1.9349113871
| 32> H 1.9748316013 3.4027230398 0.0606714183
| 33> H 0.3578956236 3.3768320979 0.7574631505
| 34> H 1.6616666109 4.2526810617 1.5833007133
| 35> H 0.423462017 -2.453042534 -2.1373889256
| 36> H 0.1671423447 -0.6861824814 -1.9212319558
| 37> H -2.7152675036 -0.8379676146 3.0846245497
| 38> H -0.9947650482 -0.6657722104 3.5441993473
| 39> H -1.0537606682 1.6969698784 2.674228966
| 40> H -2.7695047686 1.51041042 2.31081795
| 41> H -2.2155141402 1.4552873816 3.9933071394
| 42> H -5.4703261341 0.0027152038 0.2792585128
| 43> H -4.3252348513 1.1244283758 -0.5194602075
| 44> H -3.7954277295 -0.5492204923 -2.2268455421
| 45> H -4.800003843 -1.7590826154 -1.4184608816
| 46> H -5.5507825339 -0.337129838 -2.1685507597
| 47> *
| 48>
| 49>                          ****END OF INPUT****

CARTESIAN COORDINATES (ANGSTROEM)
---------------------------------
  C      4.651251   -1.423963   -1.055032
  C      4.641315   -0.022256   -0.480803
  O      3.522885    0.195293    0.395727
  P      2.026649    0.293215   -0.141361
  S      1.892530    1.176130   -1.893644
  O      1.313967    0.923476    1.128280
  C      1.775176    2.126445    1.782714
  C      1.419683    3.372353    0.996557
  S      1.295735   -1.679960   -0.041918
  C      0.130029   -1.669868   -1.443142
  S     -1.562464   -2.063256   -0.947051
  P     -1.994422   -0.338753    0.194675
  S     -1.474690    1.375325   -0.615220
  O     -1.318671   -0.734447    1.571300
  C     -1.780828   -0.313340    2.873984
  C     -1.966361    1.186164    2.971577
  O     -3.541196   -0.468922    0.533901
  C     -4.562349    0.073875   -0.321156
  C     -4.686878   -0.696846   -1.618969
  H      3.813878   -1.549544   -1.739651
  H      5.577244   -1.581609   -1.598438
  H      4.567106   -2.159396   -0.259110
  H      4.599791    0.720927   -1.283641
  H      5.509996    0.160426    0.153228
  H      1.267752    2.105425    2.749260
  H      2.854211    2.049008    1.934911
  H      1.974832    3.402723    0.060671
  H      0.357896    3.376832    0.757463
  H      1.661667    4.252681    1.583301
  H      0.423462   -2.453043   -2.137389
  H      0.167142   -0.686182   -1.921232
  H     -2.715268   -0.837968    3.084625
  H     -0.994765   -0.665772    3.544199
  H     -1.053761    1.696970    2.674229
  H     -2.769505    1.510410    2.310818
  H     -2.215514    1.455287    3.993307
  H     -5.470326    0.002715    0.279259
  H     -4.325235    1.124428   -0.519460
  H     -3.795428   -0.549220   -2.226846
  H     -4.800004   -1.759083   -1.418461
  H     -5.550783   -0.337130   -2.168551

 Total Charge           Charge          ....    0
 Multiplicity           Mult            ....    1
 Number of Electrons    NEL             ....  202
 Basis Dimension        Dim             ....  334

ORBITAL ENERGIES
----------------

  NO   OCC          E(Eh)            E(eV)
   0   2.0000     -88.037833     -2395.6312
   1   2.0000     -88.036968     -2395.6077
   2   2.0000     -87.980632     -2394.0747
   3   2.0000     -87.979378     -2394.0406
   4   2.0000     -76.422898     -2079.5728
   5   2.0000     -76.421413     -2079.5324
   6   2.0000     -18.795735      -511.4579
   7   2.0000     -18.790014      -511.3023
   8   2.0000     -18.782683      -511.1028
   9   2.0000     -18.782027      -511.0849
  10   2.0000      -9.953043      -270.8361
  11   2.0000      -9.952598      -270.8240
  12   2.0000      -9.950395      -270.7640
  13   2.0000      -9.948532      -270.7133
  14   2.0000      -9.948149      -270.7029
  15   2.0000      -9.883880      -268.9540
  16   2.0000      -9.883305      -268.9384
  17   2.0000      -9.880351      -268.8580
  18   2.0000      -9.872692      -268.6496
  19   2.0000      -7.683411      -209.0763
  20   2.0000      -7.682244      -209.0445
  21   2.0000      -7.625533      -207.5013
  22   2.0000      -7.624194      -207.4649
  23   2.0000      -6.420113      -174.7002
  24   2.0000      -6.418754      -174.6632
  25   2.0000      -5.711424      -155.4157
  26   2.0000      -5.710134      -155.3806
  27   2.0000      -5.707857      -155.3187
  28   2.0000      -5.706848      -155.2912
  29   2.0000      -5.700229      -155.1111
  30   2.0000      -5.699022      -155.0783
  31   2.0000      -5.654369      -153.8632
  32   2.0000      -5.652914      -153.8236
  33   2.0000      -5.646378      -153.6458
  34   2.0000      -5.645536      -153.6228
  35   2.0000      -5.644987      -153.6079
  36   2.0000      -5.644392      -153.5917
  37   2.0000      -4.643193      -126.3477
  38   2.0000      -4.641684      -126.3067
  39   2.0000      -4.641494      -126.3015
  40   2.0000      -4.640330      -126.2698
  41   2.0000      -4.640229      -126.2670
  42   2.0000      -4.639348      -126.2431
  43   2.0000      -0.985782       -26.8245
  44   2.0000      -0.982512       -26.7355
  45   2.0000      -0.941117       -25.6091
  46   2.0000      -0.937553       -25.5121
  47   2.0000      -0.759200       -20.6589
  48   2.0000      -0.717445       -19.5227
  49   2.0000      -0.704341       -19.1661
  50   2.0000      -0.688224       -18.7275
  51   2.0000      -0.682810       -18.5802
  52   2.0000      -0.670860       -18.2550
  53   2.0000      -0.649949       -17.6860
  54   2.0000      -0.629576       -17.1316
  55   2.0000      -0.596550       -16.2330
  56   2.0000      -0.587842       -15.9960
  57   2.0000      -0.577087       -15.7033
  58   2.0000      -0.571214       -15.5435
  59   2.0000      -0.554792       -15.0967
  60   2.0000      -0.494106       -13.4453
  61   2.0000      -0.492952       -13.4139
  62   2.0000      -0.468988       -12.7618
  63   2.0000      -0.464382       -12.6365
  64   2.0000      -0.451492       -12.2857
  65   2.0000      -0.449408       -12.2290
  66   2.0000      -0.431079       -11.7302
  67   2.0000      -0.427751       -11.6397
  68   2.0000      -0.426034       -11.5930
  69   2.0000      -0.411921       -11.2089
  70   2.0000      -0.410663       -11.1747
  71   2.0000      -0.406712       -11.0672
  72   2.0000      -0.399605       -10.8738
  73   2.0000      -0.381811       -10.3896
  74   2.0000      -0.376752       -10.2520
  75   2.0000      -0.367592       -10.0027
  76   2.0000      -0.365147        -9.9361
  77   2.0000      -0.352100        -9.5811
  78   2.0000      -0.348812        -9.4917
  79   2.0000      -0.347724        -9.4621
  80   2.0000      -0.342208        -9.3120
  81   2.0000      -0.337818        -9.1925
  82   2.0000      -0.336427        -9.1546
  83   2.0000      -0.334547        -9.1035
  84   2.0000      -0.328926        -8.9505
  85   2.0000      -0.315778        -8.5928
  86   2.0000      -0.307390        -8.3645
  87   2.0000      -0.294747        -8.0205
  88   2.0000      -0.292685        -7.9644
  89   2.0000      -0.287178        -7.8145
  90   2.0000      -0.282273        -7.6810
  91   2.0000      -0.273188        -7.4338
  92   2.0000      -0.269883        -7.3439
  93   2.0000      -0.257420        -7.0047
  94   2.0000      -0.254072        -6.9136
  95   2.0000      -0.232606        -6.3295
  96   2.0000      -0.216137        -5.8814
  97   2.0000      -0.212189        -5.7740
  98   2.0000      -0.197440        -5.3726
  99   2.0000      -0.187486        -5.1018
 100   2.0000      -0.183478        -4.9927
 101   0.0000      -0.039383        -1.0717
 102   0.0000      -0.029439        -0.8011
 103   0.0000      -0.007043        -0.1917
 104   0.0000       0.014990         0.4079
 105   0.0000       0.020977         0.5708

MULLIKEN ATOMIC CHARGES
-----------------------
   0 C :   -0.307589
   1 C :   -0.002554
   2 O :   -0.384343
   3 P :    0.629538
   4 S :   -0.314357
   5 O :   -0.361859
   6 C :   -0.013724
   7 C :   -0.315130
   8 S :   -0.079482
   9 C :   -0.365171
  10 S :   -0.087595
  11 P :    0.617835
  12 S :   -0.307410
  13 O :   -0.363978
  14 C :    0.016193
  15 C :   -0.347442
  16 O :   -0.385499
  17 C :   -0.004279
  18 C :   -0.316663
  19 H :    0.119499
  20 H :    0.110523
  21 H :    0.116301
  22 H :    0.109357
  23 H :    0.100599
  24 H :    0.107136
  25 H :    0.106523
  26 H :    0.124342
  27 H :    0.136263
  28 H :    0.102261
  29 H :    0.180539
  30 H :    0.209519
  31 H :    0.106852
  32 H :    0.106748
  33 H :    0.147442
  34 H :    0.125108
  35 H :    0.108666
  36 H :    0.102695
  37 H :    0.110283
  38 H :    0.131253
  39 H :    0.117757
  40 H :    0.113843
Sum of atomic charges:    0.0000000

LOEWDIN ATOMIC CHARGES
----------------------
   0 C :   -0.368371
   1 C :   -0.121665
   2 O :   -0.248043
   3 P :    0.572682
   4 S :   -0.302524
   5 O :   -0.238138
   6 C :   -0.112770
   7 C :   -0.368878
   8 S :    0.092492
   9 C :   -0.481505
  10 S :    0.084339
  11 P :    0.567386
  12 S :   -0.299299
  13 O :   -0.242215
  14 C :   -0.104652
  15 C :   -0.370708
  16 O :   -0.247383
  17 C :   -0.120969
  18 C :   -0.369823
  19 H :    0.119392
  20 H :    0.129569
  21 H :    0.124010
  22 H :    0.108630
  23 H :    0.116098
  24 H :    0.113071
  25 H :    0.109858
  26 H :    0.122428
  27 H :    0.127586
  28 H :    0.125445
  29 H :    0.136059
  30 H :    0.125424
  31 H :    0.113144
  32 H :    0.121357
  33 H :    0.130296
  34 H :    0.122697
  35 H :    0.128593
  36 H :    0.117156
  37 H :    0.109728
  38 H :    0.123231
  39 H :    0.124472
  40 H :    0.131799

  Mayer bond orders larger than 0.100000
B(  0-C ,  1-C ) :   1.1669 B(  0-C , 19-H ) :   0.9368 B(  0-C , 20-H ) :   0.9383
B(  0-C , 21-H ) :   0.9449 B(  1-C ,  2-O ) :   0.9123 B(  1-C , 22-H ) :   0.9114
B(  1-C , 23-H ) :   0.9331 B(  2-O ,  3-P ) :   1.0809 B(  3-P ,  4-S ) :   1.6008
B(  3-P ,  5-O ) :   1.1288 B(  3-P ,  8-S ) :   0.9751 B(  4-S ,  8-S ) :   0.1234
B(  5-O ,  6-C ) :   0.9096 B(  6-C ,  7-C ) :   1.1684 B(  6-C , 24-H ) :   0.9230
B(  6-C , 25-H ) :   0.9253 B(  7-C , 26-H ) :   0.9338 B(  7-C , 27-H ) :   0.9390
B(  7-C , 28-H ) :   0.9374 B(  8-S ,  9-C ) :   0.9988 B(  9-C , 10-S ) :   1.0054
B(  9-C , 29-H ) :   0.9116 B(  9-C , 30-H ) :   0.8460 B( 10-S , 11-P ) :   0.9477
B( 10-S , 12-S ) :   0.1173 B( 11-P , 12-S ) :   1.6368 B( 11-P , 13-O ) :   1.1255
B( 11-P , 16-O ) :   1.0751 B( 13-O , 14-C ) :   0.9092 B( 14-C , 15-C ) :   1.1682
B( 14-C , 31-H ) :   0.9325 B( 14-C , 32-H ) :   0.9339 B( 15-C , 33-H ) :   0.9306
B( 15-C , 34-H ) :   0.9349 B( 15-C , 35-H ) :   0.9336 B( 16-O , 17-C ) :   0.9043
B( 17-C , 18-C ) :   1.1693 B( 17-C , 36-H ) :   0.9330 B( 17-C , 37-H ) :   0.9115
B( 18-C , 38-H ) :   0.9342 B( 18-C , 39-H ) :   0.9448 B( 18-C , 40-H ) :   0.9377

Dispersion correction           -0.068488660
FINAL SINGLE POINT ENERGY     -2929.515000394108

DIPOLE MOMENT
-------------

Method             : SCF
Type of density    : Electron Density
Multiplicity       :   1
Irrep              :   0
Energy             : -2929.6326433764093053 Eh
Relativity type    :
Basis              : AO
                                X                 Y                 Z
Electronic contribution:      0.744258838      -8.976184214      -6.423441377
Nuclear contribution   :     -0.892511588       8.779124439       7.474352034
                        -----------------------------------------
Total Dipole Moment    :     -0.148252750      -0.197059776       1.050910657
                        -----------------------------------------
Magnitude (a.u.)       :      1.079455716
Magnitude (Debye)      :      2.743758379

Rotational constants in cm-1:             0.012620             0.005662             0.005002
Rotational constants in MHz :           378.337897           169.752673           149.969624

                             ****ORCA TERMINATED NORMALLY****
TOTAL RUN TIME: 0 days 0 hours 0 minutes 21 seconds 912 msec
