                         Program Version 6.0.0  -   RELEASE  -
|  1> ! pbe def2-sv(p) def2/J RI DEFGRID1 loosescf d4 GCP(DFT/SV(P)) printgap
|  2> %output
|  3>     printlevel normal
|  4> end
|  5> * xyz 0 1
|  6> C 0.857858326 1.3838756752 -0.6056185292
|  7> C 1.5937614167 0.1636329187 -0.0379962541
|  8> H 2.5654640549 0.0711762218 -0.5326565734
|  9> C 0.7742568013 -1.1116838388 -0.3340126674
| 10> H 1.237842961 -1.9386052865 0.2245543326
| 11> C -0.6806457756 -0.9239034363 0.1510549531
| 12> H -1.3050284514 -1.7527803203 -0.2107901178
| 13> C -1.2545255501 0.3771905949 -0.4503762899
| 14> H -1.2785741278 0.279825898 -1.5480581308
| 15> O -0.4546499275 1.4808680085 -0.0867013664
| 16> O -2.5480372119 0.6115827104 -0.0381685158
| 17> O -0.7645171399 -0.8057797969 1.55205412
| 18> O 0.8246228558 -1.3439511432 -1.7199944275
| 19> O 1.85880219 0.2968038218 1.3332792964
| 20> H 0.8278652059 1.3081199227 -1.6997236849
| 21> H 1.3602113564 2.3025405266 -0.3028545579
| 22> H -2.551261119 0.7034143556 0.9295219389
| 23> H -0.6016884093 -1.6635443773 1.9685183088
| 24> H 0.5523898885 -2.251726024 -1.9169772696
| 25> H 1.0155359499 0.4608199881 1.7892797825
| 26> *
| 27>
| 28>                          ****END OF INPUT****

CARTESIAN COORDINATES (ANGSTROEM)
---------------------------------
  C      0.857858    1.383876   -0.605619
  C      1.593761    0.163633   -0.037996
  H      2.565464    0.071176   -0.532657
  C      0.774257   -1.111684   -0.334013
  H      1.237843   -1.938605    0.224554
  C     -0.680646   -0.923903    0.151055
  H     -1.305028   -1.752780   -0.210790
  C     -1.254526    0.377191   -0.450376
  H     -1.278574    0.279826   -1.548058
  O     -0.454650    1.480868   -0.086701
  O     -2.548037    0.611583   -0.038169
  O     -0.764517   -0.805780    1.552054
  O      0.824623   -1.343951   -1.719994
  O      1.858802    0.296804    1.333279
  H      0.827865    1.308120   -1.699724
  H      1.360211    2.302541   -0.302855
  H     -2.551261    0.703414    0.929522
  H     -0.601688   -1.663544    1.968518
  H      0.552390   -2.251726   -1.916977
  H      1.015536    0.460820    1.789280

 Total Charge           Charge          ....    0
 Multiplicity           Mult            ....    1
 Number of Electrons    NEL             ....   80
 Basis Dimension        Dim             ....  160

ORBITAL ENERGIES
----------------

  NO   OCC          E(Eh)            E(eV)
   0   2.0000     -18.780791      -511.0513
   1   2.0000     -18.768757      -510.7238
   2   2.0000     -18.759019      -510.4589
   3   2.0000     -18.752951      -510.2937
   4   2.0000     -18.739573      -509.9297
   5   2.0000      -9.982281      -271.6317
   6   2.0000      -9.949125      -270.7294
   7   2.0000      -9.948015      -270.6993
   8   2.0000      -9.937182      -270.4045
   9   2.0000      -9.927574      -270.1430
  10   2.0000      -0.981385       -26.7048
  11   2.0000      -0.948763       -25.8171
  12   2.0000      -0.942706       -25.6523
  13   2.0000      -0.921884       -25.0857
  14   2.0000      -0.903908       -24.5966
  15   2.0000      -0.697755       -18.9869
  16   2.0000      -0.671243       -18.2655
  17   2.0000      -0.592714       -16.1286
  18   2.0000      -0.577734       -15.7210
  19   2.0000      -0.538462       -14.6523
  20   2.0000      -0.505829       -13.7643
  21   2.0000      -0.479877       -13.0581
  22   2.0000      -0.472945       -12.8695
  23   2.0000      -0.447636       -12.1808
  24   2.0000      -0.431575       -11.7438
  25   2.0000      -0.413004       -11.2384
  26   2.0000      -0.410889       -11.1808
  27   2.0000      -0.374869       -10.2007
  28   2.0000      -0.367961       -10.0127
  29   2.0000      -0.353906        -9.6303
  30   2.0000      -0.337577        -9.1859
  31   2.0000      -0.303540        -8.2597
  32   2.0000      -0.297977        -8.1084
  33   2.0000      -0.289126        -7.8675
  34   2.0000      -0.275212        -7.4889
  35   2.0000      -0.259823        -7.0701
  36   2.0000      -0.249235        -6.7820
  37   2.0000      -0.237631        -6.4663
  38   2.0000      -0.209175        -5.6919
  39   2.0000      -0.198526        -5.4022
  40   0.0000       0.000785         0.0214
  41   0.0000       0.008209         0.2234
  42   0.0000       0.062608         1.7036
  43   0.0000       0.067166         1.8277
  44   0.0000       0.071887         1.9561

MULLIKEN ATOMIC CHARGES
-----------------------
   0 C :    0.043578
   1 C :    0.053190
   2 H :    0.077193
   3 C :    0.011460
   4 H :    0.058068
   5 C :    0.005333
   6 H :    0.059996
   7 C :    0.197971
   8 H :    0.062057
   9 O :   -0.312541
  10 O :   -0.381898
  11 O :   -0.427050
  12 O :   -0.408324
  13 O :   -0.435812
  14 H :    0.077385
  15 H :    0.098826
  16 H :    0.302611
  17 H :    0.313958
  18 H :    0.305597
  19 H :    0.298404
Sum of atomic charges:    0.0000000

LOEWDIN ATOMIC CHARGES
----------------------
   0 C :   -0.123958
   1 C :   -0.074931
   2 H :    0.120031
   3 C :   -0.085332
   4 H :    0.095366
   5 C :   -0.105284
   6 H :    0.100940
   7 C :    0.003895
   8 H :    0.100445
   9 O :   -0.164998
  10 O :   -0.288957
  11 O :   -0.309057
  12 O :   -0.315193
  13 O :   -0.322628
  14 H :    0.108035
  15 H :    0.119558
  16 H :    0.285328
  17 H :    0.294758
  18 H :    0.291100
  19 H :    0.270882

  Mayer bond orders larger than 0.100000
B(  0-C ,  1-C ) :   1.0746 B(  0-C ,  9-O ) :   1.0097 B(  0-C , 14-H ) :   0.8906
B(  0-C , 15-H ) :   0.9228 B(  1-C ,  2-H ) :   0.8923 B(  1-C ,  3-C ) :   0.9739
B(  1-C , 13-O ) :   1.0612 B(  3-C ,  4-H ) :   0.9069 B(  3-C ,  5-C ) :   0.9579
B(  3-C , 12-O ) :   1.0564 B(  5-C ,  6-H ) :   0.8921 B(  5-C ,  7-C ) :   0.9812
B(  5-C , 11-O ) :   1.0265 B(  7-C ,  8-H ) :   0.8894 B(  7-C ,  9-O ) :   1.0218
B(  7-C , 10-O ) :   1.1615 B( 10-O , 16-H ) :   0.8359 B( 11-O , 17-H ) :   0.8399
B( 12-O , 18-H ) :   0.8452 B( 13-O , 19-H ) :   0.8209

Dispersion correction           -0.019853266
FINAL SINGLE POINT ENERGY      -571.416875370747

DIPOLE MOMENT
-------------

Method             : SCF
Type of density    : Electron Density
Multiplicity       :   1
Irrep              :   0
Energy             :  -571.5256327072445401 Eh
Relativity type    :
Basis              : AO
                                X                 Y                 Z
Electronic contribution:     -1.775481785       0.910360339       1.350033447
Nuclear contribution   :      1.694000802      -2.323825633      -1.203443436
                        -----------------------------------------
Total Dipole Moment    :     -0.081480983      -1.413465293       0.146590012
                        -----------------------------------------
Magnitude (a.u.)       :      1.423380454
Magnitude (Debye)      :      3.617945592

Rotational constants in cm-1:             0.058140             0.040545             0.038630
Rotational constants in MHz :          1742.983508          1215.502398          1158.085857

                             ****ORCA TERMINATED NORMALLY****
TOTAL RUN TIME: 0 days 0 hours 0 minutes 12 seconds 177 msec
