                         Program Version 6.0.0  -   RELEASE  -
|  1> ! pbe def2-sv(p) def2/J RI DEFGRID1 loosescf d4 GCP(DFT/SV(P)) printgap
|  2> %output
|  3>     printlevel normal
|  4> end
|  5> * xyz 0 1
|  6> C 0.8213242625 -2.8868955172 1.3329231737
|  7> C 2.189363594 -2.3778101033 1.7392319188
|  8> O 2.4052938814 -1.0192711438 1.3149808499
|  9> P 2.6793821619 -0.6555693306 -0.2047066226
| 10> S 3.6528626087 -1.9816570208 -1.2633920413
| 11> O 3.4381966062 0.7127974496 0.085517738
| 12> C 4.3147225769 1.3072967704 -0.8862565993
| 13> C 3.5583624453 1.8687347002 -2.0744653419
| 14> S 0.7875481144 -0.0465769194 -0.9784187603
| 15> C 0.3253048662 1.0701892573 0.3853917126
| 16> S -0.9951635127 0.3978775117 1.4176589302
| 17> P -2.5664666755 0.7929090399 0.0313017532
| 18> S -2.4696941182 2.5176935057 -0.8839672648
| 19> O -3.8907176113 0.5028126763 0.8630886158
| 20> C -4.5515379184 1.5047242349 1.6582976379
| 21> C -3.6990209149 1.9775121233 2.8176325114
| 22> O -2.5469029212 -0.4098318165 -0.9859592668
| 23> C -2.6769027392 -1.7972091998 -0.582038581
| 24> C -2.0195238375 -2.6538693095 -1.6435428883
| 25> H 0.7477047272 -2.9194820416 0.2462174763
| 26> H 0.6798320793 -3.8886581827 1.7253717295
| 27> H 0.047527238 -2.232255637 1.7267327293
| 28> H 2.9776081737 -3.0051146853 1.3106373665
| 29> H 2.2969099694 -2.3335688802 2.8237069034
| 30> H 4.8302163941 2.0917248975 -0.330135782
| 31> H 5.0343475172 0.550471862 -1.2142609281
| 32> H 3.0795609728 1.0613117184 -2.6280983933
| 33> H 2.7954203979 2.5709070443 -1.7467734098
| 34> H 4.2539892461 2.3797642654 -2.7323646215
| 35> H -0.0281784063 2.0007898329 -0.0612150473
| 36> H 1.1896030766 1.2345110407 1.0241550617
| 37> H -4.8134811748 2.3433666942 1.0062314561
| 38> H -5.4578140805 1.0037926867 2.001565048
| 39> H -3.3439404281 1.1298300392 3.3983131025
| 40> H -2.8409175543 2.5354355891 2.4459375321
| 41> H -4.2906310694 2.6282999756 3.4535046388
| 42> H -2.1972137562 -1.9262985244 0.3924943137
| 43> H -3.7424819671 -2.0145386777 -0.4900322916
| 44> H -2.0974515055 -3.698179787 -1.3592100882
| 45> H -2.5087576509 -2.5019559646 -2.6011158652
| 46> H -0.971328446 -2.3841105153 -1.7484240391
| 47> *
| 48>
| 49>                          ****END OF INPUT****

CARTESIAN COORDINATES (ANGSTROEM)
---------------------------------
  C      0.821324   -2.886896    1.332923
  C      2.189364   -2.377810    1.739232
  O      2.405294   -1.019271    1.314981
  P      2.679382   -0.655569   -0.204707
  S      3.652863   -1.981657   -1.263392
  O      3.438197    0.712797    0.085518
  C      4.314723    1.307297   -0.886257
  C      3.558362    1.868735   -2.074465
  S      0.787548   -0.046577   -0.978419
  C      0.325305    1.070189    0.385392
  S     -0.995164    0.397878    1.417659
  P     -2.566467    0.792909    0.031302
  S     -2.469694    2.517694   -0.883967
  O     -3.890718    0.502813    0.863089
  C     -4.551538    1.504724    1.658298
  C     -3.699021    1.977512    2.817633
  O     -2.546903   -0.409832   -0.985959
  C     -2.676903   -1.797209   -0.582039
  C     -2.019524   -2.653869   -1.643543
  H      0.747705   -2.919482    0.246217
  H      0.679832   -3.888658    1.725372
  H      0.047527   -2.232256    1.726733
  H      2.977608   -3.005115    1.310637
  H      2.296910   -2.333569    2.823707
  H      4.830216    2.091725   -0.330136
  H      5.034348    0.550472   -1.214261
  H      3.079561    1.061312   -2.628098
  H      2.795420    2.570907   -1.746773
  H      4.253989    2.379764   -2.732365
  H     -0.028178    2.000790   -0.061215
  H      1.189603    1.234511    1.024155
  H     -4.813481    2.343367    1.006231
  H     -5.457814    1.003793    2.001565
  H     -3.343940    1.129830    3.398313
  H     -2.840918    2.535436    2.445938
  H     -4.290631    2.628300    3.453505
  H     -2.197214   -1.926299    0.392494
  H     -3.742482   -2.014539   -0.490032
  H     -2.097452   -3.698180   -1.359210
  H     -2.508758   -2.501956   -2.601116
  H     -0.971328   -2.384111   -1.748424

 Total Charge           Charge          ....    0
 Multiplicity           Mult            ....    1
 Number of Electrons    NEL             ....  202
 Basis Dimension        Dim             ....  334

ORBITAL ENERGIES
----------------

  NO   OCC          E(Eh)            E(eV)
   0   2.0000     -88.048509     -2395.9217
   1   2.0000     -88.043592     -2395.7879
   2   2.0000     -87.992220     -2394.3900
   3   2.0000     -87.990875     -2394.3534
   4   2.0000     -76.430531     -2079.7805
   5   2.0000     -76.428940     -2079.7372
   6   2.0000     -18.800162      -511.5784
   7   2.0000     -18.795680      -511.4565
   8   2.0000     -18.793245      -511.3902
   9   2.0000     -18.792014      -511.3567
  10   2.0000      -9.959069      -271.0000
  11   2.0000      -9.956611      -270.9332
  12   2.0000      -9.956424      -270.9281
  13   2.0000      -9.954608      -270.8787
  14   2.0000      -9.952937      -270.8332
  15   2.0000      -9.889252      -269.1002
  16   2.0000      -9.885600      -269.0009
  17   2.0000      -9.884868      -268.9809
  18   2.0000      -9.883056      -268.9316
  19   2.0000      -7.693198      -209.3426
  20   2.0000      -7.688154      -209.2053
  21   2.0000      -7.637350      -207.8228
  22   2.0000      -7.636111      -207.7891
  23   2.0000      -6.428211      -174.9205
  24   2.0000      -6.426404      -174.8713
  25   2.0000      -5.720789      -155.6706
  26   2.0000      -5.717788      -155.5889
  27   2.0000      -5.716239      -155.5468
  28   2.0000      -5.712601      -155.4478
  29   2.0000      -5.710421      -155.3885
  30   2.0000      -5.705062      -155.2426
  31   2.0000      -5.666294      -154.1877
  32   2.0000      -5.665064      -154.1542
  33   2.0000      -5.657931      -153.9601
  34   2.0000      -5.657541      -153.9495
  35   2.0000      -5.656684      -153.9262
  36   2.0000      -5.656257      -153.9146
  37   2.0000      -4.651130      -126.5637
  38   2.0000      -4.649839      -126.5286
  39   2.0000      -4.648693      -126.4974
  40   2.0000      -4.648604      -126.4949
  41   2.0000      -4.648466      -126.4912
  42   2.0000      -4.646712      -126.4435
  43   2.0000      -0.993186       -27.0260
  44   2.0000      -0.990675       -26.9576
  45   2.0000      -0.949763       -25.8444
  46   2.0000      -0.947319       -25.7779
  47   2.0000      -0.765806       -20.8386
  48   2.0000      -0.724395       -19.7118
  49   2.0000      -0.713557       -19.4169
  50   2.0000      -0.693396       -18.8683
  51   2.0000      -0.683932       -18.6107
  52   2.0000      -0.680553       -18.5188
  53   2.0000      -0.657457       -17.8903
  54   2.0000      -0.641581       -17.4583
  55   2.0000      -0.602574       -16.3969
  56   2.0000      -0.596599       -16.2343
  57   2.0000      -0.573838       -15.6149
  58   2.0000      -0.570574       -15.5261
  59   2.0000      -0.563291       -15.3279
  60   2.0000      -0.509312       -13.8591
  61   2.0000      -0.497227       -13.5302
  62   2.0000      -0.478987       -13.0339
  63   2.0000      -0.469311       -12.7706
  64   2.0000      -0.464593       -12.6422
  65   2.0000      -0.447542       -12.1782
  66   2.0000      -0.445462       -12.1216
  67   2.0000      -0.441032       -12.0011
  68   2.0000      -0.432550       -11.7703
  69   2.0000      -0.423745       -11.5307
  70   2.0000      -0.412606       -11.2276
  71   2.0000      -0.399437       -10.8692
  72   2.0000      -0.394771       -10.7423
  73   2.0000      -0.392883       -10.6909
  74   2.0000      -0.386269       -10.5109
  75   2.0000      -0.373194       -10.1551
  76   2.0000      -0.368086       -10.0161
  77   2.0000      -0.363855        -9.9010
  78   2.0000      -0.356564        -9.7026
  79   2.0000      -0.353531        -9.6201
  80   2.0000      -0.351073        -9.5532
  81   2.0000      -0.344762        -9.3815
  82   2.0000      -0.342095        -9.3089
  83   2.0000      -0.339326        -9.2335
  84   2.0000      -0.330920        -9.0048
  85   2.0000      -0.324977        -8.8431
  86   2.0000      -0.317696        -8.6450
  87   2.0000      -0.305623        -8.3164
  88   2.0000      -0.302219        -8.2238
  89   2.0000      -0.299605        -8.1527
  90   2.0000      -0.289815        -7.8863
  91   2.0000      -0.275102        -7.4859
  92   2.0000      -0.270960        -7.3732
  93   2.0000      -0.267384        -7.2759
  94   2.0000      -0.259468        -7.0605
  95   2.0000      -0.238132        -6.4799
  96   2.0000      -0.221880        -6.0377
  97   2.0000      -0.212598        -5.7851
  98   2.0000      -0.210595        -5.7306
  99   2.0000      -0.209167        -5.6917
 100   2.0000      -0.202808        -5.5187
 101   0.0000      -0.042154        -1.1471
 102   0.0000      -0.035128        -0.9559
 103   0.0000      -0.018777        -0.5110
 104   0.0000       0.004491         0.1222
 105   0.0000       0.010091         0.2746

MULLIKEN ATOMIC CHARGES
-----------------------
   0 C :   -0.347808
   1 C :    0.001674
   2 O :   -0.369342
   3 P :    0.571477
   4 S :   -0.314852
   5 O :   -0.367998
   6 C :   -0.003249
   7 C :   -0.314203
   8 S :   -0.061749
   9 C :   -0.366800
  10 S :   -0.095350
  11 P :    0.597405
  12 S :   -0.305215
  13 O :   -0.385455
  14 C :    0.001158
  15 C :   -0.321970
  16 O :   -0.354538
  17 C :   -0.017193
  18 C :   -0.294928
  19 H :    0.132228
  20 H :    0.109451
  21 H :    0.138899
  22 H :    0.113120
  23 H :    0.106561
  24 H :    0.106879
  25 H :    0.112928
  26 H :    0.129260
  27 H :    0.117702
  28 H :    0.113207
  29 H :    0.196086
  30 H :    0.197848
  31 H :    0.114768
  32 H :    0.106763
  33 H :    0.117808
  34 H :    0.130683
  35 H :    0.116406
  36 H :    0.108125
  37 H :    0.108233
  38 H :    0.108609
  39 H :    0.120445
  40 H :    0.142927
Sum of atomic charges:   -0.0000000

LOEWDIN ATOMIC CHARGES
----------------------
   0 C :   -0.375165
   1 C :   -0.116192
   2 O :   -0.242130
   3 P :    0.569028
   4 S :   -0.315279
   5 O :   -0.243408
   6 C :   -0.118217
   7 C :   -0.367806
   8 S :    0.090965
   9 C :   -0.485971
  10 S :    0.088912
  11 P :    0.569346
  12 S :   -0.305228
  13 O :   -0.249175
  14 C :   -0.114520
  15 C :   -0.371725
  16 O :   -0.235063
  17 C :   -0.114315
  18 C :   -0.354194
  19 H :    0.121911
  20 H :    0.129769
  21 H :    0.116447
  22 H :    0.110639
  23 H :    0.119650
  24 H :    0.119289
  25 H :    0.111185
  26 H :    0.122484
  27 H :    0.125035
  28 H :    0.131070
  29 H :    0.127071
  30 H :    0.136803
  31 H :    0.114726
  32 H :    0.119685
  33 H :    0.123133
  34 H :    0.122572
  35 H :    0.132852
  36 H :    0.104051
  37 H :    0.116025
  38 H :    0.129568
  39 H :    0.129980
  40 H :    0.126193

  Mayer bond orders larger than 0.100000
B(  0-C ,  1-C ) :   1.1633 B(  0-C , 19-H ) :   0.9350 B(  0-C , 20-H ) :   0.9358
B(  0-C , 21-H ) :   0.9261 B(  1-C ,  2-O ) :   0.9101 B(  1-C , 22-H ) :   0.9148
B(  1-C , 23-H ) :   0.9336 B(  2-O ,  3-P ) :   1.0936 B(  3-P ,  4-S ) :   1.6374
B(  3-P ,  5-O ) :   1.0866 B(  3-P ,  8-S ) :   0.9841 B(  5-O ,  6-C ) :   0.9110
B(  6-C ,  7-C ) :   1.1631 B(  6-C , 24-H ) :   0.9344 B(  6-C , 25-H ) :   0.9161
B(  7-C , 26-H ) :   0.9365 B(  7-C , 27-H ) :   0.9459 B(  7-C , 28-H ) :   0.9381
B(  8-S ,  9-C ) :   0.9699 B(  9-C , 10-S ) :   1.0037 B(  9-C , 29-H ) :   0.8622
B(  9-C , 30-H ) :   0.8863 B( 10-S , 11-P ) :   0.9460 B( 10-S , 12-S ) :   0.1080
B( 11-P , 12-S ) :   1.6402 B( 11-P , 13-O ) :   1.0912 B( 11-P , 16-O ) :   1.1460
B( 13-O , 14-C ) :   0.9048 B( 14-C , 15-C ) :   1.1660 B( 14-C , 31-H ) :   0.9204
B( 14-C , 32-H ) :   0.9343 B( 15-C , 33-H ) :   0.9434 B( 15-C , 34-H ) :   0.9343
B( 15-C , 35-H ) :   0.9367 B( 16-O , 17-C ) :   0.8834 B( 17-C , 18-C ) :   1.1679
B( 17-C , 36-H ) :   0.9088 B( 17-C , 37-H ) :   0.9307 B( 18-C , 38-H ) :   0.9403
B( 18-C , 39-H ) :   0.9473 B( 18-C , 40-H ) :   0.9346

Dispersion correction           -0.064577188
FINAL SINGLE POINT ENERGY     -2929.521643837728

DIPOLE MOMENT
-------------

Method             : SCF
Type of density    : Electron Density
Multiplicity       :   1
Irrep              :   0
Energy             : -2929.6426685197802726 Eh
Relativity type    :
Basis              : AO
                                X                 Y                 Z
Electronic contribution:      3.643262867       4.894800336      -5.134959715
Nuclear contribution   :     -4.227867036      -5.193256818       6.455802919
                        -----------------------------------------
Total Dipole Moment    :     -0.584604168      -0.298456482       1.320843203
                        -----------------------------------------
Magnitude (a.u.)       :      1.474945787
Magnitude (Debye)      :      3.749014250

Rotational constants in cm-1:             0.012526             0.004590             0.004229
Rotational constants in MHz :           375.510585           137.602007           126.790858

                             ****ORCA TERMINATED NORMALLY****
TOTAL RUN TIME: 0 days 0 hours 0 minutes 21 seconds 280 msec
