                         Program Version 6.0.1  -  RELEASE   -
|  1> ! pbe def2-sv(p) def2/J RI DEFGRID1 loosescf d4 GCP(DFT/SV(P)) printgap
|  2> %output
|  3>     printlevel normal
|  4> end
|  5> * xyz 0 1
|  6> C 5.218732954 -1.8226481227 0.9418642352
|  7> C 4.6006385363 -1.142017901 -0.2631421223
|  8> O 3.1788081314 -1.3781002171 -0.2307220347
|  9> C 2.4503512308 -0.851935916 -1.1884935822
| 10> O 2.895192812 -0.1875644395 -2.0999978619
| 11> C 0.9793698314 -1.193458066 -1.0292491278
| 12> C 0.1426238066 0.0189883604 -1.4196301868
| 13> H 0.4998822758 0.3966112739 -2.3853310305
| 14> C 0.2501530109 1.1502161525 -0.4197819571
| 15> O -0.6830283959 1.8864540538 -0.1572804345
| 16> O 1.4418574901 1.2494251769 0.0956216202
| 17> C 1.6627030326 2.2714523255 1.0933853905
| 18> C 3.1248208341 2.2297990904 1.486089665
| 19> S -1.6207400595 -0.3600899501 -1.678340103
| 20> P -2.3870968381 -0.1248955513 0.2856586481
| 21> S -1.179455177 -0.4196743419 1.811397947
| 22> O -3.3485691596 1.1328101496 0.3280901364
| 23> C -3.1697152423 2.3028255133 1.1300681288
| 24> O -3.5774342722 -1.1887814307 0.2356164744
| 25> C -3.3114225795 -2.5944204285 0.1752613402
| 26> H 5.0330056397 -2.8916358098 0.9024963039
| 27> H 6.2887578972 -1.6442189137 0.9454087562
| 28> H 4.7862641136 -1.4281729516 1.8564632964
| 29> H 4.9944253347 -1.5410236487 -1.2029955754
| 30> H 4.7675593006 -0.0607746107 -0.2525677503
| 31> H 0.790004988 -1.5033474924 -0.0009760713
| 32> H 0.7448420667 -2.0184930658 -1.7042883065
| 33> H 1.3770803156 3.2369904517 0.6660705016
| 34> H 1.0055949285 2.0526490979 1.9411341877
| 35> H 3.3691423385 1.2546436988 1.896804325
| 36> H 3.7487696112 2.4171323438 0.6166821421
| 37> H 3.314892247 2.9914058296 2.2346915168
| 38> H -2.5429891241 2.0808452099 1.9957062105
| 39> H -4.1663377236 2.599494268 1.4490927914
| 40> H -2.7018014487 3.0812349058 0.530236529
| 41> H -2.9179684067 -2.8604555442 -0.8059014035
| 42> H -4.2695514252 -3.0783244495 0.3462733721
| 43> H -2.5997488843 -2.8751400316 0.9540025088
| 44> *
| 45>
| 46>                          ****END OF INPUT****

CARTESIAN COORDINATES (ANGSTROEM)
---------------------------------
  C      5.218733   -1.822648    0.941864
  C      4.600639   -1.142018   -0.263142
  O      3.178808   -1.378100   -0.230722
  C      2.450351   -0.851936   -1.188494
  O      2.895193   -0.187564   -2.099998
  C      0.979370   -1.193458   -1.029249
  C      0.142624    0.018988   -1.419630
  H      0.499882    0.396611   -2.385331
  C      0.250153    1.150216   -0.419782
  O     -0.683028    1.886454   -0.157280
  O      1.441857    1.249425    0.095622
  C      1.662703    2.271452    1.093385
  C      3.124821    2.229799    1.486090
  S     -1.620740   -0.360090   -1.678340
  P     -2.387097   -0.124896    0.285659
  S     -1.179455   -0.419674    1.811398
  O     -3.348569    1.132810    0.328090
  C     -3.169715    2.302826    1.130068
  O     -3.577434   -1.188781    0.235616
  C     -3.311423   -2.594420    0.175261
  H      5.033006   -2.891636    0.902496
  H      6.288758   -1.644219    0.945409
  H      4.786264   -1.428173    1.856463
  H      4.994425   -1.541024   -1.202996
  H      4.767559   -0.060775   -0.252568
  H      0.790005   -1.503347   -0.000976
  H      0.744842   -2.018493   -1.704288
  H      1.377080    3.236990    0.666071
  H      1.005595    2.052649    1.941134
  H      3.369142    1.254644    1.896804
  H      3.748770    2.417132    0.616682
  H      3.314892    2.991406    2.234692
  H     -2.542989    2.080845    1.995706
  H     -4.166338    2.599494    1.449093
  H     -2.701801    3.081235    0.530237
  H     -2.917968   -2.860456   -0.805901
  H     -4.269551   -3.078324    0.346273
  H     -2.599749   -2.875140    0.954003

 Total Charge           Charge          ....    0
 Multiplicity           Mult            ....    1
 Number of Electrons    NEL             ....  174
 Basis Dimension        Dim             ....  316

ORBITAL ENERGIES
----------------

  NO   OCC          E(Eh)            E(eV)
   0   2.0000     -88.037140     -2395.6124
   1   2.0000     -87.981847     -2394.1078
   2   2.0000     -76.423647     -2079.5932
   3   2.0000     -18.820520      -512.1324
   4   2.0000     -18.804447      -511.6950
   5   2.0000     -18.782863      -511.1077
   6   2.0000     -18.781401      -511.0679
   7   2.0000     -18.747948      -510.1576
   8   2.0000     -18.738562      -509.9022
   9   2.0000     -10.026245      -272.8280
  10   2.0000     -10.010146      -272.3899
  11   2.0000      -9.956799      -270.9383
  12   2.0000      -9.951790      -270.8020
  13   2.0000      -9.948759      -270.7195
  14   2.0000      -9.937393      -270.4102
  15   2.0000      -9.933329      -270.2996
  16   2.0000      -9.906452      -269.5683
  17   2.0000      -9.896598      -269.3001
  18   2.0000      -9.892954      -269.2010
  19   2.0000      -7.682269      -209.0452
  20   2.0000      -7.626784      -207.5354
  21   2.0000      -6.419852      -174.6931
  22   2.0000      -5.710349      -155.3865
  23   2.0000      -5.706780      -155.2894
  24   2.0000      -5.699014      -155.0780
  25   2.0000      -5.655654      -153.8982
  26   2.0000      -5.647575      -153.6783
  27   2.0000      -5.646774      -153.6565
  28   2.0000      -4.642148      -126.3193
  29   2.0000      -4.641994      -126.3151
  30   2.0000      -4.640474      -126.2737
  31   2.0000      -1.029853       -28.0237
  32   2.0000      -1.012703       -27.5571
  33   2.0000      -0.977642       -26.6030
  34   2.0000      -0.933869       -25.4119
  35   2.0000      -0.928346       -25.2616
  36   2.0000      -0.915768       -24.9193
  37   2.0000      -0.765874       -20.8405
  38   2.0000      -0.717036       -19.5115
  39   2.0000      -0.715713       -19.4756
  40   2.0000      -0.691772       -18.8241
  41   2.0000      -0.656916       -17.8756
  42   2.0000      -0.630258       -17.1502
  43   2.0000      -0.620714       -16.8905
  44   2.0000      -0.616163       -16.7667
  45   2.0000      -0.590126       -16.0581
  46   2.0000      -0.562131       -15.2964
  47   2.0000      -0.520532       -14.1644
  48   2.0000      -0.513919       -13.9845
  49   2.0000      -0.504855       -13.7378
  50   2.0000      -0.481224       -13.0948
  51   2.0000      -0.464209       -12.6318
  52   2.0000      -0.461565       -12.5598
  53   2.0000      -0.452780       -12.3208
  54   2.0000      -0.447592       -12.1796
  55   2.0000      -0.435945       -11.8627
  56   2.0000      -0.419067       -11.4034
  57   2.0000      -0.418473       -11.3872
  58   2.0000      -0.412056       -11.2126
  59   2.0000      -0.405814       -11.0428
  60   2.0000      -0.402670       -10.9572
  61   2.0000      -0.394412       -10.7325
  62   2.0000      -0.386557       -10.5187
  63   2.0000      -0.383994       -10.4490
  64   2.0000      -0.369822       -10.0634
  65   2.0000      -0.369023       -10.0416
  66   2.0000      -0.363772        -9.8987
  67   2.0000      -0.361516        -9.8373
  68   2.0000      -0.355228        -9.6662
  69   2.0000      -0.344144        -9.3646
  70   2.0000      -0.342174        -9.3110
  71   2.0000      -0.326817        -8.8931
  72   2.0000      -0.323707        -8.8085
  73   2.0000      -0.312190        -8.4951
  74   2.0000      -0.307284        -8.3616
  75   2.0000      -0.299485        -8.1494
  76   2.0000      -0.297181        -8.0867
  77   2.0000      -0.286086        -7.7848
  78   2.0000      -0.275596        -7.4994
  79   2.0000      -0.263474        -7.1695
  80   2.0000      -0.261289        -7.1100
  81   2.0000      -0.253559        -6.8997
  82   2.0000      -0.236891        -6.4461
  83   2.0000      -0.229922        -6.2565
  84   2.0000      -0.215638        -5.8678
  85   2.0000      -0.198663        -5.4059
  86   2.0000      -0.197088        -5.3630
  87   0.0000      -0.048921        -1.3312
  88   0.0000      -0.030650        -0.8340
  89   0.0000      -0.017478        -0.4756
  90   0.0000       0.007736         0.2105
  91   0.0000       0.022519         0.6128

MULLIKEN ATOMIC CHARGES
-----------------------
   0 C :   -0.277626
   1 C :   -0.034864
   2 O :   -0.225569
   3 C :    0.111362
   4 O :   -0.218718
   5 C :   -0.049882
   6 C :   -0.301670
   7 H :    0.168197
   8 C :    0.190114
   9 O :   -0.207598
  10 O :   -0.212491
  11 C :   -0.029230
  12 C :   -0.293725
  13 S :   -0.077097
  14 P :    0.620759
  15 S :   -0.349099
  16 O :   -0.363698
  17 C :   -0.090242
  18 O :   -0.368472
  19 C :   -0.100788
  20 H :    0.117320
  21 H :    0.111933
  22 H :    0.120070
  23 H :    0.107147
  24 H :    0.108616
  25 H :    0.116623
  26 H :    0.118543
  27 H :    0.110157
  28 H :    0.119155
  29 H :    0.127395
  30 H :    0.128439
  31 H :    0.115355
  32 H :    0.113875
  33 H :    0.117978
  34 H :    0.127716
  35 H :    0.112266
  36 H :    0.124832
  37 H :    0.112914
Sum of atomic charges:    0.0000000

LOEWDIN ATOMIC CHARGES
----------------------
   0 C :   -0.350493
   1 C :   -0.106871
   2 O :   -0.055475
   3 C :    0.024342
   4 O :   -0.175756
   5 C :   -0.256562
   6 C :   -0.266117
   7 H :    0.158882
   8 C :    0.014494
   9 O :   -0.170312
  10 O :   -0.026709
  11 C :   -0.102367
  12 C :   -0.352345
  13 S :    0.113225
  14 P :    0.588247
  15 S :   -0.330110
  16 O :   -0.233948
  17 C :   -0.207051
  18 O :   -0.252852
  19 C :   -0.219598
  20 H :    0.128211
  21 H :    0.131011
  22 H :    0.126515
  23 H :    0.117536
  24 H :    0.115690
  25 H :    0.133001
  26 H :    0.145247
  27 H :    0.119565
  28 H :    0.122092
  29 H :    0.128284
  30 H :    0.128963
  31 H :    0.133458
  32 H :    0.107641
  33 H :    0.117257
  34 H :    0.117000
  35 H :    0.105386
  36 H :    0.122355
  37 H :    0.108164

  Mayer bond orders larger than 0.100000
B(  0-C ,  1-C ) :   1.1528 B(  0-C , 20-H ) :   0.9483 B(  0-C , 21-H ) :   0.9436
B(  0-C , 22-H ) :   0.9493 B(  1-C ,  2-O ) :   0.9045 B(  1-C , 23-H ) :   0.9315
B(  1-C , 24-H ) :   0.9257 B(  2-O ,  3-C ) :   1.2466 B(  3-C ,  4-O ) :   2.0300
B(  3-C ,  5-C ) :   0.9989 B(  5-C ,  6-C ) :   1.0291 B(  5-C , 25-H ) :   0.8897
B(  5-C , 26-H ) :   0.8794 B(  6-C ,  7-H ) :   0.8452 B(  6-C ,  8-C ) :   0.9204
B(  6-C , 13-S ) :   1.0204 B(  8-C ,  9-O ) :   1.9629 B(  8-C , 10-O ) :   1.2800
B( 10-O , 11-C ) :   0.8889 B( 11-C , 12-C ) :   1.1578 B( 11-C , 27-H ) :   0.9299
B( 11-C , 28-H ) :   0.9246 B( 12-C , 29-H ) :   0.9434 B( 12-C , 30-H ) :   0.9441
B( 12-C , 31-H ) :   0.9402 B( 13-S , 14-P ) :   0.9460 B( 13-S , 15-S ) :   0.1153
B( 14-P , 15-S ) :   1.5505 B( 14-P , 16-O ) :   1.1482 B( 14-P , 18-O ) :   1.1012
B( 16-O , 17-C ) :   0.9231 B( 17-C , 32-H ) :   0.9361 B( 17-C , 33-H ) :   0.9542
B( 17-C , 34-H ) :   0.9501 B( 18-O , 19-C ) :   0.9394 B( 19-C , 35-H ) :   0.9436
B( 19-C , 36-H ) :   0.9591 B( 19-C , 37-H ) :   0.9353

Dispersion correction           -0.052243340
FINAL SINGLE POINT ENERGY     -1979.018833904316

DIPOLE MOMENT
-------------

Method             : SCF
Type of density    : Electron Density
Multiplicity       :   1
Irrep              :   0
Energy             : -1979.1496102008445632 Eh
Relativity type    :
Basis              : AO
                                X                 Y                 Z
Electronic contribution:    -21.295526750      -0.375064272      -8.597336044
Nuclear contribution   :     22.403726731       0.353066602       9.079594036
                        -----------------------------------------
Total Dipole Moment    :      1.108199982      -0.021997670       0.482257992
                        -----------------------------------------
Magnitude (a.u.)       :      1.208786113
Magnitude (Debye)      :      3.072490125

Rotational constants in cm-1:             0.016025             0.006197             0.005563
Rotational constants in MHz :           480.419406           185.790673           166.781613

                             ****ORCA TERMINATED NORMALLY****
TOTAL RUN TIME: 0 days 0 hours 0 minutes 28 seconds 14 msec
