                         Program Version 6.0.0  -   RELEASE  -
|  1> ! r2scan-3c def2/J RI DEFGRID2 scfconv6 printgap
|  2> %output
|  3>     printlevel normal
|  4> end
|  5> * xyz 0 1
|  6> C 4.2297772391 -0.8058281981 -2.5958950255
|  7> C 4.4715692243 -1.3660964608 -1.2092886914
|  8> O 3.240967071 -1.6085254976 -0.5058207224
|  9> P 2.3091919737 -0.4267441958 0.0102181204
| 10> S 3.2975470022 1.123137722 0.702261366
| 11> O 1.3701865973 -1.2038579756 1.0228015333
| 12> C 1.7982603219 -1.5174457114 2.3712048812
| 13> C 1.3082608122 -0.4684106575 3.3496120044
| 14> S 0.9285049232 -0.0753413271 -1.54579657
| 15> C 0.3085859994 1.5002633505 -0.890497052
| 16> S -0.6820853977 1.3010399229 0.6031462275
| 17> P -2.3307582078 0.3296472636 -0.3510463552
| 18> S -2.7450550771 0.9490251169 -2.1584857975
| 19> O -3.4618254713 0.4005444547 0.7624992834
| 20> C -3.8685684996 1.594187944 1.459117014
| 21> C -4.2645322737 2.7154783435 0.5222521643
| 22> O -2.0091469892 -1.2129606362 -0.3899598633
| 23> C -1.759813548 -2.0164268738 0.7870117349
| 24> C -2.9958361484 -2.809845904 1.1569202084
| 25> H 3.5445054096 -1.4442376738 -3.1480767135
| 26> H 3.7964661462 0.1912150444 -2.5244542909
| 27> H 5.1731000033 -0.7422116008 -3.1286147783
| 28> H 5.0788987133 -0.6748304112 -0.6158514999
| 29> H 4.950487267 -2.3453687747 -1.2467099751
| 30> H 1.3586324066 -2.4946446795 2.5772455251
| 31> H 2.8885295161 -1.5940585872 2.3928691605
| 32> H 0.2281107254 -0.3693812881 3.2900521975
| 33> H 1.588331533 -0.7613656053 4.3563017126
| 34> H 1.7550066176 0.4971353303 3.1229455291
| 35> H -0.3069282956 1.9395029492 -1.6762774973
| 36> H 1.1492357395 2.1432371668 -0.6294715075
| 37> H -4.7150088026 1.2624254716 2.0629972202
| 38> H -3.0463775206 1.9065282604 2.1089435564
| 39> H -3.4018559468 3.0467321482 -0.0538904947
| 40> H -5.029871036 2.3777022942 -0.172464969
| 41> H -4.6459305676 3.5508747059 1.1005159563
| 42> H -0.9305871619 -2.6689952792 0.5059056806
| 43> H -1.4465829125 -1.3619436873 1.6048558583
| 44> H -3.3065574834 -3.4242468989 0.3163869572
| 45> H -2.7701801197 -3.448268348 2.0053419737
| 46> H -3.8089053505 -2.1370015989 1.4166607803
| 47> *
| 48>
| 49>                          ****END OF INPUT****

CARTESIAN COORDINATES (ANGSTROEM)
---------------------------------
  C      4.229777   -0.805828   -2.595895
  C      4.471569   -1.366096   -1.209289
  O      3.240967   -1.608525   -0.505821
  P      2.309192   -0.426744    0.010218
  S      3.297547    1.123138    0.702261
  O      1.370187   -1.203858    1.022802
  C      1.798260   -1.517446    2.371205
  C      1.308261   -0.468411    3.349612
  S      0.928505   -0.075341   -1.545797
  C      0.308586    1.500263   -0.890497
  S     -0.682085    1.301040    0.603146
  P     -2.330758    0.329647   -0.351046
  S     -2.745055    0.949025   -2.158486
  O     -3.461825    0.400544    0.762499
  C     -3.868568    1.594188    1.459117
  C     -4.264532    2.715478    0.522252
  O     -2.009147   -1.212961   -0.389960
  C     -1.759814   -2.016427    0.787012
  C     -2.995836   -2.809846    1.156920
  H      3.544505   -1.444238   -3.148077
  H      3.796466    0.191215   -2.524454
  H      5.173100   -0.742212   -3.128615
  H      5.078899   -0.674830   -0.615851
  H      4.950487   -2.345369   -1.246710
  H      1.358632   -2.494645    2.577246
  H      2.888530   -1.594059    2.392869
  H      0.228111   -0.369381    3.290052
  H      1.588332   -0.761366    4.356302
  H      1.755007    0.497135    3.122946
  H     -0.306928    1.939503   -1.676277
  H      1.149236    2.143237   -0.629472
  H     -4.715009    1.262425    2.062997
  H     -3.046378    1.906528    2.108944
  H     -3.401856    3.046732   -0.053890
  H     -5.029871    2.377702   -0.172465
  H     -4.645931    3.550875    1.100516
  H     -0.930587   -2.668995    0.505906
  H     -1.446583   -1.361944    1.604856
  H     -3.306557   -3.424247    0.316387
  H     -2.770180   -3.448268    2.005342
  H     -3.808905   -2.137002    1.416661

 Total Charge           Charge          ....    0
 Multiplicity           Mult            ....    1
 Number of Electrons    NEL             ....  202
 Basis Dimension        Dim             ....  539

ORBITAL ENERGIES
----------------

  NO   OCC          E(Eh)            E(eV)
   0   2.0000     -88.575833     -2410.2709
   1   2.0000     -88.574601     -2410.2374
   2   2.0000     -88.523338     -2408.8425
   3   2.0000     -88.515443     -2408.6277
   4   2.0000     -76.915831     -2092.9862
   5   2.0000     -76.913121     -2092.9124
   6   2.0000     -18.996608      -516.9240
   7   2.0000     -18.995164      -516.8847
   8   2.0000     -18.991858      -516.7947
   9   2.0000     -18.987066      -516.6643
  10   2.0000     -10.106889      -275.0224
  11   2.0000     -10.104505      -274.9576
  12   2.0000     -10.103657      -274.9345
  13   2.0000     -10.099235      -274.8141
  14   2.0000     -10.098378      -274.7908
  15   2.0000     -10.030033      -272.9311
  16   2.0000     -10.029539      -272.9176
  17   2.0000     -10.028968      -272.9021
  18   2.0000     -10.028557      -272.8909
  19   2.0000      -7.869986      -214.1532
  20   2.0000      -7.869031      -214.1272
  21   2.0000      -7.818210      -212.7443
  22   2.0000      -7.810290      -212.5288
  23   2.0000      -6.594430      -179.4436
  24   2.0000      -6.591364      -179.3601
  25   2.0000      -5.816900      -158.2859
  26   2.0000      -5.815775      -158.2553
  27   2.0000      -5.813960      -158.2059
  28   2.0000      -5.812803      -158.1744
  29   2.0000      -5.806968      -158.0156
  30   2.0000      -5.806347      -157.9987
  31   2.0000      -5.765769      -156.8946
  32   2.0000      -5.758609      -156.6997
  33   2.0000      -5.758162      -156.6875
  34   2.0000      -5.758095      -156.6857
  35   2.0000      -5.750547      -156.4803
  36   2.0000      -5.750153      -156.4696
  37   2.0000      -4.739992      -128.9818
  38   2.0000      -4.739243      -128.9614
  39   2.0000      -4.738201      -128.9330
  40   2.0000      -4.737220      -128.9063
  41   2.0000      -4.736555      -128.8882
  42   2.0000      -4.734561      -128.8340
  43   2.0000      -1.052325       -28.6352
  44   2.0000      -1.051717       -28.6187
  45   2.0000      -1.012429       -27.5496
  46   2.0000      -1.009778       -27.4775
  47   2.0000      -0.802908       -21.8482
  48   2.0000      -0.759519       -20.6676
  49   2.0000      -0.751196       -20.4411
  50   2.0000      -0.735840       -20.0232
  51   2.0000      -0.732549       -19.9337
  52   2.0000      -0.712568       -19.3900
  53   2.0000      -0.686545       -18.6818
  54   2.0000      -0.669954       -18.2304
  55   2.0000      -0.630820       -17.1655
  56   2.0000      -0.621434       -16.9101
  57   2.0000      -0.610480       -16.6120
  58   2.0000      -0.607014       -16.5177
  59   2.0000      -0.593096       -16.1390
  60   2.0000      -0.532387       -14.4870
  61   2.0000      -0.523171       -14.2362
  62   2.0000      -0.494268       -13.4497
  63   2.0000      -0.491328       -13.3697
  64   2.0000      -0.480247       -13.0682
  65   2.0000      -0.466533       -12.6950
  66   2.0000      -0.459304       -12.4983
  67   2.0000      -0.453212       -12.3325
  68   2.0000      -0.450152       -12.2493
  69   2.0000      -0.433630       -11.7997
  70   2.0000      -0.429054       -11.6752
  71   2.0000      -0.418443       -11.3864
  72   2.0000      -0.413380       -11.2487
  73   2.0000      -0.402611       -10.9556
  74   2.0000      -0.396410       -10.7869
  75   2.0000      -0.389591       -10.6013
  76   2.0000      -0.381614       -10.3842
  77   2.0000      -0.372811       -10.1447
  78   2.0000      -0.371363       -10.1053
  79   2.0000      -0.367176        -9.9914
  80   2.0000      -0.362060        -9.8522
  81   2.0000      -0.360756        -9.8167
  82   2.0000      -0.359708        -9.7882
  83   2.0000      -0.353632        -9.6228
  84   2.0000      -0.351382        -9.5616
  85   2.0000      -0.335784        -9.1372
  86   2.0000      -0.325507        -8.8575
  87   2.0000      -0.313199        -8.5226
  88   2.0000      -0.311687        -8.4814
  89   2.0000      -0.305653        -8.3172
  90   2.0000      -0.303120        -8.2483
  91   2.0000      -0.297113        -8.0849
  92   2.0000      -0.291870        -7.9422
  93   2.0000      -0.280975        -7.6457
  94   2.0000      -0.272502        -7.4152
  95   2.0000      -0.246555        -6.7091
  96   2.0000      -0.231261        -6.2929
  97   2.0000      -0.226239        -6.1563
  98   2.0000      -0.217027        -5.9056
  99   2.0000      -0.212609        -5.7854
 100   2.0000      -0.210306        -5.7227
 101   0.0000      -0.046602        -1.2681
 102   0.0000      -0.025448        -0.6925
 103   0.0000      -0.004655        -0.1267
 104   0.0000      -0.002527        -0.0688
 105   0.0000       0.012562         0.3418

MULLIKEN ATOMIC CHARGES
-----------------------
   0 C :   -0.453356
   1 C :   -0.149110
   2 O :   -0.307787
   3 P :    0.668828
   4 S :   -0.485012
   5 O :   -0.253334
   6 C :   -0.137709
   7 C :   -0.446661
   8 S :   -0.093148
   9 C :   -0.247194
  10 S :   -0.174279
  11 P :    0.647059
  12 S :   -0.430311
  13 O :   -0.294730
  14 C :   -0.161944
  15 C :   -0.426600
  16 O :   -0.250892
  17 C :   -0.101701
  18 C :   -0.484821
  19 H :    0.157702
  20 H :    0.176263
  21 H :    0.148018
  22 H :    0.171924
  23 H :    0.147613
  24 H :    0.150256
  25 H :    0.153398
  26 H :    0.144373
  27 H :    0.146016
  28 H :    0.184804
  29 H :    0.219798
  30 H :    0.214468
  31 H :    0.149333
  32 H :    0.151829
  33 H :    0.170366
  34 H :    0.165198
  35 H :    0.146469
  36 H :    0.166717
  37 H :    0.149353
  38 H :    0.160401
  39 H :    0.143737
  40 H :    0.164666
Sum of atomic charges:    0.0000000

LOEWDIN ATOMIC CHARGES
----------------------
   0 C :   -0.405486
   1 C :    0.018934
   2 O :   -0.660713
   3 P :    0.376788
   4 S :   -0.137131
   5 O :   -0.682420
   6 C :    0.023301
   7 C :   -0.404885
   8 S :    0.192156
   9 C :   -0.423743
  10 S :    0.138968
  11 P :    0.381408
  12 S :   -0.100190
  13 O :   -0.669886
  14 C :    0.022959
  15 C :   -0.405599
  16 O :   -0.651069
  17 C :    0.020483
  18 C :   -0.392540
  19 H :    0.160840
  20 H :    0.165725
  21 H :    0.159745
  22 H :    0.179834
  23 H :    0.179251
  24 H :    0.177645
  25 H :    0.177260
  26 H :    0.155326
  27 H :    0.157667
  28 H :    0.170247
  29 H :    0.193700
  30 H :    0.191347
  31 H :    0.180759
  32 H :    0.171740
  33 H :    0.167349
  34 H :    0.166044
  35 H :    0.158459
  36 H :    0.186059
  37 H :    0.174312
  38 H :    0.162857
  39 H :    0.157371
  40 H :    0.165128

  Mayer bond orders larger than 0.100000
B(  0-C ,  1-C ) :   0.9240 B(  0-C , 19-H ) :   0.9689 B(  0-C , 20-H ) :   0.9612
B(  0-C , 21-H ) :   0.9591 B(  1-C ,  2-O ) :   0.8162 B(  1-C , 22-H ) :   0.9648
B(  1-C , 23-H ) :   0.9582 B(  2-O ,  3-P ) :   1.0719 B(  3-P ,  4-S ) :   1.7406
B(  3-P ,  5-O ) :   1.1342 B(  3-P ,  8-S ) :   1.1157 B(  5-O ,  6-C ) :   0.7398
B(  6-C ,  7-C ) :   0.9358 B(  6-C , 24-H ) :   0.9662 B(  6-C , 25-H ) :   0.9597
B(  7-C , 26-H ) :   0.9720 B(  7-C , 27-H ) :   0.9662 B(  7-C , 28-H ) :   0.9584
B(  8-S ,  9-C ) :   0.9139 B(  9-C , 10-S ) :   0.9145 B(  9-C , 29-H ) :   0.9031
B(  9-C , 30-H ) :   0.9067 B( 10-S , 11-P ) :   0.9896 B( 11-P , 12-S ) :   1.8621
B( 11-P , 13-O ) :   1.0341 B( 11-P , 16-O ) :   1.1380 B( 13-O , 14-C ) :   0.8049
B( 14-C , 15-C ) :   0.9437 B( 14-C , 31-H ) :   0.9585 B( 14-C , 32-H ) :   0.9606
B( 15-C , 33-H ) :   0.9541 B( 15-C , 34-H ) :   0.9655 B( 15-C , 35-H ) :   0.9616
B( 16-O , 17-C ) :   0.7419 B( 17-C , 18-C ) :   0.9323 B( 17-C , 36-H ) :   0.9552
B( 17-C , 37-H ) :   0.9685 B( 18-C , 38-H ) :   0.9735 B( 18-C , 39-H ) :   0.9670
B( 18-C , 40-H ) :   0.9709

Dispersion correction           -0.021823884
FINAL SINGLE POINT ENERGY     -2932.460398586060

DIPOLE MOMENT
-------------

Method             : SCF
Type of density    : Electron Density
Multiplicity       :   1
Irrep              :   0
Energy             : -2932.4850634148642712 Eh
Relativity type    :
Basis              : AO
                                X                 Y                 Z
Electronic contribution:      2.005991098       5.432528983     -11.720896789
Nuclear contribution   :     -1.796754039      -6.208543444      13.207461662
                        -----------------------------------------
Total Dipole Moment    :      0.209237059      -0.776014461       1.486564874
                        -----------------------------------------
Magnitude (a.u.)       :      1.689927133
Magnitude (Debye)      :      4.295453406

Rotational constants in cm-1:             0.012542             0.005010             0.004681
Rotational constants in MHz :           376.011552           150.182495           140.331274

                             ****ORCA TERMINATED NORMALLY****
TOTAL RUN TIME: 0 days 0 hours 1 minutes 21 seconds 526 msec
