                         Program Version 6.0.0  -   RELEASE  -
|  1> ! r2scan-3c def2/J RI DEFGRID2 scfconv6 printgap
|  2> %output
|  3>     printlevel normal
|  4> end
|  5> %cpcm
|  6>     smd true
|  7>     smdsolvent "water"
|  8> end
|  9> * xyz 0 1
| 10> C 4.2297772391 -0.8058281981 -2.5958950255
| 11> C 4.4715692243 -1.3660964608 -1.2092886914
| 12> O 3.240967071 -1.6085254976 -0.5058207224
| 13> P 2.3091919737 -0.4267441958 0.0102181204
| 14> S 3.2975470022 1.123137722 0.702261366
| 15> O 1.3701865973 -1.2038579756 1.0228015333
| 16> C 1.7982603219 -1.5174457114 2.3712048812
| 17> C 1.3082608122 -0.4684106575 3.3496120044
| 18> S 0.9285049232 -0.0753413271 -1.54579657
| 19> C 0.3085859994 1.5002633505 -0.890497052
| 20> S -0.6820853977 1.3010399229 0.6031462275
| 21> P -2.3307582078 0.3296472636 -0.3510463552
| 22> S -2.7450550771 0.9490251169 -2.1584857975
| 23> O -3.4618254713 0.4005444547 0.7624992834
| 24> C -3.8685684996 1.594187944 1.459117014
| 25> C -4.2645322737 2.7154783435 0.5222521643
| 26> O -2.0091469892 -1.2129606362 -0.3899598633
| 27> C -1.759813548 -2.0164268738 0.7870117349
| 28> C -2.9958361484 -2.809845904 1.1569202084
| 29> H 3.5445054096 -1.4442376738 -3.1480767135
| 30> H 3.7964661462 0.1912150444 -2.5244542909
| 31> H 5.1731000033 -0.7422116008 -3.1286147783
| 32> H 5.0788987133 -0.6748304112 -0.6158514999
| 33> H 4.950487267 -2.3453687747 -1.2467099751
| 34> H 1.3586324066 -2.4946446795 2.5772455251
| 35> H 2.8885295161 -1.5940585872 2.3928691605
| 36> H 0.2281107254 -0.3693812881 3.2900521975
| 37> H 1.588331533 -0.7613656053 4.3563017126
| 38> H 1.7550066176 0.4971353303 3.1229455291
| 39> H -0.3069282956 1.9395029492 -1.6762774973
| 40> H 1.1492357395 2.1432371668 -0.6294715075
| 41> H -4.7150088026 1.2624254716 2.0629972202
| 42> H -3.0463775206 1.9065282604 2.1089435564
| 43> H -3.4018559468 3.0467321482 -0.0538904947
| 44> H -5.029871036 2.3777022942 -0.172464969
| 45> H -4.6459305676 3.5508747059 1.1005159563
| 46> H -0.9305871619 -2.6689952792 0.5059056806
| 47> H -1.4465829125 -1.3619436873 1.6048558583
| 48> H -3.3065574834 -3.4242468989 0.3163869572
| 49> H -2.7701801197 -3.448268348 2.0053419737
| 50> H -3.8089053505 -2.1370015989 1.4166607803
| 51> *
| 52>
| 53>                          ****END OF INPUT****

CARTESIAN COORDINATES (ANGSTROEM)
---------------------------------
  C      4.229777   -0.805828   -2.595895
  C      4.471569   -1.366096   -1.209289
  O      3.240967   -1.608525   -0.505821
  P      2.309192   -0.426744    0.010218
  S      3.297547    1.123138    0.702261
  O      1.370187   -1.203858    1.022802
  C      1.798260   -1.517446    2.371205
  C      1.308261   -0.468411    3.349612
  S      0.928505   -0.075341   -1.545797
  C      0.308586    1.500263   -0.890497
  S     -0.682085    1.301040    0.603146
  P     -2.330758    0.329647   -0.351046
  S     -2.745055    0.949025   -2.158486
  O     -3.461825    0.400544    0.762499
  C     -3.868568    1.594188    1.459117
  C     -4.264532    2.715478    0.522252
  O     -2.009147   -1.212961   -0.389960
  C     -1.759814   -2.016427    0.787012
  C     -2.995836   -2.809846    1.156920
  H      3.544505   -1.444238   -3.148077
  H      3.796466    0.191215   -2.524454
  H      5.173100   -0.742212   -3.128615
  H      5.078899   -0.674830   -0.615851
  H      4.950487   -2.345369   -1.246710
  H      1.358632   -2.494645    2.577246
  H      2.888530   -1.594059    2.392869
  H      0.228111   -0.369381    3.290052
  H      1.588332   -0.761366    4.356302
  H      1.755007    0.497135    3.122946
  H     -0.306928    1.939503   -1.676277
  H      1.149236    2.143237   -0.629472
  H     -4.715009    1.262425    2.062997
  H     -3.046378    1.906528    2.108944
  H     -3.401856    3.046732   -0.053890
  H     -5.029871    2.377702   -0.172465
  H     -4.645931    3.550875    1.100516
  H     -0.930587   -2.668995    0.505906
  H     -1.446583   -1.361944    1.604856
  H     -3.306557   -3.424247    0.316387
  H     -2.770180   -3.448268    2.005342
  H     -3.808905   -2.137002    1.416661

 Total Charge           Charge          ....    0
 Multiplicity           Mult            ....    1
 Number of Electrons    NEL             ....  202
 Basis Dimension        Dim             ....  539

ORBITAL ENERGIES
----------------

  NO   OCC          E(Eh)            E(eV)
   0   2.0000     -88.579895     -2410.3815
   1   2.0000     -88.577431     -2410.3144
   2   2.0000     -88.527939     -2408.9677
   3   2.0000     -88.527162     -2408.9466
   4   2.0000     -76.919996     -2093.0995
   5   2.0000     -76.918640     -2093.0626
   6   2.0000     -18.996825      -516.9299
   7   2.0000     -18.995723      -516.8999
   8   2.0000     -18.992583      -516.8145
   9   2.0000     -18.990132      -516.7477
  10   2.0000     -10.104006      -274.9440
  11   2.0000     -10.093591      -274.6606
  12   2.0000     -10.090124      -274.5662
  13   2.0000     -10.089904      -274.5603
  14   2.0000     -10.088995      -274.5355
  15   2.0000     -10.018737      -272.6237
  16   2.0000     -10.018543      -272.6184
  17   2.0000     -10.017958      -272.6025
  18   2.0000     -10.015624      -272.5390
  19   2.0000      -7.874184      -214.2674
  20   2.0000      -7.871787      -214.2022
  21   2.0000      -7.823079      -212.8768
  22   2.0000      -7.822417      -212.8588
  23   2.0000      -6.598278      -179.5483
  24   2.0000      -6.597245      -179.5202
  25   2.0000      -5.821050      -158.3988
  26   2.0000      -5.818566      -158.3312
  27   2.0000      -5.818136      -158.3195
  28   2.0000      -5.815592      -158.2503
  29   2.0000      -5.811234      -158.1317
  30   2.0000      -5.809041      -158.0720
  31   2.0000      -5.770599      -157.0260
  32   2.0000      -5.770078      -157.0118
  33   2.0000      -5.763480      -156.8323
  34   2.0000      -5.763020      -156.8197
  35   2.0000      -5.762682      -156.8105
  36   2.0000      -5.762335      -156.8011
  37   2.0000      -4.744056      -129.0923
  38   2.0000      -4.743431      -129.0753
  39   2.0000      -4.742726      -129.0561
  40   2.0000      -4.742065      -129.0382
  41   2.0000      -4.741635      -129.0264
  42   2.0000      -4.741122      -129.0125
  43   2.0000      -1.053964       -28.6798
  44   2.0000      -1.051353       -28.6088
  45   2.0000      -1.011936       -27.5362
  46   2.0000      -1.010536       -27.4981
  47   2.0000      -0.805099       -21.9078
  48   2.0000      -0.755703       -20.5637
  49   2.0000      -0.744285       -20.2530
  50   2.0000      -0.726685       -19.7741
  51   2.0000      -0.722138       -19.6504
  52   2.0000      -0.710539       -19.3347
  53   2.0000      -0.689236       -18.7551
  54   2.0000      -0.675037       -18.3687
  55   2.0000      -0.627996       -17.0886
  56   2.0000      -0.618255       -16.8236
  57   2.0000      -0.601873       -16.3778
  58   2.0000      -0.601251       -16.3609
  59   2.0000      -0.590737       -16.0748
  60   2.0000      -0.526817       -14.3354
  61   2.0000      -0.517512       -14.0822
  62   2.0000      -0.489210       -13.3121
  63   2.0000      -0.485254       -13.2044
  64   2.0000      -0.479293       -13.0422
  65   2.0000      -0.461415       -12.5557
  66   2.0000      -0.453305       -12.3351
  67   2.0000      -0.447851       -12.1867
  68   2.0000      -0.443518       -12.0687
  69   2.0000      -0.429073       -11.6757
  70   2.0000      -0.423591       -11.5265
  71   2.0000      -0.414372       -11.2756
  72   2.0000      -0.409288       -11.1373
  73   2.0000      -0.398434       -10.8419
  74   2.0000      -0.390641       -10.6299
  75   2.0000      -0.387877       -10.5547
  76   2.0000      -0.379806       -10.3351
  77   2.0000      -0.369037       -10.0420
  78   2.0000      -0.362767        -9.8714
  79   2.0000      -0.360988        -9.8230
  80   2.0000      -0.355187        -9.6651
  81   2.0000      -0.352003        -9.5785
  82   2.0000      -0.350428        -9.5356
  83   2.0000      -0.346739        -9.4352
  84   2.0000      -0.346031        -9.4160
  85   2.0000      -0.333068        -9.0632
  86   2.0000      -0.320433        -8.7194
  87   2.0000      -0.308006        -8.3813
  88   2.0000      -0.305033        -8.3004
  89   2.0000      -0.301289        -8.1985
  90   2.0000      -0.299759        -8.1569
  91   2.0000      -0.293311        -7.9814
  92   2.0000      -0.289043        -7.8653
  93   2.0000      -0.280195        -7.6245
  94   2.0000      -0.274145        -7.4599
  95   2.0000      -0.250068        -6.8047
  96   2.0000      -0.236505        -6.4356
  97   2.0000      -0.233252        -6.3471
  98   2.0000      -0.224190        -6.1005
  99   2.0000      -0.221623        -6.0307
 100   2.0000      -0.220506        -6.0003
 101   0.0000      -0.051404        -1.3988
 102   0.0000      -0.031528        -0.8579
 103   0.0000      -0.007458        -0.2029
 104   0.0000      -0.006660        -0.1812
 105   0.0000       0.013075         0.3558

MULLIKEN ATOMIC CHARGES
-----------------------
   0 C :   -0.489449
   1 C :   -0.148864
   2 O :   -0.331491
   3 P :    0.707313
   4 S :   -0.527454
   5 O :   -0.275336
   6 C :   -0.134593
   7 C :   -0.489761
   8 S :   -0.123997
   9 C :   -0.253797
  10 S :   -0.165892
  11 P :    0.666793
  12 S :   -0.495944
  13 O :   -0.312579
  14 C :   -0.161170
  15 C :   -0.465599
  16 O :   -0.284299
  17 C :   -0.094748
  18 C :   -0.530971
  19 H :    0.170326
  20 H :    0.171299
  21 H :    0.172530
  22 H :    0.176980
  23 H :    0.174579
  24 H :    0.178221
  25 H :    0.168860
  26 H :    0.165566
  27 H :    0.169312
  28 H :    0.172474
  29 H :    0.234496
  30 H :    0.234954
  31 H :    0.177981
  32 H :    0.172275
  33 H :    0.165080
  34 H :    0.170323
  35 H :    0.173596
  36 H :    0.179506
  37 H :    0.174231
  38 H :    0.168469
  39 H :    0.171062
  40 H :    0.169719
Sum of atomic charges:   -0.0000000

LOEWDIN ATOMIC CHARGES
----------------------
   0 C :   -0.409305
   1 C :    0.024126
   2 O :   -0.671470
   3 P :    0.382773
   4 S :   -0.162502
   5 O :   -0.689821
   6 C :    0.029665
   7 C :   -0.408511
   8 S :    0.173071
   9 C :   -0.419199
  10 S :    0.149867
  11 P :    0.384379
  12 S :   -0.149419
  13 O :   -0.674115
  14 C :    0.030833
  15 C :   -0.409597
  16 O :   -0.676078
  17 C :    0.026286
  18 C :   -0.394796
  19 H :    0.163630
  20 H :    0.161403
  21 H :    0.168536
  22 H :    0.181466
  23 H :    0.190542
  24 H :    0.190058
  25 H :    0.181886
  26 H :    0.161188
  27 H :    0.166182
  28 H :    0.162899
  29 H :    0.197761
  30 H :    0.197378
  31 H :    0.193088
  32 H :    0.179687
  33 H :    0.162069
  34 H :    0.164393
  35 H :    0.168669
  36 H :    0.191268
  37 H :    0.183952
  38 H :    0.163862
  39 H :    0.168663
  40 H :    0.165233

  Mayer bond orders larger than 0.100000
B(  0-C ,  1-C ) :   0.9110 B(  0-C , 19-H ) :   0.9664 B(  0-C , 20-H ) :   0.9627
B(  0-C , 21-H ) :   0.9539 B(  1-C ,  2-O ) :   0.8050 B(  1-C , 22-H ) :   0.9636
B(  1-C , 23-H ) :   0.9489 B(  2-O ,  3-P ) :   1.0796 B(  3-P ,  4-S ) :   1.7049
B(  3-P ,  5-O ) :   1.1484 B(  3-P ,  8-S ) :   1.1165 B(  5-O ,  6-C ) :   0.7277
B(  6-C ,  7-C ) :   0.9205 B(  6-C , 24-H ) :   0.9544 B(  6-C , 25-H ) :   0.9556
B(  7-C , 26-H ) :   0.9694 B(  7-C , 27-H ) :   0.9613 B(  7-C , 28-H ) :   0.9638
B(  8-S ,  9-C ) :   0.9003 B(  9-C , 10-S ) :   0.9023 B(  9-C , 29-H ) :   0.8990
B(  9-C , 30-H ) :   0.9031 B( 10-S , 11-P ) :   1.0041 B( 11-P , 12-S ) :   1.8250
B( 11-P , 13-O ) :   1.0552 B( 11-P , 16-O ) :   1.1453 B( 13-O , 14-C ) :   0.7932
B( 14-C , 15-C ) :   0.9210 B( 14-C , 31-H ) :   0.9488 B( 14-C , 32-H ) :   0.9571
B( 15-C , 33-H ) :   0.9578 B( 15-C , 34-H ) :   0.9667 B( 15-C , 35-H ) :   0.9558
B( 16-O , 17-C ) :   0.7280 B( 17-C , 18-C ) :   0.9284 B( 17-C , 36-H ) :   0.9465
B( 17-C , 37-H ) :   0.9555 B( 18-C , 38-H ) :   0.9726 B( 18-C , 39-H ) :   0.9595
B( 18-C , 40-H ) :   0.9700

Dispersion correction           -0.021823884
FINAL SINGLE POINT ENERGY     -2932.470467168717

DIPOLE MOMENT
-------------

Method             : SCF
Type of density    : Electron Density
Multiplicity       :   1
Irrep              :   0
Energy             : -2932.4951319975211845 Eh
Relativity type    :
Basis              : AO
                                X                 Y                 Z
Electronic contribution:      2.180908686       5.240812848     -10.890913962
Nuclear contribution   :     -1.796754039      -6.208543444      13.207461662
                        -----------------------------------------
Total Dipole Moment    :      0.384154648      -0.967730596       2.316547700
                        -----------------------------------------
Magnitude (a.u.)       :      2.539777657
Magnitude (Debye)      :      6.455601769

Rotational constants in cm-1:             0.012542             0.005010             0.004681
Rotational constants in MHz :           376.011552           150.182495           140.331274

                             ****ORCA TERMINATED NORMALLY****
TOTAL RUN TIME: 0 days 0 hours 1 minutes 57 seconds 611 msec
