                         Program Version 6.0.0  -   RELEASE  -
|  1> ! pbe def2-sv(p) def2/J RI DEFGRID1 loosescf d4 GCP(DFT/SV(P)) printgap
|  2> %output
|  3>     printlevel normal
|  4> end
|  5> * xyz 0 1
|  6> C 6.0294232501 -1.1996885735 0.2563800257
|  7> C 4.5889059961 -1.4240662403 -0.1557210587
|  8> O 3.8818025143 -0.1763224325 0.0094361383
|  9> P 2.4659905549 0.0568663668 -0.669610319
| 10> S 2.3721757822 -0.2618228125 -2.5961825762
| 11> O 2.129592939 1.546914668 -0.2985289402
| 12> C 2.1606322432 2.0696920736 1.0535829632
| 13> C 3.4801271999 2.7589798225 1.3308279234
| 14> S 1.1834980525 -1.1793777386 0.5059199224
| 15> C -0.212396614 -1.1380914955 -0.6374064677
| 16> S -1.0125472381 0.4994724347 -0.6971733761
| 17> P -2.7982705911 -0.0141607725 0.3555417771
| 18> S -3.9683615455 1.507985986 0.7314709152
| 19> O -2.3605672725 -0.8921528426 1.5961228451
| 20> C -2.2370446788 -0.3209406905 2.9117118549
| 21> C -0.971448389 0.5015105653 3.045414005
| 22> O -3.3803126081 -1.223075361 -0.4977979577
| 23> C -3.9311782258 -1.0079745779 -1.8112978883
| 24> C -5.4311470215 -0.79717305 -1.7416159737
| 25> H 6.0751518748 -0.8785805272 1.2929030286
| 26> H 6.5797354362 -2.1279837735 0.1439249161
| 27> H 6.4828100785 -0.4371096676 -0.3707188622
| 28> H 4.1043386954 -2.175232691 0.4735568692
| 29> H 4.5134155627 -1.730353637 -1.2041428414
| 30> H 1.325422264 2.771778282 1.091154303
| 31> H 1.9880219716 1.2495935229 1.7558950091
| 32> H 4.2965604748 2.0439819001 1.2760086924
| 33> H 3.6513793945 3.5434977625 0.5989042389
| 34> H 3.4493736843 3.1956170741 2.3241438395
| 35> H -0.9311177526 -1.8818704462 -0.30150632
| 36> H 0.1565447754 -1.353847145 -1.6408747601
| 37> H -3.1206899654 0.2945568811 3.1096026726
| 38> H -2.2285636202 -1.186118803 3.5755915545
| 39> H -0.1020377626 -0.109630253 2.8154001793
| 40> H -1.0091820029 1.3463177905 2.3575872948
| 41> H -0.8912374065 0.8768108502 4.0603335919
| 42> H -3.4362394484 -0.1488372991 -2.277944125
| 43> H -3.6852192359 -1.9143199012 -2.3686304728
| 44> H -5.9019133193 -1.6416037318 -1.2463679237
| 45> H -5.6591667095 0.1078143785 -1.1826691223
| 46> H -5.8268601843 -0.7017979144 -2.747652157
| 47> *
| 48>
| 49>                          ****END OF INPUT****

CARTESIAN COORDINATES (ANGSTROEM)
---------------------------------
  C      6.029423   -1.199689    0.256380
  C      4.588906   -1.424066   -0.155721
  O      3.881803   -0.176322    0.009436
  P      2.465991    0.056866   -0.669610
  S      2.372176   -0.261823   -2.596183
  O      2.129593    1.546915   -0.298529
  C      2.160632    2.069692    1.053583
  C      3.480127    2.758980    1.330828
  S      1.183498   -1.179378    0.505920
  C     -0.212397   -1.138091   -0.637406
  S     -1.012547    0.499472   -0.697173
  P     -2.798271   -0.014161    0.355542
  S     -3.968362    1.507986    0.731471
  O     -2.360567   -0.892153    1.596123
  C     -2.237045   -0.320941    2.911712
  C     -0.971448    0.501511    3.045414
  O     -3.380313   -1.223075   -0.497798
  C     -3.931178   -1.007975   -1.811298
  C     -5.431147   -0.797173   -1.741616
  H      6.075152   -0.878581    1.292903
  H      6.579735   -2.127984    0.143925
  H      6.482810   -0.437110   -0.370719
  H      4.104339   -2.175233    0.473557
  H      4.513416   -1.730354   -1.204143
  H      1.325422    2.771778    1.091154
  H      1.988022    1.249594    1.755895
  H      4.296560    2.043982    1.276009
  H      3.651379    3.543498    0.598904
  H      3.449374    3.195617    2.324144
  H     -0.931118   -1.881870   -0.301506
  H      0.156545   -1.353847   -1.640875
  H     -3.120690    0.294557    3.109603
  H     -2.228564   -1.186119    3.575592
  H     -0.102038   -0.109630    2.815400
  H     -1.009182    1.346318    2.357587
  H     -0.891237    0.876811    4.060334
  H     -3.436239   -0.148837   -2.277944
  H     -3.685219   -1.914320   -2.368630
  H     -5.901913   -1.641604   -1.246368
  H     -5.659167    0.107814   -1.182669
  H     -5.826860   -0.701798   -2.747652

 Total Charge           Charge          ....    0
 Multiplicity           Mult            ....    1
 Number of Electrons    NEL             ....  202
 Basis Dimension        Dim             ....  334

ORBITAL ENERGIES
----------------

  NO   OCC          E(Eh)            E(eV)
   0   2.0000     -88.047283     -2395.8884
   1   2.0000     -88.042277     -2395.7522
   2   2.0000     -87.989414     -2394.3137
   3   2.0000     -87.988936     -2394.3007
   4   2.0000     -76.430480     -2079.7791
   5   2.0000     -76.427674     -2079.7027
   6   2.0000     -18.802633      -511.6457
   7   2.0000     -18.798369      -511.5296
   8   2.0000     -18.794706      -511.4300
   9   2.0000     -18.792041      -511.3574
  10   2.0000      -9.960448      -271.0376
  11   2.0000      -9.959145      -271.0021
  12   2.0000      -9.955551      -270.9043
  13   2.0000      -9.953944      -270.8606
  14   2.0000      -9.953908      -270.8596
  15   2.0000      -9.895115      -269.2598
  16   2.0000      -9.889358      -269.1031
  17   2.0000      -9.884235      -268.9637
  18   2.0000      -9.879580      -268.8370
  19   2.0000      -7.692207      -209.3156
  20   2.0000      -7.686883      -209.1707
  21   2.0000      -7.634587      -207.7477
  22   2.0000      -7.634246      -207.7384
  23   2.0000      -6.428278      -174.9223
  24   2.0000      -6.425177      -174.8379
  25   2.0000      -5.719778      -155.6431
  26   2.0000      -5.716770      -155.5612
  27   2.0000      -5.714949      -155.5117
  28   2.0000      -5.711240      -155.4107
  29   2.0000      -5.709464      -155.3624
  30   2.0000      -5.703946      -155.2123
  31   2.0000      -5.663548      -154.1130
  32   2.0000      -5.663247      -154.1048
  33   2.0000      -5.655224      -153.8865
  34   2.0000      -5.654763      -153.8739
  35   2.0000      -5.654688      -153.8719
  36   2.0000      -5.654388      -153.8637
  37   2.0000      -4.651175      -126.5649
  38   2.0000      -4.650060      -126.5346
  39   2.0000      -4.648356      -126.4882
  40   2.0000      -4.647547      -126.4662
  41   2.0000      -4.647402      -126.4622
  42   2.0000      -4.645385      -126.4074
  43   2.0000      -0.995871       -27.0990
  44   2.0000      -0.991859       -26.9898
  45   2.0000      -0.953085       -25.9348
  46   2.0000      -0.947896       -25.7936
  47   2.0000      -0.764740       -20.8096
  48   2.0000      -0.725210       -19.7340
  49   2.0000      -0.714277       -19.4365
  50   2.0000      -0.698243       -19.0002
  51   2.0000      -0.683497       -18.5989
  52   2.0000      -0.677881       -18.4461
  53   2.0000      -0.655163       -17.8279
  54   2.0000      -0.640796       -17.4370
  55   2.0000      -0.597870       -16.2689
  56   2.0000      -0.594203       -16.1691
  57   2.0000      -0.575299       -15.6547
  58   2.0000      -0.569837       -15.5061
  59   2.0000      -0.564442       -15.3592
  60   2.0000      -0.513752       -13.9799
  61   2.0000      -0.502834       -13.6828
  62   2.0000      -0.487776       -13.2731
  63   2.0000      -0.474137       -12.9019
  64   2.0000      -0.458422       -12.4743
  65   2.0000      -0.451117       -12.2755
  66   2.0000      -0.446685       -12.1549
  67   2.0000      -0.440964       -11.9992
  68   2.0000      -0.426303       -11.6003
  69   2.0000      -0.423552       -11.5254
  70   2.0000      -0.409448       -11.1416
  71   2.0000      -0.398742       -10.8503
  72   2.0000      -0.396680       -10.7942
  73   2.0000      -0.393227       -10.7003
  74   2.0000      -0.385491       -10.4898
  75   2.0000      -0.372134       -10.1263
  76   2.0000      -0.367350        -9.9961
  77   2.0000      -0.363255        -9.8847
  78   2.0000      -0.357346        -9.7239
  79   2.0000      -0.356180        -9.6922
  80   2.0000      -0.351889        -9.5754
  81   2.0000      -0.349099        -9.4995
  82   2.0000      -0.345877        -9.4118
  83   2.0000      -0.337178        -9.1751
  84   2.0000      -0.330737        -8.9998
  85   2.0000      -0.326088        -8.8733
  86   2.0000      -0.320719        -8.7272
  87   2.0000      -0.307318        -8.3625
  88   2.0000      -0.300358        -8.1732
  89   2.0000      -0.297731        -8.1017
  90   2.0000      -0.291091        -7.9210
  91   2.0000      -0.280514        -7.6332
  92   2.0000      -0.273327        -7.4376
  93   2.0000      -0.267103        -7.2682
  94   2.0000      -0.258884        -7.0446
  95   2.0000      -0.238516        -6.4903
  96   2.0000      -0.224956        -6.1214
  97   2.0000      -0.210079        -5.7165
  98   2.0000      -0.207955        -5.6587
  99   2.0000      -0.204594        -5.5673
 100   2.0000      -0.201333        -5.4786
 101   0.0000      -0.042548        -1.1578
 102   0.0000      -0.032264        -0.8779
 103   0.0000      -0.012947        -0.3523
 104   0.0000       0.005904         0.1607
 105   0.0000       0.008870         0.2414

MULLIKEN ATOMIC CHARGES
-----------------------
   0 C :   -0.283393
   1 C :   -0.013287
   2 O :   -0.383903
   3 P :    0.594667
   4 S :   -0.305974
   5 O :   -0.345715
   6 C :   -0.024024
   7 C :   -0.289152
   8 S :   -0.104018
   9 C :   -0.367062
  10 S :   -0.061462
  11 P :    0.563612
  12 S :   -0.314027
  13 O :   -0.365407
  14 C :   -0.000999
  15 C :   -0.339732
  16 O :   -0.362255
  17 C :   -0.014369
  18 C :   -0.288552
  19 H :    0.116920
  20 H :    0.115574
  21 H :    0.124411
  22 H :    0.105580
  23 H :    0.109467
  24 H :    0.121429
  25 H :    0.108741
  26 H :    0.121272
  27 H :    0.122465
  28 H :    0.110764
  29 H :    0.194836
  30 H :    0.197396
  31 H :    0.114741
  32 H :    0.106575
  33 H :    0.135093
  34 H :    0.128991
  35 H :    0.108987
  36 H :    0.105049
  37 H :    0.106003
  38 H :    0.113319
  39 H :    0.129243
  40 H :    0.108197
Sum of atomic charges:   -0.0000000

LOEWDIN ATOMIC CHARGES
----------------------
   0 C :   -0.350466
   1 C :   -0.119382
   2 O :   -0.248879
   3 P :    0.563879
   4 S :   -0.304467
   5 O :   -0.227829
   6 C :   -0.113676
   7 C :   -0.359126
   8 S :    0.073738
   9 C :   -0.484597
  10 S :    0.082264
  11 P :    0.563710
  12 S :   -0.314175
  13 O :   -0.236787
  14 C :   -0.117720
  15 C :   -0.374095
  16 O :   -0.242172
  17 C :   -0.119371
  18 C :   -0.362417
  19 H :    0.126093
  20 H :    0.132786
  21 H :    0.130570
  22 H :    0.109518
  23 H :    0.111802
  24 H :    0.124133
  25 H :    0.105680
  26 H :    0.125332
  27 H :    0.130149
  28 H :    0.130245
  29 H :    0.135533
  30 H :    0.127932
  31 H :    0.110547
  32 H :    0.119459
  33 H :    0.116160
  34 H :    0.121532
  35 H :    0.129396
  36 H :    0.107022
  37 H :    0.117801
  38 H :    0.125890
  39 H :    0.124953
  40 H :    0.129034

  Mayer bond orders larger than 0.100000
B(  0-C ,  1-C ) :   1.1602 B(  0-C , 19-H ) :   0.9507 B(  0-C , 20-H ) :   0.9414
B(  0-C , 21-H ) :   0.9505 B(  1-C ,  2-O ) :   0.9010 B(  1-C , 22-H ) :   0.9282
B(  1-C , 23-H ) :   0.9109 B(  2-O ,  3-P ) :   1.0828 B(  3-P ,  4-S ) :   1.6564
B(  3-P ,  5-O ) :   1.1524 B(  3-P ,  8-S ) :   0.9469 B(  4-S ,  8-S ) :   0.1097
B(  5-O ,  6-C ) :   0.8868 B(  6-C ,  7-C ) :   1.1622 B(  6-C , 24-H ) :   0.9323
B(  6-C , 25-H ) :   0.9113 B(  7-C , 26-H ) :   0.9412 B(  7-C , 27-H ) :   0.9463
B(  7-C , 28-H ) :   0.9399 B(  8-S ,  9-C ) :   1.0058 B(  9-C , 10-S ) :   0.9707
B(  9-C , 29-H ) :   0.8872 B(  9-C , 30-H ) :   0.8673 B( 10-S , 11-P ) :   0.9833
B( 11-P , 12-S ) :   1.6471 B( 11-P , 13-O ) :   1.1000 B( 11-P , 16-O ) :   1.0923
B( 13-O , 14-C ) :   0.9067 B( 14-C , 15-C ) :   1.1638 B( 14-C , 31-H ) :   0.9123
B( 14-C , 32-H ) :   0.9333 B( 15-C , 33-H ) :   0.9287 B( 15-C , 34-H ) :   0.9363
B( 15-C , 35-H ) :   0.9369 B( 16-O , 17-C ) :   0.9067 B( 17-C , 18-C ) :   1.1681
B( 17-C , 36-H ) :   0.9104 B( 17-C , 37-H ) :   0.9360 B( 18-C , 38-H ) :   0.9473
B( 18-C , 39-H ) :   0.9330 B( 18-C , 40-H ) :   0.9398

Dispersion correction           -0.062560842
FINAL SINGLE POINT ENERGY     -2929.522078826692

DIPOLE MOMENT
-------------

Method             : SCF
Type of density    : Electron Density
Multiplicity       :   1
Irrep              :   0
Energy             : -2929.6443010342836715 Eh
Relativity type    :
Basis              : AO
                                X                 Y                 Z
Electronic contribution:     -8.574890565       0.078736203     -10.017487055
Nuclear contribution   :      9.564879945      -0.869888367      11.173463586
                        -----------------------------------------
Total Dipole Moment    :      0.989989380      -0.791152164       1.155976531
                        -----------------------------------------
Magnitude (a.u.)       :      1.715308269
Magnitude (Debye)      :      4.359967129

Rotational constants in cm-1:             0.013713             0.004153             0.003779
Rotational constants in MHz :           411.118899           124.517585           113.283663

                             ****ORCA TERMINATED NORMALLY****
TOTAL RUN TIME: 0 days 0 hours 0 minutes 20 seconds 390 msec
