                         Program Version 6.0.0  -   RELEASE  -
|  1> ! pbe def2-sv(p) def2/J RI DEFGRID1 loosescf d4 GCP(DFT/SV(P)) printgap
|  2> %output
|  3>     printlevel normal
|  4> end
|  5> * xyz 0 1
|  6> C 0.6974611943 -0.5478702922 -0.2068079598
|  7> C -0.5736092722 0.1581166874 0.3098558532
|  8> F -0.4899091557 0.2869876077 1.6482188875
|  9> Cl -1.9972521578 -0.827455977 -0.0758541825
| 10> Cl -0.6940465228 1.7624835204 -0.4160866788
| 11> F 0.7842810611 -1.783581112 0.3053627873
| 12> F 0.6406189677 -0.6904957303 -1.5352032354
| 13> Cl 2.1483003397 0.3690232292 0.2328310689
| 14> *
| 15>
| 16>                          ****END OF INPUT****

CARTESIAN COORDINATES (ANGSTROEM)
---------------------------------
  C      0.697461   -0.547870   -0.206808
  C     -0.573609    0.158117    0.309856
  F     -0.489909    0.286988    1.648219
  Cl    -1.997252   -0.827456   -0.075854
  Cl    -0.694047    1.762484   -0.416087
  F      0.784281   -1.783581    0.305363
  F      0.640619   -0.690496   -1.535203
  Cl     2.148300    0.369023    0.232831

 Total Charge           Charge          ....    0
 Multiplicity           Mult            ....    1
 Number of Electrons    NEL             ....   90
 Basis Dimension        Dim             ....  124

ORBITAL ENERGIES
----------------

  NO   OCC          E(Eh)            E(eV)
   0   2.0000    -100.671810     -2739.4192
   1   2.0000    -100.671304     -2739.4054
   2   2.0000    -100.666964     -2739.2873
   3   2.0000     -24.318208      -661.7321
   4   2.0000     -24.317242      -661.7058
   5   2.0000     -24.316624      -661.6890
   6   2.0000     -10.134519      -275.7743
   7   2.0000     -10.110183      -275.1121
   8   2.0000      -9.208479      -250.5754
   9   2.0000      -9.208189      -250.5675
  10   2.0000      -9.204076      -250.4556
  11   2.0000      -7.040417      -191.5795
  12   2.0000      -7.040067      -191.5699
  13   2.0000      -7.035728      -191.4519
  14   2.0000      -7.027887      -191.2385
  15   2.0000      -7.027689      -191.2331
  16   2.0000      -7.027610      -191.2310
  17   2.0000      -7.027384      -191.2248
  18   2.0000      -7.023545      -191.1204
  19   2.0000      -7.023408      -191.1167
  20   2.0000      -1.195718       -32.5372
  21   2.0000      -1.158964       -31.5370
  22   2.0000      -1.124688       -30.6043
  23   2.0000      -0.854691       -23.2573
  24   2.0000      -0.813564       -22.1382
  25   2.0000      -0.782776       -21.3004
  26   2.0000      -0.677355       -18.4318
  27   2.0000      -0.595195       -16.1961
  28   2.0000      -0.549937       -14.9646
  29   2.0000      -0.541530       -14.7358
  30   2.0000      -0.517089       -14.0707
  31   2.0000      -0.489842       -13.3293
  32   2.0000      -0.477991       -13.0068
  33   2.0000      -0.418981       -11.4010
  34   2.0000      -0.403744       -10.9864
  35   2.0000      -0.389567       -10.6007
  36   2.0000      -0.380402       -10.3513
  37   2.0000      -0.371153       -10.0996
  38   2.0000      -0.348477        -9.4825
  39   2.0000      -0.321621        -8.7517
  40   2.0000      -0.311892        -8.4870
  41   2.0000      -0.309127        -8.4118
  42   2.0000      -0.296159        -8.0589
  43   2.0000      -0.295658        -8.0453
  44   2.0000      -0.280079        -7.6213
  45   0.0000      -0.053724        -1.4619
  46   0.0000      -0.039480        -1.0743
  47   0.0000       0.001023         0.0278
  48   0.0000       0.031655         0.8614
  49   0.0000       0.104106         2.8329

MULLIKEN ATOMIC CHARGES
-----------------------
   0 C :    0.312940
   1 C :    0.087512
   2 F :   -0.106661
   3 Cl:   -0.014794
   4 Cl:   -0.014992
   5 F :   -0.108990
   6 F :   -0.106026
   7 Cl:   -0.048989
Sum of atomic charges:   -0.0000000

LOEWDIN ATOMIC CHARGES
----------------------
   0 C :   -0.071731
   1 C :   -0.205319
   2 F :   -0.040452
   3 Cl:    0.127905
   4 Cl:    0.131072
   5 F :   -0.030930
   6 F :   -0.029846
   7 Cl:    0.119301

  Mayer bond orders larger than 0.100000
B(  0-C ,  1-C ) :   0.8037 B(  0-C ,  5-F ) :   1.1650 B(  0-C ,  6-F ) :   1.1681
B(  0-C ,  7-Cl) :   1.1021 B(  1-C ,  2-F ) :   1.1246 B(  1-C ,  3-Cl) :   1.0906
B(  1-C ,  4-Cl) :   1.0905

Dispersion correction           -0.011202883
FINAL SINGLE POINT ENERGY     -1754.642975585211

DIPOLE MOMENT
-------------

Method             : SCF
Type of density    : Electron Density
Multiplicity       :   1
Irrep              :   0
Energy             : -1754.6742314358377826 Eh
Relativity type    :
Basis              : AO
                                X                 Y                 Z
Electronic contribution:      0.073673523      -0.164590690       0.002881702
Nuclear contribution   :     -0.137497944       0.276136638      -0.039868389
                        -----------------------------------------
Total Dipole Moment    :     -0.063824421       0.111545949      -0.036986687
                        -----------------------------------------
Magnitude (a.u.)       :      0.133731337
Magnitude (Debye)      :      0.339918044

Rotational constants in cm-1:             0.052307             0.036327             0.029567
Rotational constants in MHz :          1568.121657          1089.068228           886.389982

                             ****ORCA TERMINATED NORMALLY****
TOTAL RUN TIME: 0 days 0 hours 0 minutes 5 seconds 309 msec
