                         Program Version 6.0.0  -   RELEASE  -
|  1> ! pbe def2-sv(p) def2/J RI DEFGRID1 loosescf d4 GCP(DFT/SV(P)) printgap
|  2> %output
|  3>     printlevel normal
|  4> end
|  5> * xyz 0 1
|  6> C 0.7595777707 0.2836679962 3.5112071926
|  7> C 1.8856867445 0.4720936985 2.5162414184
|  8> O 1.9783391982 -0.7390945648 1.7210985184
|  9> P 2.583704867 -0.7753112899 0.2685008062
| 10> S 2.6142688998 -2.5924066599 -0.4530075978
| 11> O 3.9928969245 -0.0681132159 0.474479917
| 12> C 5.0736370903 -0.1839035146 -0.4689076762
| 13> C 4.7418625858 0.4430244399 -1.8073779167
| 14> S 1.4550198492 0.6461625819 -0.8539857996
| 15> C 0.050781073 -0.448302567 -1.1686073264
| 16> S -1.0876048875 -0.5623031042 0.2337136195
| 17> P -2.7426204515 0.5572651959 -0.5518203565
| 18> S -2.5426884328 1.2599775819 -2.3641053201
| 19> O -3.091562985 1.6312240954 0.5725320682
| 20> C -2.5138962791 2.9485173736 0.5988021465
| 21> C -1.0388489093 2.9220107959 0.9429474832
| 22> O -3.9683519659 -0.4248093369 -0.4313276193
| 23> C -4.3359368724 -1.0954843457 0.803346252
| 24> C -4.1059087265 -2.5872835982 0.6676044444
| 25> H 0.9656338065 -0.5717899928 4.147684928
| 26> H 0.6708873222 1.1753338476 4.1235970668
| 27> H -0.1750093263 0.1035228462 2.9857060254
| 28> H 2.8467623722 0.6130401727 3.013736459
| 29> H 1.6984604047 1.3171869122 1.8469888506
| 30> H 5.9008622862 0.3299869062 0.0228450501
| 31> H 5.3127602749 -1.2447977373 -0.5899220128
| 32> H 3.9635564977 -0.1323492501 -2.306840139
| 33> H 4.3923202354 1.4637023547 -1.6728327692
| 34> H 5.6296267677 0.4449877256 -2.4316400856
| 35> H 0.4331188188 -1.449337567 -1.3728464211
| 36> H -0.4880484372 -0.0431336505 -2.0282557023
| 37> H -2.674544127 3.4158632167 -0.3775960534
| 38> H -3.0955002646 3.4701950236 1.360315557
| 39> H -0.6849290845 3.9393951858 1.0746889593
| 40> H -0.8764907221 2.3627099255 1.8606762478
| 41> H -0.4729431815 2.4600725233 0.1343351808
| 42> H -3.755976587 -0.6751759625 1.6271562544
| 43> H -5.3935789684 -0.8681336423 0.9449656754
| 44> H -3.0463096745 -2.8016946842 0.5500024256
| 45> H -4.4707751891 -3.0856818388 1.5600158646
| 46> H -4.638919285 -2.9678297246 -0.1992483873
| 47> *
| 48>
| 49>                          ****END OF INPUT****

CARTESIAN COORDINATES (ANGSTROEM)
---------------------------------
  C      0.759578    0.283668    3.511207
  C      1.885687    0.472094    2.516241
  O      1.978339   -0.739095    1.721099
  P      2.583705   -0.775311    0.268501
  S      2.614269   -2.592407   -0.453008
  O      3.992897   -0.068113    0.474480
  C      5.073637   -0.183904   -0.468908
  C      4.741863    0.443024   -1.807378
  S      1.455020    0.646163   -0.853986
  C      0.050781   -0.448303   -1.168607
  S     -1.087605   -0.562303    0.233714
  P     -2.742620    0.557265   -0.551820
  S     -2.542688    1.259978   -2.364105
  O     -3.091563    1.631224    0.572532
  C     -2.513896    2.948517    0.598802
  C     -1.038849    2.922011    0.942947
  O     -3.968352   -0.424809   -0.431328
  C     -4.335937   -1.095484    0.803346
  C     -4.105909   -2.587284    0.667604
  H      0.965634   -0.571790    4.147685
  H      0.670887    1.175334    4.123597
  H     -0.175009    0.103523    2.985706
  H      2.846762    0.613040    3.013736
  H      1.698460    1.317187    1.846989
  H      5.900862    0.329987    0.022845
  H      5.312760   -1.244798   -0.589922
  H      3.963556   -0.132349   -2.306840
  H      4.392320    1.463702   -1.672833
  H      5.629627    0.444988   -2.431640
  H      0.433119   -1.449338   -1.372846
  H     -0.488048   -0.043134   -2.028256
  H     -2.674544    3.415863   -0.377596
  H     -3.095500    3.470195    1.360316
  H     -0.684929    3.939395    1.074689
  H     -0.876491    2.362710    1.860676
  H     -0.472943    2.460073    0.134335
  H     -3.755977   -0.675176    1.627156
  H     -5.393579   -0.868134    0.944966
  H     -3.046310   -2.801695    0.550002
  H     -4.470775   -3.085682    1.560016
  H     -4.638919   -2.967830   -0.199248

 Total Charge           Charge          ....    0
 Multiplicity           Mult            ....    1
 Number of Electrons    NEL             ....  202
 Basis Dimension        Dim             ....  334

ORBITAL ENERGIES
----------------

  NO   OCC          E(Eh)            E(eV)
   0   2.0000     -88.045570     -2395.8418
   1   2.0000     -88.044264     -2395.8062
   2   2.0000     -87.993320     -2394.4200
   3   2.0000     -87.988120     -2394.2785
   4   2.0000     -76.429455     -2079.7512
   5   2.0000     -76.428001     -2079.7116
   6   2.0000     -18.797554      -511.5074
   7   2.0000     -18.794405      -511.4217
   8   2.0000     -18.794001      -511.4108
   9   2.0000     -18.792686      -511.3750
  10   2.0000      -9.960570      -271.0409
  11   2.0000      -9.957365      -270.9537
  12   2.0000      -9.957105      -270.9466
  13   2.0000      -9.956150      -270.9206
  14   2.0000      -9.950294      -270.7613
  15   2.0000      -9.889263      -269.1005
  16   2.0000      -9.887466      -269.0516
  17   2.0000      -9.886816      -269.0339
  18   2.0000      -9.886678      -269.0302
  19   2.0000      -7.689958      -209.2544
  20   2.0000      -7.688766      -209.2219
  21   2.0000      -7.638465      -207.8532
  22   2.0000      -7.633354      -207.7141
  23   2.0000      -6.427170      -174.8922
  24   2.0000      -6.425746      -174.8534
  25   2.0000      -5.717554      -155.5826
  26   2.0000      -5.716520      -155.5544
  27   2.0000      -5.714558      -155.5010
  28   2.0000      -5.713321      -155.4674
  29   2.0000      -5.707224      -155.3015
  30   2.0000      -5.705868      -155.2646
  31   2.0000      -5.667388      -154.2175
  32   2.0000      -5.662371      -154.0810
  33   2.0000      -5.659038      -153.9903
  34   2.0000      -5.658623      -153.9790
  35   2.0000      -5.653900      -153.8504
  36   2.0000      -5.653469      -153.8387
  37   2.0000      -4.649868      -126.5293
  38   2.0000      -4.648708      -126.4978
  39   2.0000      -4.648666      -126.4966
  40   2.0000      -4.647716      -126.4708
  41   2.0000      -4.647374      -126.4615
  42   2.0000      -4.645983      -126.4236
  43   2.0000      -0.991589       -26.9825
  44   2.0000      -0.990260       -26.9463
  45   2.0000      -0.948410       -25.8076
  46   2.0000      -0.946489       -25.7553
  47   2.0000      -0.763276       -20.7698
  48   2.0000      -0.724754       -19.7215
  49   2.0000      -0.715382       -19.4665
  50   2.0000      -0.692591       -18.8464
  51   2.0000      -0.691724       -18.8228
  52   2.0000      -0.680396       -18.5145
  53   2.0000      -0.653195       -17.7743
  54   2.0000      -0.640271       -17.4227
  55   2.0000      -0.600963       -16.3530
  56   2.0000      -0.592704       -16.1283
  57   2.0000      -0.578158       -15.7325
  58   2.0000      -0.574895       -15.6437
  59   2.0000      -0.558886       -15.2081
  60   2.0000      -0.510150       -13.8819
  61   2.0000      -0.504915       -13.7394
  62   2.0000      -0.477614       -12.9965
  63   2.0000      -0.475703       -12.9445
  64   2.0000      -0.463437       -12.6108
  65   2.0000      -0.448028       -12.1915
  66   2.0000      -0.443288       -12.0625
  67   2.0000      -0.440339       -11.9822
  68   2.0000      -0.435372       -11.8471
  69   2.0000      -0.430288       -11.7087
  70   2.0000      -0.412041       -11.2122
  71   2.0000      -0.397659       -10.8208
  72   2.0000      -0.394217       -10.7272
  73   2.0000      -0.385574       -10.4920
  74   2.0000      -0.377408       -10.2698
  75   2.0000      -0.372470       -10.1354
  76   2.0000      -0.366846        -9.9824
  77   2.0000      -0.362870        -9.8742
  78   2.0000      -0.358848        -9.7647
  79   2.0000      -0.357498        -9.7280
  80   2.0000      -0.350810        -9.5460
  81   2.0000      -0.348793        -9.4911
  82   2.0000      -0.342850        -9.3294
  83   2.0000      -0.340931        -9.2772
  84   2.0000      -0.339392        -9.2353
  85   2.0000      -0.318974        -8.6797
  86   2.0000      -0.312237        -8.4964
  87   2.0000      -0.305862        -8.3229
  88   2.0000      -0.303597        -8.2613
  89   2.0000      -0.299496        -8.1497
  90   2.0000      -0.297035        -8.0827
  91   2.0000      -0.276734        -7.5303
  92   2.0000      -0.271544        -7.3891
  93   2.0000      -0.266396        -7.2490
  94   2.0000      -0.259464        -7.0604
  95   2.0000      -0.234427        -6.3791
  96   2.0000      -0.221304        -6.0220
  97   2.0000      -0.214536        -5.8378
  98   2.0000      -0.209863        -5.7107
  99   2.0000      -0.207522        -5.6470
 100   2.0000      -0.201046        -5.4707
 101   0.0000      -0.044480        -1.2104
 102   0.0000      -0.034299        -0.9333
 103   0.0000      -0.018119        -0.4930
 104   0.0000       0.002199         0.0598
 105   0.0000       0.012998         0.3537

MULLIKEN ATOMIC CHARGES
-----------------------
   0 C :   -0.292073
   1 C :   -0.018589
   2 O :   -0.356434
   3 P :    0.597676
   4 S :   -0.306884
   5 O :   -0.385437
   6 C :    0.001283
   7 C :   -0.323339
   8 S :   -0.097268
   9 C :   -0.359275
  10 S :   -0.105549
  11 P :    0.596741
  12 S :   -0.300635
  13 O :   -0.380455
  14 C :    0.007925
  15 C :   -0.344027
  16 O :   -0.355969
  17 C :   -0.019404
  18 C :   -0.285272
  19 H :    0.120595
  20 H :    0.108269
  21 H :    0.134606
  22 H :    0.108643
  23 H :    0.110867
  24 H :    0.105725
  25 H :    0.114218
  26 H :    0.132775
  27 H :    0.118710
  28 H :    0.116160
  29 H :    0.194800
  30 H :    0.195089
  31 H :    0.112905
  32 H :    0.103847
  33 H :    0.111491
  34 H :    0.122794
  35 H :    0.135554
  36 H :    0.107655
  37 H :    0.114345
  38 H :    0.125907
  39 H :    0.109763
  40 H :    0.122268
Sum of atomic charges:   -0.0000000

LOEWDIN ATOMIC CHARGES
----------------------
   0 C :   -0.355995
   1 C :   -0.115001
   2 O :   -0.236655
   3 P :    0.569262
   4 S :   -0.307449
   5 O :   -0.249288
   6 C :   -0.114752
   7 C :   -0.371742
   8 S :    0.088483
   9 C :   -0.491487
  10 S :    0.074693
  11 P :    0.569796
  12 S :   -0.292027
  13 O :   -0.251505
  14 C :   -0.114980
  15 C :   -0.373781
  16 O :   -0.239090
  17 C :   -0.111669
  18 C :   -0.358698
  19 H :    0.129859
  20 H :    0.128392
  21 H :    0.121752
  22 H :    0.116330
  23 H :    0.104398
  24 H :    0.119167
  25 H :    0.114483
  26 H :    0.123565
  27 H :    0.123530
  28 H :    0.132766
  29 H :    0.127273
  30 H :    0.126134
  31 H :    0.112376
  32 H :    0.118406
  33 H :    0.130828
  34 H :    0.123687
  35 H :    0.113563
  36 H :    0.107694
  37 H :    0.123096
  38 H :    0.124176
  39 H :    0.129802
  40 H :    0.130610

  Mayer bond orders larger than 0.100000
B(  0-C ,  1-C ) :   1.1699 B(  0-C , 19-H ) :   0.9461 B(  0-C , 20-H ) :   0.9389
B(  0-C , 21-H ) :   0.9339 B(  1-C ,  2-O ) :   0.8860 B(  1-C , 22-H ) :   0.9306
B(  1-C , 23-H ) :   0.9078 B(  2-O ,  3-P ) :   1.1429 B(  3-P ,  4-S ) :   1.6403
B(  3-P ,  5-O ) :   1.0911 B(  3-P ,  8-S ) :   0.9483 B(  4-S ,  8-S ) :   0.1069
B(  5-O ,  6-C ) :   0.9055 B(  6-C ,  7-C ) :   1.1656 B(  6-C , 24-H ) :   0.9344
B(  6-C , 25-H ) :   0.9203 B(  7-C , 26-H ) :   0.9343 B(  7-C , 27-H ) :   0.9434
B(  7-C , 28-H ) :   0.9367 B(  8-S ,  9-C ) :   1.0062 B(  9-C , 10-S ) :   1.0092
B(  9-C , 29-H ) :   0.8623 B(  9-C , 30-H ) :   0.8496 B( 10-S , 11-P ) :   0.9351
B( 10-S , 12-S ) :   0.1148 B( 11-P , 12-S ) :   1.6315 B( 11-P , 13-O ) :   1.0872
B( 11-P , 16-O ) :   1.1491 B( 12-S , 30-H ) :   0.1173 B( 13-O , 14-C ) :   0.9135
B( 14-C , 15-C ) :   1.1614 B( 14-C , 31-H ) :   0.9174 B( 14-C , 32-H ) :   0.9336
B( 15-C , 33-H ) :   0.9364 B( 15-C , 34-H ) :   0.9370 B( 15-C , 35-H ) :   0.9266
B( 16-O , 17-C ) :   0.8860 B( 17-C , 18-C ) :   1.1630 B( 17-C , 36-H ) :   0.9194
B( 17-C , 37-H ) :   0.9341 B( 18-C , 38-H ) :   0.9395 B( 18-C , 39-H ) :   0.9395
B( 18-C , 40-H ) :   0.9460

Dispersion correction           -0.063466802
FINAL SINGLE POINT ENERGY     -2929.520073652299

DIPOLE MOMENT
-------------

Method             : SCF
Type of density    : Electron Density
Multiplicity       :   1
Irrep              :   0
Energy             : -2929.6413478223598759 Eh
Relativity type    :
Basis              : AO
                                X                 Y                 Z
Electronic contribution:     -1.760653819      -5.992168974     -12.273538687
Nuclear contribution   :      2.027935539       7.044323077      13.778284677
                        -----------------------------------------
Total Dipole Moment    :      0.267281720       1.052154103       1.504745991
                        -----------------------------------------
Magnitude (a.u.)       :      1.855459046
Magnitude (Debye)      :      4.716202092

Rotational constants in cm-1:             0.012042             0.004418             0.004337
Rotational constants in MHz :           360.995635           132.459550           130.014692

                             ****ORCA TERMINATED NORMALLY****
TOTAL RUN TIME: 0 days 0 hours 0 minutes 21 seconds 151 msec
