                         Program Version 6.0.0  -   RELEASE  -
|  1> ! pbe def2-sv(p) def2/J RI DEFGRID1 loosescf d4 GCP(DFT/SV(P)) printgap
|  2> %output
|  3>     printlevel normal
|  4> end
|  5> * xyz 0 1
|  6> C 1.2149360016 -1.4569227851 3.1929024334
|  7> C 2.0588943385 -0.2461614802 2.8490734889
|  8> O 1.660893177 0.3009557231 1.5670918185
|  9> P 2.440384949 -0.0397682882 0.2316399206
| 10> S 3.13629835 -1.8688045008 0.0557947287
| 11> O 3.5634403648 1.0867234065 0.2357934367
| 12> C 4.7261491146 1.0184474743 -0.6074530289
| 13> C 4.3777566382 1.2018621553 -2.0704456967
| 14> S 1.017459144 0.5920775385 -1.1914716837
| 15> C 0.0747555257 -0.9596496804 -1.208563367
| 16> S -1.0591310163 -1.1051804658 0.1832197537
| 17> P -2.465039948 0.3463982934 -0.5149425728
| 18> S -2.6725888364 0.3760791124 -2.463956527
| 19> O -2.0233512938 1.7817722173 -0.0335752547
| 20> C -2.1880675973 2.3413839248 1.2917292029
| 21> C -1.4539363336 1.555007132 2.3570474544
| 22> O -3.7486473831 0.0857466036 0.3823774031
| 23> C -4.3575665568 -1.1999974816 0.607306737
| 24> C -4.7448995031 -1.8993611946 -0.6782871843
| 25> H 0.1601510226 -1.2003484969 3.1642624771
| 26> H 1.3959933653 -2.2561822417 2.4774960496
| 27> H 1.4778004177 -1.8042195489 4.186737939
| 28> H 3.120534287 -0.5047627175 2.8152871208
| 29> H 1.9021100663 0.5680612834 3.5580015094
| 30> H 5.3646606722 1.8229788619 -0.2402813878
| 31> H 5.2136491299 0.0513131016 -0.4468754669
| 32> H 5.2907521929 1.2575469602 -2.6545221317
| 33> H 3.78501127 0.3577357004 -2.421447451
| 34> H 3.802098358 2.1134975155 -2.2109582554
| 35> H 0.7646046712 -1.8028307059 -1.1564402873
| 36> H -0.4977394373 -0.9660601509 -2.1373813697
| 37> H -1.7815249786 3.3485266013 1.1854204267
| 38> H -3.2570744882 2.391979892 1.5071097366
| 39> H -1.8975077477 0.5678295417 2.4723248518
| 40> H -0.4064865378 1.4421066253 2.087446988
| 41> H -1.5247494098 2.0871412291 3.300687799
| 42> H -3.658909964 -1.8127395627 1.1836426798
| 43> H -5.2344096422 -0.9641296419 1.2130157264
| 44> H -5.38095075 -1.2577815574 -1.2834505887
| 45> H -3.8552793455 -2.1427229764 -1.2572086601
| 46> H -5.27643587 -2.8159792424 -0.4438914635
| 47> *
| 48>
| 49>                          ****END OF INPUT****

CARTESIAN COORDINATES (ANGSTROEM)
---------------------------------
  C      1.214936   -1.456923    3.192902
  C      2.058894   -0.246161    2.849073
  O      1.660893    0.300956    1.567092
  P      2.440385   -0.039768    0.231640
  S      3.136298   -1.868805    0.055795
  O      3.563440    1.086723    0.235793
  C      4.726149    1.018447   -0.607453
  C      4.377757    1.201862   -2.070446
  S      1.017459    0.592078   -1.191472
  C      0.074756   -0.959650   -1.208563
  S     -1.059131   -1.105180    0.183220
  P     -2.465040    0.346398   -0.514943
  S     -2.672589    0.376079   -2.463957
  O     -2.023351    1.781772   -0.033575
  C     -2.188068    2.341384    1.291729
  C     -1.453936    1.555007    2.357047
  O     -3.748647    0.085747    0.382377
  C     -4.357567   -1.199997    0.607307
  C     -4.744900   -1.899361   -0.678287
  H      0.160151   -1.200348    3.164262
  H      1.395993   -2.256182    2.477496
  H      1.477800   -1.804220    4.186738
  H      3.120534   -0.504763    2.815287
  H      1.902110    0.568061    3.558002
  H      5.364661    1.822979   -0.240281
  H      5.213649    0.051313   -0.446875
  H      5.290752    1.257547   -2.654522
  H      3.785011    0.357736   -2.421447
  H      3.802098    2.113498   -2.210958
  H      0.764605   -1.802831   -1.156440
  H     -0.497739   -0.966060   -2.137381
  H     -1.781525    3.348527    1.185420
  H     -3.257074    2.391980    1.507110
  H     -1.897508    0.567830    2.472325
  H     -0.406487    1.442107    2.087447
  H     -1.524749    2.087141    3.300688
  H     -3.658910   -1.812740    1.183643
  H     -5.234410   -0.964130    1.213016
  H     -5.380951   -1.257782   -1.283451
  H     -3.855279   -2.142723   -1.257209
  H     -5.276436   -2.815979   -0.443891

 Total Charge           Charge          ....    0
 Multiplicity           Mult            ....    1
 Number of Electrons    NEL             ....  202
 Basis Dimension        Dim             ....  334

ORBITAL ENERGIES
----------------

  NO   OCC          E(Eh)            E(eV)
   0   2.0000     -88.042438     -2395.7565
   1   2.0000     -88.042211     -2395.7504
   2   2.0000     -87.991588     -2394.3728
   3   2.0000     -87.980717     -2394.0770
   4   2.0000     -76.428514     -2079.7256
   5   2.0000     -76.426913     -2079.6820
   6   2.0000     -18.799946      -511.5725
   7   2.0000     -18.795451      -511.4502
   8   2.0000     -18.793273      -511.3910
   9   2.0000     -18.787428      -511.2319
  10   2.0000      -9.962233      -271.0861
  11   2.0000      -9.956545      -270.9314
  12   2.0000      -9.953974      -270.8614
  13   2.0000      -9.953328      -270.8438
  14   2.0000      -9.950387      -270.7638
  15   2.0000      -9.884893      -268.9816
  16   2.0000      -9.884491      -268.9707
  17   2.0000      -9.884217      -268.9632
  18   2.0000      -9.882873      -268.9266
  19   2.0000      -7.687653      -209.1917
  20   2.0000      -7.686986      -209.1735
  21   2.0000      -7.636474      -207.7990
  22   2.0000      -7.626032      -207.5149
  23   2.0000      -6.426370      -174.8704
  24   2.0000      -6.423882      -174.8027
  25   2.0000      -5.715468      -155.5258
  26   2.0000      -5.714640      -155.5033
  27   2.0000      -5.712368      -155.4414
  28   2.0000      -5.711567      -155.4196
  29   2.0000      -5.704435      -155.2256
  30   2.0000      -5.704152      -155.2179
  31   2.0000      -5.665221      -154.1585
  32   2.0000      -5.657235      -153.9412
  33   2.0000      -5.656684      -153.9262
  34   2.0000      -5.655093      -153.8829
  35   2.0000      -5.646614      -153.6522
  36   2.0000      -5.646038      -153.6365
  37   2.0000      -4.648906      -126.5032
  38   2.0000      -4.648042      -126.4797
  39   2.0000      -4.647002      -126.4514
  40   2.0000      -4.646889      -126.4483
  41   2.0000      -4.645696      -126.4158
  42   2.0000      -4.643874      -126.3662
  43   2.0000      -0.989941       -26.9377
  44   2.0000      -0.989363       -26.9219
  45   2.0000      -0.947874       -25.7930
  46   2.0000      -0.944311       -25.6960
  47   2.0000      -0.765033       -20.8176
  48   2.0000      -0.722712       -19.6660
  49   2.0000      -0.711134       -19.3509
  50   2.0000      -0.692572       -18.8459
  51   2.0000      -0.687443       -18.7063
  52   2.0000      -0.677810       -18.4442
  53   2.0000      -0.651850       -17.7377
  54   2.0000      -0.637639       -17.3510
  55   2.0000      -0.600011       -16.3271
  56   2.0000      -0.591012       -16.0823
  57   2.0000      -0.582337       -15.8462
  58   2.0000      -0.575767       -15.6674
  59   2.0000      -0.558074       -15.1860
  60   2.0000      -0.503149       -13.6914
  61   2.0000      -0.498632       -13.5685
  62   2.0000      -0.472941       -12.8694
  63   2.0000      -0.470633       -12.8066
  64   2.0000      -0.462861       -12.5951
  65   2.0000      -0.447307       -12.1718
  66   2.0000      -0.441989       -12.0271
  67   2.0000      -0.433799       -11.8043
  68   2.0000      -0.433305       -11.7908
  69   2.0000      -0.418515       -11.3884
  70   2.0000      -0.411737       -11.2039
  71   2.0000      -0.408352       -11.1118
  72   2.0000      -0.397090       -10.8054
  73   2.0000      -0.388491       -10.5714
  74   2.0000      -0.381132       -10.3711
  75   2.0000      -0.374296       -10.1851
  76   2.0000      -0.361569        -9.8388
  77   2.0000      -0.355585        -9.6760
  78   2.0000      -0.354222        -9.6389
  79   2.0000      -0.351023        -9.5518
  80   2.0000      -0.349068        -9.4986
  81   2.0000      -0.345670        -9.4062
  82   2.0000      -0.342415        -9.3176
  83   2.0000      -0.339715        -9.2441
  84   2.0000      -0.335123        -9.1192
  85   2.0000      -0.326350        -8.8804
  86   2.0000      -0.310099        -8.4382
  87   2.0000      -0.299931        -8.1615
  88   2.0000      -0.298101        -8.1117
  89   2.0000      -0.292378        -7.9560
  90   2.0000      -0.287264        -7.8169
  91   2.0000      -0.281323        -7.6552
  92   2.0000      -0.276867        -7.5339
  93   2.0000      -0.266117        -7.2414
  94   2.0000      -0.255856        -6.9622
  95   2.0000      -0.234211        -6.3732
  96   2.0000      -0.220342        -5.9958
  97   2.0000      -0.212770        -5.7898
  98   2.0000      -0.204159        -5.5554
  99   2.0000      -0.199690        -5.4338
 100   2.0000      -0.194393        -5.2897
 101   0.0000      -0.045349        -1.2340
 102   0.0000      -0.026690        -0.7263
 103   0.0000      -0.008007        -0.2179
 104   0.0000      -0.003269        -0.0889
 105   0.0000       0.014233         0.3873

MULLIKEN ATOMIC CHARGES
-----------------------
   0 C :   -0.297943
   1 C :    0.000877
   2 O :   -0.361849
   3 P :    0.604970
   4 S :   -0.337778
   5 O :   -0.372082
   6 C :   -0.004745
   7 C :   -0.318070
   8 S :   -0.049447
   9 C :   -0.378853
  10 S :   -0.106011
  11 P :    0.611821
  12 S :   -0.312812
  13 O :   -0.353416
  14 C :    0.016973
  15 C :   -0.364661
  16 O :   -0.385871
  17 C :   -0.011580
  18 C :   -0.306691
  19 H :    0.122608
  20 H :    0.123801
  21 H :    0.107123
  22 H :    0.106251
  23 H :    0.106889
  24 H :    0.105636
  25 H :    0.111654
  26 H :    0.114323
  27 H :    0.128721
  28 H :    0.120441
  29 H :    0.189519
  30 H :    0.199133
  31 H :    0.109400
  32 H :    0.106653
  33 H :    0.119595
  34 H :    0.159946
  35 H :    0.108248
  36 H :    0.112776
  37 H :    0.108645
  38 H :    0.127206
  39 H :    0.126931
  40 H :    0.111667
Sum of atomic charges:    0.0000000

LOEWDIN ATOMIC CHARGES
----------------------
   0 C :   -0.363014
   1 C :   -0.111640
   2 O :   -0.238999
   3 P :    0.573251
   4 S :   -0.324275
   5 O :   -0.245473
   6 C :   -0.119831
   7 C :   -0.369026
   8 S :    0.106382
   9 C :   -0.491381
  10 S :    0.074539
  11 P :    0.571098
  12 S :   -0.307068
  13 O :   -0.233973
  14 C :   -0.105893
  15 C :   -0.378057
  16 O :   -0.245274
  17 C :   -0.114503
  18 C :   -0.368302
  19 H :    0.123365
  20 H :    0.124092
  21 H :    0.128287
  22 H :    0.110783
  23 H :    0.117863
  24 H :    0.118889
  25 H :    0.110247
  26 H :    0.131798
  27 H :    0.122185
  28 H :    0.125893
  29 H :    0.126927
  30 H :    0.128368
  31 H :    0.122940
  32 H :    0.113143
  33 H :    0.114324
  34 H :    0.131564
  35 H :    0.128691
  36 H :    0.107434
  37 H :    0.120831
  38 H :    0.131064
  39 H :    0.122290
  40 H :    0.130461

  Mayer bond orders larger than 0.100000
B(  0-C ,  1-C ) :   1.1735 B(  0-C , 19-H ) :   0.9429 B(  0-C , 20-H ) :   0.9351
B(  0-C , 21-H ) :   0.9388 B(  1-C ,  2-O ) :   0.8773 B(  1-C , 22-H ) :   0.9147
B(  1-C , 23-H ) :   0.9330 B(  2-O ,  3-P ) :   1.1241 B(  3-P ,  4-S ) :   1.5774
B(  3-P ,  5-O ) :   1.1162 B(  3-P ,  8-S ) :   0.9761 B(  4-S ,  8-S ) :   0.1097
B(  5-O ,  6-C ) :   0.9077 B(  6-C ,  7-C ) :   1.1644 B(  6-C , 24-H ) :   0.9335
B(  6-C , 25-H ) :   0.9152 B(  7-C , 26-H ) :   0.9381 B(  7-C , 27-H ) :   0.9352
B(  7-C , 28-H ) :   0.9451 B(  8-S ,  9-C ) :   1.0044 B(  9-C , 10-S ) :   1.0118
B(  9-C , 29-H ) :   0.8668 B(  9-C , 30-H ) :   0.8624 B( 10-S , 11-P ) :   0.9322
B( 10-S , 12-S ) :   0.1132 B( 11-P , 12-S ) :   1.6412 B( 11-P , 13-O ) :   1.1410
B( 11-P , 16-O ) :   1.0783 B( 13-O , 14-C ) :   0.9006 B( 14-C , 15-C ) :   1.1687
B( 14-C , 31-H ) :   0.9338 B( 14-C , 32-H ) :   0.9298 B( 15-C , 33-H ) :   0.9381
B( 15-C , 34-H ) :   0.9186 B( 15-C , 35-H ) :   0.9343 B( 16-O , 17-C ) :   0.9089
B( 17-C , 18-C ) :   1.1686 B( 17-C , 36-H ) :   0.9250 B( 17-C , 37-H ) :   0.9333
B( 18-C , 38-H ) :   0.9434 B( 18-C , 39-H ) :   0.9318 B( 18-C , 40-H ) :   0.9349

Dispersion correction           -0.066113433
FINAL SINGLE POINT ENERGY     -2929.518724126663

DIPOLE MOMENT
-------------

Method             : SCF
Type of density    : Electron Density
Multiplicity       :   1
Irrep              :   0
Energy             : -2929.6383299641288431 Eh
Relativity type    :
Basis              : AO
                                X                 Y                 Z
Electronic contribution:      0.478078077       1.797431365     -12.656123179
Nuclear contribution   :     -0.461476425      -1.592822256      14.361694487
                        -----------------------------------------
Total Dipole Moment    :      0.016601652       0.204609109       1.705571308
                        -----------------------------------------
Magnitude (a.u.)       :      1.717880668
Magnitude (Debye)      :      4.366505647

Rotational constants in cm-1:             0.012813             0.004865             0.004500
Rotational constants in MHz :           384.115550           145.850555           134.917638

                             ****ORCA TERMINATED NORMALLY****
TOTAL RUN TIME: 0 days 0 hours 0 minutes 21 seconds 248 msec
