                         Program Version 6.0.0  -   RELEASE  -
|  1> ! r2scan-3c def2/J RI DEFGRID2 scfconv6 printgap
|  2> %output
|  3>     printlevel normal
|  4> end
|  5> * xyz 0 1
|  6> C 5.2750229303 -2.5388346051 -1.333433016
|  7> C 4.2464039974 -1.4519188161 -1.5717119569
|  8> O 3.2768585152 -1.51978042 -0.5068731895
|  9> P 2.3148732506 -0.3033225893 -0.1618474817
| 10> S 3.2226738306 1.4339281642 -0.0276792084
| 11> O 1.6036792966 -0.8437532969 1.1427492914
| 12> C 2.1184758357 -0.5847636678 2.4723704481
| 13> C 1.2382018512 0.4242608094 3.1818209624
| 14> S 0.7696332373 -0.4670184785 -1.5876382939
| 15> C 0.1076632667 1.2087240743 -1.3618970624
| 16> S -0.6827634572 1.439342831 0.2427557286
| 17> P -2.57233279 0.5224730353 -0.2013232977
| 18> S -2.9672687269 0.2416309715 -2.0951088544
| 19> O -3.6353837333 1.488575472 0.4362064869
| 20> C -3.5851626911 1.9555168765 1.8083380738
| 21> C -4.4730400456 1.1111828425 2.6992595857
| 22> O -2.6453282196 -0.7284938616 0.7842077393
| 23> C -1.7466133628 -1.849633418 0.7947998344
| 24> C -1.9366563357 -2.7584245704 -0.4027921625
| 25> H 6.0028327629 -2.5226389587 -2.1379677998
| 26> H 5.7822771352 -2.3734765839 -0.3871906712
| 27> H 4.7876802508 -3.5090731838 -1.3073181248
| 28> H 3.7222509945 -1.598628633 -2.5197815253
| 29> H 4.7035319334 -0.4564948892 -1.5647558219
| 30> H 2.1088928379 -1.5534703789 2.9739051865
| 31> H 3.1459877415 -0.2190790555 2.3953650352
| 32> H 0.2110050781 0.0719763899 3.211853146
| 33> H 1.6012949226 0.5644742853 4.1947360939
| 34> H 1.2640268482 1.3772614572 2.6572875314
| 35> H -0.6232627374 1.3622907781 -2.1562798454
| 36> H 0.9244444774 1.9279605873 -1.4164332336
| 37> H -2.5460471662 1.9429799247 2.1487837108
| 38> H -3.9399973543 2.9862806215 1.7562529482
| 39> H -5.4916185733 1.1192371105 2.3213150826
| 40> H -4.1189488406 0.0844869638 2.7241064541
| 41> H -4.4598703662 1.5215813063 3.704118065
| 42> H -0.7167375594 -1.4834879973 0.8450039054
| 43> H -1.9930837763 -2.3682267698 1.723639939
| 44> H -1.6562293013 -2.2462166021 -1.3212929109
| 45> H -1.3089114809 -3.6361791876 -0.2868709166
| 46> H -2.9765882103 -3.0649551672 -0.4808468827
| 47> *
| 48>
| 49>                          ****END OF INPUT****

CARTESIAN COORDINATES (ANGSTROEM)
---------------------------------
  C      5.275023   -2.538835   -1.333433
  C      4.246404   -1.451919   -1.571712
  O      3.276859   -1.519780   -0.506873
  P      2.314873   -0.303323   -0.161847
  S      3.222674    1.433928   -0.027679
  O      1.603679   -0.843753    1.142749
  C      2.118476   -0.584764    2.472370
  C      1.238202    0.424261    3.181821
  S      0.769633   -0.467018   -1.587638
  C      0.107663    1.208724   -1.361897
  S     -0.682763    1.439343    0.242756
  P     -2.572333    0.522473   -0.201323
  S     -2.967269    0.241631   -2.095109
  O     -3.635384    1.488575    0.436206
  C     -3.585163    1.955517    1.808338
  C     -4.473040    1.111183    2.699260
  O     -2.645328   -0.728494    0.784208
  C     -1.746613   -1.849633    0.794800
  C     -1.936656   -2.758425   -0.402792
  H      6.002833   -2.522639   -2.137968
  H      5.782277   -2.373477   -0.387191
  H      4.787680   -3.509073   -1.307318
  H      3.722251   -1.598629   -2.519782
  H      4.703532   -0.456495   -1.564756
  H      2.108893   -1.553470    2.973905
  H      3.145988   -0.219079    2.395365
  H      0.211005    0.071976    3.211853
  H      1.601295    0.564474    4.194736
  H      1.264027    1.377261    2.657288
  H     -0.623263    1.362291   -2.156280
  H      0.924444    1.927961   -1.416433
  H     -2.546047    1.942980    2.148784
  H     -3.939997    2.986281    1.756253
  H     -5.491619    1.119237    2.321315
  H     -4.118949    0.084487    2.724106
  H     -4.459870    1.521581    3.704118
  H     -0.716738   -1.483488    0.845004
  H     -1.993084   -2.368227    1.723640
  H     -1.656229   -2.246217   -1.321293
  H     -1.308911   -3.636179   -0.286871
  H     -2.976588   -3.064955   -0.480847

 Total Charge           Charge          ....    0
 Multiplicity           Mult            ....    1
 Number of Electrons    NEL             ....  202
 Basis Dimension        Dim             ....  539

ORBITAL ENERGIES
----------------

  NO   OCC          E(Eh)            E(eV)
   0   2.0000     -88.579739     -2410.3772
   1   2.0000     -88.574454     -2410.2334
   2   2.0000     -88.525155     -2408.8919
   3   2.0000     -88.519441     -2408.7365
   4   2.0000     -76.918173     -2093.0499
   5   2.0000     -76.914353     -2092.9460
   6   2.0000     -18.996169      -516.9120
   7   2.0000     -18.996046      -516.9087
   8   2.0000     -18.991496      -516.7849
   9   2.0000     -18.991278      -516.7790
  10   2.0000     -10.106901      -275.0228
  11   2.0000     -10.105160      -274.9754
  12   2.0000     -10.104268      -274.9511
  13   2.0000     -10.101315      -274.8707
  14   2.0000     -10.095123      -274.7023
  15   2.0000     -10.035849      -273.0893
  16   2.0000     -10.033764      -273.0326
  17   2.0000     -10.032637      -273.0019
  18   2.0000     -10.020141      -272.6619
  19   2.0000      -7.873943      -214.2609
  20   2.0000      -7.868807      -214.1211
  21   2.0000      -7.819899      -212.7903
  22   2.0000      -7.814269      -212.6371
  23   2.0000      -6.596801      -179.5081
  24   2.0000      -6.592547      -179.3923
  25   2.0000      -5.820767      -158.3911
  26   2.0000      -5.817805      -158.3105
  27   2.0000      -5.815683      -158.2528
  28   2.0000      -5.812613      -158.1692
  29   2.0000      -5.811135      -158.1290
  30   2.0000      -5.805953      -157.9880
  31   2.0000      -5.767502      -156.9417
  32   2.0000      -5.762104      -156.7948
  33   2.0000      -5.760227      -156.7438
  34   2.0000      -5.759905      -156.7350
  35   2.0000      -5.754551      -156.5893
  36   2.0000      -5.754074      -156.5763
  37   2.0000      -4.742235      -129.0428
  38   2.0000      -4.741751      -129.0296
  39   2.0000      -4.740540      -128.9967
  40   2.0000      -4.738239      -128.9340
  41   2.0000      -4.737638      -128.9177
  42   2.0000      -4.735999      -128.8731
  43   2.0000      -1.054615       -28.6975
  44   2.0000      -1.050896       -28.5963
  45   2.0000      -1.015019       -27.6201
  46   2.0000      -1.009468       -27.4690
  47   2.0000      -0.803099       -21.8534
  48   2.0000      -0.763208       -20.7679
  49   2.0000      -0.754307       -20.5257
  50   2.0000      -0.736676       -20.0460
  51   2.0000      -0.732133       -19.9223
  52   2.0000      -0.711096       -19.3499
  53   2.0000      -0.685967       -18.6661
  54   2.0000      -0.672163       -18.2905
  55   2.0000      -0.630821       -17.1655
  56   2.0000      -0.619515       -16.8579
  57   2.0000      -0.609150       -16.5758
  58   2.0000      -0.607407       -16.5284
  59   2.0000      -0.595094       -16.1933
  60   2.0000      -0.539177       -14.6718
  61   2.0000      -0.525288       -14.2938
  62   2.0000      -0.501809       -13.6549
  63   2.0000      -0.494982       -13.4692
  64   2.0000      -0.477492       -12.9932
  65   2.0000      -0.466947       -12.7063
  66   2.0000      -0.462159       -12.5760
  67   2.0000      -0.456806       -12.4303
  68   2.0000      -0.447384       -12.1739
  69   2.0000      -0.435624       -11.8539
  70   2.0000      -0.421916       -11.4809
  71   2.0000      -0.418746       -11.3946
  72   2.0000      -0.405928       -11.0459
  73   2.0000      -0.404864       -11.0169
  74   2.0000      -0.401777       -10.9329
  75   2.0000      -0.393868       -10.7177
  76   2.0000      -0.381465       -10.3802
  77   2.0000      -0.373249       -10.1566
  78   2.0000      -0.372768       -10.1435
  79   2.0000      -0.370294       -10.0762
  80   2.0000      -0.367301        -9.9948
  81   2.0000      -0.361271        -9.8307
  82   2.0000      -0.355962        -9.6862
  83   2.0000      -0.355185        -9.6651
  84   2.0000      -0.348181        -9.4745
  85   2.0000      -0.337209        -9.1759
  86   2.0000      -0.326520        -8.8851
  87   2.0000      -0.319463        -8.6930
  88   2.0000      -0.313817        -8.5394
  89   2.0000      -0.305000        -8.2995
  90   2.0000      -0.302808        -8.2398
  91   2.0000      -0.297345        -8.0912
  92   2.0000      -0.292473        -7.9586
  93   2.0000      -0.280981        -7.6459
  94   2.0000      -0.273506        -7.4425
  95   2.0000      -0.250282        -6.8105
  96   2.0000      -0.231535        -6.3004
  97   2.0000      -0.227840        -6.1998
  98   2.0000      -0.219506        -5.9731
  99   2.0000      -0.216964        -5.9039
 100   2.0000      -0.213174        -5.8008
 101   0.0000      -0.050107        -1.3635
 102   0.0000      -0.030784        -0.8377
 103   0.0000      -0.004978        -0.1355
 104   0.0000      -0.002645        -0.0720
 105   0.0000       0.010137         0.2759

MULLIKEN ATOMIC CHARGES
-----------------------
   0 C :   -0.441023
   1 C :   -0.152392
   2 O :   -0.283436
   3 P :    0.676195
   4 S :   -0.479819
   5 O :   -0.270513
   6 C :   -0.121175
   7 C :   -0.464859
   8 S :   -0.138330
   9 C :   -0.247267
  10 S :   -0.164232
  11 P :    0.657606
  12 S :   -0.432876
  13 O :   -0.285891
  14 C :   -0.109051
  15 C :   -0.451847
  16 O :   -0.256685
  17 C :   -0.184150
  18 C :   -0.420622
  19 H :    0.147712
  20 H :    0.155428
  21 H :    0.153866
  22 H :    0.152205
  23 H :    0.170355
  24 H :    0.150360
  25 H :    0.162956
  26 H :    0.151727
  27 H :    0.145394
  28 H :    0.178846
  29 H :    0.217474
  30 H :    0.220037
  31 H :    0.140782
  32 H :    0.157859
  33 H :    0.158312
  34 H :    0.165839
  35 H :    0.146177
  36 H :    0.181436
  37 H :    0.144305
  38 H :    0.174767
  39 H :    0.143238
  40 H :    0.151289
Sum of atomic charges:    0.0000000

LOEWDIN ATOMIC CHARGES
----------------------
   0 C :   -0.385416
   1 C :    0.021069
   2 O :   -0.663671
   3 P :    0.370688
   4 S :   -0.134477
   5 O :   -0.686016
   6 C :    0.025443
   7 C :   -0.401548
   8 S :    0.164087
   9 C :   -0.425368
  10 S :    0.135859
  11 P :    0.392787
  12 S :   -0.093647
  13 O :   -0.650058
  14 C :    0.027049
  15 C :   -0.392575
  16 O :   -0.672998
  17 C :    0.016643
  18 C :   -0.409073
  19 H :    0.160506
  20 H :    0.160350
  21 H :    0.159923
  22 H :    0.172229
  23 H :    0.180757
  24 H :    0.176969
  25 H :    0.179881
  26 H :    0.157580
  27 H :    0.158213
  28 H :    0.167467
  29 H :    0.194961
  30 H :    0.192198
  31 H :    0.172892
  32 H :    0.182408
  33 H :    0.162784
  34 H :    0.166649
  35 H :    0.158304
  36 H :    0.192752
  37 H :    0.177375
  38 H :    0.167665
  39 H :    0.158911
  40 H :    0.160450

  Mayer bond orders larger than 0.100000
B(  0-C ,  1-C ) :   0.9574 B(  0-C , 19-H ) :   0.9641 B(  0-C , 20-H ) :   0.9723
B(  0-C , 21-H ) :   0.9714 B(  1-C ,  2-O ) :   0.7783 B(  1-C , 22-H ) :   0.9442
B(  1-C , 23-H ) :   0.9510 B(  2-O ,  3-P ) :   1.0942 B(  3-P ,  4-S ) :   1.7501
B(  3-P ,  5-O ) :   1.1618 B(  3-P ,  8-S ) :   1.0747 B(  5-O ,  6-C ) :   0.7536
B(  6-C ,  7-C ) :   0.9528 B(  6-C , 24-H ) :   0.9591 B(  6-C , 25-H ) :   0.9621
B(  7-C , 26-H ) :   0.9692 B(  7-C , 27-H ) :   0.9631 B(  7-C , 28-H ) :   0.9637
B(  8-S ,  9-C ) :   0.9061 B(  9-C , 10-S ) :   0.9169 B(  9-C , 29-H ) :   0.9013
B(  9-C , 30-H ) :   0.9085 B( 10-S , 11-P ) :   0.9789 B( 11-P , 12-S ) :   1.8367
B( 11-P , 13-O ) :   1.1863 B( 11-P , 16-O ) :   1.0410 B( 13-O , 14-C ) :   0.7547
B( 14-C , 15-C ) :   0.9514 B( 14-C , 31-H ) :   0.9641 B( 14-C , 32-H ) :   0.9622
B( 15-C , 33-H ) :   0.9691 B( 15-C , 34-H ) :   0.9655 B( 15-C , 35-H ) :   0.9662
B( 16-O , 17-C ) :   0.7955 B( 17-C , 18-C ) :   0.9338 B( 17-C , 36-H ) :   0.9470
B( 17-C , 37-H ) :   0.9657 B( 18-C , 38-H ) :   0.9506 B( 18-C , 39-H ) :   0.9646
B( 18-C , 40-H ) :   0.9694

Dispersion correction           -0.021364723
FINAL SINGLE POINT ENERGY     -2932.462654601398

DIPOLE MOMENT
-------------

Method             : SCF
Type of density    : Electron Density
Multiplicity       :   1
Irrep              :   0
Energy             : -2932.4878675731210933 Eh
Relativity type    :
Basis              : AO
                                X                 Y                 Z
Electronic contribution:     -3.639272567      10.773891329     -14.910026605
Nuclear contribution   :      4.348864591     -11.623129940      16.474116791
                        -----------------------------------------
Total Dipole Moment    :      0.709592024      -0.849238610       1.564090186
                        -----------------------------------------
Magnitude (a.u.)       :      1.916012831
Magnitude (Debye)      :      4.870117582

Rotational constants in cm-1:             0.012955             0.004746             0.004387
Rotational constants in MHz :           388.393239           142.276224           131.527256

                             ****ORCA TERMINATED NORMALLY****
TOTAL RUN TIME: 0 days 0 hours 1 minutes 19 seconds 971 msec
