                         Program Version 6.0.0  -   RELEASE  -
|  1> ! r2scan-3c def2/J RI DEFGRID2 scfconv6 printgap
|  2> %output
|  3>     printlevel normal
|  4> end
|  5> %cpcm
|  6>     smd true
|  7>     smdsolvent "water"
|  8> end
|  9> * xyz 0 1
| 10> C 5.2750229303 -2.5388346051 -1.333433016
| 11> C 4.2464039974 -1.4519188161 -1.5717119569
| 12> O 3.2768585152 -1.51978042 -0.5068731895
| 13> P 2.3148732506 -0.3033225893 -0.1618474817
| 14> S 3.2226738306 1.4339281642 -0.0276792084
| 15> O 1.6036792966 -0.8437532969 1.1427492914
| 16> C 2.1184758357 -0.5847636678 2.4723704481
| 17> C 1.2382018512 0.4242608094 3.1818209624
| 18> S 0.7696332373 -0.4670184785 -1.5876382939
| 19> C 0.1076632667 1.2087240743 -1.3618970624
| 20> S -0.6827634572 1.439342831 0.2427557286
| 21> P -2.57233279 0.5224730353 -0.2013232977
| 22> S -2.9672687269 0.2416309715 -2.0951088544
| 23> O -3.6353837333 1.488575472 0.4362064869
| 24> C -3.5851626911 1.9555168765 1.8083380738
| 25> C -4.4730400456 1.1111828425 2.6992595857
| 26> O -2.6453282196 -0.7284938616 0.7842077393
| 27> C -1.7466133628 -1.849633418 0.7947998344
| 28> C -1.9366563357 -2.7584245704 -0.4027921625
| 29> H 6.0028327629 -2.5226389587 -2.1379677998
| 30> H 5.7822771352 -2.3734765839 -0.3871906712
| 31> H 4.7876802508 -3.5090731838 -1.3073181248
| 32> H 3.7222509945 -1.598628633 -2.5197815253
| 33> H 4.7035319334 -0.4564948892 -1.5647558219
| 34> H 2.1088928379 -1.5534703789 2.9739051865
| 35> H 3.1459877415 -0.2190790555 2.3953650352
| 36> H 0.2110050781 0.0719763899 3.211853146
| 37> H 1.6012949226 0.5644742853 4.1947360939
| 38> H 1.2640268482 1.3772614572 2.6572875314
| 39> H -0.6232627374 1.3622907781 -2.1562798454
| 40> H 0.9244444774 1.9279605873 -1.4164332336
| 41> H -2.5460471662 1.9429799247 2.1487837108
| 42> H -3.9399973543 2.9862806215 1.7562529482
| 43> H -5.4916185733 1.1192371105 2.3213150826
| 44> H -4.1189488406 0.0844869638 2.7241064541
| 45> H -4.4598703662 1.5215813063 3.704118065
| 46> H -0.7167375594 -1.4834879973 0.8450039054
| 47> H -1.9930837763 -2.3682267698 1.723639939
| 48> H -1.6562293013 -2.2462166021 -1.3212929109
| 49> H -1.3089114809 -3.6361791876 -0.2868709166
| 50> H -2.9765882103 -3.0649551672 -0.4808468827
| 51> *
| 52>
| 53>                          ****END OF INPUT****

CARTESIAN COORDINATES (ANGSTROEM)
---------------------------------
  C      5.275023   -2.538835   -1.333433
  C      4.246404   -1.451919   -1.571712
  O      3.276859   -1.519780   -0.506873
  P      2.314873   -0.303323   -0.161847
  S      3.222674    1.433928   -0.027679
  O      1.603679   -0.843753    1.142749
  C      2.118476   -0.584764    2.472370
  C      1.238202    0.424261    3.181821
  S      0.769633   -0.467018   -1.587638
  C      0.107663    1.208724   -1.361897
  S     -0.682763    1.439343    0.242756
  P     -2.572333    0.522473   -0.201323
  S     -2.967269    0.241631   -2.095109
  O     -3.635384    1.488575    0.436206
  C     -3.585163    1.955517    1.808338
  C     -4.473040    1.111183    2.699260
  O     -2.645328   -0.728494    0.784208
  C     -1.746613   -1.849633    0.794800
  C     -1.936656   -2.758425   -0.402792
  H      6.002833   -2.522639   -2.137968
  H      5.782277   -2.373477   -0.387191
  H      4.787680   -3.509073   -1.307318
  H      3.722251   -1.598629   -2.519782
  H      4.703532   -0.456495   -1.564756
  H      2.108893   -1.553470    2.973905
  H      3.145988   -0.219079    2.395365
  H      0.211005    0.071976    3.211853
  H      1.601295    0.564474    4.194736
  H      1.264027    1.377261    2.657288
  H     -0.623263    1.362291   -2.156280
  H      0.924444    1.927961   -1.416433
  H     -2.546047    1.942980    2.148784
  H     -3.939997    2.986281    1.756253
  H     -5.491619    1.119237    2.321315
  H     -4.118949    0.084487    2.724106
  H     -4.459870    1.521581    3.704118
  H     -0.716738   -1.483488    0.845004
  H     -1.993084   -2.368227    1.723640
  H     -1.656229   -2.246217   -1.321293
  H     -1.308911   -3.636179   -0.286871
  H     -2.976588   -3.064955   -0.480847

 Total Charge           Charge          ....    0
 Multiplicity           Mult            ....    1
 Number of Electrons    NEL             ....  202
 Basis Dimension        Dim             ....  539

ORBITAL ENERGIES
----------------

  NO   OCC          E(Eh)            E(eV)
   0   2.0000     -88.581983     -2410.4383
   1   2.0000     -88.578408     -2410.3410
   2   2.0000     -88.531327     -2409.0599
   3   2.0000     -88.529391     -2409.0072
   4   2.0000     -76.921722     -2093.1465
   5   2.0000     -76.920055     -2093.1011
   6   2.0000     -18.996151      -516.9115
   7   2.0000     -18.995734      -516.9002
   8   2.0000     -18.994575      -516.8687
   9   2.0000     -18.993613      -516.8425
  10   2.0000     -10.104578      -274.9595
  11   2.0000     -10.095356      -274.7086
  12   2.0000     -10.090870      -274.5865
  13   2.0000     -10.089926      -274.5608
  14   2.0000     -10.088483      -274.5216
  15   2.0000     -10.019616      -272.6476
  16   2.0000     -10.019220      -272.6368
  17   2.0000     -10.017358      -272.5862
  18   2.0000     -10.015478      -272.5350
  19   2.0000      -7.876265      -214.3241
  20   2.0000      -7.872688      -214.2267
  21   2.0000      -7.826525      -212.9706
  22   2.0000      -7.824416      -212.9132
  23   2.0000      -6.600001      -179.5952
  24   2.0000      -6.598692      -179.5595
  25   2.0000      -5.823066      -158.4537
  26   2.0000      -5.820124      -158.3736
  27   2.0000      -5.819581      -158.3589
  28   2.0000      -5.816492      -158.2748
  29   2.0000      -5.813473      -158.1926
  30   2.0000      -5.809828      -158.0935
  31   2.0000      -5.774225      -157.1247
  32   2.0000      -5.771959      -157.0630
  33   2.0000      -5.766807      -156.9228
  34   2.0000      -5.766391      -156.9115
  35   2.0000      -5.764743      -156.8666
  36   2.0000      -5.764431      -156.8581
  37   2.0000      -4.745660      -129.1360
  38   2.0000      -4.745013      -129.1184
  39   2.0000      -4.744060      -129.0924
  40   2.0000      -4.743637      -129.0809
  41   2.0000      -4.743596      -129.0798
  42   2.0000      -4.742539      -129.0511
  43   2.0000      -1.054618       -28.6976
  44   2.0000      -1.052896       -28.6508
  45   2.0000      -1.012571       -27.5535
  46   2.0000      -1.012277       -27.5455
  47   2.0000      -0.804934       -21.9034
  48   2.0000      -0.758547       -20.6411
  49   2.0000      -0.747191       -20.3321
  50   2.0000      -0.725649       -19.7459
  51   2.0000      -0.723581       -19.6896
  52   2.0000      -0.709628       -19.3100
  53   2.0000      -0.689091       -18.7511
  54   2.0000      -0.676861       -18.4183
  55   2.0000      -0.626099       -17.0370
  56   2.0000      -0.618096       -16.8193
  57   2.0000      -0.602438       -16.3932
  58   2.0000      -0.597916       -16.2701
  59   2.0000      -0.591076       -16.0840
  60   2.0000      -0.533233       -14.5100
  61   2.0000      -0.521677       -14.1955
  62   2.0000      -0.494746       -13.4627
  63   2.0000      -0.491978       -13.3874
  64   2.0000      -0.476950       -12.9785
  65   2.0000      -0.462402       -12.5826
  66   2.0000      -0.455936       -12.4066
  67   2.0000      -0.446082       -12.1385
  68   2.0000      -0.443217       -12.0606
  69   2.0000      -0.433453       -11.7949
  70   2.0000      -0.420053       -11.4302
  71   2.0000      -0.416986       -11.3468
  72   2.0000      -0.400245       -10.8912
  73   2.0000      -0.397202       -10.8084
  74   2.0000      -0.395738       -10.7686
  75   2.0000      -0.388757       -10.5786
  76   2.0000      -0.380194       -10.3456
  77   2.0000      -0.366841        -9.9822
  78   2.0000      -0.365069        -9.9340
  79   2.0000      -0.359270        -9.7762
  80   2.0000      -0.357189        -9.7196
  81   2.0000      -0.352393        -9.5891
  82   2.0000      -0.350413        -9.5352
  83   2.0000      -0.346876        -9.4390
  84   2.0000      -0.344599        -9.3770
  85   2.0000      -0.333925        -9.0866
  86   2.0000      -0.320039        -8.7087
  87   2.0000      -0.313544        -8.5320
  88   2.0000      -0.308521        -8.3953
  89   2.0000      -0.300962        -8.1896
  90   2.0000      -0.299765        -8.1570
  91   2.0000      -0.293316        -7.9815
  92   2.0000      -0.290460        -7.9038
  93   2.0000      -0.279437        -7.6039
  94   2.0000      -0.275485        -7.4963
  95   2.0000      -0.252065        -6.8590
  96   2.0000      -0.238957        -6.5024
  97   2.0000      -0.234426        -6.3791
  98   2.0000      -0.226878        -6.1737
  99   2.0000      -0.224905        -6.1200
 100   2.0000      -0.222862        -6.0644
 101   0.0000      -0.054400        -1.4803
 102   0.0000      -0.036048        -0.9809
 103   0.0000      -0.007551        -0.2055
 104   0.0000      -0.006446        -0.1754
 105   0.0000       0.010755         0.2927

MULLIKEN ATOMIC CHARGES
-----------------------
   0 C :   -0.483142
   1 C :   -0.145732
   2 O :   -0.310260
   3 P :    0.709941
   4 S :   -0.526565
   5 O :   -0.289816
   6 C :   -0.118180
   7 C :   -0.496352
   8 S :   -0.147753
   9 C :   -0.257470
  10 S :   -0.163387
  11 P :    0.667512
  12 S :   -0.489971
  13 O :   -0.322781
  14 C :   -0.094251
  15 C :   -0.494146
  16 O :   -0.274323
  17 C :   -0.165871
  18 C :   -0.468081
  19 H :    0.169460
  20 H :    0.166259
  21 H :    0.165771
  22 H :    0.171194
  23 H :    0.171915
  24 H :    0.176008
  25 H :    0.171249
  26 H :    0.168412
  27 H :    0.168865
  28 H :    0.168581
  29 H :    0.230529
  30 H :    0.239411
  31 H :    0.157283
  32 H :    0.180508
  33 H :    0.167728
  34 H :    0.170181
  35 H :    0.171647
  36 H :    0.177724
  37 H :    0.176520
  38 H :    0.166400
  39 H :    0.170284
  40 H :    0.164696
Sum of atomic charges:    0.0000000

LOEWDIN ATOMIC CHARGES
----------------------
   0 C :   -0.389422
   1 C :    0.025152
   2 O :   -0.675879
   3 P :    0.375949
   4 S :   -0.164159
   5 O :   -0.691993
   6 C :    0.031504
   7 C :   -0.403647
   8 S :    0.157834
   9 C :   -0.421830
  10 S :    0.142080
  11 P :    0.392528
  12 S :   -0.138586
  13 O :   -0.673456
  14 C :    0.034601
  15 C :   -0.394732
  16 O :   -0.676967
  17 C :    0.023571
  18 C :   -0.414613
  19 H :    0.168942
  20 H :    0.162702
  21 H :    0.163150
  22 H :    0.179729
  23 H :    0.181551
  24 H :    0.188271
  25 H :    0.182387
  26 H :    0.162471
  27 H :    0.166729
  28 H :    0.161949
  29 H :    0.198501
  30 H :    0.197702
  31 H :    0.180687
  32 H :    0.192043
  33 H :    0.164261
  34 H :    0.166229
  35 H :    0.169066
  36 H :    0.192356
  37 H :    0.190994
  38 H :    0.161541
  39 H :    0.168491
  40 H :    0.162313

  Mayer bond orders larger than 0.100000
B(  0-C ,  1-C ) :   0.9527 B(  0-C , 19-H ) :   0.9584 B(  0-C , 20-H ) :   0.9699
B(  0-C , 21-H ) :   0.9687 B(  1-C ,  2-O ) :   0.7717 B(  1-C , 22-H ) :   0.9359
B(  1-C , 23-H ) :   0.9483 B(  2-O ,  3-P ) :   1.0997 B(  3-P ,  4-S ) :   1.7109
B(  3-P ,  5-O ) :   1.1742 B(  3-P ,  8-S ) :   1.0848 B(  5-O ,  6-C ) :   0.7408
B(  6-C ,  7-C ) :   0.9412 B(  6-C , 24-H ) :   0.9482 B(  6-C , 25-H ) :   0.9596
B(  7-C , 26-H ) :   0.9662 B(  7-C , 27-H ) :   0.9591 B(  7-C , 28-H ) :   0.9659
B(  8-S ,  9-C ) :   0.9002 B(  9-C , 10-S ) :   0.9050 B(  9-C , 29-H ) :   0.8986
B(  9-C , 30-H ) :   0.9031 B( 10-S , 11-P ) :   0.9984 B( 11-P , 12-S ) :   1.8116
B( 11-P , 13-O ) :   1.1892 B( 11-P , 16-O ) :   1.0500 B( 13-O , 14-C ) :   0.7457
B( 14-C , 15-C ) :   0.9413 B( 14-C , 31-H ) :   0.9528 B( 14-C , 32-H ) :   0.9516
B( 15-C , 33-H ) :   0.9681 B( 15-C , 34-H ) :   0.9652 B( 15-C , 35-H ) :   0.9592
B( 16-O , 17-C ) :   0.7875 B( 17-C , 18-C ) :   0.9149 B( 17-C , 36-H ) :   0.9472
B( 17-C , 37-H ) :   0.9560 B( 18-C , 38-H ) :   0.9541 B( 18-C , 39-H ) :   0.9596
B( 18-C , 40-H ) :   0.9700

Dispersion correction           -0.021364723
FINAL SINGLE POINT ENERGY     -2932.471085251590

DIPOLE MOMENT
-------------

Method             : SCF
Type of density    : Electron Density
Multiplicity       :   1
Irrep              :   0
Energy             : -2932.4962982233128059 Eh
Relativity type    :
Basis              : AO
                                X                 Y                 Z
Electronic contribution:     -3.300411324      10.529663830     -14.245258402
Nuclear contribution   :      4.348864591     -11.623129940      16.474116791
                        -----------------------------------------
Total Dipole Moment    :      1.048453267      -1.093466110       2.228858390
                        -----------------------------------------
Magnitude (a.u.)       :      2.694945660
Magnitude (Debye)      :      6.850007488

Rotational constants in cm-1:             0.012955             0.004746             0.004387
Rotational constants in MHz :           388.393239           142.276224           131.527256

                             ****ORCA TERMINATED NORMALLY****
TOTAL RUN TIME: 0 days 0 hours 1 minutes 56 seconds 413 msec
