                         Program Version 6.0.0  -   RELEASE  -
|  1> ! pbe def2-sv(p) def2/J RI DEFGRID1 loosescf d4 GCP(DFT/SV(P)) printgap
|  2> %output
|  3>     printlevel normal
|  4> end
|  5> * xyz 0 1
|  6> C 2.2734099037 0.953665138 -3.0417538159
|  7> C 2.0486165004 -0.4550030009 -2.5289476762
|  8> O 2.8211396029 -0.7109904601 -1.3459896002
|  9> P 2.4019215451 -0.3675288656 0.138969733
| 10> S 2.2947590079 1.5073151581 0.7210367262
| 11> O 3.6011216115 -1.1739347112 0.7896617838
| 12> C 4.1130399385 -0.8876768432 2.0997765968
| 13> C 3.1376554259 -1.2882156764 3.1893376784
| 14> S 0.6661269345 -1.554540969 0.451382932
| 15> C -0.2637010707 -0.4532970183 1.5811810381
| 16> S -2.0523825722 -0.6166032994 1.4086763822
| 17> P -2.3975182578 0.474191357 -0.3908142379
| 18> S -0.81919645 1.2546785146 -1.2657730541
| 19> O -3.5930936841 1.4463626998 -0.0325947422
| 20> C -3.6638414303 2.2650107707 1.1477787302
| 21> C -2.5003011484 3.2303119161 1.2586535068
| 22> O -3.2560699798 -0.4627506724 -1.3341999164
| 23> C -2.6724273374 -1.3397978925 -2.3097300495
| 24> C -2.2912968202 -2.6749184552 -1.6994195012
| 25> H 1.7664359102 1.0746714057 -3.9934944782
| 26> H 1.8664587654 1.6782034372 -2.3381501796
| 27> H 3.3360692595 1.1418204758 -3.1678372242
| 28> H 2.4038017721 -1.2001301567 -3.2433530026
| 29> H 0.9887031208 -0.6230970196 -2.3183447742
| 30> H 5.0354083655 -1.467737925 2.1512690577
| 31> H 4.3417658756 0.1811887406 2.1626513855
| 32> H 2.2745498111 -0.6240764466 3.1691716035
| 33> H 2.8068765213 -2.313094318 3.0401893799
| 34> H 3.6224215991 -1.2029620548 4.1565846484
| 35> H 0.0534924383 0.5730214672 1.377117013
| 36> H -0.0523306899 -0.7398237878 2.6083822439
| 37> H -4.6096207083 2.7974145324 1.0333674929
| 38> H -3.7116942477 1.6101814451 2.0226186733
| 39> H -1.5634162862 2.6882619792 1.3865771174
| 40> H -2.422327851 3.835072206 0.3579504246
| 41> H -2.6482077832 3.8802766924 2.1150605046
| 42> H -3.4510767731 -1.4566471281 -3.0654329382
| 43> H -1.8025360076 -0.8443623184 -2.7566438745
| 44> H -3.1462567317 -3.1046847581 -1.1847102369
| 45> H -1.9691578761 -3.3489796574 -2.4865306827
| 46> H -1.4775521615 -2.5540613333 -0.9858247222
| 47> *
| 48>
| 49>                          ****END OF INPUT****

CARTESIAN COORDINATES (ANGSTROEM)
---------------------------------
  C      2.273410    0.953665   -3.041754
  C      2.048617   -0.455003   -2.528948
  O      2.821140   -0.710990   -1.345990
  P      2.401922   -0.367529    0.138970
  S      2.294759    1.507315    0.721037
  O      3.601122   -1.173935    0.789662
  C      4.113040   -0.887677    2.099777
  C      3.137655   -1.288216    3.189338
  S      0.666127   -1.554541    0.451383
  C     -0.263701   -0.453297    1.581181
  S     -2.052383   -0.616603    1.408676
  P     -2.397518    0.474191   -0.390814
  S     -0.819196    1.254679   -1.265773
  O     -3.593094    1.446363   -0.032595
  C     -3.663841    2.265011    1.147779
  C     -2.500301    3.230312    1.258654
  O     -3.256070   -0.462751   -1.334200
  C     -2.672427   -1.339798   -2.309730
  C     -2.291297   -2.674918   -1.699420
  H      1.766436    1.074671   -3.993494
  H      1.866459    1.678203   -2.338150
  H      3.336069    1.141820   -3.167837
  H      2.403802   -1.200130   -3.243353
  H      0.988703   -0.623097   -2.318345
  H      5.035408   -1.467738    2.151269
  H      4.341766    0.181189    2.162651
  H      2.274550   -0.624076    3.169172
  H      2.806877   -2.313094    3.040189
  H      3.622422   -1.202962    4.156585
  H      0.053492    0.573021    1.377117
  H     -0.052331   -0.739824    2.608382
  H     -4.609621    2.797415    1.033367
  H     -3.711694    1.610181    2.022619
  H     -1.563416    2.688262    1.386577
  H     -2.422328    3.835072    0.357950
  H     -2.648208    3.880277    2.115061
  H     -3.451077   -1.456647   -3.065433
  H     -1.802536   -0.844362   -2.756644
  H     -3.146257   -3.104685   -1.184710
  H     -1.969158   -3.348980   -2.486531
  H     -1.477552   -2.554061   -0.985825

 Total Charge           Charge          ....    0
 Multiplicity           Mult            ....    1
 Number of Electrons    NEL             ....  202
 Basis Dimension        Dim             ....  334

ORBITAL ENERGIES
----------------

  NO   OCC          E(Eh)            E(eV)
   0   2.0000     -88.052872     -2396.0404
   1   2.0000     -88.043484     -2395.7850
   2   2.0000     -87.989045     -2394.3037
   3   2.0000     -87.988449     -2394.2874
   4   2.0000     -76.428993     -2079.7386
   5   2.0000     -76.426062     -2079.6589
   6   2.0000     -18.792790      -511.3778
   7   2.0000     -18.789253      -511.2816
   8   2.0000     -18.788960      -511.2736
   9   2.0000     -18.784105      -511.1415
  10   2.0000      -9.958996      -270.9981
  11   2.0000      -9.957208      -270.9494
  12   2.0000      -9.950534      -270.7678
  13   2.0000      -9.949943      -270.7517
  14   2.0000      -9.947370      -270.6817
  15   2.0000      -9.886375      -269.0219
  16   2.0000      -9.884922      -268.9824
  17   2.0000      -9.881614      -268.8924
  18   2.0000      -9.874561      -268.7005
  19   2.0000      -7.697524      -209.4603
  20   2.0000      -7.687920      -209.1989
  21   2.0000      -7.633701      -207.7236
  22   2.0000      -7.633191      -207.7097
  23   2.0000      -6.426237      -174.8668
  24   2.0000      -6.423149      -174.7828
  25   2.0000      -5.725418      -155.7965
  26   2.0000      -5.721758      -155.6969
  27   2.0000      -5.715753      -155.5335
  28   2.0000      -5.714822      -155.5082
  29   2.0000      -5.712544      -155.4462
  30   2.0000      -5.704936      -155.2392
  31   2.0000      -5.662588      -154.0869
  32   2.0000      -5.662000      -154.0709
  33   2.0000      -5.654253      -153.8600
  34   2.0000      -5.653994      -153.8530
  35   2.0000      -5.653829      -153.8485
  36   2.0000      -5.653470      -153.8387
  37   2.0000      -4.648494      -126.4920
  38   2.0000      -4.648395      -126.4893
  39   2.0000      -4.646597      -126.4403
  40   2.0000      -4.645423      -126.4084
  41   2.0000      -4.645117      -126.4001
  42   2.0000      -4.643727      -126.3622
  43   2.0000      -0.990164       -26.9437
  44   2.0000      -0.986146       -26.8344
  45   2.0000      -0.945561       -25.7300
  46   2.0000      -0.940832       -25.6013
  47   2.0000      -0.763882       -20.7863
  48   2.0000      -0.721406       -19.6305
  49   2.0000      -0.712457       -19.3869
  50   2.0000      -0.684419       -18.6240
  51   2.0000      -0.681781       -18.5522
  52   2.0000      -0.677661       -18.4401
  53   2.0000      -0.654446       -17.8084
  54   2.0000      -0.637823       -17.3560
  55   2.0000      -0.600987       -16.3537
  56   2.0000      -0.596266       -16.2252
  57   2.0000      -0.574762       -15.6401
  58   2.0000      -0.565482       -15.3876
  59   2.0000      -0.563485       -15.3332
  60   2.0000      -0.499655       -13.5963
  61   2.0000      -0.494685       -13.4611
  62   2.0000      -0.470143       -12.7933
  63   2.0000      -0.467143       -12.7116
  64   2.0000      -0.456197       -12.4138
  65   2.0000      -0.447171       -12.1682
  66   2.0000      -0.436646       -11.8818
  67   2.0000      -0.429617       -11.6905
  68   2.0000      -0.425531       -11.5793
  69   2.0000      -0.419446       -11.4137
  70   2.0000      -0.413335       -11.2474
  71   2.0000      -0.410179       -11.1615
  72   2.0000      -0.401184       -10.9168
  73   2.0000      -0.390634       -10.6297
  74   2.0000      -0.381900       -10.3920
  75   2.0000      -0.374062       -10.1788
  76   2.0000      -0.367580       -10.0024
  77   2.0000      -0.353129        -9.6091
  78   2.0000      -0.350909        -9.5487
  79   2.0000      -0.350184        -9.5290
  80   2.0000      -0.344837        -9.3835
  81   2.0000      -0.341761        -9.2998
  82   2.0000      -0.341313        -9.2876
  83   2.0000      -0.336003        -9.1431
  84   2.0000      -0.329611        -8.9692
  85   2.0000      -0.317242        -8.6326
  86   2.0000      -0.312411        -8.5011
  87   2.0000      -0.300193        -8.1687
  88   2.0000      -0.295154        -8.0315
  89   2.0000      -0.289133        -7.8677
  90   2.0000      -0.286466        -7.7951
  91   2.0000      -0.272924        -7.4266
  92   2.0000      -0.268099        -7.2953
  93   2.0000      -0.262516        -7.1434
  94   2.0000      -0.259251        -7.0546
  95   2.0000      -0.238252        -6.4832
  96   2.0000      -0.225432        -6.1343
  97   2.0000      -0.216553        -5.8927
  98   2.0000      -0.205175        -5.5831
  99   2.0000      -0.199000        -5.4151
 100   2.0000      -0.193834        -5.2745
 101   0.0000      -0.047854        -1.3022
 102   0.0000      -0.037830        -1.0294
 103   0.0000      -0.020668        -0.5624
 104   0.0000       0.002474         0.0673
 105   0.0000       0.012141         0.3304

MULLIKEN ATOMIC CHARGES
-----------------------
   0 C :   -0.303670
   1 C :   -0.026693
   2 O :   -0.355115
   3 P :    0.616268
   4 S :   -0.321829
   5 O :   -0.358278
   6 C :    0.003204
   7 C :   -0.325911
   8 S :   -0.110452
   9 C :   -0.377299
  10 S :   -0.114879
  11 P :    0.601643
  12 S :   -0.319542
  13 O :   -0.354770
  14 C :   -0.006131
  15 C :   -0.322379
  16 O :   -0.351741
  17 C :   -0.011816
  18 C :   -0.319631
  19 H :    0.106748
  20 H :    0.141312
  21 H :    0.114213
  22 H :    0.102093
  23 H :    0.124953
  24 H :    0.106169
  25 H :    0.111891
  26 H :    0.118984
  27 H :    0.121297
  28 H :    0.112580
  29 H :    0.229111
  30 H :    0.190133
  31 H :    0.110703
  32 H :    0.110412
  33 H :    0.136080
  34 H :    0.128261
  35 H :    0.112037
  36 H :    0.105917
  37 H :    0.112932
  38 H :    0.114570
  39 H :    0.108049
  40 H :    0.140574
Sum of atomic charges:   -0.0000000

LOEWDIN ATOMIC CHARGES
----------------------
   0 C :   -0.362970
   1 C :   -0.120994
   2 O :   -0.227981
   3 P :    0.568894
   4 S :   -0.299872
   5 O :   -0.237690
   6 C :   -0.118597
   7 C :   -0.368511
   8 S :    0.071520
   9 C :   -0.482550
  10 S :    0.081855
  11 P :    0.565343
  12 S :   -0.288897
  13 O :   -0.231737
  14 C :   -0.118065
  15 C :   -0.367014
  16 O :   -0.232953
  17 C :   -0.120032
  18 C :   -0.368124
  19 H :    0.128966
  20 H :    0.123744
  21 H :    0.125952
  22 H :    0.116867
  23 H :    0.101037
  24 H :    0.119666
  25 H :    0.109609
  26 H :    0.117572
  27 H :    0.126341
  28 H :    0.130784
  29 H :    0.121762
  30 H :    0.132026
  31 H :    0.122343
  32 H :    0.105649
  33 H :    0.122676
  34 H :    0.131878
  35 H :    0.130483
  36 H :    0.119105
  37 H :    0.104769
  38 H :    0.126005
  39 H :    0.129201
  40 H :    0.111941

  Mayer bond orders larger than 0.100000
B(  0-C ,  1-C ) :   1.1700 B(  0-C , 19-H ) :   0.9394 B(  0-C , 20-H ) :   0.9330
B(  0-C , 21-H ) :   0.9463 B(  1-C ,  2-O ) :   0.9088 B(  1-C , 22-H ) :   0.9343
B(  1-C , 23-H ) :   0.9025 B(  2-O ,  3-P ) :   1.1456 B(  3-P ,  4-S ) :   1.6020
B(  3-P ,  5-O ) :   1.1137 B(  3-P ,  8-S ) :   0.9452 B(  4-S ,  8-S ) :   0.1240
B(  5-O ,  6-C ) :   0.9238 B(  6-C ,  7-C ) :   1.1595 B(  6-C , 24-H ) :   0.9339
B(  6-C , 25-H ) :   0.9144 B(  7-C , 26-H ) :   0.9319 B(  7-C , 27-H ) :   0.9449
B(  7-C , 28-H ) :   0.9381 B(  8-S ,  9-C ) :   0.9918 B(  9-C , 10-S ) :   1.0111
B(  9-C , 29-H ) :   0.8414 B(  9-C , 30-H ) :   0.8932 B( 10-S , 11-P ) :   0.9227
B( 10-S , 12-S ) :   0.1204 B( 11-P , 12-S ) :   1.6280 B( 11-P , 13-O ) :   1.1332
B( 11-P , 16-O ) :   1.1298 B( 13-O , 14-C ) :   0.9178 B( 14-C , 15-C ) :   1.1610
B( 14-C , 31-H ) :   0.9330 B( 14-C , 32-H ) :   0.9210 B( 15-C , 33-H ) :   0.9334
B( 15-C , 34-H ) :   0.9430 B( 15-C , 35-H ) :   0.9356 B( 16-O , 17-C ) :   0.9157
B( 17-C , 18-C ) :   1.1637 B( 17-C , 36-H ) :   0.9333 B( 17-C , 37-H ) :   0.9053
B( 18-C , 38-H ) :   0.9451 B( 18-C , 39-H ) :   0.9397 B( 18-C , 40-H ) :   0.9297

Dispersion correction           -0.066678493
FINAL SINGLE POINT ENERGY     -2929.520423895585

DIPOLE MOMENT
-------------

Method             : SCF
Type of density    : Electron Density
Multiplicity       :   1
Irrep              :   0
Energy             : -2929.6375789478761362 Eh
Relativity type    :
Basis              : AO
                                X                 Y                 Z
Electronic contribution:     -1.927674937      -0.405978293       0.292244733
Nuclear contribution   :      1.527454278      -0.144091717       0.196573719
                        -----------------------------------------
Total Dipole Moment    :     -0.400220659      -0.550070010       0.488818452
                        -----------------------------------------
Magnitude (a.u.)       :      0.837673606
Magnitude (Debye)      :      2.129197097

Rotational constants in cm-1:             0.011129             0.005366             0.005013
Rotational constants in MHz :           333.629900           160.861778           150.290882

                             ****ORCA TERMINATED NORMALLY****
TOTAL RUN TIME: 0 days 0 hours 0 minutes 21 seconds 329 msec
