                         Program Version 6.0.0  -   RELEASE  -
|  1> ! r2scan-3c def2/J RI DEFGRID2 scfconv6 printgap
|  2> %output
|  3>     printlevel normal
|  4> end
|  5> * xyz 0 1
|  6> C 4.6613031701 -1.5285697883 -1.0267891174
|  7> C 4.7051674895 -0.0969012346 -0.5334079594
|  8> O 3.5681564569 0.2292484456 0.2850079133
|  9> P 2.0902450326 0.3289024619 -0.3015703715
| 10> S 2.0166782756 1.125535379 -2.0967968841
| 11> O 1.3703699886 1.0968201543 0.8809481639
| 12> C 1.5361013989 2.520706319 1.0560304539
| 13> C 0.6734317473 2.9413981713 2.226242667
| 14> S 1.2985701652 -1.5960365849 -0.0506161483
| 15> C 0.0662836922 -1.615608639 -1.3999266099
| 16> S -1.6223094317 -1.8587694679 -0.8123698943
| 17> P -1.8871481607 0.0095187369 0.1705716157
| 18> S -1.3439305155 1.586683548 -0.8525237635
| 19> O -1.142480239 -0.1106918034 1.5511012497
| 20> C -1.3426400313 -1.1961241122 2.4919341054
| 21> C -2.3564617666 -0.8127608903 3.549392033
| 22> O -3.4168373118 -0.0094526536 0.6020249924
| 23> C -4.4887187467 0.3008771035 -0.3075809648
| 24> C -5.0146375078 -0.9445131114 -0.9934336194
| 25> H 4.5148186695 -2.2116937235 -0.1940077017
| 26> H 3.8411069342 -1.6515138542 -1.7327850473
| 27> H 5.5947643773 -1.7629262291 -1.528165794
| 28> H 4.7320623278 0.5996843072 -1.3774943825
| 29> H 5.5579316769 0.0791774419 0.1235722944
| 30> H 2.5947571774 2.7260830691 1.236514666
| 31> H 1.2245526994 3.0173413446 0.1302933859
| 32> H 0.7715878033 4.0116416144 2.3756470515
| 33> H -0.3661815912 2.7007592546 2.0166512801
| 34> H 0.9834979686 2.415237267 3.124192983
| 35> H 0.2836657226 -2.4658235847 -2.0412042142
| 36> H 0.139428795 -0.6750335427 -1.953329263
| 37> H -1.6594873669 -2.0878889434 1.9437809819
| 38> H -0.3535176833 -1.3634901806 2.9231002622
| 39> H -3.3282950727 -0.6410433376 3.0948539548
| 40> H -2.4348781373 -1.6201629106 4.2707388139
| 41> H -2.0422015947 0.0940360109 4.0588401918
| 42> H -5.253846485 0.7578249469 0.3226904188
| 43> H -4.1303382847 1.0372598489 -1.0344280416
| 44> H -5.3036486841 -1.6843972652 -0.2525970148
| 45> H -5.88046906 -0.6785589123 -1.5913363639
| 46> H -4.2554186655 -1.3765461863 -1.6409655899
| 47> *
| 48>
| 49>                          ****END OF INPUT****

CARTESIAN COORDINATES (ANGSTROEM)
---------------------------------
  C      4.661303   -1.528570   -1.026789
  C      4.705167   -0.096901   -0.533408
  O      3.568156    0.229248    0.285008
  P      2.090245    0.328902   -0.301570
  S      2.016678    1.125535   -2.096797
  O      1.370370    1.096820    0.880948
  C      1.536101    2.520706    1.056030
  C      0.673432    2.941398    2.226243
  S      1.298570   -1.596037   -0.050616
  C      0.066284   -1.615609   -1.399927
  S     -1.622309   -1.858769   -0.812370
  P     -1.887148    0.009519    0.170572
  S     -1.343931    1.586684   -0.852524
  O     -1.142480   -0.110692    1.551101
  C     -1.342640   -1.196124    2.491934
  C     -2.356462   -0.812761    3.549392
  O     -3.416837   -0.009453    0.602025
  C     -4.488719    0.300877   -0.307581
  C     -5.014638   -0.944513   -0.993434
  H      4.514819   -2.211694   -0.194008
  H      3.841107   -1.651514   -1.732785
  H      5.594764   -1.762926   -1.528166
  H      4.732062    0.599684   -1.377494
  H      5.557932    0.079177    0.123572
  H      2.594757    2.726083    1.236515
  H      1.224553    3.017341    0.130293
  H      0.771588    4.011642    2.375647
  H     -0.366182    2.700759    2.016651
  H      0.983498    2.415237    3.124193
  H      0.283666   -2.465824   -2.041204
  H      0.139429   -0.675034   -1.953329
  H     -1.659487   -2.087889    1.943781
  H     -0.353518   -1.363490    2.923100
  H     -3.328295   -0.641043    3.094854
  H     -2.434878   -1.620163    4.270739
  H     -2.042202    0.094036    4.058840
  H     -5.253846    0.757825    0.322690
  H     -4.130338    1.037260   -1.034428
  H     -5.303649   -1.684397   -0.252597
  H     -5.880469   -0.678559   -1.591336
  H     -4.255419   -1.376546   -1.640966

 Total Charge           Charge          ....    0
 Multiplicity           Mult            ....    1
 Number of Electrons    NEL             ....  202
 Basis Dimension        Dim             ....  539

ORBITAL ENERGIES
----------------

  NO   OCC          E(Eh)            E(eV)
   0   2.0000     -88.576396     -2410.2863
   1   2.0000     -88.574120     -2410.2243
   2   2.0000     -88.513420     -2408.5726
   3   2.0000     -88.512281     -2408.5416
   4   2.0000     -76.911791     -2092.8762
   5   2.0000     -76.906497     -2092.7322
   6   2.0000     -18.993569      -516.8413
   7   2.0000     -18.988919      -516.7147
   8   2.0000     -18.985381      -516.6185
   9   2.0000     -18.976791      -516.3847
  10   2.0000     -10.106434      -275.0100
  11   2.0000     -10.099237      -274.8142
  12   2.0000     -10.099198      -274.8132
  13   2.0000     -10.092485      -274.6305
  14   2.0000     -10.085081      -274.4290
  15   2.0000     -10.031329      -272.9663
  16   2.0000     -10.030304      -272.9385
  17   2.0000     -10.024643      -272.7844
  18   2.0000     -10.018169      -272.6082
  19   2.0000      -7.870984      -214.1804
  20   2.0000      -7.868832      -214.1218
  21   2.0000      -7.808188      -212.4716
  22   2.0000      -7.806995      -212.4391
  23   2.0000      -6.590158      -179.3273
  24   2.0000      -6.585081      -179.1892
  25   2.0000      -5.817819      -158.3109
  26   2.0000      -5.815663      -158.2522
  27   2.0000      -5.814576      -158.2226
  28   2.0000      -5.812749      -158.1729
  29   2.0000      -5.808335      -158.0528
  30   2.0000      -5.805843      -157.9850
  31   2.0000      -5.755994      -156.6286
  32   2.0000      -5.754623      -156.5912
  33   2.0000      -5.748305      -156.4193
  34   2.0000      -5.748201      -156.4165
  35   2.0000      -5.747508      -156.3976
  36   2.0000      -5.746792      -156.3782
  37   2.0000      -4.736004      -128.8732
  38   2.0000      -4.735243      -128.8525
  39   2.0000      -4.733427      -128.8031
  40   2.0000      -4.730490      -128.7232
  41   2.0000      -4.729881      -128.7066
  42   2.0000      -4.729002      -128.6827
  43   2.0000      -1.050469       -28.5847
  44   2.0000      -1.041190       -28.3322
  45   2.0000      -1.009936       -27.4818
  46   2.0000      -0.999698       -27.2032
  47   2.0000      -0.799883       -21.7659
  48   2.0000      -0.756736       -20.5918
  49   2.0000      -0.746222       -20.3057
  50   2.0000      -0.735120       -20.0036
  51   2.0000      -0.724354       -19.7107
  52   2.0000      -0.709495       -19.3063
  53   2.0000      -0.682243       -18.5648
  54   2.0000      -0.660782       -17.9808
  55   2.0000      -0.627938       -17.0871
  56   2.0000      -0.619459       -16.8563
  57   2.0000      -0.606746       -16.5104
  58   2.0000      -0.596792       -16.2395
  59   2.0000      -0.586305       -15.9542
  60   2.0000      -0.526040       -14.3143
  61   2.0000      -0.519629       -14.1398
  62   2.0000      -0.497931       -13.5494
  63   2.0000      -0.484885       -13.1944
  64   2.0000      -0.468648       -12.7526
  65   2.0000      -0.461515       -12.5585
  66   2.0000      -0.457372       -12.4457
  67   2.0000      -0.449715       -12.2374
  68   2.0000      -0.442403       -12.0384
  69   2.0000      -0.436099       -11.8669
  70   2.0000      -0.423778       -11.5316
  71   2.0000      -0.409691       -11.1482
  72   2.0000      -0.405743       -11.0408
  73   2.0000      -0.399855       -10.8806
  74   2.0000      -0.397828       -10.8254
  75   2.0000      -0.383506       -10.4357
  76   2.0000      -0.379157       -10.3174
  77   2.0000      -0.370256       -10.0752
  78   2.0000      -0.369439       -10.0529
  79   2.0000      -0.363737        -9.8978
  80   2.0000      -0.362646        -9.8681
  81   2.0000      -0.358561        -9.7570
  82   2.0000      -0.349855        -9.5200
  83   2.0000      -0.347885        -9.4664
  84   2.0000      -0.339148        -9.2287
  85   2.0000      -0.330763        -9.0005
  86   2.0000      -0.321895        -8.7592
  87   2.0000      -0.309524        -8.4226
  88   2.0000      -0.305434        -8.3113
  89   2.0000      -0.304822        -8.2946
  90   2.0000      -0.294651        -8.0179
  91   2.0000      -0.286061        -7.7841
  92   2.0000      -0.279174        -7.5967
  93   2.0000      -0.275285        -7.4909
  94   2.0000      -0.270702        -7.3662
  95   2.0000      -0.249275        -6.7831
  96   2.0000      -0.231833        -6.3085
  97   2.0000      -0.225926        -6.1477
  98   2.0000      -0.215527        -5.8648
  99   2.0000      -0.204581        -5.5669
 100   2.0000      -0.195801        -5.3280
 101   0.0000      -0.042162        -1.1473
 102   0.0000      -0.030232        -0.8227
 103   0.0000      -0.009081        -0.2471
 104   0.0000       0.014428         0.3926
 105   0.0000       0.019090         0.5195

MULLIKEN ATOMIC CHARGES
-----------------------
   0 C :   -0.445636
   1 C :   -0.157516
   2 O :   -0.313261
   3 P :    0.664107
   4 S :   -0.468252
   5 O :   -0.254871
   6 C :   -0.129769
   7 C :   -0.468577
   8 S :   -0.126154
   9 C :   -0.225641
  10 S :   -0.169266
  11 P :    0.656718
  12 S :   -0.412678
  13 O :   -0.251217
  14 C :   -0.113219
  15 C :   -0.463378
  16 O :   -0.294011
  17 C :   -0.171285
  18 C :   -0.441416
  19 H :    0.153329
  20 H :    0.172951
  21 H :    0.146277
  22 H :    0.174492
  23 H :    0.145580
  24 H :    0.146061
  25 H :    0.174841
  26 H :    0.141965
  27 H :    0.178887
  28 H :    0.145542
  29 H :    0.195329
  30 H :    0.219986
  31 H :    0.163311
  32 H :    0.164807
  33 H :    0.165118
  34 H :    0.146303
  35 H :    0.156192
  36 H :    0.148843
  37 H :    0.177159
  38 H :    0.154823
  39 H :    0.148919
  40 H :    0.164606
Sum of atomic charges:    0.0000000

LOEWDIN ATOMIC CHARGES
----------------------
   0 C :   -0.408206
   1 C :    0.017220
   2 O :   -0.666324
   3 P :    0.370424
   4 S :   -0.128847
   5 O :   -0.673931
   6 C :    0.018057
   7 C :   -0.390540
   8 S :    0.179229
   9 C :   -0.413069
  10 S :    0.119082
  11 P :    0.378164
  12 S :   -0.067824
  13 O :   -0.654763
  14 C :    0.017277
  15 C :   -0.393892
  16 O :   -0.670274
  17 C :    0.020621
  18 C :   -0.402945
  19 H :    0.159577
  20 H :    0.164061
  21 H :    0.158144
  22 H :    0.180261
  23 H :    0.178130
  24 H :    0.170369
  25 H :    0.182916
  26 H :    0.157598
  27 H :    0.169311
  28 H :    0.156708
  29 H :    0.180562
  30 H :    0.202963
  31 H :    0.177289
  32 H :    0.183162
  33 H :    0.166049
  34 H :    0.158416
  35 H :    0.160680
  36 H :    0.178854
  37 H :    0.183125
  38 H :    0.158609
  39 H :    0.160223
  40 H :    0.163534

  Mayer bond orders larger than 0.100000
B(  0-C ,  1-C ) :   0.9204 B(  0-C , 19-H ) :   0.9679 B(  0-C , 20-H ) :   0.9654
B(  0-C , 21-H ) :   0.9598 B(  1-C ,  2-O ) :   0.8270 B(  1-C , 22-H ) :   0.9671
B(  1-C , 23-H ) :   0.9595 B(  2-O ,  3-P ) :   1.0527 B(  3-P ,  4-S ) :   1.7454
B(  3-P ,  5-O ) :   1.1921 B(  3-P ,  8-S ) :   1.1267 B(  5-O ,  6-C ) :   0.7649
B(  6-C ,  7-C ) :   0.9378 B(  6-C , 24-H ) :   0.9436 B(  6-C , 25-H ) :   0.9506
B(  7-C , 26-H ) :   0.9665 B(  7-C , 27-H ) :   0.9687 B(  7-C , 28-H ) :   0.9731
B(  8-S ,  9-C ) :   0.8919 B(  9-C , 10-S ) :   0.9145 B(  9-C , 29-H ) :   0.9148
B(  9-C , 30-H ) :   0.9042 B( 10-S , 11-P ) :   1.0040 B( 11-P , 12-S ) :   1.8654
B( 11-P , 13-O ) :   1.1270 B( 11-P , 16-O ) :   1.0415 B( 13-O , 14-C ) :   0.7278
B( 14-C , 15-C ) :   0.9338 B( 14-C , 31-H ) :   0.9598 B( 14-C , 32-H ) :   0.9624
B( 15-C , 33-H ) :   0.9668 B( 15-C , 34-H ) :   0.9665 B( 15-C , 35-H ) :   0.9748
B( 16-O , 17-C ) :   0.7895 B( 17-C , 18-C ) :   0.9408 B( 17-C , 36-H ) :   0.9626
B( 17-C , 37-H ) :   0.9606 B( 18-C , 38-H ) :   0.9742 B( 18-C , 39-H ) :   0.9636
B( 18-C , 40-H ) :   0.9567

Dispersion correction           -0.022235523
FINAL SINGLE POINT ENERGY     -2932.458436574132

DIPOLE MOMENT
-------------

Method             : SCF
Type of density    : Electron Density
Multiplicity       :   1
Irrep              :   0
Energy             : -2932.4829242429432270 Eh
Relativity type    :
Basis              : AO
                                X                 Y                 Z
Electronic contribution:      4.307810606       0.046649572     -10.731711221
Nuclear contribution   :     -4.661136032      -0.994830809      11.792208795
                        -----------------------------------------
Total Dipole Moment    :     -0.353325426      -0.948181236       1.060497573
                        -----------------------------------------
Magnitude (a.u.)       :      1.465790441
Magnitude (Debye)      :      3.725743211

Rotational constants in cm-1:             0.012551             0.005398             0.005113
Rotational constants in MHz :           376.257687           161.831844           153.292700

                             ****ORCA TERMINATED NORMALLY****
TOTAL RUN TIME: 0 days 0 hours 1 minutes 25 seconds 839 msec
