                         Program Version 6.0.0  -   RELEASE  -
|  1> ! r2scan-3c def2/J RI DEFGRID2 scfconv6 printgap
|  2> %output
|  3>     printlevel normal
|  4> end
|  5> %cpcm
|  6>     smd true
|  7>     smdsolvent "water"
|  8> end
|  9> * xyz 0 1
| 10> C 4.6613031701 -1.5285697883 -1.0267891174
| 11> C 4.7051674895 -0.0969012346 -0.5334079594
| 12> O 3.5681564569 0.2292484456 0.2850079133
| 13> P 2.0902450326 0.3289024619 -0.3015703715
| 14> S 2.0166782756 1.125535379 -2.0967968841
| 15> O 1.3703699886 1.0968201543 0.8809481639
| 16> C 1.5361013989 2.520706319 1.0560304539
| 17> C 0.6734317473 2.9413981713 2.226242667
| 18> S 1.2985701652 -1.5960365849 -0.0506161483
| 19> C 0.0662836922 -1.615608639 -1.3999266099
| 20> S -1.6223094317 -1.8587694679 -0.8123698943
| 21> P -1.8871481607 0.0095187369 0.1705716157
| 22> S -1.3439305155 1.586683548 -0.8525237635
| 23> O -1.142480239 -0.1106918034 1.5511012497
| 24> C -1.3426400313 -1.1961241122 2.4919341054
| 25> C -2.3564617666 -0.8127608903 3.549392033
| 26> O -3.4168373118 -0.0094526536 0.6020249924
| 27> C -4.4887187467 0.3008771035 -0.3075809648
| 28> C -5.0146375078 -0.9445131114 -0.9934336194
| 29> H 4.5148186695 -2.2116937235 -0.1940077017
| 30> H 3.8411069342 -1.6515138542 -1.7327850473
| 31> H 5.5947643773 -1.7629262291 -1.528165794
| 32> H 4.7320623278 0.5996843072 -1.3774943825
| 33> H 5.5579316769 0.0791774419 0.1235722944
| 34> H 2.5947571774 2.7260830691 1.236514666
| 35> H 1.2245526994 3.0173413446 0.1302933859
| 36> H 0.7715878033 4.0116416144 2.3756470515
| 37> H -0.3661815912 2.7007592546 2.0166512801
| 38> H 0.9834979686 2.415237267 3.124192983
| 39> H 0.2836657226 -2.4658235847 -2.0412042142
| 40> H 0.139428795 -0.6750335427 -1.953329263
| 41> H -1.6594873669 -2.0878889434 1.9437809819
| 42> H -0.3535176833 -1.3634901806 2.9231002622
| 43> H -3.3282950727 -0.6410433376 3.0948539548
| 44> H -2.4348781373 -1.6201629106 4.2707388139
| 45> H -2.0422015947 0.0940360109 4.0588401918
| 46> H -5.253846485 0.7578249469 0.3226904188
| 47> H -4.1303382847 1.0372598489 -1.0344280416
| 48> H -5.3036486841 -1.6843972652 -0.2525970148
| 49> H -5.88046906 -0.6785589123 -1.5913363639
| 50> H -4.2554186655 -1.3765461863 -1.6409655899
| 51> *
| 52>
| 53>                          ****END OF INPUT****

CARTESIAN COORDINATES (ANGSTROEM)
---------------------------------
  C      4.661303   -1.528570   -1.026789
  C      4.705167   -0.096901   -0.533408
  O      3.568156    0.229248    0.285008
  P      2.090245    0.328902   -0.301570
  S      2.016678    1.125535   -2.096797
  O      1.370370    1.096820    0.880948
  C      1.536101    2.520706    1.056030
  C      0.673432    2.941398    2.226243
  S      1.298570   -1.596037   -0.050616
  C      0.066284   -1.615609   -1.399927
  S     -1.622309   -1.858769   -0.812370
  P     -1.887148    0.009519    0.170572
  S     -1.343931    1.586684   -0.852524
  O     -1.142480   -0.110692    1.551101
  C     -1.342640   -1.196124    2.491934
  C     -2.356462   -0.812761    3.549392
  O     -3.416837   -0.009453    0.602025
  C     -4.488719    0.300877   -0.307581
  C     -5.014638   -0.944513   -0.993434
  H      4.514819   -2.211694   -0.194008
  H      3.841107   -1.651514   -1.732785
  H      5.594764   -1.762926   -1.528166
  H      4.732062    0.599684   -1.377494
  H      5.557932    0.079177    0.123572
  H      2.594757    2.726083    1.236515
  H      1.224553    3.017341    0.130293
  H      0.771588    4.011642    2.375647
  H     -0.366182    2.700759    2.016651
  H      0.983498    2.415237    3.124193
  H      0.283666   -2.465824   -2.041204
  H      0.139429   -0.675034   -1.953329
  H     -1.659487   -2.087889    1.943781
  H     -0.353518   -1.363490    2.923100
  H     -3.328295   -0.641043    3.094854
  H     -2.434878   -1.620163    4.270739
  H     -2.042202    0.094036    4.058840
  H     -5.253846    0.757825    0.322690
  H     -4.130338    1.037260   -1.034428
  H     -5.303649   -1.684397   -0.252597
  H     -5.880469   -0.678559   -1.591336
  H     -4.255419   -1.376546   -1.640966

 Total Charge           Charge          ....    0
 Multiplicity           Mult            ....    1
 Number of Electrons    NEL             ....  202
 Basis Dimension        Dim             ....  539

ORBITAL ENERGIES
----------------

  NO   OCC          E(Eh)            E(eV)
   0   2.0000     -88.578773     -2410.3509
   1   2.0000     -88.578654     -2410.3477
   2   2.0000     -88.523836     -2408.8561
   3   2.0000     -88.522883     -2408.8301
   4   2.0000     -76.917451     -2093.0302
   5   2.0000     -76.915712     -2092.9829
   6   2.0000     -18.994377      -516.8633
   7   2.0000     -18.992895      -516.8229
   8   2.0000     -18.991757      -516.7920
   9   2.0000     -18.986514      -516.6493
  10   2.0000     -10.105363      -274.9809
  11   2.0000     -10.090820      -274.5852
  12   2.0000     -10.089372      -274.5458
  13   2.0000     -10.087256      -274.4882
  14   2.0000     -10.086248      -274.4608
  15   2.0000     -10.018273      -272.6111
  16   2.0000     -10.017985      -272.6032
  17   2.0000     -10.017250      -272.5832
  18   2.0000     -10.017159      -272.5807
  19   2.0000      -7.873305      -214.2435
  20   2.0000      -7.873280      -214.2428
  21   2.0000      -7.818889      -212.7628
  22   2.0000      -7.818019      -212.7391
  23   2.0000      -6.595847      -179.4821
  24   2.0000      -6.594338      -179.4411
  25   2.0000      -5.820164      -158.3747
  26   2.0000      -5.820137      -158.3740
  27   2.0000      -5.817230      -158.2949
  28   2.0000      -5.816889      -158.2856
  29   2.0000      -5.810606      -158.1146
  30   2.0000      -5.810299      -158.1063
  31   2.0000      -5.766436      -156.9127
  32   2.0000      -5.765713      -156.8930
  33   2.0000      -5.759410      -156.7215
  34   2.0000      -5.758693      -156.7020
  35   2.0000      -5.758184      -156.6881
  36   2.0000      -5.758025      -156.6838
  37   2.0000      -4.741646      -129.0267
  38   2.0000      -4.740894      -129.0063
  39   2.0000      -4.739721      -128.9744
  40   2.0000      -4.739243      -128.9613
  41   2.0000      -4.739121      -128.9580
  42   2.0000      -4.738333      -128.9366
  43   2.0000      -1.052705       -28.6455
  44   2.0000      -1.048713       -28.5369
  45   2.0000      -1.011676       -27.5291
  46   2.0000      -1.007081       -27.4041
  47   2.0000      -0.801685       -21.8150
  48   2.0000      -0.755635       -20.5619
  49   2.0000      -0.744336       -20.2544
  50   2.0000      -0.725466       -19.7409
  51   2.0000      -0.721472       -19.6322
  52   2.0000      -0.710741       -19.3403
  53   2.0000      -0.687209       -18.6999
  54   2.0000      -0.668734       -18.1972
  55   2.0000      -0.628755       -17.1093
  56   2.0000      -0.617066       -16.7912
  57   2.0000      -0.601134       -16.3577
  58   2.0000      -0.595717       -16.2103
  59   2.0000      -0.586227       -15.9520
  60   2.0000      -0.524388       -14.2693
  61   2.0000      -0.520445       -14.1620
  62   2.0000      -0.494385       -13.4529
  63   2.0000      -0.487013       -13.2523
  64   2.0000      -0.468724       -12.7546
  65   2.0000      -0.462233       -12.5780
  66   2.0000      -0.455838       -12.4040
  67   2.0000      -0.449020       -12.2184
  68   2.0000      -0.438235       -11.9250
  69   2.0000      -0.435926       -11.8621
  70   2.0000      -0.418570       -11.3899
  71   2.0000      -0.412201       -11.2166
  72   2.0000      -0.403900       -10.9907
  73   2.0000      -0.399676       -10.8757
  74   2.0000      -0.394969       -10.7476
  75   2.0000      -0.384637       -10.4665
  76   2.0000      -0.375087       -10.2066
  77   2.0000      -0.366510        -9.9732
  78   2.0000      -0.362812        -9.8726
  79   2.0000      -0.360747        -9.8164
  80   2.0000      -0.355839        -9.6829
  81   2.0000      -0.354047        -9.6341
  82   2.0000      -0.347833        -9.4650
  83   2.0000      -0.343471        -9.3463
  84   2.0000      -0.340114        -9.2550
  85   2.0000      -0.327882        -8.9221
  86   2.0000      -0.324470        -8.8293
  87   2.0000      -0.308038        -8.3821
  88   2.0000      -0.304059        -8.2739
  89   2.0000      -0.300387        -8.1739
  90   2.0000      -0.298215        -8.1148
  91   2.0000      -0.287248        -7.8164
  92   2.0000      -0.281003        -7.6465
  93   2.0000      -0.278145        -7.5687
  94   2.0000      -0.275108        -7.4861
  95   2.0000      -0.252626        -6.8743
  96   2.0000      -0.239078        -6.5057
  97   2.0000      -0.236476        -6.4348
  98   2.0000      -0.226537        -6.1644
  99   2.0000      -0.213462        -5.8086
 100   2.0000      -0.207343        -5.6421
 101   0.0000      -0.046668        -1.2699
 102   0.0000      -0.036424        -0.9911
 103   0.0000      -0.012742        -0.3467
 104   0.0000       0.008504         0.2314
 105   0.0000       0.014338         0.3902

MULLIKEN ATOMIC CHARGES
-----------------------
   0 C :   -0.479813
   1 C :   -0.156522
   2 O :   -0.340061
   3 P :    0.700046
   4 S :   -0.527003
   5 O :   -0.282334
   6 C :   -0.126568
   7 C :   -0.511824
   8 S :   -0.123567
   9 C :   -0.224837
  10 S :   -0.167215
  11 P :    0.674307
  12 S :   -0.470707
  13 O :   -0.283083
  14 C :   -0.098493
  15 C :   -0.505280
  16 O :   -0.315353
  17 C :   -0.161221
  18 C :   -0.474103
  19 H :    0.166523
  20 H :    0.171101
  21 H :    0.171082
  22 H :    0.176731
  23 H :    0.172605
  24 H :    0.169831
  25 H :    0.173653
  26 H :    0.169078
  27 H :    0.170325
  28 H :    0.166718
  29 H :    0.237380
  30 H :    0.212197
  31 H :    0.175733
  32 H :    0.181094
  33 H :    0.169280
  34 H :    0.170882
  35 H :    0.167621
  36 H :    0.174405
  37 H :    0.174024
  38 H :    0.171779
  39 H :    0.171320
  40 H :    0.160271
Sum of atomic charges:    0.0000000

LOEWDIN ATOMIC CHARGES
----------------------
   0 C :   -0.410615
   1 C :    0.022326
   2 O :   -0.678131
   3 P :    0.375619
   4 S :   -0.166076
   5 O :   -0.692000
   6 C :    0.019744
   7 C :   -0.394725
   8 S :    0.184213
   9 C :   -0.406886
  10 S :    0.128753
  11 P :    0.380977
  12 S :   -0.108892
  13 O :   -0.675371
  14 C :    0.023725
  15 C :   -0.396271
  16 O :   -0.676621
  17 C :    0.025248
  18 C :   -0.404737
  19 H :    0.163147
  20 H :    0.161053
  21 H :    0.167262
  22 H :    0.180884
  23 H :    0.189534
  24 H :    0.179528
  25 H :    0.182079
  26 H :    0.167851
  27 H :    0.163720
  28 H :    0.162739
  29 H :    0.197405
  30 H :    0.199660
  31 H :    0.182941
  32 H :    0.189764
  33 H :    0.165784
  34 H :    0.168480
  35 H :    0.163189
  36 H :    0.189572
  37 H :    0.182033
  38 H :    0.163825
  39 H :    0.168612
  40 H :    0.160655

  Mayer bond orders larger than 0.100000
B(  0-C ,  1-C ) :   0.9103 B(  0-C , 19-H ) :   0.9655 B(  0-C , 20-H ) :   0.9652
B(  0-C , 21-H ) :   0.9546 B(  1-C ,  2-O ) :   0.8142 B(  1-C , 22-H ) :   0.9649
B(  1-C , 23-H ) :   0.9498 B(  2-O ,  3-P ) :   1.0611 B(  3-P ,  4-S ) :   1.6915
B(  3-P ,  5-O ) :   1.1916 B(  3-P ,  8-S ) :   1.1526 B(  5-O ,  6-C ) :   0.7575
B(  6-C ,  7-C ) :   0.9271 B(  6-C , 24-H ) :   0.9354 B(  6-C , 25-H ) :   0.9481
B(  7-C , 26-H ) :   0.9606 B(  7-C , 27-H ) :   0.9711 B(  7-C , 28-H ) :   0.9696
B(  8-S ,  9-C ) :   0.8852 B(  9-C , 10-S ) :   0.9095 B(  9-C , 29-H ) :   0.8985
B(  9-C , 30-H ) :   0.9092 B( 10-S , 11-P ) :   1.0254 B( 11-P , 12-S ) :   1.8286
B( 11-P , 13-O ) :   1.1311 B( 11-P , 16-O ) :   1.0517 B( 13-O , 14-C ) :   0.7178
B( 14-C , 15-C ) :   0.9268 B( 14-C , 31-H ) :   0.9509 B( 14-C , 32-H ) :   0.9535
B( 15-C , 33-H ) :   0.9662 B( 15-C , 34-H ) :   0.9597 B( 15-C , 35-H ) :   0.9729
B( 16-O , 17-C ) :   0.7800 B( 17-C , 18-C ) :   0.9372 B( 17-C , 36-H ) :   0.9529
B( 17-C , 37-H ) :   0.9579 B( 18-C , 38-H ) :   0.9715 B( 18-C , 39-H ) :   0.9584
B( 18-C , 40-H ) :   0.9564

Dispersion correction           -0.022235523
FINAL SINGLE POINT ENERGY     -2932.467138650521

DIPOLE MOMENT
-------------

Method             : SCF
Type of density    : Electron Density
Multiplicity       :   1
Irrep              :   0
Energy             : -2932.4916263193322266 Eh
Relativity type    :
Basis              : AO
                                X                 Y                 Z
Electronic contribution:      4.279952720      -0.539221939     -10.439529583
Nuclear contribution   :     -4.661136032      -0.994830809      11.792208795
                        -----------------------------------------
Total Dipole Moment    :     -0.381183312      -1.534052748       1.352679211
                        -----------------------------------------
Magnitude (a.u.)       :      2.080471004
Magnitude (Debye)      :      5.288137037

Rotational constants in cm-1:             0.012551             0.005398             0.005113
Rotational constants in MHz :           376.257687           161.831844           153.292700

                             ****ORCA TERMINATED NORMALLY****
TOTAL RUN TIME: 0 days 0 hours 1 minutes 51 seconds 643 msec
