                         Program Version 6.0.0  -   RELEASE  -
|  1> ! wb97x-v def2-tzvp def2/J RIJCOSX DEFGRID2 scfconv7 GCP(DFT/TZ) printgap
|  2> %output
|  3>     printlevel normal
|  4> end
|  5> * xyz 0 1
|  6> C -0.8422949151002787 -0.6091009146266454 -0.9353560831905404
|  7> C 0.5135166778577755 0.02668732665453402 -0.778346527437192
|  8> Cl 1.5565872535210892 -0.8735994759841994 0.39214135151175766
|  9> Cl 0.39913903104559817 1.762722406050642 -0.28713262983966664
| 10> Cl -1.8078129685086046 -0.6471430534591935 0.5956641916239043
| 11> H -1.416986898157035 -0.04790659879720243 -1.6754300294210416
| 12> H -0.7158091832205487 -1.6402280749743232 -1.272728147011345
| 13> H 1.0271128300735213 0.0037117810947608306 -1.742175216183426
| 14> *
| 15>
| 16>                          ****END OF INPUT****

CARTESIAN COORDINATES (ANGSTROEM)
---------------------------------
  C     -0.842295   -0.609101   -0.935356
  C      0.513517    0.026687   -0.778347
  Cl     1.556587   -0.873599    0.392141
  Cl     0.399139    1.762722   -0.287133
  Cl    -1.807813   -0.647143    0.595664
  H     -1.416987   -0.047907   -1.675430
  H     -0.715809   -1.640228   -1.272728
  H      1.027113    0.003712   -1.742175

 Total Charge           Charge          ....    0
 Multiplicity           Mult            ....    1
 Number of Electrons    NEL             ....   66
 Basis Dimension        Dim             ....  191

ORBITAL ENERGIES
----------------

  NO   OCC          E(Eh)            E(eV)
   0   2.0000    -107.155445     -2915.8479
   1   2.0000    -107.155431     -2915.8475
   2   2.0000    -107.145283     -2915.5714
   3   2.0000     -12.197301      -331.9054
   4   2.0000     -12.141673      -330.3917
   5   2.0000     -11.308783      -307.7276
   6   2.0000     -11.308565      -307.7217
   7   2.0000     -11.298264      -307.4414
   8   2.0000      -9.100873      -247.6473
   9   2.0000      -9.099685      -247.6150
  10   2.0000      -9.097535      -247.5565
  11   2.0000      -9.097336      -247.5511
  12   2.0000      -9.097068      -247.5438
  13   2.0000      -9.096738      -247.5348
  14   2.0000      -9.089734      -247.3442
  15   2.0000      -9.086916      -247.2676
  16   2.0000      -9.086904      -247.2672
  17   2.0000      -1.458217       -39.6801
  18   2.0000      -1.407149       -38.2905
  19   2.0000      -1.392151       -37.8823
  20   2.0000      -1.272587       -34.6288
  21   2.0000      -1.119144       -30.4535
  22   2.0000      -0.959507       -26.1095
  23   2.0000      -0.954899       -25.9841
  24   2.0000      -0.936169       -25.4745
  25   2.0000      -0.883885       -24.0517
  26   2.0000      -0.879155       -23.9230
  27   2.0000      -0.808617       -22.0036
  28   2.0000      -0.803893       -21.8750
  29   2.0000      -0.792780       -21.5726
  30   2.0000      -0.791077       -21.5263
  31   2.0000      -0.781453       -21.2644
  32   2.0000      -0.779917       -21.2226
  33   0.0000      -0.333714        -9.0808
  34   0.0000      -0.269400        -7.3307
  35   0.0000      -0.267505        -7.2792
  36   0.0000      -0.069138        -1.8813
  37   0.0000      -0.047141        -1.2828

MULLIKEN ATOMIC CHARGES
-----------------------
   0 C :   -0.150674
   1 C :    0.006642
   2 Cl:   -0.090259
   3 Cl:   -0.090459
   4 Cl:   -0.116682
   5 H :    0.146132
   6 H :    0.146011
   7 H :    0.149289
Sum of atomic charges:   -0.0000000

LOEWDIN ATOMIC CHARGES
----------------------
   0 C :   -0.516907
   1 C :   -0.748989
   2 Cl:    0.299208
   3 Cl:    0.299190
   4 Cl:    0.269966
   5 H :    0.132480
   6 H :    0.132499
   7 H :    0.132552

  Mayer bond orders larger than 0.100000
B(  0-C ,  1-C ) :   0.9966 B(  0-C ,  4-Cl) :   1.0901 B(  0-C ,  5-H ) :   0.9550
B(  0-C ,  6-H ) :   0.9550 B(  1-C ,  2-Cl) :   1.1075 B(  1-C ,  3-Cl) :   1.1073
B(  1-C ,  7-H ) :   0.9542

FINAL SINGLE POINT ENERGY     -1458.453918179295

DIPOLE MOMENT
-------------

Method             : SCF
Type of density    : Electron Density
Multiplicity       :   1
Irrep              :   0
Energy             : -1458.4589812027952576 Eh
Relativity type    :
Basis              : AO
                                X                 Y                 Z
Electronic contribution:      1.226372136       1.624183241       4.254371902
Nuclear contribution   :     -1.234216436      -1.906112037      -5.345080556
                        -----------------------------------------
Total Dipole Moment    :     -0.007844301      -0.281928795      -1.090708654
                        -----------------------------------------
Magnitude (a.u.)       :      1.126583662
Magnitude (Debye)      :      2.863548098

Rotational constants in cm-1:             0.087444             0.062097             0.042986
Rotational constants in MHz :          2621.517846          1861.607011          1288.694390

                             ****ORCA TERMINATED NORMALLY****
TOTAL RUN TIME: 0 days 0 hours 1 minutes 22 seconds 516 msec
