                         Program Version 6.0.0  -   RELEASE  -
|  1> ! wb97x-v def2-tzvp def2/J RIJCOSX DEFGRID2 scfconv7 GCP(DFT/TZ) printgap
|  2> %output
|  3>     printlevel normal
|  4> end
|  5> %cpcm
|  6>     smd true
|  7>     smdsolvent "water"
|  8> end
|  9> * xyz 0 1
| 10> C -0.8422949151002787 -0.6091009146266454 -0.9353560831905404
| 11> C 0.5135166778577755 0.02668732665453402 -0.778346527437192
| 12> Cl 1.5565872535210892 -0.8735994759841994 0.39214135151175766
| 13> Cl 0.39913903104559817 1.762722406050642 -0.28713262983966664
| 14> Cl -1.8078129685086046 -0.6471430534591935 0.5956641916239043
| 15> H -1.416986898157035 -0.04790659879720243 -1.6754300294210416
| 16> H -0.7158091832205487 -1.6402280749743232 -1.272728147011345
| 17> H 1.0271128300735213 0.0037117810947608306 -1.742175216183426
| 18> *
| 19>
| 20>                          ****END OF INPUT****

CARTESIAN COORDINATES (ANGSTROEM)
---------------------------------
  C     -0.842295   -0.609101   -0.935356
  C      0.513517    0.026687   -0.778347
  Cl     1.556587   -0.873599    0.392141
  Cl     0.399139    1.762722   -0.287133
  Cl    -1.807813   -0.647143    0.595664
  H     -1.416987   -0.047907   -1.675430
  H     -0.715809   -1.640228   -1.272728
  H      1.027113    0.003712   -1.742175

 Total Charge           Charge          ....    0
 Multiplicity           Mult            ....    1
 Number of Electrons    NEL             ....   66
 Basis Dimension        Dim             ....  191

ORBITAL ENERGIES
----------------

  NO   OCC          E(Eh)            E(eV)
   0   2.0000    -107.150864     -2915.7233
   1   2.0000    -107.150858     -2915.7231
   2   2.0000    -107.140296     -2915.4357
   3   2.0000     -12.183992      -331.5433
   4   2.0000     -12.122740      -329.8765
   5   2.0000     -11.304371      -307.6076
   6   2.0000     -11.304155      -307.6017
   7   2.0000     -11.293533      -307.3126
   8   2.0000      -9.096438      -247.5267
   9   2.0000      -9.095222      -247.4936
  10   2.0000      -9.093209      -247.4388
  11   2.0000      -9.092994      -247.4329
  12   2.0000      -9.092726      -247.4257
  13   2.0000      -9.092406      -247.4169
  14   2.0000      -9.084940      -247.2138
  15   2.0000      -9.082306      -247.1421
  16   2.0000      -9.082291      -247.1417
  17   2.0000      -1.450859       -39.4799
  18   2.0000      -1.401509       -38.1370
  19   2.0000      -1.387956       -37.7682
  20   2.0000      -1.258985       -34.2587
  21   2.0000      -1.104890       -30.0656
  22   2.0000      -0.945038       -25.7158
  23   2.0000      -0.943168       -25.6649
  24   2.0000      -0.925566       -25.1859
  25   2.0000      -0.870637       -23.6912
  26   2.0000      -0.868148       -23.6235
  27   2.0000      -0.804656       -21.8958
  28   2.0000      -0.800367       -21.7791
  29   2.0000      -0.789564       -21.4851
  30   2.0000      -0.786627       -21.4052
  31   2.0000      -0.775802       -21.1106
  32   2.0000      -0.773875       -21.0582
  33   0.0000      -0.325291        -8.8516
  34   0.0000      -0.258058        -7.0221
  35   0.0000      -0.255455        -6.9513
  36   0.0000      -0.054775        -1.4905
  37   0.0000      -0.020537        -0.5588

MULLIKEN ATOMIC CHARGES
-----------------------
   0 C :   -0.161956
   1 C :    0.007486
   2 Cl:   -0.127040
   3 Cl:   -0.127113
   4 Cl:   -0.170018
   5 H :    0.185863
   6 H :    0.185975
   7 H :    0.206803
Sum of atomic charges:   -0.0000000

LOEWDIN ATOMIC CHARGES
----------------------
   0 C :   -0.498870
   1 C :   -0.731687
   2 Cl:    0.275843
   3 Cl:    0.275859
   4 Cl:    0.235075
   5 H :    0.146107
   6 H :    0.146218
   7 H :    0.151455

  Mayer bond orders larger than 0.100000
B(  0-C ,  1-C ) :   1.0105 B(  0-C ,  4-Cl) :   1.0369 B(  0-C ,  5-H ) :   0.9445
B(  0-C ,  6-H ) :   0.9446 B(  1-C ,  2-Cl) :   1.0740 B(  1-C ,  3-Cl) :   1.0741
B(  1-C ,  7-H ) :   0.9422

FINAL SINGLE POINT ENERGY     -1458.461746611835

DIPOLE MOMENT
-------------

Method             : SCF
Type of density    : Electron Density
Multiplicity       :   1
Irrep              :   0
Energy             : -1458.4668096353348119 Eh
Relativity type    :
Basis              : AO
                                X                 Y                 Z
Electronic contribution:      1.237617993       1.495530911       3.732817773
Nuclear contribution   :     -1.234216436      -1.906112037      -5.345080556
                        -----------------------------------------
Total Dipole Moment    :      0.003401557      -0.410581126      -1.612262783
                        -----------------------------------------
Magnitude (a.u.)       :      1.663724650
Magnitude (Debye)      :      4.228851989

Rotational constants in cm-1:             0.087444             0.062097             0.042986
Rotational constants in MHz :          2621.517846          1861.607011          1288.694390

                             ****ORCA TERMINATED NORMALLY****
TOTAL RUN TIME: 0 days 0 hours 1 minutes 38 seconds 624 msec
