                         Program Version 6.0.0  -   RELEASE  -
|  1> ! r2scan-3c def2/J RI DEFGRID2 scfconv6 printgap
|  2> %output
|  3>     printlevel normal
|  4> end
|  5> * xyz 0 1
|  6> C 5.3194420164 -2.0132958604 -1.6199489531
|  7> C 4.2158400687 -0.9751404731 -1.6396061709
|  8> O 3.2876832672 -1.294520115 -0.5830357904
|  9> P 2.2538529679 -0.2222296587 -0.0357511532
| 10> S 3.0180823674 1.5300066683 0.4162596354
| 11> O 1.5612660524 -1.0164832693 1.1461243078
| 12> C 2.0081936413 -0.8891605848 2.5127209101
| 13> C 3.3715327322 -1.5160504402 2.7106489327
| 14> S 0.7283050206 -0.2297770715 -1.4945123983
| 15> C -0.0715575208 1.309910231 -0.9609380643
| 16> S -0.840219423 1.1802702889 0.6732618885
| 17> P -2.6914694774 0.2795084034 0.0934218525
| 18> S -3.1539881932 0.4502074834 -1.8091576936
| 19> O -3.7622373102 0.874581032 1.0913514235
| 20> C -4.5348283771 2.0430867466 0.7651113122
| 21> C -3.6914311563 3.302684361 0.7700420619
| 22> O -2.6844028231 -1.1629656441 0.7467352149
| 23> C -1.7099611996 -2.1918674179 0.5086394391
| 24> C -1.8482583949 -2.8116508792 -0.8682513884
| 25> H 4.896165527 -3.0048789415 -1.7503267654
| 26> H 6.0140003497 -1.8090576317 -2.4281431912
| 27> H 5.8513405659 -1.9785506021 -0.6734606304
| 28> H 3.6714997847 -0.9887718532 -2.587728155
| 29> H 4.608325413 0.0327783442 -1.4667539636
| 30> H 2.0247350988 0.1739861528 2.7733809674
| 31> H 1.2362142941 -1.3987679226 3.090641245
| 32> H 3.6347359856 -1.48406849 3.7632585055
| 33> H 3.363855154 -2.5472795372 2.3678145916
| 34> H 4.1167171382 -0.9609137492 2.1419544824
| 35> H -0.8344670373 1.5351731881 -1.7075745618
| 36> H 0.6768773806 2.0986229285 -0.8950083363
| 37> H -4.9983361766 1.8938400505 -0.2156135276
| 38> H -5.3044697889 2.0714115604 1.5375186519
| 39> H -3.1452425068 3.3875710444 1.7061203742
| 40> H -2.977907445 3.2771594941 -0.0524982117
| 41> H -4.3359879382 4.1673084853 0.6485520435
| 42> H -0.705435695 -1.7809072353 0.6519924801
| 43> H -1.9153399355 -2.923597288 1.2925498438
| 44> H -1.6106670391 -2.0839731236 -1.642301066
| 45> H -1.1612299862 -3.647491982 -0.9532643192
| 46> H -2.8657470183 -3.1624432819 -1.0203153883
| 47> *
| 48>
| 49>                          ****END OF INPUT****

CARTESIAN COORDINATES (ANGSTROEM)
---------------------------------
  C      5.319442   -2.013296   -1.619949
  C      4.215840   -0.975140   -1.639606
  O      3.287683   -1.294520   -0.583036
  P      2.253853   -0.222230   -0.035751
  S      3.018082    1.530007    0.416260
  O      1.561266   -1.016483    1.146124
  C      2.008194   -0.889161    2.512721
  C      3.371533   -1.516050    2.710649
  S      0.728305   -0.229777   -1.494512
  C     -0.071558    1.309910   -0.960938
  S     -0.840219    1.180270    0.673262
  P     -2.691469    0.279508    0.093422
  S     -3.153988    0.450207   -1.809158
  O     -3.762237    0.874581    1.091351
  C     -4.534828    2.043087    0.765111
  C     -3.691431    3.302684    0.770042
  O     -2.684403   -1.162966    0.746735
  C     -1.709961   -2.191867    0.508639
  C     -1.848258   -2.811651   -0.868251
  H      4.896166   -3.004879   -1.750327
  H      6.014000   -1.809058   -2.428143
  H      5.851341   -1.978551   -0.673461
  H      3.671500   -0.988772   -2.587728
  H      4.608325    0.032778   -1.466754
  H      2.024735    0.173986    2.773381
  H      1.236214   -1.398768    3.090641
  H      3.634736   -1.484068    3.763259
  H      3.363855   -2.547280    2.367815
  H      4.116717   -0.960914    2.141954
  H     -0.834467    1.535173   -1.707575
  H      0.676877    2.098623   -0.895008
  H     -4.998336    1.893840   -0.215614
  H     -5.304470    2.071412    1.537519
  H     -3.145243    3.387571    1.706120
  H     -2.977907    3.277159   -0.052498
  H     -4.335988    4.167308    0.648552
  H     -0.705436   -1.780907    0.651992
  H     -1.915340   -2.923597    1.292550
  H     -1.610667   -2.083973   -1.642301
  H     -1.161230   -3.647492   -0.953264
  H     -2.865747   -3.162443   -1.020315

 Total Charge           Charge          ....    0
 Multiplicity           Mult            ....    1
 Number of Electrons    NEL             ....  202
 Basis Dimension        Dim             ....  539

ORBITAL ENERGIES
----------------

  NO   OCC          E(Eh)            E(eV)
   0   2.0000     -88.578843     -2410.3529
   1   2.0000     -88.575504     -2410.2620
   2   2.0000     -88.525981     -2408.9144
   3   2.0000     -88.522234     -2408.8124
   4   2.0000     -76.918444     -2093.0573
   5   2.0000     -76.913328     -2092.9181
   6   2.0000     -18.998356      -516.9715
   7   2.0000     -18.996225      -516.9136
   8   2.0000     -18.989481      -516.7301
   9   2.0000     -18.986841      -516.6582
  10   2.0000     -10.104259      -274.9509
  11   2.0000     -10.103472      -274.9295
  12   2.0000     -10.101735      -274.8822
  13   2.0000     -10.095853      -274.7221
  14   2.0000     -10.092418      -274.6286
  15   2.0000     -10.037522      -273.1349
  16   2.0000     -10.032593      -273.0007
  17   2.0000     -10.026285      -272.8291
  18   2.0000     -10.019133      -272.6345
  19   2.0000      -7.873163      -214.2397
  20   2.0000      -7.869552      -214.1414
  21   2.0000      -7.820684      -212.8116
  22   2.0000      -7.817058      -212.7130
  23   2.0000      -6.597162      -179.5179
  24   2.0000      -6.591778      -179.3714
  25   2.0000      -5.819941      -158.3686
  26   2.0000      -5.817023      -158.2893
  27   2.0000      -5.816459      -158.2739
  28   2.0000      -5.813375      -158.1900
  29   2.0000      -5.810384      -158.1086
  30   2.0000      -5.806735      -158.0093
  31   2.0000      -5.768259      -156.9623
  32   2.0000      -5.764668      -156.8646
  33   2.0000      -5.760967      -156.7639
  34   2.0000      -5.760770      -156.7585
  35   2.0000      -5.757282      -156.6636
  36   2.0000      -5.757152      -156.6601
  37   2.0000      -4.742516      -129.0504
  38   2.0000      -4.742141      -129.0402
  39   2.0000      -4.740939      -129.0075
  40   2.0000      -4.737064      -128.9021
  41   2.0000      -4.736990      -128.9001
  42   2.0000      -4.735451      -128.8582
  43   2.0000      -1.055967       -28.7343
  44   2.0000      -1.050393       -28.5826
  45   2.0000      -1.017223       -27.6801
  46   2.0000      -1.007075       -27.4039
  47   2.0000      -0.802282       -21.8312
  48   2.0000      -0.761227       -20.7140
  49   2.0000      -0.750444       -20.4206
  50   2.0000      -0.737406       -20.0658
  51   2.0000      -0.723599       -19.6901
  52   2.0000      -0.712750       -19.3949
  53   2.0000      -0.687395       -18.7050
  54   2.0000      -0.671149       -18.2629
  55   2.0000      -0.635106       -17.2821
  56   2.0000      -0.627714       -17.0810
  57   2.0000      -0.604698       -16.4547
  58   2.0000      -0.599926       -16.3248
  59   2.0000      -0.593640       -16.1538
  60   2.0000      -0.533714       -14.5231
  61   2.0000      -0.517667       -14.0864
  62   2.0000      -0.501739       -13.6530
  63   2.0000      -0.485360       -13.2073
  64   2.0000      -0.478949       -13.0329
  65   2.0000      -0.465120       -12.6566
  66   2.0000      -0.458421       -12.4743
  67   2.0000      -0.452450       -12.3118
  68   2.0000      -0.439238       -11.9523
  69   2.0000      -0.434855       -11.8330
  70   2.0000      -0.427404       -11.6303
  71   2.0000      -0.423679       -11.5289
  72   2.0000      -0.415931       -11.3181
  73   2.0000      -0.401294       -10.9198
  74   2.0000      -0.396465       -10.7884
  75   2.0000      -0.391459       -10.6521
  76   2.0000      -0.385963       -10.5026
  77   2.0000      -0.377451       -10.2710
  78   2.0000      -0.373940       -10.1754
  79   2.0000      -0.366455        -9.9718
  80   2.0000      -0.363740        -9.8979
  81   2.0000      -0.359381        -9.7792
  82   2.0000      -0.353613        -9.6223
  83   2.0000      -0.352287        -9.5862
  84   2.0000      -0.346327        -9.4240
  85   2.0000      -0.334854        -9.1118
  86   2.0000      -0.325044        -8.8449
  87   2.0000      -0.320003        -8.7077
  88   2.0000      -0.310988        -8.4624
  89   2.0000      -0.305401        -8.3104
  90   2.0000      -0.300385        -8.1739
  91   2.0000      -0.294340        -8.0094
  92   2.0000      -0.282762        -7.6944
  93   2.0000      -0.281271        -7.6538
  94   2.0000      -0.272554        -7.4166
  95   2.0000      -0.251021        -6.8306
  96   2.0000      -0.231672        -6.3041
  97   2.0000      -0.230113        -6.2617
  98   2.0000      -0.220120        -5.9898
  99   2.0000      -0.219029        -5.9601
 100   2.0000      -0.216201        -5.8831
 101   0.0000      -0.050014        -1.3609
 102   0.0000      -0.029944        -0.8148
 103   0.0000      -0.007476        -0.2034
 104   0.0000      -0.002989        -0.0813
 105   0.0000       0.013724         0.3734

MULLIKEN ATOMIC CHARGES
-----------------------
   0 C :   -0.439016
   1 C :   -0.157826
   2 O :   -0.286383
   3 P :    0.692467
   4 S :   -0.480898
   5 O :   -0.277575
   6 C :   -0.147470
   7 C :   -0.442623
   8 S :   -0.141579
   9 C :   -0.244476
  10 S :   -0.128773
  11 P :    0.685703
  12 S :   -0.468896
  13 O :   -0.313129
  14 C :   -0.150005
  15 C :   -0.437446
  16 O :   -0.276865
  17 C :   -0.164394
  18 C :   -0.419974
  19 H :    0.154482
  20 H :    0.148436
  21 H :    0.154813
  22 H :    0.153654
  23 H :    0.171066
  24 H :    0.174824
  25 H :    0.151972
  26 H :    0.148558
  27 H :    0.155857
  28 H :    0.168711
  29 H :    0.214213
  30 H :    0.218376
  31 H :    0.172961
  32 H :    0.149347
  33 H :    0.155738
  34 H :    0.168317
  35 H :    0.146950
  36 H :    0.177336
  37 H :    0.146837
  38 H :    0.169861
  39 H :    0.144790
  40 H :    0.152061
Sum of atomic charges:    0.0000000

LOEWDIN ATOMIC CHARGES
----------------------
   0 C :   -0.385016
   1 C :    0.020595
   2 O :   -0.664160
   3 P :    0.370767
   4 S :   -0.130857
   5 O :   -0.687642
   6 C :    0.020083
   7 C :   -0.399016
   8 S :    0.160643
   9 C :   -0.426357
  10 S :    0.159702
  11 P :    0.394590
  12 S :   -0.129907
  13 O :   -0.650913
  14 C :    0.021458
  15 C :   -0.405525
  16 O :   -0.647202
  17 C :    0.020810
  18 C :   -0.409247
  19 H :    0.160333
  20 H :    0.160824
  21 H :    0.160181
  22 H :    0.172808
  23 H :    0.180806
  24 H :    0.182031
  25 H :    0.180437
  26 H :    0.160301
  27 H :    0.160899
  28 H :    0.165514
  29 H :    0.194342
  30 H :    0.190839
  31 H :    0.179880
  32 H :    0.180143
  33 H :    0.161123
  34 H :    0.162686
  35 H :    0.158651
  36 H :    0.191135
  37 H :    0.179379
  38 H :    0.165687
  39 H :    0.158773
  40 H :    0.160419

  Mayer bond orders larger than 0.100000
B(  0-C ,  1-C ) :   0.9573 B(  0-C , 19-H ) :   0.9714 B(  0-C , 20-H ) :   0.9639
B(  0-C , 21-H ) :   0.9712 B(  1-C ,  2-O ) :   0.7784 B(  1-C , 22-H ) :   0.9453
B(  1-C , 23-H ) :   0.9516 B(  2-O ,  3-P ) :   1.0962 B(  3-P ,  4-S ) :   1.7452
B(  3-P ,  5-O ) :   1.1526 B(  3-P ,  8-S ) :   1.0662 B(  5-O ,  6-C ) :   0.7896
B(  6-C ,  7-C ) :   0.9264 B(  6-C , 24-H ) :   0.9636 B(  6-C , 25-H ) :   0.9601
B(  7-C , 26-H ) :   0.9617 B(  7-C , 27-H ) :   0.9710 B(  7-C , 28-H ) :   0.9594
B(  8-S ,  9-C ) :   0.9112 B(  9-C , 10-S ) :   0.9085 B(  9-C , 29-H ) :   0.8979
B(  9-C , 30-H ) :   0.9074 B( 10-S , 11-P ) :   1.0512 B( 11-P , 12-S ) :   1.7409
B( 11-P , 13-O ) :   1.1279 B( 11-P , 16-O ) :   1.1446 B( 13-O , 14-C ) :   0.8173
B( 14-C , 15-C ) :   0.9216 B( 14-C , 31-H ) :   0.9683 B( 14-C , 32-H ) :   0.9590
B( 15-C , 33-H ) :   0.9673 B( 15-C , 34-H ) :   0.9658 B( 15-C , 35-H ) :   0.9607
B( 16-O , 17-C ) :   0.8019 B( 17-C , 18-C ) :   0.9307 B( 17-C , 36-H ) :   0.9516
B( 17-C , 37-H ) :   0.9642 B( 18-C , 38-H ) :   0.9521 B( 18-C , 39-H ) :   0.9667
B( 18-C , 40-H ) :   0.9689

Dispersion correction           -0.021324413
FINAL SINGLE POINT ENERGY     -2932.466267354872

DIPOLE MOMENT
-------------

Method             : SCF
Type of density    : Electron Density
Multiplicity       :   1
Irrep              :   0
Energy             : -2932.4915686096369427 Eh
Relativity type    :
Basis              : AO
                                X                 Y                 Z
Electronic contribution:     -9.233106890       8.110546097      -3.810740770
Nuclear contribution   :      9.981062103      -8.742694856       4.345699037
                        -----------------------------------------
Total Dipole Moment    :      0.747955213      -0.632148758       0.534958268
                        -----------------------------------------
Magnitude (a.u.)       :      1.115898473
Magnitude (Debye)      :      2.836388506

Rotational constants in cm-1:             0.013594             0.004445             0.004302
Rotational constants in MHz :           407.522944           133.271936           128.982288

                             ****ORCA TERMINATED NORMALLY****
TOTAL RUN TIME: 0 days 0 hours 1 minutes 17 seconds 789 msec
