                         Program Version 6.0.0  -   RELEASE  -
|  1> ! r2scan-3c def2/J RI DEFGRID2 scfconv6 printgap
|  2> %output
|  3>     printlevel normal
|  4> end
|  5> %cpcm
|  6>     smd true
|  7>     smdsolvent "water"
|  8> end
|  9> * xyz 0 1
| 10> C 5.3194420164 -2.0132958604 -1.6199489531
| 11> C 4.2158400687 -0.9751404731 -1.6396061709
| 12> O 3.2876832672 -1.294520115 -0.5830357904
| 13> P 2.2538529679 -0.2222296587 -0.0357511532
| 14> S 3.0180823674 1.5300066683 0.4162596354
| 15> O 1.5612660524 -1.0164832693 1.1461243078
| 16> C 2.0081936413 -0.8891605848 2.5127209101
| 17> C 3.3715327322 -1.5160504402 2.7106489327
| 18> S 0.7283050206 -0.2297770715 -1.4945123983
| 19> C -0.0715575208 1.309910231 -0.9609380643
| 20> S -0.840219423 1.1802702889 0.6732618885
| 21> P -2.6914694774 0.2795084034 0.0934218525
| 22> S -3.1539881932 0.4502074834 -1.8091576936
| 23> O -3.7622373102 0.874581032 1.0913514235
| 24> C -4.5348283771 2.0430867466 0.7651113122
| 25> C -3.6914311563 3.302684361 0.7700420619
| 26> O -2.6844028231 -1.1629656441 0.7467352149
| 27> C -1.7099611996 -2.1918674179 0.5086394391
| 28> C -1.8482583949 -2.8116508792 -0.8682513884
| 29> H 4.896165527 -3.0048789415 -1.7503267654
| 30> H 6.0140003497 -1.8090576317 -2.4281431912
| 31> H 5.8513405659 -1.9785506021 -0.6734606304
| 32> H 3.6714997847 -0.9887718532 -2.587728155
| 33> H 4.608325413 0.0327783442 -1.4667539636
| 34> H 2.0247350988 0.1739861528 2.7733809674
| 35> H 1.2362142941 -1.3987679226 3.090641245
| 36> H 3.6347359856 -1.48406849 3.7632585055
| 37> H 3.363855154 -2.5472795372 2.3678145916
| 38> H 4.1167171382 -0.9609137492 2.1419544824
| 39> H -0.8344670373 1.5351731881 -1.7075745618
| 40> H 0.6768773806 2.0986229285 -0.8950083363
| 41> H -4.9983361766 1.8938400505 -0.2156135276
| 42> H -5.3044697889 2.0714115604 1.5375186519
| 43> H -3.1452425068 3.3875710444 1.7061203742
| 44> H -2.977907445 3.2771594941 -0.0524982117
| 45> H -4.3359879382 4.1673084853 0.6485520435
| 46> H -0.705435695 -1.7809072353 0.6519924801
| 47> H -1.9153399355 -2.923597288 1.2925498438
| 48> H -1.6106670391 -2.0839731236 -1.642301066
| 49> H -1.1612299862 -3.647491982 -0.9532643192
| 50> H -2.8657470183 -3.1624432819 -1.0203153883
| 51> *
| 52>
| 53>                          ****END OF INPUT****

CARTESIAN COORDINATES (ANGSTROEM)
---------------------------------
  C      5.319442   -2.013296   -1.619949
  C      4.215840   -0.975140   -1.639606
  O      3.287683   -1.294520   -0.583036
  P      2.253853   -0.222230   -0.035751
  S      3.018082    1.530007    0.416260
  O      1.561266   -1.016483    1.146124
  C      2.008194   -0.889161    2.512721
  C      3.371533   -1.516050    2.710649
  S      0.728305   -0.229777   -1.494512
  C     -0.071558    1.309910   -0.960938
  S     -0.840219    1.180270    0.673262
  P     -2.691469    0.279508    0.093422
  S     -3.153988    0.450207   -1.809158
  O     -3.762237    0.874581    1.091351
  C     -4.534828    2.043087    0.765111
  C     -3.691431    3.302684    0.770042
  O     -2.684403   -1.162966    0.746735
  C     -1.709961   -2.191867    0.508639
  C     -1.848258   -2.811651   -0.868251
  H      4.896166   -3.004879   -1.750327
  H      6.014000   -1.809058   -2.428143
  H      5.851341   -1.978551   -0.673461
  H      3.671500   -0.988772   -2.587728
  H      4.608325    0.032778   -1.466754
  H      2.024735    0.173986    2.773381
  H      1.236214   -1.398768    3.090641
  H      3.634736   -1.484068    3.763259
  H      3.363855   -2.547280    2.367815
  H      4.116717   -0.960914    2.141954
  H     -0.834467    1.535173   -1.707575
  H      0.676877    2.098623   -0.895008
  H     -4.998336    1.893840   -0.215614
  H     -5.304470    2.071412    1.537519
  H     -3.145243    3.387571    1.706120
  H     -2.977907    3.277159   -0.052498
  H     -4.335988    4.167308    0.648552
  H     -0.705436   -1.780907    0.651992
  H     -1.915340   -2.923597    1.292550
  H     -1.610667   -2.083973   -1.642301
  H     -1.161230   -3.647492   -0.953264
  H     -2.865747   -3.162443   -1.020315

 Total Charge           Charge          ....    0
 Multiplicity           Mult            ....    1
 Number of Electrons    NEL             ....  202
 Basis Dimension        Dim             ....  539

ORBITAL ENERGIES
----------------

  NO   OCC          E(Eh)            E(eV)
   0   2.0000     -88.580952     -2410.4102
   1   2.0000     -88.580087     -2410.3867
   2   2.0000     -88.531324     -2409.0598
   3   2.0000     -88.530269     -2409.0311
   4   2.0000     -76.920851     -2093.1228
   5   2.0000     -76.920354     -2093.1092
   6   2.0000     -18.997264      -516.9418
   7   2.0000     -18.995867      -516.9038
   8   2.0000     -18.995043      -516.8814
   9   2.0000     -18.994700      -516.8721
  10   2.0000     -10.104535      -274.9584
  11   2.0000     -10.091006      -274.5902
  12   2.0000     -10.090198      -274.5682
  13   2.0000     -10.089829      -274.5582
  14   2.0000     -10.089264      -274.5428
  15   2.0000     -10.020019      -272.6586
  16   2.0000     -10.019104      -272.6337
  17   2.0000     -10.018150      -272.6077
  18   2.0000     -10.016052      -272.5506
  19   2.0000      -7.875321      -214.2984
  20   2.0000      -7.874135      -214.2661
  21   2.0000      -7.826387      -212.9668
  22   2.0000      -7.825252      -212.9359
  23   2.0000      -6.599415      -179.5792
  24   2.0000      -6.599100      -179.5707
  25   2.0000      -5.822080      -158.4269
  26   2.0000      -5.821071      -158.3994
  27   2.0000      -5.819179      -158.3479
  28   2.0000      -5.817962      -158.3148
  29   2.0000      -5.812561      -158.1678
  30   2.0000      -5.811293      -158.1333
  31   2.0000      -5.773947      -157.1171
  32   2.0000      -5.772764      -157.0849
  33   2.0000      -5.766621      -156.9177
  34   2.0000      -5.766475      -156.9138
  35   2.0000      -5.765526      -156.8879
  36   2.0000      -5.765357      -156.8834
  37   2.0000      -4.744698      -129.1098
  38   2.0000      -4.744608      -129.1073
  39   2.0000      -4.744401      -129.1017
  40   2.0000      -4.744069      -129.0927
  41   2.0000      -4.743113      -129.0667
  42   2.0000      -4.742973      -129.0629
  43   2.0000      -1.057329       -28.7714
  44   2.0000      -1.054551       -28.6958
  45   2.0000      -1.015063       -27.6213
  46   2.0000      -1.013225       -27.5712
  47   2.0000      -0.804135       -21.8816
  48   2.0000      -0.757366       -20.6090
  49   2.0000      -0.746318       -20.3084
  50   2.0000      -0.725205       -19.7338
  51   2.0000      -0.719410       -19.5761
  52   2.0000      -0.712457       -19.3869
  53   2.0000      -0.690649       -18.7935
  54   2.0000      -0.676309       -18.4033
  55   2.0000      -0.632550       -17.2126
  56   2.0000      -0.624864       -17.0034
  57   2.0000      -0.599485       -16.3128
  58   2.0000      -0.593699       -16.1554
  59   2.0000      -0.590915       -16.0796
  60   2.0000      -0.528547       -14.3825
  61   2.0000      -0.516528       -14.0555
  62   2.0000      -0.496230       -13.5031
  63   2.0000      -0.486371       -13.2348
  64   2.0000      -0.478574       -13.0226
  65   2.0000      -0.462197       -12.5770
  66   2.0000      -0.453141       -12.3306
  67   2.0000      -0.446064       -12.1380
  68   2.0000      -0.438743       -11.9388
  69   2.0000      -0.433294       -11.7905
  70   2.0000      -0.426289       -11.5999
  71   2.0000      -0.423646       -11.5280
  72   2.0000      -0.409605       -11.1459
  73   2.0000      -0.398109       -10.8331
  74   2.0000      -0.394982       -10.7480
  75   2.0000      -0.386862       -10.5271
  76   2.0000      -0.385496       -10.4899
  77   2.0000      -0.373177       -10.1547
  78   2.0000      -0.363332        -9.8868
  79   2.0000      -0.355837        -9.6828
  80   2.0000      -0.354401        -9.6437
  81   2.0000      -0.351494        -9.5646
  82   2.0000      -0.351335        -9.5603
  83   2.0000      -0.349185        -9.5018
  84   2.0000      -0.343442        -9.3455
  85   2.0000      -0.331256        -9.0139
  86   2.0000      -0.322266        -8.7693
  87   2.0000      -0.314211        -8.5501
  88   2.0000      -0.309097        -8.4110
  89   2.0000      -0.302382        -8.2282
  90   2.0000      -0.299844        -8.1592
  91   2.0000      -0.290150        -7.8954
  92   2.0000      -0.284959        -7.7541
  93   2.0000      -0.280264        -7.6264
  94   2.0000      -0.276307        -7.5187
  95   2.0000      -0.253415        -6.8958
  96   2.0000      -0.237851        -6.4723
  97   2.0000      -0.236490        -6.4352
  98   2.0000      -0.227275        -6.1845
  99   2.0000      -0.225575        -6.1382
 100   2.0000      -0.222587        -6.0569
 101   0.0000      -0.054987        -1.4963
 102   0.0000      -0.035389        -0.9630
 103   0.0000      -0.012444        -0.3386
 104   0.0000      -0.006069        -0.1652
 105   0.0000       0.012220         0.3325

MULLIKEN ATOMIC CHARGES
-----------------------
   0 C :   -0.482249
   1 C :   -0.149329
   2 O :   -0.311412
   3 P :    0.724783
   4 S :   -0.527934
   5 O :   -0.297887
   6 C :   -0.141845
   7 C :   -0.484487
   8 S :   -0.148607
   9 C :   -0.251512
  10 S :   -0.135544
  11 P :    0.710445
  12 S :   -0.504531
  13 O :   -0.344056
  14 C :   -0.148707
  15 C :   -0.475574
  16 O :   -0.310102
  17 C :   -0.151164
  18 C :   -0.468017
  19 H :    0.166394
  20 H :    0.169900
  21 H :    0.166399
  22 H :    0.172201
  23 H :    0.172946
  24 H :    0.177003
  25 H :    0.178571
  26 H :    0.172774
  27 H :    0.170487
  28 H :    0.168422
  29 H :    0.227768
  30 H :    0.239097
  31 H :    0.177676
  32 H :    0.175454
  33 H :    0.167364
  34 H :    0.170007
  35 H :    0.171861
  36 H :    0.175442
  37 H :    0.176124
  38 H :    0.164930
  39 H :    0.172115
  40 H :    0.164796
Sum of atomic charges:   -0.0000000

LOEWDIN ATOMIC CHARGES
----------------------
   0 C :   -0.388838
   1 C :    0.025252
   2 O :   -0.675378
   3 P :    0.375461
   4 S :   -0.160349
   5 O :   -0.695185
   6 C :    0.024498
   7 C :   -0.402271
   8 S :    0.156484
   9 C :   -0.419793
  10 S :    0.158410
  11 P :    0.396202
  12 S :   -0.154412
  13 O :   -0.668427
  14 C :    0.026116
  15 C :   -0.408403
  16 O :   -0.665559
  17 C :    0.025841
  18 C :   -0.414199
  19 H :    0.163515
  20 H :    0.169182
  21 H :    0.162848
  22 H :    0.180165
  23 H :    0.181930
  24 H :    0.182451
  25 H :    0.191176
  26 H :    0.169245
  27 H :    0.164553
  28 H :    0.162968
  29 H :    0.199104
  30 H :    0.196971
  31 H :    0.181658
  32 H :    0.191129
  33 H :    0.163776
  34 H :    0.160874
  35 H :    0.167919
  36 H :    0.191394
  37 H :    0.191537
  38 H :    0.161079
  39 H :    0.168667
  40 H :    0.162408

  Mayer bond orders larger than 0.100000
B(  0-C ,  1-C ) :   0.9530 B(  0-C , 19-H ) :   0.9688 B(  0-C , 20-H ) :   0.9581
B(  0-C , 21-H ) :   0.9689 B(  1-C ,  2-O ) :   0.7715 B(  1-C , 22-H ) :   0.9367
B(  1-C , 23-H ) :   0.9483 B(  2-O ,  3-P ) :   1.1039 B(  3-P ,  4-S ) :   1.7045
B(  3-P ,  5-O ) :   1.1618 B(  3-P ,  8-S ) :   1.0773 B(  5-O ,  6-C ) :   0.7775
B(  6-C ,  7-C ) :   0.9163 B(  6-C , 24-H ) :   0.9599 B(  6-C , 25-H ) :   0.9500
B(  7-C , 26-H ) :   0.9558 B(  7-C , 27-H ) :   0.9700 B(  7-C , 28-H ) :   0.9590
B(  8-S ,  9-C ) :   0.9064 B(  9-C , 10-S ) :   0.9004 B(  9-C , 29-H ) :   0.8953
B(  9-C , 30-H ) :   0.9017 B( 10-S , 11-P ) :   1.0630 B( 11-P , 12-S ) :   1.7222
B( 11-P , 13-O ) :   1.1293 B( 11-P , 16-O ) :   1.1428 B( 13-O , 14-C ) :   0.8062
B( 14-C , 15-C ) :   0.9117 B( 14-C , 31-H ) :   0.9644 B( 14-C , 32-H ) :   0.9491
B( 15-C , 33-H ) :   0.9656 B( 15-C , 34-H ) :   0.9652 B( 15-C , 35-H ) :   0.9549
B( 16-O , 17-C ) :   0.7949 B( 17-C , 18-C ) :   0.9142 B( 17-C , 36-H ) :   0.9488
B( 17-C , 37-H ) :   0.9547 B( 18-C , 38-H ) :   0.9545 B( 18-C , 39-H ) :   0.9608
B( 18-C , 40-H ) :   0.9693

Dispersion correction           -0.021324413
FINAL SINGLE POINT ENERGY     -2932.472511627373

DIPOLE MOMENT
-------------

Method             : SCF
Type of density    : Electron Density
Multiplicity       :   1
Irrep              :   0
Energy             : -2932.4978128821376231 Eh
Relativity type    :
Basis              : AO
                                X                 Y                 Z
Electronic contribution:     -9.044564109       8.008540975      -3.680004817
Nuclear contribution   :      9.981062103      -8.742694856       4.345699037
                        -----------------------------------------
Total Dipole Moment    :      0.936497995      -0.734153881       0.665694220
                        -----------------------------------------
Magnitude (a.u.)       :      1.363509886
Magnitude (Debye)      :      3.465766702

Rotational constants in cm-1:             0.013594             0.004445             0.004302
Rotational constants in MHz :           407.522944           133.271936           128.982288

                             ****ORCA TERMINATED NORMALLY****
TOTAL RUN TIME: 0 days 0 hours 1 minutes 46 seconds 89 msec
