                         Program Version 6.0.0  -   RELEASE  -
|  1> ! pbe def2-sv(p) def2/J RI DEFGRID1 loosescf d4 GCP(DFT/SV(P)) printgap
|  2> %output
|  3>     printlevel normal
|  4> end
|  5> * xyz 0 1
|  6> C 3.9519133584 -1.1860623724 -2.7122456636
|  7> C 4.2585521699 -1.5642065089 -1.277559279
|  8> O 3.0638968417 -1.701813957 -0.4887992576
|  9> P 2.1535007531 -0.4576261025 -0.0894401459
| 10> S 3.172774574 1.1572919449 0.3699790624
| 11> O 1.2658496744 -1.1048222325 1.0524045203
| 12> C 1.6844933475 -1.1399033972 2.4348220932
| 13> C 0.9350670379 -0.0935541701 3.2358333117
| 14> S 0.7211276275 -0.3289683352 -1.6265664642
| 15> C 0.1789689354 1.3719267159 -1.2975856081
| 16> S -0.4754837399 1.6050498113 0.3731206344
| 17> P -2.1923027584 0.3913065299 0.182752493
| 18> S -3.0489852071 0.3003339358 -1.5825852437
| 19> O -3.0995440034 0.8713453141 1.3992600994
| 20> C -3.4846132117 2.2292313833 1.6842840872
| 21> C -4.078249011 2.9428353531 0.4874672202
| 22> O -1.7182913436 -1.0068870611 0.7582099957
| 23> C -2.2846700838 -2.2738807326 0.3607392263
| 24> C -1.3628662752 -3.0021928853 -0.597399413
| 25> H 3.2308370331 -1.8780837653 -3.1399262754
| 26> H 3.5372910397 -0.1796452492 -2.7515980852
| 27> H 4.867517163 -1.21235198 -3.2942787747
| 28> H 4.8966063639 -0.8083978797 -0.8081201355
| 29> H 4.7315902903 -2.5447228004 -1.2100950691
| 30> H 1.4483031967 -2.1491747471 2.7760372469
| 31> H 2.7647349188 -0.9765627979 2.4902888833
| 32> H 1.2154025086 0.9047622903 2.9056551867
| 33> H -0.1362849468 -0.2184863323 3.0960859284
| 34> H 1.1784019915 -0.2033345692 4.2877038487
| 35> H -0.5958895594 1.589521269 -2.0324697384
| 36> H 1.0232263705 2.0536594832 -1.3900166362
| 37> H -4.2153480973 2.1237391251 2.4882868826
| 38> H -2.6026824416 2.7605355427 2.0529285597
| 39> H -4.9072076427 2.371376369 0.0764647569
| 40> H -4.4332320144 3.9217539022 0.7932686655
| 41> H -3.325271289 3.0658741636 -0.2896730623
| 42> H -2.4079252669 -2.8264588832 1.2936443874
| 43> H -3.2627190996 -2.1032185258 -0.0983482301
| 44> H -0.3583002202 -3.0521737416 -0.1841981413
| 45> H -1.7382405537 -4.007731737 -0.7578463458
| 46> H -1.3215622663 -2.4805233614 -1.5512920822
| 47> *
| 48>
| 49>                          ****END OF INPUT****

CARTESIAN COORDINATES (ANGSTROEM)
---------------------------------
  C      3.951913   -1.186062   -2.712246
  C      4.258552   -1.564207   -1.277559
  O      3.063897   -1.701814   -0.488799
  P      2.153501   -0.457626   -0.089440
  S      3.172775    1.157292    0.369979
  O      1.265850   -1.104822    1.052405
  C      1.684493   -1.139903    2.434822
  C      0.935067   -0.093554    3.235833
  S      0.721128   -0.328968   -1.626566
  C      0.178969    1.371927   -1.297586
  S     -0.475484    1.605050    0.373121
  P     -2.192303    0.391307    0.182752
  S     -3.048985    0.300334   -1.582585
  O     -3.099544    0.871345    1.399260
  C     -3.484613    2.229231    1.684284
  C     -4.078249    2.942835    0.487467
  O     -1.718291   -1.006887    0.758210
  C     -2.284670   -2.273881    0.360739
  C     -1.362866   -3.002193   -0.597399
  H      3.230837   -1.878084   -3.139926
  H      3.537291   -0.179645   -2.751598
  H      4.867517   -1.212352   -3.294279
  H      4.896606   -0.808398   -0.808120
  H      4.731590   -2.544723   -1.210095
  H      1.448303   -2.149175    2.776037
  H      2.764735   -0.976563    2.490289
  H      1.215403    0.904762    2.905655
  H     -0.136285   -0.218486    3.096086
  H      1.178402   -0.203335    4.287704
  H     -0.595890    1.589521   -2.032470
  H      1.023226    2.053659   -1.390017
  H     -4.215348    2.123739    2.488287
  H     -2.602682    2.760536    2.052929
  H     -4.907208    2.371376    0.076465
  H     -4.433232    3.921754    0.793269
  H     -3.325271    3.065874   -0.289673
  H     -2.407925   -2.826459    1.293644
  H     -3.262719   -2.103219   -0.098348
  H     -0.358300   -3.052174   -0.184198
  H     -1.738241   -4.007732   -0.757846
  H     -1.321562   -2.480523   -1.551292

 Total Charge           Charge          ....    0
 Multiplicity           Mult            ....    1
 Number of Electrons    NEL             ....  202
 Basis Dimension        Dim             ....  334

ORBITAL ENERGIES
----------------

  NO   OCC          E(Eh)            E(eV)
   0   2.0000     -88.046297     -2395.8615
   1   2.0000     -88.044962     -2395.8252
   2   2.0000     -87.990262     -2394.3367
   3   2.0000     -87.986294     -2394.2288
   4   2.0000     -76.427176     -2079.6892
   5   2.0000     -76.426226     -2079.6633
   6   2.0000     -18.793578      -511.3992
   7   2.0000     -18.791034      -511.3300
   8   2.0000     -18.786643      -511.2105
   9   2.0000     -18.783471      -511.1242
  10   2.0000      -9.958020      -270.9715
  11   2.0000      -9.956603      -270.9329
  12   2.0000      -9.952049      -270.8090
  13   2.0000      -9.950443      -270.7653
  14   2.0000      -9.946434      -270.6562
  15   2.0000      -9.884379      -268.9676
  16   2.0000      -9.882535      -268.9174
  17   2.0000      -9.876431      -268.7513
  18   2.0000      -9.872573      -268.6464
  19   2.0000      -7.691051      -209.2841
  20   2.0000      -7.689895      -209.2527
  21   2.0000      -7.635166      -207.7634
  22   2.0000      -7.631254      -207.6570
  23   2.0000      -6.424671      -174.8242
  24   2.0000      -6.423380      -174.7891
  25   2.0000      -5.718871      -155.6184
  26   2.0000      -5.717804      -155.5894
  27   2.0000      -5.715525      -155.5273
  28   2.0000      -5.714505      -155.4996
  29   2.0000      -5.708096      -155.3252
  30   2.0000      -5.706661      -155.2862
  31   2.0000      -5.663990      -154.1250
  32   2.0000      -5.660123      -154.0198
  33   2.0000      -5.655925      -153.9055
  34   2.0000      -5.655328      -153.8893
  35   2.0000      -5.652080      -153.8009
  36   2.0000      -5.651279      -153.7791
  37   2.0000      -4.647115      -126.4544
  38   2.0000      -4.646385      -126.4346
  39   2.0000      -4.645816      -126.4191
  40   2.0000      -4.645316      -126.4055
  41   2.0000      -4.645316      -126.4055
  42   2.0000      -4.643871      -126.3662
  43   2.0000      -0.985621       -26.8201
  44   2.0000      -0.982419       -26.7330
  45   2.0000      -0.943352       -25.6699
  46   2.0000      -0.939754       -25.5720
  47   2.0000      -0.768187       -20.9034
  48   2.0000      -0.720952       -19.6181
  49   2.0000      -0.707510       -19.2523
  50   2.0000      -0.685502       -18.6535
  51   2.0000      -0.682177       -18.5630
  52   2.0000      -0.672818       -18.3083
  53   2.0000      -0.651425       -17.7262
  54   2.0000      -0.641246       -17.4492
  55   2.0000      -0.600607       -16.3433
  56   2.0000      -0.590039       -16.0558
  57   2.0000      -0.575347       -15.6560
  58   2.0000      -0.569917       -15.5082
  59   2.0000      -0.556666       -15.1477
  60   2.0000      -0.500485       -13.6189
  61   2.0000      -0.497405       -13.5351
  62   2.0000      -0.470174       -12.7941
  63   2.0000      -0.466156       -12.6847
  64   2.0000      -0.459967       -12.5163
  65   2.0000      -0.439303       -11.9540
  66   2.0000      -0.438673       -11.9369
  67   2.0000      -0.432837       -11.7781
  68   2.0000      -0.428542       -11.6612
  69   2.0000      -0.416892       -11.3442
  70   2.0000      -0.411523       -11.1981
  71   2.0000      -0.396039       -10.7768
  72   2.0000      -0.393871       -10.7178
  73   2.0000      -0.382776       -10.4159
  74   2.0000      -0.379874       -10.3369
  75   2.0000      -0.373054       -10.1513
  76   2.0000      -0.368279       -10.0214
  77   2.0000      -0.354387        -9.6434
  78   2.0000      -0.349600        -9.5131
  79   2.0000      -0.348046        -9.4708
  80   2.0000      -0.345296        -9.3960
  81   2.0000      -0.341169        -9.2837
  82   2.0000      -0.338406        -9.2085
  83   2.0000      -0.336404        -9.1540
  84   2.0000      -0.336078        -9.1451
  85   2.0000      -0.316560        -8.6140
  86   2.0000      -0.301793        -8.2122
  87   2.0000      -0.297181        -8.0867
  88   2.0000      -0.296338        -8.0638
  89   2.0000      -0.289560        -7.8793
  90   2.0000      -0.278979        -7.5914
  91   2.0000      -0.278198        -7.5702
  92   2.0000      -0.269876        -7.3437
  93   2.0000      -0.264703        -7.2029
  94   2.0000      -0.256990        -6.9931
  95   2.0000      -0.232024        -6.3137
  96   2.0000      -0.220138        -5.9903
  97   2.0000      -0.214477        -5.8362
  98   2.0000      -0.206965        -5.6318
  99   2.0000      -0.200711        -5.4616
 100   2.0000      -0.198654        -5.4057
 101   0.0000      -0.047987        -1.3058
 102   0.0000      -0.027162        -0.7391
 103   0.0000      -0.004600        -0.1252
 104   0.0000       0.000730         0.0199
 105   0.0000       0.004376         0.1191

MULLIKEN ATOMIC CHARGES
-----------------------
   0 C :   -0.313707
   1 C :   -0.005088
   2 O :   -0.374900
   3 P :    0.615206
   4 S :   -0.338047
   5 O :   -0.355782
   6 C :   -0.001115
   7 C :   -0.296145
   8 S :   -0.068591
   9 C :   -0.352025
  10 S :   -0.085307
  11 P :    0.621883
  12 S :   -0.335725
  13 O :   -0.376716
  14 C :   -0.008468
  15 C :   -0.310218
  16 O :   -0.358313
  17 C :   -0.003545
  18 C :   -0.294779
  19 H :    0.118348
  20 H :    0.124134
  21 H :    0.113258
  22 H :    0.111205
  23 H :    0.105007
  24 H :    0.103656
  25 H :    0.101346
  26 H :    0.126180
  27 H :    0.120801
  28 H :    0.103692
  29 H :    0.191264
  30 H :    0.189840
  31 H :    0.108441
  32 H :    0.112073
  33 H :    0.127077
  34 H :    0.110873
  35 H :    0.122559
  36 H :    0.099944
  37 H :    0.104926
  38 H :    0.118719
  39 H :    0.101444
  40 H :    0.126595
Sum of atomic charges:   -0.0000000

LOEWDIN ATOMIC CHARGES
----------------------
   0 C :   -0.368638
   1 C :   -0.120417
   2 O :   -0.248054
   3 P :    0.569323
   4 S :   -0.329306
   5 O :   -0.234384
   6 C :   -0.110696
   7 C :   -0.363365
   8 S :    0.114231
   9 C :   -0.478528
  10 S :    0.102899
  11 P :    0.570900
  12 S :   -0.322826
  13 O :   -0.248994
  14 C :   -0.114406
  15 C :   -0.369950
  16 O :   -0.235875
  17 C :   -0.112766
  18 C :   -0.364641
  19 H :    0.124820
  20 H :    0.120205
  21 H :    0.131058
  22 H :    0.109862
  23 H :    0.118593
  24 H :    0.117188
  25 H :    0.107820
  26 H :    0.123098
  27 H :    0.123772
  28 H :    0.125761
  29 H :    0.131167
  30 H :    0.131980
  31 H :    0.121109
  32 H :    0.108957
  33 H :    0.129547
  34 H :    0.129685
  35 H :    0.119774
  36 H :    0.115605
  37 H :    0.107511
  38 H :    0.122549
  39 H :    0.125008
  40 H :    0.120423

  Mayer bond orders larger than 0.100000
B(  0-C ,  1-C ) :   1.1645 B(  0-C , 19-H ) :   0.9451 B(  0-C , 20-H ) :   0.9362
B(  0-C , 21-H ) :   0.9382 B(  1-C ,  2-O ) :   0.9109 B(  1-C , 22-H ) :   0.9148
B(  1-C , 23-H ) :   0.9338 B(  2-O ,  3-P ) :   1.1066 B(  3-P ,  4-S ) :   1.5819
B(  3-P ,  5-O ) :   1.1266 B(  3-P ,  8-S ) :   0.9648 B(  4-S ,  8-S ) :   0.1092
B(  5-O ,  6-C ) :   0.8956 B(  6-C ,  7-C ) :   1.1721 B(  6-C , 24-H ) :   0.9336
B(  6-C , 25-H ) :   0.9140 B(  7-C , 26-H ) :   0.9383 B(  7-C , 27-H ) :   0.9417
B(  7-C , 28-H ) :   0.9394 B(  8-S ,  9-C ) :   1.0027 B(  9-C , 10-S ) :   1.0124
B(  9-C , 29-H ) :   0.8818 B(  9-C , 30-H ) :   0.8888 B( 10-S , 11-P ) :   0.9505
B( 10-S , 12-S ) :   0.1078 B( 11-P , 12-S ) :   1.5905 B( 11-P , 13-O ) :   1.1100
B( 11-P , 16-O ) :   1.1296 B( 13-O , 14-C ) :   0.9166 B( 14-C , 15-C ) :   1.1651
B( 14-C , 31-H ) :   0.9342 B( 14-C , 32-H ) :   0.9280 B( 15-C , 33-H ) :   0.9420
B( 15-C , 34-H ) :   0.9349 B( 15-C , 35-H ) :   0.9343 B( 16-O , 17-C ) :   0.8988
B( 17-C , 18-C ) :   1.1718 B( 17-C , 36-H ) :   0.9336 B( 17-C , 37-H ) :   0.9112
B( 18-C , 38-H ) :   0.9417 B( 18-C , 39-H ) :   0.9383 B( 18-C , 40-H ) :   0.9379

Dispersion correction           -0.068274855
FINAL SINGLE POINT ENERGY     -2929.524703031560

DIPOLE MOMENT
-------------

Method             : SCF
Type of density    : Electron Density
Multiplicity       :   1
Irrep              :   0
Energy             : -2929.6412798472724717 Eh
Relativity type    :
Basis              : AO
                                X                 Y                 Z
Electronic contribution:      0.515375253       5.135404234      -3.895323884
Nuclear contribution   :     -0.368609369      -5.551421847       4.486973138
                        -----------------------------------------
Total Dipole Moment    :      0.146765884      -0.416017613       0.591649254
                        -----------------------------------------
Magnitude (a.u.)       :      0.738010650
Magnitude (Debye)      :      1.875873994

Rotational constants in cm-1:             0.012760             0.005364             0.005109
Rotational constants in MHz :           382.525752           160.811289           153.158234

                             ****ORCA TERMINATED NORMALLY****
TOTAL RUN TIME: 0 days 0 hours 0 minutes 21 seconds 704 msec
