                         Program Version 6.0.0  -   RELEASE  -
|  1> ! r2scan-3c def2/J RI DEFGRID2 scfconv6 printgap
|  2> %output
|  3>     printlevel normal
|  4> end
|  5> * xyz 0 1
|  6> C 3.7256079411 -1.2645113495 -2.6567035427
|  7> C 4.0551139741 0.0186477876 -1.9216093964
|  8> O 3.6463000525 -0.0320595661 -0.54512391
|  9> P 2.1185534895 -0.0506710529 -0.1082472192
| 10> S 0.9804860579 1.1275567103 -1.19452454
| 11> O 2.1966842345 0.2698879681 1.4394039689
| 12> C 2.1755884086 1.6119557122 1.9637128145
| 13> C 3.4030434782 2.3984396674 1.5576778125
| 14> S 1.713183641 -2.1155547102 0.0157274248
| 15> C 0.059388682 -2.1108592999 0.7543463033
| 16> S -1.2998370638 -1.9279538468 -0.4560329719
| 17> P -2.1205899863 -0.0857065109 0.1416704867
| 18> S -1.2874584729 0.799335447 1.6869805837
| 19> O -3.6746704123 -0.3952393347 0.3412464767
| 20> C -4.1836417562 -1.0870262716 1.4985768898
| 21> C -4.742604969 -0.1041312209 2.5093293085
| 22> O -2.1741046372 0.6949086831 -1.2241164786
| 23> C -2.5661277973 2.0862058829 -1.2896431083
| 24> C -2.1335593183 2.6231780213 -2.6369044471
| 25> H 4.1309648261 -2.1202661615 -2.1227850325
| 26> H 2.6447793348 -1.3815014999 -2.7330497404
| 27> H 4.1468286971 -1.2269128021 -3.6561871721
| 28> H 3.5620395676 0.8722890509 -2.3986664252
| 29> H 5.1309434513 0.1906071551 -1.8700804625
| 30> H 1.2607787425 2.1052361702 1.6194464367
| 31> H 2.1201656638 1.4657224035 3.0432767178
| 32> H 3.3973770984 3.3580933399 2.0648974661
| 33> H 4.3031206068 1.8503729469 1.8236188083
| 34> H 3.3962369764 2.566313164 0.481280445
| 35> H -0.0121569127 -1.3059939 1.4912371432
| 36> H -0.0544505186 -3.0869640541 1.2176996124
| 37> H -4.9623847029 -1.7453637815 1.1094086902
| 38> H -3.3846993547 -1.6898261925 1.9401148387
| 39> H -5.1697935119 -0.6527228675 3.3424028617
| 40> H -3.9519685835 0.5450432453 2.8793036072
| 41> H -5.5124549174 0.5080577341 2.0483045037
| 42> H -3.6499650497 2.1380393412 -1.1594818606
| 43> H -2.0761856372 2.6238296826 -0.4705220031
| 44> H -1.0539463618 2.5353928143 -2.7344914089
| 45> H -2.6051718766 2.0535526132 -3.43194525
| 46> H -2.420106716 3.6666991415 -2.7146593139
| 47> *
| 48>
| 49>                          ****END OF INPUT****

CARTESIAN COORDINATES (ANGSTROEM)
---------------------------------
  C      3.725608   -1.264511   -2.656704
  C      4.055114    0.018648   -1.921609
  O      3.646300   -0.032060   -0.545124
  P      2.118553   -0.050671   -0.108247
  S      0.980486    1.127557   -1.194525
  O      2.196684    0.269888    1.439404
  C      2.175588    1.611956    1.963713
  C      3.403043    2.398440    1.557678
  S      1.713184   -2.115555    0.015727
  C      0.059389   -2.110859    0.754346
  S     -1.299837   -1.927954   -0.456033
  P     -2.120590   -0.085707    0.141670
  S     -1.287458    0.799335    1.686981
  O     -3.674670   -0.395239    0.341246
  C     -4.183642   -1.087026    1.498577
  C     -4.742605   -0.104131    2.509329
  O     -2.174105    0.694909   -1.224116
  C     -2.566128    2.086206   -1.289643
  C     -2.133559    2.623178   -2.636904
  H      4.130965   -2.120266   -2.122785
  H      2.644779   -1.381501   -2.733050
  H      4.146829   -1.226913   -3.656187
  H      3.562040    0.872289   -2.398666
  H      5.130943    0.190607   -1.870080
  H      1.260779    2.105236    1.619446
  H      2.120166    1.465722    3.043277
  H      3.397377    3.358093    2.064897
  H      4.303121    1.850373    1.823619
  H      3.396237    2.566313    0.481280
  H     -0.012157   -1.305994    1.491237
  H     -0.054451   -3.086964    1.217700
  H     -4.962385   -1.745364    1.109409
  H     -3.384699   -1.689826    1.940115
  H     -5.169794   -0.652723    3.342403
  H     -3.951969    0.545043    2.879304
  H     -5.512455    0.508058    2.048305
  H     -3.649965    2.138039   -1.159482
  H     -2.076186    2.623830   -0.470522
  H     -1.053946    2.535393   -2.734491
  H     -2.605172    2.053553   -3.431945
  H     -2.420107    3.666699   -2.714659

 Total Charge           Charge          ....    0
 Multiplicity           Mult            ....    1
 Number of Electrons    NEL             ....  202
 Basis Dimension        Dim             ....  539

ORBITAL ENERGIES
----------------

  NO   OCC          E(Eh)            E(eV)
   0   2.0000     -88.574888     -2410.2452
   1   2.0000     -88.572600     -2410.1830
   2   2.0000     -88.517203     -2408.6755
   3   2.0000     -88.511811     -2408.5288
   4   2.0000     -76.910626     -2092.8445
   5   2.0000     -76.909522     -2092.8145
   6   2.0000     -18.988575      -516.7054
   7   2.0000     -18.984342      -516.5902
   8   2.0000     -18.984230      -516.5872
   9   2.0000     -18.983258      -516.5607
  10   2.0000     -10.106171      -275.0029
  11   2.0000     -10.096263      -274.7333
  12   2.0000     -10.095138      -274.7027
  13   2.0000     -10.093541      -274.6592
  14   2.0000     -10.088563      -274.5238
  15   2.0000     -10.026431      -272.8331
  16   2.0000     -10.024420      -272.7783
  17   2.0000     -10.023321      -272.7484
  18   2.0000     -10.022846      -272.7355
  19   2.0000      -7.869006      -214.1265
  20   2.0000      -7.867201      -214.0774
  21   2.0000      -7.812325      -212.5842
  22   2.0000      -7.806652      -212.4298
  23   2.0000      -6.589100      -179.2985
  24   2.0000      -6.587811      -179.2635
  25   2.0000      -5.815903      -158.2588
  26   2.0000      -5.814203      -158.2125
  27   2.0000      -5.812780      -158.1738
  28   2.0000      -5.810951      -158.1240
  29   2.0000      -5.806187      -157.9944
  30   2.0000      -5.804213      -157.9407
  31   2.0000      -5.759898      -156.7348
  32   2.0000      -5.754305      -156.5826
  33   2.0000      -5.753029      -156.5479
  34   2.0000      -5.751903      -156.5173
  35   2.0000      -5.746939      -156.3822
  36   2.0000      -5.746643      -156.3741
  37   2.0000      -4.734481      -128.8318
  38   2.0000      -4.733951      -128.8174
  39   2.0000      -4.733277      -128.7990
  40   2.0000      -4.733032      -128.7923
  41   2.0000      -4.732885      -128.7884
  42   2.0000      -4.731459      -128.7495
  43   2.0000      -1.045347       -28.4453
  44   2.0000      -1.044355       -28.4183
  45   2.0000      -1.007095       -27.4044
  46   2.0000      -1.002607       -27.2823
  47   2.0000      -0.796601       -21.6766
  48   2.0000      -0.755976       -20.5712
  49   2.0000      -0.744706       -20.2645
  50   2.0000      -0.727496       -19.7962
  51   2.0000      -0.726807       -19.7774
  52   2.0000      -0.707440       -19.2504
  53   2.0000      -0.684336       -18.6217
  54   2.0000      -0.663422       -18.0526
  55   2.0000      -0.628944       -17.1144
  56   2.0000      -0.616570       -16.7777
  57   2.0000      -0.601813       -16.3762
  58   2.0000      -0.600454       -16.3392
  59   2.0000      -0.586565       -15.9612
  60   2.0000      -0.528127       -14.3711
  61   2.0000      -0.512846       -13.9552
  62   2.0000      -0.494508       -13.4562
  63   2.0000      -0.488179       -13.2840
  64   2.0000      -0.467040       -12.7088
  65   2.0000      -0.458143       -12.4667
  66   2.0000      -0.452653       -12.3173
  67   2.0000      -0.450208       -12.2508
  68   2.0000      -0.441793       -12.0218
  69   2.0000      -0.434127       -11.8132
  70   2.0000      -0.425137       -11.5686
  71   2.0000      -0.413609       -11.2549
  72   2.0000      -0.405578       -11.0363
  73   2.0000      -0.397329       -10.8119
  74   2.0000      -0.392952       -10.6928
  75   2.0000      -0.388807       -10.5800
  76   2.0000      -0.378106       -10.2888
  77   2.0000      -0.368701       -10.0329
  78   2.0000      -0.367601       -10.0029
  79   2.0000      -0.361764        -9.8441
  80   2.0000      -0.359349        -9.7784
  81   2.0000      -0.354548        -9.6477
  82   2.0000      -0.346420        -9.4266
  83   2.0000      -0.344911        -9.3855
  84   2.0000      -0.343190        -9.3387
  85   2.0000      -0.324748        -8.8368
  86   2.0000      -0.320684        -8.7263
  87   2.0000      -0.308729        -8.4009
  88   2.0000      -0.306332        -8.3357
  89   2.0000      -0.305482        -8.3126
  90   2.0000      -0.293719        -7.9925
  91   2.0000      -0.283190        -7.7060
  92   2.0000      -0.281960        -7.6725
  93   2.0000      -0.276808        -7.5323
  94   2.0000      -0.270603        -7.3635
  95   2.0000      -0.248256        -6.7554
  96   2.0000      -0.234345        -6.3769
  97   2.0000      -0.220961        -6.0127
  98   2.0000      -0.217949        -5.9307
  99   2.0000      -0.206678        -5.6240
 100   2.0000      -0.196728        -5.3533
 101   0.0000      -0.039879        -1.0852
 102   0.0000      -0.028934        -0.7873
 103   0.0000      -0.011280        -0.3069
 104   0.0000       0.004616         0.1256
 105   0.0000       0.017093         0.4651

MULLIKEN ATOMIC CHARGES
-----------------------
   0 C :   -0.472684
   1 C :   -0.147172
   2 O :   -0.296629
   3 P :    0.669918
   4 S :   -0.449826
   5 O :   -0.297646
   6 C :   -0.145815
   7 C :   -0.456032
   8 S :   -0.090784
   9 C :   -0.255093
  10 S :   -0.097041
  11 P :    0.716398
  12 S :   -0.498056
  13 O :   -0.286070
  14 C :   -0.121160
  15 C :   -0.457196
  16 O :   -0.306171
  17 C :   -0.144000
  18 C :   -0.440194
  19 H :    0.157561
  20 H :    0.184209
  21 H :    0.148327
  22 H :    0.172887
  23 H :    0.147346
  24 H :    0.184321
  25 H :    0.149930
  26 H :    0.145713
  27 H :    0.156647
  28 H :    0.168007
  29 H :    0.213946
  30 H :    0.195441
  31 H :    0.150063
  32 H :    0.143556
  33 H :    0.143192
  34 H :    0.180954
  35 H :    0.150164
  36 H :    0.150887
  37 H :    0.169499
  38 H :    0.166510
  39 H :    0.152471
  40 H :    0.143621
Sum of atomic charges:   -0.0000000

LOEWDIN ATOMIC CHARGES
----------------------
   0 C :   -0.407312
   1 C :    0.017146
   2 O :   -0.665285
   3 P :    0.376240
   4 S :   -0.089154
   5 O :   -0.673277
   6 C :    0.011749
   7 C :   -0.400436
   8 S :    0.169042
   9 C :   -0.414757
  10 S :    0.173048
  11 P :    0.372329
  12 S :   -0.129301
  13 O :   -0.670281
  14 C :    0.019112
  15 C :   -0.402341
  16 O :   -0.670096
  17 C :    0.022474
  18 C :   -0.387688
  19 H :    0.159837
  20 H :    0.167542
  21 H :    0.159719
  22 H :    0.179879
  23 H :    0.178997
  24 H :    0.184611
  25 H :    0.180717
  26 H :    0.158814
  27 H :    0.160982
  28 H :    0.164888
  29 H :    0.200364
  30 H :    0.180550
  31 H :    0.177561
  32 H :    0.172816
  33 H :    0.156992
  34 H :    0.168181
  35 H :    0.157392
  36 H :    0.172089
  37 H :    0.181837
  38 H :    0.166567
  39 H :    0.159892
  40 H :    0.158562

  Mayer bond orders larger than 0.100000
B(  0-C ,  1-C ) :   0.9135 B(  0-C , 19-H ) :   0.9695 B(  0-C , 20-H ) :   0.9623
B(  0-C , 21-H ) :   0.9580 B(  1-C ,  2-O ) :   0.8190 B(  1-C , 22-H ) :   0.9644
B(  1-C , 23-H ) :   0.9581 B(  2-O ,  3-P ) :   1.0609 B(  3-P ,  4-S ) :   1.7560
B(  3-P ,  5-O ) :   1.1742 B(  3-P ,  8-S ) :   1.1130 B(  5-O ,  6-C ) :   0.8078
B(  6-C ,  7-C ) :   0.9185 B(  6-C , 24-H ) :   0.9609 B(  6-C , 25-H ) :   0.9605
B(  7-C , 26-H ) :   0.9608 B(  7-C , 27-H ) :   0.9722 B(  7-C , 28-H ) :   0.9618
B(  8-S ,  9-C ) :   0.9052 B(  9-C , 10-S ) :   0.9125 B(  9-C , 29-H ) :   0.9029
B(  9-C , 30-H ) :   0.9156 B( 10-S , 11-P ) :   1.1332 B( 11-P , 12-S ) :   1.6821
B( 11-P , 13-O ) :   1.0348 B( 11-P , 16-O ) :   1.2346 B( 13-O , 14-C ) :   0.7764
B( 14-C , 15-C ) :   0.9546 B( 14-C , 31-H ) :   0.9661 B( 14-C , 32-H ) :   0.9638
B( 15-C , 33-H ) :   0.9662 B( 15-C , 34-H ) :   0.9583 B( 15-C , 35-H ) :   0.9748
B( 16-O , 17-C ) :   0.7419 B( 17-C , 18-C ) :   0.9569 B( 17-C , 36-H ) :   0.9442
B( 17-C , 37-H ) :   0.9519 B( 18-C , 38-H ) :   0.9650 B( 18-C , 39-H ) :   0.9722
B( 18-C , 40-H ) :   0.9661

Dispersion correction           -0.021594092
FINAL SINGLE POINT ENERGY     -2932.458838466452

DIPOLE MOMENT
-------------

Method             : SCF
Type of density    : Electron Density
Multiplicity       :   1
Irrep              :   0
Energy             : -2932.4839307656175151 Eh
Relativity type    :
Basis              : AO
                                X                 Y                 Z
Electronic contribution:      0.630837719     -12.578499499       0.401981329
Nuclear contribution   :     -0.714402085      12.640340740      -0.247807358
                        -----------------------------------------
Total Dipole Moment    :     -0.083564366       0.061841240       0.154173971
                        -----------------------------------------
Magnitude (a.u.)       :      0.185948799
Magnitude (Debye)      :      0.472644285

Rotational constants in cm-1:             0.011756             0.005157             0.005030
Rotational constants in MHz :           352.432171           154.600723           150.784734

                             ****ORCA TERMINATED NORMALLY****
TOTAL RUN TIME: 0 days 0 hours 1 minutes 18 seconds 770 msec
