                         Program Version 6.0.0  -   RELEASE  -
|  1> ! r2scan-3c def2/J RI DEFGRID2 scfconv6 printgap
|  2> %output
|  3>     printlevel normal
|  4> end
|  5> %cpcm
|  6>     smd true
|  7>     smdsolvent "water"
|  8> end
|  9> * xyz 0 1
| 10> C 3.7256079411 -1.2645113495 -2.6567035427
| 11> C 4.0551139741 0.0186477876 -1.9216093964
| 12> O 3.6463000525 -0.0320595661 -0.54512391
| 13> P 2.1185534895 -0.0506710529 -0.1082472192
| 14> S 0.9804860579 1.1275567103 -1.19452454
| 15> O 2.1966842345 0.2698879681 1.4394039689
| 16> C 2.1755884086 1.6119557122 1.9637128145
| 17> C 3.4030434782 2.3984396674 1.5576778125
| 18> S 1.713183641 -2.1155547102 0.0157274248
| 19> C 0.059388682 -2.1108592999 0.7543463033
| 20> S -1.2998370638 -1.9279538468 -0.4560329719
| 21> P -2.1205899863 -0.0857065109 0.1416704867
| 22> S -1.2874584729 0.799335447 1.6869805837
| 23> O -3.6746704123 -0.3952393347 0.3412464767
| 24> C -4.1836417562 -1.0870262716 1.4985768898
| 25> C -4.742604969 -0.1041312209 2.5093293085
| 26> O -2.1741046372 0.6949086831 -1.2241164786
| 27> C -2.5661277973 2.0862058829 -1.2896431083
| 28> C -2.1335593183 2.6231780213 -2.6369044471
| 29> H 4.1309648261 -2.1202661615 -2.1227850325
| 30> H 2.6447793348 -1.3815014999 -2.7330497404
| 31> H 4.1468286971 -1.2269128021 -3.6561871721
| 32> H 3.5620395676 0.8722890509 -2.3986664252
| 33> H 5.1309434513 0.1906071551 -1.8700804625
| 34> H 1.2607787425 2.1052361702 1.6194464367
| 35> H 2.1201656638 1.4657224035 3.0432767178
| 36> H 3.3973770984 3.3580933399 2.0648974661
| 37> H 4.3031206068 1.8503729469 1.8236188083
| 38> H 3.3962369764 2.566313164 0.481280445
| 39> H -0.0121569127 -1.3059939 1.4912371432
| 40> H -0.0544505186 -3.0869640541 1.2176996124
| 41> H -4.9623847029 -1.7453637815 1.1094086902
| 42> H -3.3846993547 -1.6898261925 1.9401148387
| 43> H -5.1697935119 -0.6527228675 3.3424028617
| 44> H -3.9519685835 0.5450432453 2.8793036072
| 45> H -5.5124549174 0.5080577341 2.0483045037
| 46> H -3.6499650497 2.1380393412 -1.1594818606
| 47> H -2.0761856372 2.6238296826 -0.4705220031
| 48> H -1.0539463618 2.5353928143 -2.7344914089
| 49> H -2.6051718766 2.0535526132 -3.43194525
| 50> H -2.420106716 3.6666991415 -2.7146593139
| 51> *
| 52>
| 53>                          ****END OF INPUT****

CARTESIAN COORDINATES (ANGSTROEM)
---------------------------------
  C      3.725608   -1.264511   -2.656704
  C      4.055114    0.018648   -1.921609
  O      3.646300   -0.032060   -0.545124
  P      2.118553   -0.050671   -0.108247
  S      0.980486    1.127557   -1.194525
  O      2.196684    0.269888    1.439404
  C      2.175588    1.611956    1.963713
  C      3.403043    2.398440    1.557678
  S      1.713184   -2.115555    0.015727
  C      0.059389   -2.110859    0.754346
  S     -1.299837   -1.927954   -0.456033
  P     -2.120590   -0.085707    0.141670
  S     -1.287458    0.799335    1.686981
  O     -3.674670   -0.395239    0.341246
  C     -4.183642   -1.087026    1.498577
  C     -4.742605   -0.104131    2.509329
  O     -2.174105    0.694909   -1.224116
  C     -2.566128    2.086206   -1.289643
  C     -2.133559    2.623178   -2.636904
  H      4.130965   -2.120266   -2.122785
  H      2.644779   -1.381501   -2.733050
  H      4.146829   -1.226913   -3.656187
  H      3.562040    0.872289   -2.398666
  H      5.130943    0.190607   -1.870080
  H      1.260779    2.105236    1.619446
  H      2.120166    1.465722    3.043277
  H      3.397377    3.358093    2.064897
  H      4.303121    1.850373    1.823619
  H      3.396237    2.566313    0.481280
  H     -0.012157   -1.305994    1.491237
  H     -0.054451   -3.086964    1.217700
  H     -4.962385   -1.745364    1.109409
  H     -3.384699   -1.689826    1.940115
  H     -5.169794   -0.652723    3.342403
  H     -3.951969    0.545043    2.879304
  H     -5.512455    0.508058    2.048305
  H     -3.649965    2.138039   -1.159482
  H     -2.076186    2.623830   -0.470522
  H     -1.053946    2.535393   -2.734491
  H     -2.605172    2.053553   -3.431945
  H     -2.420107    3.666699   -2.714659

 Total Charge           Charge          ....    0
 Multiplicity           Mult            ....    1
 Number of Electrons    NEL             ....  202
 Basis Dimension        Dim             ....  539

ORBITAL ENERGIES
----------------

  NO   OCC          E(Eh)            E(eV)
   0   2.0000     -88.581022     -2410.4122
   1   2.0000     -88.579147     -2410.3611
   2   2.0000     -88.524512     -2408.8744
   3   2.0000     -88.521006     -2408.7790
   4   2.0000     -76.917267     -2093.0252
   5   2.0000     -76.916901     -2093.0153
   6   2.0000     -18.993706      -516.8450
   7   2.0000     -18.991884      -516.7954
   8   2.0000     -18.991037      -516.7724
   9   2.0000     -18.988119      -516.6930
  10   2.0000     -10.106347      -275.0077
  11   2.0000     -10.090034      -274.5638
  12   2.0000     -10.088843      -274.5314
  13   2.0000     -10.088829      -274.5310
  14   2.0000     -10.086592      -274.4701
  15   2.0000     -10.019148      -272.6349
  16   2.0000     -10.019141      -272.6347
  17   2.0000     -10.017765      -272.5972
  18   2.0000     -10.015756      -272.5426
  19   2.0000      -7.875202      -214.2952
  20   2.0000      -7.873699      -214.2542
  21   2.0000      -7.819775      -212.7869
  22   2.0000      -7.816034      -212.6851
  23   2.0000      -6.595805      -179.4810
  24   2.0000      -6.595323      -179.4679
  25   2.0000      -5.822073      -158.4267
  26   2.0000      -5.820655      -158.3881
  27   2.0000      -5.818953      -158.3418
  28   2.0000      -5.817392      -158.2993
  29   2.0000      -5.812442      -158.1646
  30   2.0000      -5.810832      -158.1208
  31   2.0000      -5.767335      -156.9372
  32   2.0000      -5.763642      -156.8367
  33   2.0000      -5.760470      -156.7504
  34   2.0000      -5.759348      -156.7198
  35   2.0000      -5.756368      -156.6388
  36   2.0000      -5.755983      -156.6283
  37   2.0000      -4.741156      -129.0134
  38   2.0000      -4.740762      -129.0027
  39   2.0000      -4.740678      -129.0004
  40   2.0000      -4.740396      -128.9927
  41   2.0000      -4.739750      -128.9752
  42   2.0000      -4.739000      -128.9547
  43   2.0000      -1.051434       -28.6110
  44   2.0000      -1.050127       -28.5754
  45   2.0000      -1.012762       -27.5587
  46   2.0000      -1.007496       -27.4154
  47   2.0000      -0.800303       -21.7774
  48   2.0000      -0.756911       -20.5966
  49   2.0000      -0.742924       -20.2160
  50   2.0000      -0.723539       -19.6885
  51   2.0000      -0.721881       -19.6434
  52   2.0000      -0.709293       -19.3008
  53   2.0000      -0.689474       -18.7615
  54   2.0000      -0.670619       -18.2485
  55   2.0000      -0.631148       -17.1744
  56   2.0000      -0.616080       -16.7644
  57   2.0000      -0.599959       -16.3257
  58   2.0000      -0.597740       -16.2653
  59   2.0000      -0.586607       -15.9624
  60   2.0000      -0.527638       -14.3578
  61   2.0000      -0.513092       -13.9620
  62   2.0000      -0.494840       -13.4653
  63   2.0000      -0.489056       -13.3079
  64   2.0000      -0.469793       -12.7837
  65   2.0000      -0.458367       -12.4728
  66   2.0000      -0.452288       -12.3074
  67   2.0000      -0.451413       -12.2836
  68   2.0000      -0.438455       -11.9310
  69   2.0000      -0.435021       -11.8375
  70   2.0000      -0.424008       -11.5378
  71   2.0000      -0.414475       -11.2784
  72   2.0000      -0.405638       -11.0380
  73   2.0000      -0.398996       -10.8572
  74   2.0000      -0.392615       -10.6836
  75   2.0000      -0.388460       -10.5705
  76   2.0000      -0.379447       -10.3253
  77   2.0000      -0.365013        -9.9325
  78   2.0000      -0.364385        -9.9154
  79   2.0000      -0.356896        -9.7116
  80   2.0000      -0.355390        -9.6706
  81   2.0000      -0.352070        -9.5803
  82   2.0000      -0.345013        -9.3883
  83   2.0000      -0.343384        -9.3440
  84   2.0000      -0.341896        -9.3035
  85   2.0000      -0.326660        -8.8889
  86   2.0000      -0.321655        -8.7527
  87   2.0000      -0.310443        -8.4476
  88   2.0000      -0.304982        -8.2990
  89   2.0000      -0.303685        -8.2637
  90   2.0000      -0.297253        -8.0887
  91   2.0000      -0.286497        -7.7960
  92   2.0000      -0.284488        -7.7413
  93   2.0000      -0.280128        -7.6227
  94   2.0000      -0.274554        -7.4710
  95   2.0000      -0.255079        -6.9410
  96   2.0000      -0.242193        -6.5904
  97   2.0000      -0.228621        -6.2211
  98   2.0000      -0.225489        -6.1359
  99   2.0000      -0.216704        -5.8968
 100   2.0000      -0.205239        -5.5848
 101   0.0000      -0.046321        -1.2605
 102   0.0000      -0.035805        -0.9743
 103   0.0000      -0.015857        -0.4315
 104   0.0000      -0.000903        -0.0246
 105   0.0000       0.011115         0.3025

MULLIKEN ATOMIC CHARGES
-----------------------
   0 C :   -0.503609
   1 C :   -0.145743
   2 O :   -0.321472
   3 P :    0.693577
   4 S :   -0.493912
   5 O :   -0.324795
   6 C :   -0.139244
   7 C :   -0.495918
   8 S :   -0.107802
   9 C :   -0.242423
  10 S :   -0.126409
  11 P :    0.738719
  12 S :   -0.524170
  13 O :   -0.317427
  14 C :   -0.119792
  15 C :   -0.497497
  16 O :   -0.334665
  17 C :   -0.136305
  18 C :   -0.484965
  19 H :    0.171718
  20 H :    0.175153
  21 H :    0.174311
  22 H :    0.177374
  23 H :    0.174846
  24 H :    0.180683
  25 H :    0.175870
  26 H :    0.171506
  27 H :    0.169501
  28 H :    0.169057
  29 H :    0.213347
  30 H :    0.238284
  31 H :    0.174066
  32 H :    0.161953
  33 H :    0.168533
  34 H :    0.171947
  35 H :    0.165732
  36 H :    0.174003
  37 H :    0.173787
  38 H :    0.163675
  39 H :    0.167646
  40 H :    0.170862
Sum of atomic charges:    0.0000000

LOEWDIN ATOMIC CHARGES
----------------------
   0 C :   -0.409806
   1 C :    0.022532
   2 O :   -0.679163
   3 P :    0.378200
   4 S :   -0.112691
   5 O :   -0.689461
   6 C :    0.014866
   7 C :   -0.403075
   8 S :    0.163098
   9 C :   -0.404148
  10 S :    0.161057
  11 P :    0.373671
  12 S :   -0.143573
  13 O :   -0.685789
  14 C :    0.023521
  15 C :   -0.406644
  16 O :   -0.689992
  17 C :    0.026269
  18 C :   -0.392098
  19 H :    0.163656
  20 H :    0.161914
  21 H :    0.169226
  22 H :    0.181358
  23 H :    0.190608
  24 H :    0.183374
  25 H :    0.190540
  26 H :    0.168531
  27 H :    0.164136
  28 H :    0.163078
  29 H :    0.200626
  30 H :    0.198389
  31 H :    0.187781
  32 H :    0.179088
  33 H :    0.166633
  34 H :    0.162455
  35 H :    0.161574
  36 H :    0.181626
  37 H :    0.183314
  38 H :    0.162611
  39 H :    0.163465
  40 H :    0.169241

  Mayer bond orders larger than 0.100000
B(  0-C ,  1-C ) :   0.9015 B(  0-C , 19-H ) :   0.9660 B(  0-C , 20-H ) :   0.9644
B(  0-C , 21-H ) :   0.9524 B(  1-C ,  2-O ) :   0.8073 B(  1-C , 22-H ) :   0.9628
B(  1-C , 23-H ) :   0.9486 B(  2-O ,  3-P ) :   1.0642 B(  3-P ,  4-S ) :   1.7228
B(  3-P ,  5-O ) :   1.1720 B(  3-P ,  8-S ) :   1.1310 B(  5-O ,  6-C ) :   0.7958
B(  6-C ,  7-C ) :   0.9113 B(  6-C , 24-H ) :   0.9588 B(  6-C , 25-H ) :   0.9499
B(  7-C , 26-H ) :   0.9545 B(  7-C , 27-H ) :   0.9707 B(  7-C , 28-H ) :   0.9606
B(  8-S ,  9-C ) :   0.8975 B(  9-C , 10-S ) :   0.9058 B(  9-C , 29-H ) :   0.9041
B(  9-C , 30-H ) :   0.8990 B( 10-S , 11-P ) :   1.1356 B( 11-P , 12-S ) :   1.6667
B( 11-P , 13-O ) :   1.0371 B( 11-P , 16-O ) :   1.2319 B( 13-O , 14-C ) :   0.7628
B( 14-C , 15-C ) :   0.9438 B( 14-C , 31-H ) :   0.9555 B( 14-C , 32-H ) :   0.9571
B( 15-C , 33-H ) :   0.9606 B( 15-C , 34-H ) :   0.9630 B( 15-C , 35-H ) :   0.9720
B( 16-O , 17-C ) :   0.7347 B( 17-C , 18-C ) :   0.9440 B( 17-C , 36-H ) :   0.9344
B( 17-C , 37-H ) :   0.9490 B( 18-C , 38-H ) :   0.9677 B( 18-C , 39-H ) :   0.9698
B( 18-C , 40-H ) :   0.9595

Dispersion correction           -0.021594092
FINAL SINGLE POINT ENERGY     -2932.466306764398

DIPOLE MOMENT
-------------

Method             : SCF
Type of density    : Electron Density
Multiplicity       :   1
Irrep              :   0
Energy             : -2932.4913990635641312 Eh
Relativity type    :
Basis              : AO
                                X                 Y                 Z
Electronic contribution:      0.588461929     -12.653955055       0.641338272
Nuclear contribution   :     -0.714402085      12.640340740      -0.247807358
                        -----------------------------------------
Total Dipole Moment    :     -0.125940157      -0.013614315       0.393530915
                        -----------------------------------------
Magnitude (a.u.)       :      0.413416078
Magnitude (Debye)      :      1.050820160

Rotational constants in cm-1:             0.011756             0.005157             0.005030
Rotational constants in MHz :           352.432171           154.600723           150.784734

                             ****ORCA TERMINATED NORMALLY****
TOTAL RUN TIME: 0 days 0 hours 1 minutes 44 seconds 14 msec
