                         Program Version 6.0.0  -   RELEASE  -
|  1> ! pbe def2-sv(p) def2/J RI DEFGRID1 loosescf d4 GCP(DFT/SV(P)) printgap
|  2> %output
|  3>     printlevel normal
|  4> end
|  5> * xyz 0 1
|  6> C 3.0776335951 -1.4662222089 -2.2522024273
|  7> C 1.6579384968 -0.9566577729 -2.1388392271
|  8> O 1.2393623597 -0.8723237981 -0.7623516439
|  9> P 1.8705852952 0.1838549395 0.2311803814
| 10> S 2.6155961664 1.8332115755 -0.5109700969
| 11> O 2.8894036148 -0.7697416834 1.0096265938
| 12> C 3.7476471571 -0.2666298043 2.0501280397
| 13> C 5.1171640158 0.0802154926 1.4993411528
| 14> S 0.3311293797 0.4652606462 1.6562971676
| 15> C -0.2678155652 -1.2354907119 1.8082169903
| 16> S -1.3435176644 -1.8078546476 0.4400525687
| 17> P -2.121744713 -0.0037894933 -0.3080706123
| 18> S -1.0568365756 1.2432304638 -1.4078158206
| 19> O -2.7511671164 0.582746968 1.0171452714
| 20> C -3.072964561 1.9779532975 1.2115447127
| 21> C -2.7958900139 2.3326807351 2.6581686456
| 22> O -3.4200292976 -0.4975150208 -1.0870379103
| 23> C -3.4099404795 -0.845060133 -2.4808427479
| 24> C -2.6709130701 -2.144762658 -2.7261109542
| 25> H 3.7598946938 -0.7469557729 -1.8002245779
| 26> H 3.174922491 -2.418916353 -1.7384005344
| 27> H 3.333719698 -1.5877434256 -3.2998825373
| 28> H 0.9400137546 -1.6447780547 -2.5885052353
| 29> H 1.552403658 0.0331305004 -2.5953989469
| 30> H 3.2795968812 0.6089432778 2.5120525158
| 31> H 3.8077974811 -1.0766727503 2.779582462
| 32> H 5.0352769908 0.8866219476 0.773756925
| 33> H 5.7596380197 0.4006062327 2.3130032151
| 34> H 5.5550164636 -0.7874401582 1.0141402183
| 35> H -0.8435334853 -1.2650593597 2.7303101031
| 36> H 0.5766843776 -1.921088238 1.8412779372
| 37> H -2.4642611963 2.5797979948 0.5273237417
| 38> H -4.1280796613 2.1054134342 0.9599566077
| 39> H -3.0691493687 3.3691278972 2.8271261644
| 40> H -3.3792934139 1.6934994424 3.314187479
| 41> H -1.7395327816 2.1991946592 2.8795759354
| 42> H -4.465911528 -0.9229651572 -2.7424556111
| 43> H -2.9469273315 -0.0238863464 -3.0386848352
| 44> H -1.6202876184 -2.0231820656 -2.4623763237
| 45> H -3.0917240814 -2.9395530431 -2.115736823
| 46> H -2.7450628633 -2.4121522858 -3.7752202855
| 47> *
| 48>
| 49>                          ****END OF INPUT****

CARTESIAN COORDINATES (ANGSTROEM)
---------------------------------
  C      3.077634   -1.466222   -2.252202
  C      1.657938   -0.956658   -2.138839
  O      1.239362   -0.872324   -0.762352
  P      1.870585    0.183855    0.231180
  S      2.615596    1.833212   -0.510970
  O      2.889404   -0.769742    1.009627
  C      3.747647   -0.266630    2.050128
  C      5.117164    0.080215    1.499341
  S      0.331129    0.465261    1.656297
  C     -0.267816   -1.235491    1.808217
  S     -1.343518   -1.807855    0.440053
  P     -2.121745   -0.003789   -0.308071
  S     -1.056837    1.243230   -1.407816
  O     -2.751167    0.582747    1.017145
  C     -3.072965    1.977953    1.211545
  C     -2.795890    2.332681    2.658169
  O     -3.420029   -0.497515   -1.087038
  C     -3.409940   -0.845060   -2.480843
  C     -2.670913   -2.144763   -2.726111
  H      3.759895   -0.746956   -1.800225
  H      3.174922   -2.418916   -1.738401
  H      3.333720   -1.587743   -3.299883
  H      0.940014   -1.644778   -2.588505
  H      1.552404    0.033131   -2.595399
  H      3.279597    0.608943    2.512053
  H      3.807797   -1.076673    2.779582
  H      5.035277    0.886622    0.773757
  H      5.759638    0.400606    2.313003
  H      5.555016   -0.787440    1.014140
  H     -0.843533   -1.265059    2.730310
  H      0.576684   -1.921088    1.841278
  H     -2.464261    2.579798    0.527324
  H     -4.128080    2.105413    0.959957
  H     -3.069149    3.369128    2.827126
  H     -3.379293    1.693499    3.314187
  H     -1.739533    2.199195    2.879576
  H     -4.465912   -0.922965   -2.742456
  H     -2.946927   -0.023886   -3.038685
  H     -1.620288   -2.023182   -2.462376
  H     -3.091724   -2.939553   -2.115737
  H     -2.745063   -2.412152   -3.775220

 Total Charge           Charge          ....    0
 Multiplicity           Mult            ....    1
 Number of Electrons    NEL             ....  202
 Basis Dimension        Dim             ....  334

ORBITAL ENERGIES
----------------

  NO   OCC          E(Eh)            E(eV)
   0   2.0000     -88.045978     -2395.8529
   1   2.0000     -88.037670     -2395.6268
   2   2.0000     -87.984902     -2394.1909
   3   2.0000     -87.978146     -2394.0070
   4   2.0000     -76.424743     -2079.6230
   5   2.0000     -76.422608     -2079.5649
   6   2.0000     -18.789018      -511.2752
   7   2.0000     -18.787996      -511.2474
   8   2.0000     -18.786507      -511.2069
   9   2.0000     -18.785859      -511.1892
  10   2.0000      -9.961351      -271.0622
  11   2.0000      -9.952961      -270.8338
  12   2.0000      -9.947976      -270.6982
  13   2.0000      -9.947420      -270.6831
  14   2.0000      -9.946153      -270.6486
  15   2.0000      -9.885060      -268.9861
  16   2.0000      -9.883436      -268.9420
  17   2.0000      -9.879732      -268.8412
  18   2.0000      -9.879094      -268.8238
  19   2.0000      -7.690432      -209.2673
  20   2.0000      -7.683061      -209.0667
  21   2.0000      -7.630058      -207.6244
  22   2.0000      -7.622702      -207.4243
  23   2.0000      -6.422057      -174.7530
  24   2.0000      -6.419674      -174.6882
  25   2.0000      -5.718752      -155.6151
  26   2.0000      -5.714663      -155.5039
  27   2.0000      -5.711328      -155.4131
  28   2.0000      -5.707559      -155.3106
  29   2.0000      -5.707247      -155.3021
  30   2.0000      -5.699574      -155.0933
  31   2.0000      -5.659061      -153.9909
  32   2.0000      -5.651687      -153.7902
  33   2.0000      -5.650825      -153.7668
  34   2.0000      -5.649989      -153.7440
  35   2.0000      -5.643357      -153.5636
  36   2.0000      -5.642823      -153.5490
  37   2.0000      -4.644365      -126.3796
  38   2.0000      -4.644094      -126.3722
  39   2.0000      -4.642566      -126.3306
  40   2.0000      -4.642312      -126.3237
  41   2.0000      -4.641510      -126.3019
  42   2.0000      -4.640068      -126.2627
  43   2.0000      -0.984420       -26.7874
  44   2.0000      -0.981529       -26.7088
  45   2.0000      -0.941884       -25.6300
  46   2.0000      -0.941241       -25.6125
  47   2.0000      -0.763395       -20.7730
  48   2.0000      -0.718996       -19.5649
  49   2.0000      -0.706168       -19.2158
  50   2.0000      -0.684609       -18.6291
  51   2.0000      -0.682596       -18.5744
  52   2.0000      -0.671618       -18.2757
  53   2.0000      -0.651915       -17.7395
  54   2.0000      -0.635217       -17.2851
  55   2.0000      -0.595675       -16.2091
  56   2.0000      -0.590825       -16.0772
  57   2.0000      -0.570532       -15.5250
  58   2.0000      -0.566117       -15.4048
  59   2.0000      -0.560679       -15.2569
  60   2.0000      -0.501361       -13.6427
  61   2.0000      -0.497408       -13.5352
  62   2.0000      -0.471427       -12.8282
  63   2.0000      -0.469770       -12.7831
  64   2.0000      -0.454520       -12.3681
  65   2.0000      -0.440561       -11.9883
  66   2.0000      -0.436223       -11.8702
  67   2.0000      -0.431031       -11.7289
  68   2.0000      -0.424698       -11.5566
  69   2.0000      -0.418341       -11.3836
  70   2.0000      -0.409370       -11.1395
  71   2.0000      -0.398675       -10.8485
  72   2.0000      -0.388635       -10.5753
  73   2.0000      -0.385135       -10.4801
  74   2.0000      -0.383554       -10.4370
  75   2.0000      -0.373333       -10.1589
  76   2.0000      -0.361834        -9.8460
  77   2.0000      -0.356531        -9.7017
  78   2.0000      -0.353865        -9.6292
  79   2.0000      -0.351784        -9.5725
  80   2.0000      -0.346723        -9.4348
  81   2.0000      -0.341568        -9.2945
  82   2.0000      -0.338222        -9.2035
  83   2.0000      -0.332981        -9.0609
  84   2.0000      -0.327595        -8.9143
  85   2.0000      -0.324421        -8.8279
  86   2.0000      -0.309922        -8.4334
  87   2.0000      -0.294943        -8.0258
  88   2.0000      -0.293155        -7.9771
  89   2.0000      -0.286886        -7.8066
  90   2.0000      -0.280530        -7.6336
  91   2.0000      -0.272035        -7.4024
  92   2.0000      -0.270163        -7.3515
  93   2.0000      -0.258735        -7.0405
  94   2.0000      -0.256847        -6.9892
  95   2.0000      -0.233220        -6.3462
  96   2.0000      -0.219287        -5.9671
  97   2.0000      -0.207501        -5.6464
  98   2.0000      -0.197873        -5.3844
  99   2.0000      -0.192784        -5.2459
 100   2.0000      -0.184823        -5.0293
 101   0.0000      -0.049705        -1.3525
 102   0.0000      -0.026297        -0.7156
 103   0.0000      -0.015029        -0.4090
 104   0.0000      -0.001399        -0.0381
 105   0.0000       0.020332         0.5533

MULLIKEN ATOMIC CHARGES
-----------------------
   0 C :   -0.301240
   1 C :   -0.020896
   2 O :   -0.366806
   3 P :    0.617461
   4 S :   -0.304184
   5 O :   -0.376299
   6 C :   -0.011262
   7 C :   -0.288750
   8 S :   -0.092210
   9 C :   -0.310620
  10 S :   -0.103076
  11 P :    0.608617
  12 S :   -0.320093
  13 O :   -0.376243
  14 C :   -0.001918
  15 C :   -0.294929
  16 O :   -0.370045
  17 C :    0.000793
  18 C :   -0.343874
  19 H :    0.124943
  20 H :    0.111531
  21 H :    0.109798
  22 H :    0.115442
  23 H :    0.121458
  24 H :    0.098270
  25 H :    0.101224
  26 H :    0.128826
  27 H :    0.106299
  28 H :    0.111965
  29 H :    0.185205
  30 H :    0.182185
  31 H :    0.113375
  32 H :    0.103886
  33 H :    0.111113
  34 H :    0.112095
  35 H :    0.125971
  36 H :    0.103838
  37 H :    0.108647
  38 H :    0.145736
  39 H :    0.120309
  40 H :    0.113456
Sum of atomic charges:    0.0000000

LOEWDIN ATOMIC CHARGES
----------------------
   0 C :   -0.366297
   1 C :   -0.117766
   2 O :   -0.235293
   3 P :    0.572997
   4 S :   -0.303823
   5 O :   -0.253362
   6 C :   -0.119811
   7 C :   -0.363375
   8 S :    0.104386
   9 C :   -0.467222
  10 S :    0.079969
  11 P :    0.560407
  12 S :   -0.308604
  13 O :   -0.247104
  14 C :   -0.115784
  15 C :   -0.355123
  16 O :   -0.247814
  17 C :   -0.121841
  18 C :   -0.371435
  19 H :    0.121737
  20 H :    0.124270
  21 H :    0.129798
  22 H :    0.116084
  23 H :    0.112858
  24 H :    0.105345
  25 H :    0.115316
  26 H :    0.124280
  27 H :    0.127984
  28 H :    0.124418
  29 H :    0.137190
  30 H :    0.133487
  31 H :    0.109818
  32 H :    0.114734
  33 H :    0.130700
  34 H :    0.124194
  35 H :    0.121839
  36 H :    0.118151
  37 H :    0.107761
  38 H :    0.120144
  39 H :    0.125696
  40 H :    0.131093

  Mayer bond orders larger than 0.100000
B(  0-C ,  1-C ) :   1.1616 B(  0-C , 19-H ) :   0.9315 B(  0-C , 20-H ) :   0.9451
B(  0-C , 21-H ) :   0.9387 B(  1-C ,  2-O ) :   0.8967 B(  1-C , 22-H ) :   0.9249
B(  1-C , 23-H ) :   0.9159 B(  2-O ,  3-P ) :   1.1276 B(  3-P ,  4-S ) :   1.6443
B(  3-P ,  5-O ) :   1.0702 B(  3-P ,  8-S ) :   0.9452 B(  5-O ,  6-C ) :   0.9097
B(  6-C ,  7-C ) :   1.1688 B(  6-C , 24-H ) :   0.9124 B(  6-C , 25-H ) :   0.9357
B(  7-C , 26-H ) :   0.9305 B(  7-C , 27-H ) :   0.9400 B(  7-C , 28-H ) :   0.9464
B(  8-S ,  9-C ) :   1.0095 B(  9-C , 10-S ) :   0.9673 B(  9-C , 29-H ) :   0.9094
B(  9-C , 30-H ) :   0.9031 B( 10-S , 11-P ) :   0.9865 B( 10-S , 12-S ) :   0.1160
B( 11-P , 12-S ) :   1.5903 B( 11-P , 13-O ) :   1.1188 B( 11-P , 16-O ) :   1.1046
B( 13-O , 14-C ) :   0.8924 B( 14-C , 15-C ) :   1.1615 B( 14-C , 31-H ) :   0.9041
B( 14-C , 32-H ) :   0.9343 B( 15-C , 33-H ) :   0.9412 B( 15-C , 34-H ) :   0.9503
B( 15-C , 35-H ) :   0.9456 B( 16-O , 17-C ) :   0.9148 B( 17-C , 18-C ) :   1.1617
B( 17-C , 36-H ) :   0.9328 B( 17-C , 37-H ) :   0.9092 B( 18-C , 38-H ) :   0.9260
B( 18-C , 39-H ) :   0.9431 B( 18-C , 40-H ) :   0.9386

Dispersion correction           -0.068316853
FINAL SINGLE POINT ENERGY     -2929.513527775124

DIPOLE MOMENT
-------------

Method             : SCF
Type of density    : Electron Density
Multiplicity       :   1
Irrep              :   0
Energy             : -2929.6298208265488938 Eh
Relativity type    :
Basis              : AO
                                X                 Y                 Z
Electronic contribution:     -6.285241125       4.727519251       2.071507048
Nuclear contribution   :      6.071193347      -5.763775071      -1.514248292
                        -----------------------------------------
Total Dipole Moment    :     -0.214047778      -1.036255821       0.557258756
                        -----------------------------------------
Magnitude (a.u.)       :      1.195901291
Magnitude (Debye)      :      3.039739510

Rotational constants in cm-1:             0.011738             0.005913             0.005049
Rotational constants in MHz :           351.884261           177.266593           151.371924

                             ****ORCA TERMINATED NORMALLY****
TOTAL RUN TIME: 0 days 0 hours 0 minutes 21 seconds 513 msec
