                         Program Version 6.0.0  -   RELEASE  -
|  1> ! r2scan-3c def2/J RI DEFGRID2 scfconv6 printgap
|  2> %output
|  3>     printlevel normal
|  4> end
|  5> * xyz 0 1
|  6> C 2.6745354883 -0.3590087595 3.3646203675
|  7> C 1.4050027924 -0.6851522073 2.6066815406
|  8> O 1.2921312007 0.0969939468 1.4021798396
|  9> P 2.2080819044 -0.1527070559 0.1348023155
| 10> S 2.8916171417 -1.9757323203 -0.1157812587
| 11> O 3.3180721432 0.9664565741 0.3312500366
| 12> C 4.5562081471 0.9655858798 -0.401317717
| 13> C 4.3490154277 1.2508242555 -1.8747887838
| 14> S 0.9490260846 0.6259078762 -1.3737733042
| 15> C 0.090227876 -0.9273286355 -1.7511474649
| 16> S -0.8387979139 -1.5917638642 -0.3434979244
| 17> P -2.1624541647 0.052913315 -0.1271954677
| 18> S -2.7353380122 0.8943820448 -1.8058005205
| 19> O -1.4172812955 0.9913039582 0.9025980618
| 20> C -1.3883278477 2.4252398795 0.7785279673
| 21> C -2.6668321396 3.0339052848 1.3147976749
| 22> O -3.2811597743 -0.538999045 0.8297594634
| 23> C -4.1733019191 -1.6045407556 0.4464849988
| 24> C -5.4108718131 -1.0683746312 -0.2470873173
| 25> H 2.6828439938 -0.9018930324 4.3045601999
| 26> H 3.5412979538 -0.6568354917 2.7754647231
| 27> H 2.732500284 0.7084799555 3.5600660063
| 28> H 0.5092133854 -0.4245504203 3.172607537
| 29> H 1.3740056122 -1.7460503735 2.3361323946
| 30> H 5.146173861 1.7456189117 0.0817148765
| 31> H 5.0380975935 -0.0076068929 -0.262988977
| 32> H 5.3142421849 1.3576464162 -2.3592937989
| 33> H 3.8089382273 0.4281272939 -2.3417459468
| 34> H 3.7745234012 2.1643507511 -2.0065997173
| 35> H 0.8159593862 -1.6912823597 -2.0275309779
| 36> H -0.5931427074 -0.7082830397 -2.5711018863
| 37> H -0.5130950176 2.7274102392 1.3557140985
| 38> H -1.2423420312 2.6890201482 -0.2745598592
| 39> H -2.5993159631 4.1161649032 1.2699083617
| 40> H -3.5092352029 2.7036817367 0.7082878146
| 41> H -2.8299343299 2.7206002983 2.3422702266
| 42> H -3.6361040557 -2.310332424 -0.1940480668
| 43> H -4.4273594586 -2.0921427197 1.3896832934
| 44> H -5.9210325822 -0.3566432065 0.3959800321
| 45> H -5.1401792636 -0.5693985891 -1.1748768217
| 46> H -6.0796026381 -1.8932084853 -0.4710750748
| 47> *
| 48>
| 49>                          ****END OF INPUT****

CARTESIAN COORDINATES (ANGSTROEM)
---------------------------------
  C      2.674535   -0.359009    3.364620
  C      1.405003   -0.685152    2.606682
  O      1.292131    0.096994    1.402180
  P      2.208082   -0.152707    0.134802
  S      2.891617   -1.975732   -0.115781
  O      3.318072    0.966457    0.331250
  C      4.556208    0.965586   -0.401318
  C      4.349015    1.250824   -1.874789
  S      0.949026    0.625908   -1.373773
  C      0.090228   -0.927329   -1.751147
  S     -0.838798   -1.591764   -0.343498
  P     -2.162454    0.052913   -0.127195
  S     -2.735338    0.894382   -1.805801
  O     -1.417281    0.991304    0.902598
  C     -1.388328    2.425240    0.778528
  C     -2.666832    3.033905    1.314798
  O     -3.281160   -0.538999    0.829759
  C     -4.173302   -1.604541    0.446485
  C     -5.410872   -1.068375   -0.247087
  H      2.682844   -0.901893    4.304560
  H      3.541298   -0.656835    2.775465
  H      2.732500    0.708480    3.560066
  H      0.509213   -0.424550    3.172608
  H      1.374006   -1.746050    2.336132
  H      5.146174    1.745619    0.081715
  H      5.038098   -0.007607   -0.262989
  H      5.314242    1.357646   -2.359294
  H      3.808938    0.428127   -2.341746
  H      3.774523    2.164351   -2.006600
  H      0.815959   -1.691282   -2.027531
  H     -0.593143   -0.708283   -2.571102
  H     -0.513095    2.727410    1.355714
  H     -1.242342    2.689020   -0.274560
  H     -2.599316    4.116165    1.269908
  H     -3.509235    2.703682    0.708288
  H     -2.829934    2.720600    2.342270
  H     -3.636104   -2.310332   -0.194048
  H     -4.427359   -2.092143    1.389683
  H     -5.921033   -0.356643    0.395980
  H     -5.140179   -0.569399   -1.174877
  H     -6.079603   -1.893208   -0.471075

 Total Charge           Charge          ....    0
 Multiplicity           Mult            ....    1
 Number of Electrons    NEL             ....  202
 Basis Dimension        Dim             ....  539

ORBITAL ENERGIES
----------------

  NO   OCC          E(Eh)            E(eV)
   0   2.0000     -88.574148     -2410.2251
   1   2.0000     -88.573106     -2410.1967
   2   2.0000     -88.521824     -2408.8013
   3   2.0000     -88.520251     -2408.7585
   4   2.0000     -76.912929     -2092.9072
   5   2.0000     -76.912887     -2092.9061
   6   2.0000     -18.993292      -516.8338
   7   2.0000     -18.992258      -516.8056
   8   2.0000     -18.985014      -516.6085
   9   2.0000     -18.984793      -516.6025
  10   2.0000     -10.104692      -274.9626
  11   2.0000     -10.101059      -274.8638
  12   2.0000     -10.099478      -274.8208
  13   2.0000     -10.093471      -274.6573
  14   2.0000     -10.091799      -274.6118
  15   2.0000     -10.029180      -272.9079
  16   2.0000     -10.026859      -272.8447
  17   2.0000     -10.025537      -272.8087
  18   2.0000     -10.024443      -272.7790
  19   2.0000      -7.868536      -214.1138
  20   2.0000      -7.867359      -214.0817
  21   2.0000      -7.816587      -212.7002
  22   2.0000      -7.815166      -212.6615
  23   2.0000      -6.591537      -179.3648
  24   2.0000      -6.591251      -179.3571
  25   2.0000      -5.815412      -158.2454
  26   2.0000      -5.814220      -158.2130
  27   2.0000      -5.812471      -158.1654
  28   2.0000      -5.811201      -158.1308
  29   2.0000      -5.805566      -157.9775
  30   2.0000      -5.804519      -157.9490
  31   2.0000      -5.764159      -156.8507
  32   2.0000      -5.762755      -156.8125
  33   2.0000      -5.756898      -156.6532
  34   2.0000      -5.756641      -156.6462
  35   2.0000      -5.755364      -156.6114
  36   2.0000      -5.755291      -156.6094
  37   2.0000      -4.736862      -128.8966
  38   2.0000      -4.736604      -128.8895
  39   2.0000      -4.736413      -128.8844
  40   2.0000      -4.736258      -128.8801
  41   2.0000      -4.735475      -128.8588
  42   2.0000      -4.735075      -128.8479
  43   2.0000      -1.049295       -28.5528
  44   2.0000      -1.048110       -28.5205
  45   2.0000      -1.009742       -27.4765
  46   2.0000      -1.007915       -27.4268
  47   2.0000      -0.801376       -21.8065
  48   2.0000      -0.756754       -20.5923
  49   2.0000      -0.747206       -20.3325
  50   2.0000      -0.730099       -19.8670
  51   2.0000      -0.727472       -19.7955
  52   2.0000      -0.709271       -19.3002
  53   2.0000      -0.686406       -18.6781
  54   2.0000      -0.669461       -18.2170
  55   2.0000      -0.632660       -17.2156
  56   2.0000      -0.625372       -17.0172
  57   2.0000      -0.603997       -16.4356
  58   2.0000      -0.601048       -16.3553
  59   2.0000      -0.591916       -16.1068
  60   2.0000      -0.524794       -14.2804
  61   2.0000      -0.515421       -14.0253
  62   2.0000      -0.493317       -13.4238
  63   2.0000      -0.491224       -13.3669
  64   2.0000      -0.471811       -12.8386
  65   2.0000      -0.458431       -12.4746
  66   2.0000      -0.457036       -12.4366
  67   2.0000      -0.455629       -12.3983
  68   2.0000      -0.442801       -12.0492
  69   2.0000      -0.429410       -11.6848
  70   2.0000      -0.422078       -11.4853
  71   2.0000      -0.412482       -11.2242
  72   2.0000      -0.407988       -11.1019
  73   2.0000      -0.403600       -10.9825
  74   2.0000      -0.401307       -10.9201
  75   2.0000      -0.390035       -10.6134
  76   2.0000      -0.384357       -10.4589
  77   2.0000      -0.372840       -10.1455
  78   2.0000      -0.367090        -9.9890
  79   2.0000      -0.363534        -9.8923
  80   2.0000      -0.361697        -9.8423
  81   2.0000      -0.360261        -9.8032
  82   2.0000      -0.354902        -9.6574
  83   2.0000      -0.350042        -9.5251
  84   2.0000      -0.345826        -9.4104
  85   2.0000      -0.335955        -9.1418
  86   2.0000      -0.321041        -8.7360
  87   2.0000      -0.310797        -8.4572
  88   2.0000      -0.310002        -8.4356
  89   2.0000      -0.300388        -8.1740
  90   2.0000      -0.296531        -8.0690
  91   2.0000      -0.290607        -7.9078
  92   2.0000      -0.283327        -7.7097
  93   2.0000      -0.279231        -7.5983
  94   2.0000      -0.270936        -7.3726
  95   2.0000      -0.244325        -6.6484
  96   2.0000      -0.229939        -6.2570
  97   2.0000      -0.227557        -6.1921
  98   2.0000      -0.221264        -6.0209
  99   2.0000      -0.213354        -5.8057
 100   2.0000      -0.211638        -5.7590
 101   0.0000      -0.046672        -1.2700
 102   0.0000      -0.023841        -0.6488
 103   0.0000      -0.000134        -0.0036
 104   0.0000       0.001280         0.0348
 105   0.0000       0.013517         0.3678

MULLIKEN ATOMIC CHARGES
-----------------------
   0 C :   -0.442045
   1 C :   -0.161893
   2 O :   -0.258592
   3 P :    0.695345
   4 S :   -0.485082
   5 O :   -0.304035
   6 C :   -0.152897
   7 C :   -0.449282
   8 S :   -0.126834
   9 C :   -0.231158
  10 S :   -0.148739
  11 P :    0.703805
  12 S :   -0.483765
  13 O :   -0.258259
  14 C :   -0.149277
  15 C :   -0.446825
  16 O :   -0.308328
  17 C :   -0.141303
  18 C :   -0.447507
  19 H :    0.146477
  20 H :    0.165801
  21 H :    0.153932
  22 H :    0.158516
  23 H :    0.173864
  24 H :    0.148410
  25 H :    0.171908
  26 H :    0.148274
  27 H :    0.176583
  28 H :    0.155765
  29 H :    0.208630
  30 H :    0.208760
  31 H :    0.159285
  32 H :    0.174623
  33 H :    0.145828
  34 H :    0.166030
  35 H :    0.152281
  36 H :    0.154226
  37 H :    0.150391
  38 H :    0.152385
  39 H :    0.179766
  40 H :    0.144935
Sum of atomic charges:   -0.0000000

LOEWDIN ATOMIC CHARGES
----------------------
   0 C :   -0.399136
   1 C :    0.018426
   2 O :   -0.671824
   3 P :    0.380730
   4 S :   -0.130568
   5 O :   -0.659986
   6 C :    0.019727
   7 C :   -0.406895
   8 S :    0.177783
   9 C :   -0.419274
  10 S :    0.162803
  11 P :    0.383412
  12 S :   -0.131571
  13 O :   -0.659059
  14 C :    0.012329
  15 C :   -0.398012
  16 O :   -0.654872
  17 C :    0.022577
  18 C :   -0.402068
  19 H :    0.159059
  20 H :    0.163885
  21 H :    0.159678
  22 H :    0.182219
  23 H :    0.181349
  24 H :    0.179520
  25 H :    0.179474
  26 H :    0.159359
  27 H :    0.165508
  28 H :    0.160441
  29 H :    0.189095
  30 H :    0.190433
  31 H :    0.181157
  32 H :    0.182094
  33 H :    0.159060
  34 H :    0.164390
  35 H :    0.158495
  36 H :    0.175187
  37 H :    0.179418
  38 H :    0.158931
  39 H :    0.169022
  40 H :    0.157704

  Mayer bond orders larger than 0.100000
B(  0-C ,  1-C ) :   0.9223 B(  0-C , 19-H ) :   0.9634 B(  0-C , 20-H ) :   0.9612
B(  0-C , 21-H ) :   0.9730 B(  1-C ,  2-O ) :   0.7885 B(  1-C , 22-H ) :   0.9632
B(  1-C , 23-H ) :   0.9637 B(  2-O ,  3-P ) :   1.1488 B(  3-P ,  4-S ) :   1.7425
B(  3-P ,  5-O ) :   1.0674 B(  3-P ,  8-S ) :   1.0837 B(  5-O ,  6-C ) :   0.8131
B(  6-C ,  7-C ) :   0.9229 B(  6-C , 24-H ) :   0.9583 B(  6-C , 25-H ) :   0.9676
B(  7-C , 26-H ) :   0.9588 B(  7-C , 27-H ) :   0.9627 B(  7-C , 28-H ) :   0.9682
B(  8-S ,  9-C ) :   0.8969 B(  9-C , 10-S ) :   0.9025 B(  9-C , 29-H ) :   0.9110
B(  9-C , 30-H ) :   0.9086 B( 10-S , 11-P ) :   1.0649 B( 11-P , 12-S ) :   1.7400
B( 11-P , 13-O ) :   1.1528 B( 11-P , 16-O ) :   1.0919 B( 13-O , 14-C ) :   0.7697
B( 14-C , 15-C ) :   0.9309 B( 14-C , 31-H ) :   0.9633 B( 14-C , 32-H ) :   0.9589
B( 15-C , 33-H ) :   0.9656 B( 15-C , 34-H ) :   0.9621 B( 15-C , 35-H ) :   0.9748
B( 16-O , 17-C ) :   0.7882 B( 17-C , 18-C ) :   0.9556 B( 17-C , 36-H ) :   0.9618
B( 17-C , 37-H ) :   0.9625 B( 18-C , 38-H ) :   0.9739 B( 18-C , 39-H ) :   0.9553
B( 18-C , 40-H ) :   0.9652

Dispersion correction           -0.021793737
FINAL SINGLE POINT ENERGY     -2932.464313313475

DIPOLE MOMENT
-------------

Method             : SCF
Type of density    : Electron Density
Multiplicity       :   1
Irrep              :   0
Energy             : -2932.4889548046676282 Eh
Relativity type    :
Basis              : AO
                                X                 Y                 Z
Electronic contribution:      1.801808642      -7.284372319      -8.706129789
Nuclear contribution   :     -1.694918742       7.678946147       9.539623632
                        -----------------------------------------
Total Dipole Moment    :      0.106889900       0.394573828       0.833493843
                        -----------------------------------------
Magnitude (a.u.)       :      0.928345810
Magnitude (Debye)      :      2.359667522

Rotational constants in cm-1:             0.013155             0.004898             0.004836
Rotational constants in MHz :           394.386430           146.829629           144.988844

                             ****ORCA TERMINATED NORMALLY****
TOTAL RUN TIME: 0 days 0 hours 1 minutes 19 seconds 299 msec
