                         Program Version 6.0.0  -   RELEASE  -
|  1> ! r2scan-3c def2/J RI DEFGRID2 scfconv6 printgap
|  2> %output
|  3>     printlevel normal
|  4> end
|  5> %cpcm
|  6>     smd true
|  7>     smdsolvent "water"
|  8> end
|  9> * xyz 0 1
| 10> C 2.6745354883 -0.3590087595 3.3646203675
| 11> C 1.4050027924 -0.6851522073 2.6066815406
| 12> O 1.2921312007 0.0969939468 1.4021798396
| 13> P 2.2080819044 -0.1527070559 0.1348023155
| 14> S 2.8916171417 -1.9757323203 -0.1157812587
| 15> O 3.3180721432 0.9664565741 0.3312500366
| 16> C 4.5562081471 0.9655858798 -0.401317717
| 17> C 4.3490154277 1.2508242555 -1.8747887838
| 18> S 0.9490260846 0.6259078762 -1.3737733042
| 19> C 0.090227876 -0.9273286355 -1.7511474649
| 20> S -0.8387979139 -1.5917638642 -0.3434979244
| 21> P -2.1624541647 0.052913315 -0.1271954677
| 22> S -2.7353380122 0.8943820448 -1.8058005205
| 23> O -1.4172812955 0.9913039582 0.9025980618
| 24> C -1.3883278477 2.4252398795 0.7785279673
| 25> C -2.6668321396 3.0339052848 1.3147976749
| 26> O -3.2811597743 -0.538999045 0.8297594634
| 27> C -4.1733019191 -1.6045407556 0.4464849988
| 28> C -5.4108718131 -1.0683746312 -0.2470873173
| 29> H 2.6828439938 -0.9018930324 4.3045601999
| 30> H 3.5412979538 -0.6568354917 2.7754647231
| 31> H 2.732500284 0.7084799555 3.5600660063
| 32> H 0.5092133854 -0.4245504203 3.172607537
| 33> H 1.3740056122 -1.7460503735 2.3361323946
| 34> H 5.146173861 1.7456189117 0.0817148765
| 35> H 5.0380975935 -0.0076068929 -0.262988977
| 36> H 5.3142421849 1.3576464162 -2.3592937989
| 37> H 3.8089382273 0.4281272939 -2.3417459468
| 38> H 3.7745234012 2.1643507511 -2.0065997173
| 39> H 0.8159593862 -1.6912823597 -2.0275309779
| 40> H -0.5931427074 -0.7082830397 -2.5711018863
| 41> H -0.5130950176 2.7274102392 1.3557140985
| 42> H -1.2423420312 2.6890201482 -0.2745598592
| 43> H -2.5993159631 4.1161649032 1.2699083617
| 44> H -3.5092352029 2.7036817367 0.7082878146
| 45> H -2.8299343299 2.7206002983 2.3422702266
| 46> H -3.6361040557 -2.310332424 -0.1940480668
| 47> H -4.4273594586 -2.0921427197 1.3896832934
| 48> H -5.9210325822 -0.3566432065 0.3959800321
| 49> H -5.1401792636 -0.5693985891 -1.1748768217
| 50> H -6.0796026381 -1.8932084853 -0.4710750748
| 51> *
| 52>
| 53>                          ****END OF INPUT****

CARTESIAN COORDINATES (ANGSTROEM)
---------------------------------
  C      2.674535   -0.359009    3.364620
  C      1.405003   -0.685152    2.606682
  O      1.292131    0.096994    1.402180
  P      2.208082   -0.152707    0.134802
  S      2.891617   -1.975732   -0.115781
  O      3.318072    0.966457    0.331250
  C      4.556208    0.965586   -0.401318
  C      4.349015    1.250824   -1.874789
  S      0.949026    0.625908   -1.373773
  C      0.090228   -0.927329   -1.751147
  S     -0.838798   -1.591764   -0.343498
  P     -2.162454    0.052913   -0.127195
  S     -2.735338    0.894382   -1.805801
  O     -1.417281    0.991304    0.902598
  C     -1.388328    2.425240    0.778528
  C     -2.666832    3.033905    1.314798
  O     -3.281160   -0.538999    0.829759
  C     -4.173302   -1.604541    0.446485
  C     -5.410872   -1.068375   -0.247087
  H      2.682844   -0.901893    4.304560
  H      3.541298   -0.656835    2.775465
  H      2.732500    0.708480    3.560066
  H      0.509213   -0.424550    3.172608
  H      1.374006   -1.746050    2.336132
  H      5.146174    1.745619    0.081715
  H      5.038098   -0.007607   -0.262989
  H      5.314242    1.357646   -2.359294
  H      3.808938    0.428127   -2.341746
  H      3.774523    2.164351   -2.006600
  H      0.815959   -1.691282   -2.027531
  H     -0.593143   -0.708283   -2.571102
  H     -0.513095    2.727410    1.355714
  H     -1.242342    2.689020   -0.274560
  H     -2.599316    4.116165    1.269908
  H     -3.509235    2.703682    0.708288
  H     -2.829934    2.720600    2.342270
  H     -3.636104   -2.310332   -0.194048
  H     -4.427359   -2.092143    1.389683
  H     -5.921033   -0.356643    0.395980
  H     -5.140179   -0.569399   -1.174877
  H     -6.079603   -1.893208   -0.471075

 Total Charge           Charge          ....    0
 Multiplicity           Mult            ....    1
 Number of Electrons    NEL             ....  202
 Basis Dimension        Dim             ....  539

ORBITAL ENERGIES
----------------

  NO   OCC          E(Eh)            E(eV)
   0   2.0000     -88.577882     -2410.3267
   1   2.0000     -88.577707     -2410.3220
   2   2.0000     -88.528534     -2408.9839
   3   2.0000     -88.528010     -2408.9696
   4   2.0000     -76.919250     -2093.0792
   5   2.0000     -76.918141     -2093.0490
   6   2.0000     -18.996038      -516.9085
   7   2.0000     -18.995571      -516.8958
   8   2.0000     -18.991372      -516.7815
   9   2.0000     -18.989597      -516.7332
  10   2.0000     -10.104566      -274.9592
  11   2.0000     -10.091759      -274.6107
  12   2.0000     -10.089778      -274.5568
  13   2.0000     -10.088240      -274.5150
  14   2.0000     -10.088109      -274.5114
  15   2.0000     -10.018571      -272.6192
  16   2.0000     -10.018168      -272.6082
  17   2.0000     -10.017479      -272.5895
  18   2.0000     -10.016665      -272.5673
  19   2.0000      -7.872298      -214.2161
  20   2.0000      -7.871988      -214.2077
  21   2.0000      -7.823564      -212.8900
  22   2.0000      -7.823174      -212.8794
  23   2.0000      -6.597672      -179.5318
  24   2.0000      -6.596790      -179.5078
  25   2.0000      -5.819165      -158.3475
  26   2.0000      -5.818834      -158.3385
  27   2.0000      -5.816227      -158.2676
  28   2.0000      -5.815823      -158.2566
  29   2.0000      -5.809346      -158.0803
  30   2.0000      -5.809176      -158.0757
  31   2.0000      -5.771092      -157.0394
  32   2.0000      -5.770722      -157.0293
  33   2.0000      -5.763856      -156.8425
  34   2.0000      -5.763631      -156.8364
  35   2.0000      -5.763374      -156.8294
  36   2.0000      -5.763292      -156.8272
  37   2.0000      -4.742998      -129.0635
  38   2.0000      -4.742689      -129.0551
  39   2.0000      -4.742080      -129.0386
  40   2.0000      -4.741680      -129.0277
  41   2.0000      -4.741530      -129.0236
  42   2.0000      -4.740771      -129.0029
  43   2.0000      -1.053649       -28.6713
  44   2.0000      -1.051571       -28.6147
  45   2.0000      -1.013161       -27.5695
  46   2.0000      -1.011514       -27.5247
  47   2.0000      -0.803998       -21.8779
  48   2.0000      -0.755331       -20.5536
  49   2.0000      -0.742864       -20.2144
  50   2.0000      -0.722812       -19.6687
  51   2.0000      -0.721621       -19.6363
  52   2.0000      -0.709654       -19.3107
  53   2.0000      -0.690410       -18.7870
  54   2.0000      -0.675346       -18.3771
  55   2.0000      -0.632043       -17.1988
  56   2.0000      -0.623707       -16.9719
  57   2.0000      -0.598495       -16.2859
  58   2.0000      -0.597289       -16.2531
  59   2.0000      -0.591089       -16.0843
  60   2.0000      -0.523197       -14.2369
  61   2.0000      -0.512601       -13.9486
  62   2.0000      -0.493000       -13.4152
  63   2.0000      -0.489077       -13.3085
  64   2.0000      -0.472503       -12.8575
  65   2.0000      -0.458080       -12.4650
  66   2.0000      -0.453599       -12.3430
  67   2.0000      -0.453175       -12.3315
  68   2.0000      -0.440682       -11.9916
  69   2.0000      -0.426295       -11.6001
  70   2.0000      -0.420652       -11.4465
  71   2.0000      -0.412330       -11.2201
  72   2.0000      -0.405388       -11.0312
  73   2.0000      -0.403638       -10.9836
  74   2.0000      -0.399443       -10.8694
  75   2.0000      -0.388308       -10.5664
  76   2.0000      -0.382726       -10.4145
  77   2.0000      -0.369319       -10.0497
  78   2.0000      -0.364214        -9.9108
  79   2.0000      -0.359176        -9.7737
  80   2.0000      -0.353694        -9.6245
  81   2.0000      -0.353130        -9.6092
  82   2.0000      -0.348322        -9.4783
  83   2.0000      -0.346343        -9.4245
  84   2.0000      -0.344333        -9.3698
  85   2.0000      -0.335022        -9.1164
  86   2.0000      -0.320326        -8.7165
  87   2.0000      -0.306452        -8.3390
  88   2.0000      -0.304858        -8.2956
  89   2.0000      -0.300921        -8.1885
  90   2.0000      -0.297818        -8.1040
  91   2.0000      -0.291425        -7.9301
  92   2.0000      -0.285053        -7.7567
  93   2.0000      -0.279443        -7.6040
  94   2.0000      -0.274215        -7.4618
  95   2.0000      -0.248936        -6.7739
  96   2.0000      -0.236130        -6.4254
  97   2.0000      -0.235083        -6.3969
  98   2.0000      -0.227956        -6.2030
  99   2.0000      -0.220782        -6.0078
 100   2.0000      -0.218437        -5.9440
 101   0.0000      -0.051852        -1.4110
 102   0.0000      -0.030256        -0.8233
 103   0.0000      -0.005323        -0.1448
 104   0.0000      -0.002980        -0.0811
 105   0.0000       0.011950         0.3252

MULLIKEN ATOMIC CHARGES
-----------------------
   0 C :   -0.484617
   1 C :   -0.154234
   2 O :   -0.289116
   3 P :    0.731927
   4 S :   -0.528058
   5 O :   -0.330993
   6 C :   -0.153380
   7 C :   -0.485553
   8 S :   -0.136551
   9 C :   -0.243472
  10 S :   -0.160235
  11 P :    0.729816
  12 S :   -0.521056
  13 O :   -0.290298
  14 C :   -0.137987
  15 C :   -0.488804
  16 O :   -0.340186
  17 C :   -0.129055
  18 C :   -0.489327
  19 H :    0.171568
  20 H :    0.167184
  21 H :    0.169190
  22 H :    0.178672
  23 H :    0.176569
  24 H :    0.175414
  25 H :    0.178139
  26 H :    0.172966
  27 H :    0.172741
  28 H :    0.169220
  29 H :    0.231352
  30 H :    0.229936
  31 H :    0.179836
  32 H :    0.176015
  33 H :    0.171084
  34 H :    0.164862
  35 H :    0.167604
  36 H :    0.164079
  37 H :    0.176853
  38 H :    0.168046
  39 H :    0.169935
  40 H :    0.169915
Sum of atomic charges:    0.0000000

LOEWDIN ATOMIC CHARGES
----------------------
   0 C :   -0.402189
   1 C :    0.021753
   2 O :   -0.688893
   3 P :    0.385747
   4 S :   -0.156126
   5 O :   -0.671721
   6 C :    0.025582
   7 C :   -0.410020
   8 S :    0.173358
   9 C :   -0.412744
  10 S :    0.157667
  11 P :    0.386729
  12 S :   -0.155114
  13 O :   -0.677249
  14 C :    0.015874
  15 C :   -0.401289
  16 O :   -0.669585
  17 C :    0.029011
  18 C :   -0.406308
  19 H :    0.168458
  20 H :    0.162249
  21 H :    0.163770
  22 H :    0.190418
  23 H :    0.182125
  24 H :    0.191018
  25 H :    0.181527
  26 H :    0.168396
  27 H :    0.161569
  28 H :    0.163606
  29 H :    0.196317
  30 H :    0.196955
  31 H :    0.189433
  32 H :    0.182749
  33 H :    0.168410
  34 H :    0.161897
  35 H :    0.163052
  36 H :    0.179862
  37 H :    0.190895
  38 H :    0.162592
  39 H :    0.162881
  40 H :    0.167338

  Mayer bond orders larger than 0.100000
B(  0-C ,  1-C ) :   0.9152 B(  0-C , 19-H ) :   0.9572 B(  0-C , 20-H ) :   0.9603
B(  0-C , 21-H ) :   0.9715 B(  1-C ,  2-O ) :   0.7765 B(  1-C , 22-H ) :   0.9533
B(  1-C , 23-H ) :   0.9588 B(  2-O ,  3-P ) :   1.1524 B(  3-P ,  4-S ) :   1.7038
B(  3-P ,  5-O ) :   1.0758 B(  3-P ,  8-S ) :   1.0945 B(  5-O ,  6-C ) :   0.8009
B(  6-C ,  7-C ) :   0.9097 B(  6-C , 24-H ) :   0.9485 B(  6-C , 25-H ) :   0.9661
B(  7-C , 26-H ) :   0.9534 B(  7-C , 27-H ) :   0.9637 B(  7-C , 28-H ) :   0.9655
B(  8-S ,  9-C ) :   0.8885 B(  9-C , 10-S ) :   0.8938 B(  9-C , 29-H ) :   0.9049
B(  9-C , 30-H ) :   0.9034 B( 10-S , 11-P ) :   1.0789 B( 11-P , 12-S ) :   1.7140
B( 11-P , 13-O ) :   1.1517 B( 11-P , 16-O ) :   1.0953 B( 13-O , 14-C ) :   0.7579
B( 14-C , 15-C ) :   0.9257 B( 14-C , 31-H ) :   0.9531 B( 14-C , 32-H ) :   0.9542
B( 15-C , 33-H ) :   0.9596 B( 15-C , 34-H ) :   0.9626 B( 15-C , 35-H ) :   0.9723
B( 16-O , 17-C ) :   0.7782 B( 17-C , 18-C ) :   0.9424 B( 17-C , 36-H ) :   0.9547
B( 17-C , 37-H ) :   0.9528 B( 18-C , 38-H ) :   0.9721 B( 18-C , 39-H ) :   0.9599
B( 18-C , 40-H ) :   0.9595

Dispersion correction           -0.021793737
FINAL SINGLE POINT ENERGY     -2932.471296527056

DIPOLE MOMENT
-------------

Method             : SCF
Type of density    : Electron Density
Multiplicity       :   1
Irrep              :   0
Energy             : -2932.4959380182485802 Eh
Relativity type    :
Basis              : AO
                                X                 Y                 Z
Electronic contribution:      1.891139448      -7.251950873      -8.542875545
Nuclear contribution   :     -1.694918742       7.678946147       9.539623632
                        -----------------------------------------
Total Dipole Moment    :      0.196220706       0.426995274       0.996748087
                        -----------------------------------------
Magnitude (a.u.)       :      1.101968365
Magnitude (Debye)      :      2.800980987

Rotational constants in cm-1:             0.013155             0.004898             0.004836
Rotational constants in MHz :           394.386430           146.829629           144.988844

                             ****ORCA TERMINATED NORMALLY****
TOTAL RUN TIME: 0 days 0 hours 1 minutes 49 seconds 558 msec
