                         Program Version 6.0.0  -   RELEASE  -
|  1> ! pbe def2-sv(p) def2/J RI DEFGRID1 loosescf d4 GCP(DFT/SV(P)) printgap
|  2> %output
|  3>     printlevel normal
|  4> end
|  5> * xyz 0 1
|  6> C 2.9525697304 0.1644193482 -3.3008768957
|  7> C 3.317643238 0.8066325169 -1.9773082116
|  8> O 3.1099125611 -0.1345191122 -0.9041941946
|  9> P 2.2001547773 0.0943852041 0.3670500579
| 10> S 1.2325104622 1.8089176534 0.3560897867
| 11> O 3.290780939 -0.0184701019 1.5142439861
| 12> C 3.0408523388 -0.4356603986 2.8684289267
| 13> C 1.9288662023 0.3505140618 3.5322927719
| 14> S 1.2132565626 -1.776415466 0.5444282942
| 15> C 0.4788368284 -1.9227171882 -1.1157853106
| 16> S -0.2936834693 -0.409811317 -1.7524226568
| 17> P -1.8758529159 -0.1549280338 -0.3737893481
| 18> S -1.5967263818 -0.1356830082 1.5707596338
| 19> O -2.7792440036 -1.3500631041 -0.8869647746
| 20> C -3.8655541078 -1.8877557115 -0.1061716572
| 21> C -5.0318489547 -0.9251523415 -0.0366254621
| 22> O -2.5954347097 1.1220019751 -0.9808840113
| 23> C -2.3331764718 2.4800884585 -0.5722689158
| 24> C -3.3631796026 2.9371236128 0.4422890862
| 25> H 3.507194561 -0.760551268 -3.430669224
| 26> H 1.8855730701 -0.0461402446 -3.3386065958
| 27> H 3.2057296245 0.8488563543 -4.1038535113
| 28> H 2.7149642452 1.7016211482 -1.7874948983
| 29> H 4.376881015 1.0686562513 -1.9419231575
| 30> H 2.8057705447 -1.5040851395 2.8591652937
| 31> H 3.9976827738 -0.2708048141 3.3671802896
| 32> H 2.1331211539 1.4175547895 3.4778457476
| 33> H 0.9763399833 0.1565458288 3.037467173
| 34> H 1.8457932641 0.0523862834 4.5723975372
| 35> H -0.2622363766 -2.716312396 -1.046253597
| 36> H 1.2617846072 -2.1782910062 -1.82677343
| 37> H -4.1301404831 -2.8098618121 -0.6253338284
| 38> H -3.4917348569 -2.1151777088 0.8975607379
| 39> H -5.8651956234 -1.4033447739 0.4684695522
| 40> H -4.7419451615 -0.0358433026 0.5209149608
| 41> H -5.3340602205 -0.6292186867 -1.0377306191
| 42> H -1.3220300369 2.5558829102 -0.1628254883
| 43> H -2.3937099553 3.061730695 -1.4937534318
| 44> H -3.2748498168 2.3509297199 1.3548503537
| 45> H -3.1870910372 3.9813902444 0.6789482593
| 46> H -4.3652532231 2.8214458732 0.0381552792
| 47> *
| 48>
| 49>                          ****END OF INPUT****

CARTESIAN COORDINATES (ANGSTROEM)
---------------------------------
  C      2.952570    0.164419   -3.300877
  C      3.317643    0.806633   -1.977308
  O      3.109913   -0.134519   -0.904194
  P      2.200155    0.094385    0.367050
  S      1.232510    1.808918    0.356090
  O      3.290781   -0.018470    1.514244
  C      3.040852   -0.435660    2.868429
  C      1.928866    0.350514    3.532293
  S      1.213257   -1.776415    0.544428
  C      0.478837   -1.922717   -1.115785
  S     -0.293683   -0.409811   -1.752423
  P     -1.875853   -0.154928   -0.373789
  S     -1.596726   -0.135683    1.570760
  O     -2.779244   -1.350063   -0.886965
  C     -3.865554   -1.887756   -0.106172
  C     -5.031849   -0.925152   -0.036625
  O     -2.595435    1.122002   -0.980884
  C     -2.333176    2.480088   -0.572269
  C     -3.363180    2.937124    0.442289
  H      3.507195   -0.760551   -3.430669
  H      1.885573   -0.046140   -3.338607
  H      3.205730    0.848856   -4.103854
  H      2.714964    1.701621   -1.787495
  H      4.376881    1.068656   -1.941923
  H      2.805771   -1.504085    2.859165
  H      3.997683   -0.270805    3.367180
  H      2.133121    1.417555    3.477846
  H      0.976340    0.156546    3.037467
  H      1.845793    0.052386    4.572398
  H     -0.262236   -2.716312   -1.046254
  H      1.261785   -2.178291   -1.826773
  H     -4.130140   -2.809862   -0.625334
  H     -3.491735   -2.115178    0.897561
  H     -5.865196   -1.403345    0.468470
  H     -4.741945   -0.035843    0.520915
  H     -5.334060   -0.629219   -1.037731
  H     -1.322030    2.555883   -0.162825
  H     -2.393710    3.061731   -1.493753
  H     -3.274850    2.350930    1.354850
  H     -3.187091    3.981390    0.678948
  H     -4.365253    2.821446    0.038155

 Total Charge           Charge          ....    0
 Multiplicity           Mult            ....    1
 Number of Electrons    NEL             ....  202
 Basis Dimension        Dim             ....  334

ORBITAL ENERGIES
----------------

  NO   OCC          E(Eh)            E(eV)
   0   2.0000     -88.041367     -2395.7274
   1   2.0000     -88.036536     -2395.5959
   2   2.0000     -87.982545     -2394.1268
   3   2.0000     -87.975215     -2393.9273
   4   2.0000     -76.424436     -2079.6146
   5   2.0000     -76.422441     -2079.5603
   6   2.0000     -18.789503      -511.2884
   7   2.0000     -18.788732      -511.2674
   8   2.0000     -18.786780      -511.2143
   9   2.0000     -18.782418      -511.0956
  10   2.0000      -9.961853      -271.0758
  11   2.0000      -9.951055      -270.7820
  12   2.0000      -9.949556      -270.7412
  13   2.0000      -9.946959      -270.6705
  14   2.0000      -9.946588      -270.6604
  15   2.0000      -9.885370      -268.9946
  16   2.0000      -9.882914      -268.9278
  17   2.0000      -9.877444      -268.7789
  18   2.0000      -9.873734      -268.6780
  19   2.0000      -7.686198      -209.1521
  20   2.0000      -7.681755      -209.0312
  21   2.0000      -7.627098      -207.5439
  22   2.0000      -7.620003      -207.3508
  23   2.0000      -6.421676      -174.7427
  24   2.0000      -6.419215      -174.6757
  25   2.0000      -5.714247      -155.4926
  26   2.0000      -5.710806      -155.3989
  27   2.0000      -5.709874      -155.3736
  28   2.0000      -5.706270      -155.2755
  29   2.0000      -5.702847      -155.1824
  30   2.0000      -5.698421      -155.0619
  31   2.0000      -5.656010      -153.9079
  32   2.0000      -5.648950      -153.7158
  33   2.0000      -5.647618      -153.6795
  34   2.0000      -5.647409      -153.6738
  35   2.0000      -5.640629      -153.4893
  36   2.0000      -5.640130      -153.4757
  37   2.0000      -4.644217      -126.3756
  38   2.0000      -4.643474      -126.3553
  39   2.0000      -4.642176      -126.3200
  40   2.0000      -4.641868      -126.3116
  41   2.0000      -4.641369      -126.2981
  42   2.0000      -4.639346      -126.2430
  43   2.0000      -0.983632       -26.7660
  44   2.0000      -0.980207       -26.6728
  45   2.0000      -0.943471       -25.6732
  46   2.0000      -0.939440       -25.5635
  47   2.0000      -0.762131       -20.7386
  48   2.0000      -0.718183       -19.5428
  49   2.0000      -0.707395       -19.2492
  50   2.0000      -0.683772       -18.6064
  51   2.0000      -0.681452       -18.5432
  52   2.0000      -0.666518       -18.1369
  53   2.0000      -0.649951       -17.6861
  54   2.0000      -0.635745       -17.2995
  55   2.0000      -0.595935       -16.2162
  56   2.0000      -0.587492       -15.9865
  57   2.0000      -0.570656       -15.5284
  58   2.0000      -0.566029       -15.4024
  59   2.0000      -0.562994       -15.3198
  60   2.0000      -0.500448       -13.6179
  61   2.0000      -0.493729       -13.4350
  62   2.0000      -0.473849       -12.8941
  63   2.0000      -0.466055       -12.6820
  64   2.0000      -0.456460       -12.4209
  65   2.0000      -0.439360       -11.9556
  66   2.0000      -0.432403       -11.7663
  67   2.0000      -0.429757       -11.6943
  68   2.0000      -0.426252       -11.5989
  69   2.0000      -0.412009       -11.2113
  70   2.0000      -0.404087       -10.9958
  71   2.0000      -0.395696       -10.7674
  72   2.0000      -0.395064       -10.7502
  73   2.0000      -0.386444       -10.5157
  74   2.0000      -0.378491       -10.2993
  75   2.0000      -0.377031       -10.2595
  76   2.0000      -0.367443        -9.9986
  77   2.0000      -0.354609        -9.6494
  78   2.0000      -0.351537        -9.5658
  79   2.0000      -0.346351        -9.4247
  80   2.0000      -0.341708        -9.2983
  81   2.0000      -0.338468        -9.2102
  82   2.0000      -0.336114        -9.1461
  83   2.0000      -0.335593        -9.1319
  84   2.0000      -0.327231        -8.9044
  85   2.0000      -0.322996        -8.7892
  86   2.0000      -0.306579        -8.3424
  87   2.0000      -0.292934        -7.9711
  88   2.0000      -0.290997        -7.9184
  89   2.0000      -0.281674        -7.6648
  90   2.0000      -0.280766        -7.6400
  91   2.0000      -0.273738        -7.4488
  92   2.0000      -0.269262        -7.3270
  93   2.0000      -0.260483        -7.0881
  94   2.0000      -0.250968        -6.8292
  95   2.0000      -0.247874        -6.7450
  96   2.0000      -0.220069        -5.9884
  97   2.0000      -0.209162        -5.6916
  98   2.0000      -0.186971        -5.0877
  99   2.0000      -0.183123        -4.9830
 100   2.0000      -0.178376        -4.8538
 101   0.0000      -0.051322        -1.3965
 102   0.0000      -0.031194        -0.8488
 103   0.0000      -0.013274        -0.3612
 104   0.0000       0.001032         0.0281
 105   0.0000       0.019550         0.5320

MULLIKEN ATOMIC CHARGES
-----------------------
   0 C :   -0.309957
   1 C :   -0.001218
   2 O :   -0.368387
   3 P :    0.615272
   4 S :   -0.326849
   5 O :   -0.365066
   6 C :   -0.014366
   7 C :   -0.326819
   8 S :   -0.115659
   9 C :   -0.319735
  10 S :   -0.106671
  11 P :    0.633188
  12 S :   -0.305410
  13 O :   -0.372630
  14 C :   -0.005913
  15 C :   -0.313329
  16 O :   -0.378702
  17 C :   -0.023214
  18 C :   -0.298904
  19 H :    0.114831
  20 H :    0.129715
  21 H :    0.111723
  22 H :    0.111804
  23 H :    0.103682
  24 H :    0.114099
  25 H :    0.107928
  26 H :    0.124420
  27 H :    0.152374
  28 H :    0.107333
  29 H :    0.181420
  30 H :    0.186889
  31 H :    0.101937
  32 H :    0.109273
  33 H :    0.110921
  34 H :    0.129672
  35 H :    0.117373
  36 H :    0.135728
  37 H :    0.102936
  38 H :    0.129026
  39 H :    0.109207
  40 H :    0.112078
Sum of atomic charges:    0.0000000

LOEWDIN ATOMIC CHARGES
----------------------
   0 C :   -0.359871
   1 C :   -0.118233
   2 O :   -0.242421
   3 P :    0.569018
   4 S :   -0.311653
   5 O :   -0.244470
   6 C :   -0.115287
   7 C :   -0.372989
   8 S :    0.071571
   9 C :   -0.466880
  10 S :    0.094720
  11 P :    0.569057
  12 S :   -0.300883
  13 O :   -0.244831
  14 C :   -0.120862
  15 C :   -0.364569
  16 O :   -0.245213
  17 C :   -0.116801
  18 C :   -0.362204
  19 H :    0.124173
  20 H :    0.115628
  21 H :    0.131663
  22 H :    0.106472
  23 H :    0.116700
  24 H :    0.107326
  25 H :    0.120905
  26 H :    0.129106
  27 H :    0.123201
  28 H :    0.128399
  29 H :    0.134319
  30 H :    0.134163
  31 H :    0.116826
  32 H :    0.108600
  33 H :    0.129995
  34 H :    0.124569
  35 H :    0.126703
  36 H :    0.110145
  37 H :    0.117376
  38 H :    0.124391
  39 H :    0.129740
  40 H :    0.122399

  Mayer bond orders larger than 0.100000
B(  0-C ,  1-C ) :   1.1626 B(  0-C , 19-H ) :   0.9477 B(  0-C , 20-H ) :   0.9353
B(  0-C , 21-H ) :   0.9395 B(  1-C ,  2-O ) :   0.9047 B(  1-C , 22-H ) :   0.8953
B(  1-C , 23-H ) :   0.9336 B(  2-O ,  3-P ) :   1.1201 B(  3-P ,  4-S ) :   1.6059
B(  3-P ,  5-O ) :   1.1247 B(  3-P ,  8-S ) :   0.9532 B(  4-S ,  8-S ) :   0.1165
B(  5-O ,  6-C ) :   0.9193 B(  6-C ,  7-C ) :   1.1636 B(  6-C , 24-H ) :   0.9233
B(  6-C , 25-H ) :   0.9341 B(  7-C , 26-H ) :   0.9414 B(  7-C , 27-H ) :   0.9259
B(  7-C , 28-H ) :   0.9345 B(  8-S ,  9-C ) :   0.9950 B(  9-C , 10-S ) :   1.0138
B(  9-C , 29-H ) :   0.9071 B(  9-C , 30-H ) :   0.9069 B( 10-S , 11-P ) :   0.9361
B( 10-S , 12-S ) :   0.1172 B( 11-P , 12-S ) :   1.6284 B( 11-P , 13-O ) :   1.1126
B( 11-P , 16-O ) :   1.1219 B( 13-O , 14-C ) :   0.9087 B( 14-C , 15-C ) :   1.1657
B( 14-C , 31-H ) :   0.9341 B( 14-C , 32-H ) :   0.9116 B( 15-C , 33-H ) :   0.9385
B( 15-C , 34-H ) :   0.9340 B( 15-C , 35-H ) :   0.9464 B( 16-O , 17-C ) :   0.8917
B( 17-C , 18-C ) :   1.1708 B( 17-C , 36-H ) :   0.9034 B( 17-C , 37-H ) :   0.9353
B( 18-C , 38-H ) :   0.9329 B( 18-C , 39-H ) :   0.9392 B( 18-C , 40-H ) :   0.9445

Dispersion correction           -0.068353114
FINAL SINGLE POINT ENERGY     -2929.508303543982

DIPOLE MOMENT
-------------

Method             : SCF
Type of density    : Electron Density
Multiplicity       :   1
Irrep              :   0
Energy             : -2929.6235421007436344 Eh
Relativity type    :
Basis              : AO
                                X                 Y                 Z
Electronic contribution:      9.138553054      -5.741089125      -0.910046930
Nuclear contribution   :     -9.350957522       5.267686779       0.414784336
                        -----------------------------------------
Total Dipole Moment    :     -0.212404468      -0.473402346      -0.495262594
                        -----------------------------------------
Magnitude (a.u.)       :      0.717293856
Magnitude (Debye)      :      1.823216090

Rotational constants in cm-1:             0.011468             0.005677             0.005305
Rotational constants in MHz :           343.810226           170.195089           159.046004

                             ****ORCA TERMINATED NORMALLY****
TOTAL RUN TIME: 0 days 0 hours 0 minutes 21 seconds 572 msec
