                         Program Version 6.0.0  -   RELEASE  -
|  1> ! pbe def2-sv(p) def2/J RI DEFGRID1 loosescf d4 GCP(DFT/SV(P)) printgap
|  2> %output
|  3>     printlevel normal
|  4> end
|  5> * xyz 0 1
|  6> C 1.0321757167 2.2893078061 1.9154886093
|  7> C 2.3653049626 1.6185518435 2.1765387593
|  8> O 2.9354415372 1.0860917634 0.9702242804
|  9> P 2.4902977646 -0.3133228097 0.350684268
| 10> S 2.1253458667 -1.6900687147 1.705777782
| 11> O 3.6810902639 -0.5855004442 -0.6574105857
| 12> C 5.010322392 -0.9304198847 -0.2030983778
| 13> C 5.1992838121 -2.4346961591 -0.1911752962
| 14> S 1.0039051971 0.0918764952 -1.0919239309
| 15> C -0.0847076735 -1.3242940971 -0.7598205276
| 16> S -1.2208335031 -1.0475085454 0.6273764114
| 17> P -2.4730234666 0.3153400415 -0.3812141107
| 18> S -2.8296003042 -0.0183953409 -2.2848868956
| 19> O -1.7318905105 1.6624534408 -0.0041822173
| 20> C -2.0416344222 2.9247851736 -0.6381285269
| 21> C -1.0829967739 3.1958257584 -1.7807781936
| 22> O -3.7864412058 0.4304637279 0.5093089604
| 23> C -4.934046732 -0.4106365808 0.2985982398
| 24> C -4.6526567384 -1.8546430479 0.6604056467
| 25> H 0.6832733486 2.7624950687 2.8277523605
| 26> H 1.137106218 3.0405700043 1.1368939748
| 27> H 0.2926043892 1.5562413493 1.5965667418
| 28> H 2.2571638491 0.8043033806 2.9014432735
| 29> H 3.1091484898 2.3339131603 2.5310880748
| 30> H 5.6762580176 -0.4509826006 -0.9225712833
| 31> H 5.1747706444 -0.5032473918 0.7894494938
| 32> H 4.5268422737 -2.8939358797 0.5302840471
| 33> H 4.989192959 -2.8435380103 -1.1755489301
| 34> H 6.2237482871 -2.6652389315 0.0831686449
| 35> H 0.5109790613 -2.1971217188 -0.5018248948
| 36> H -0.6638185005 -1.4874159804 -1.6687737895
| 37> H -3.0768847947 2.9091460792 -0.9891512697
| 38> H -1.9355471149 3.6629490224 0.1584156905
| 39> H -0.0560385328 3.1361908625 -1.4311064843
| 40> H -1.2182109899 2.4589327126 -2.5694464679
| 41> H -1.2733678702 4.185842807 -2.1822842328
| 42> H -5.7004717059 0.0252583407 0.9406787335
| 43> H -5.2342735322 -0.3290433706 -0.7511485225
| 44> H -4.251624397 -1.92061498 1.6687249186
| 45> H -5.5721694444 -2.4277139199 0.5982145746
| 46> H -3.9258258642 -2.276665706 -0.0326987432
| 47> *
| 48>
| 49>                          ****END OF INPUT****

CARTESIAN COORDINATES (ANGSTROEM)
---------------------------------
  C      1.032176    2.289308    1.915489
  C      2.365305    1.618552    2.176539
  O      2.935442    1.086092    0.970224
  P      2.490298   -0.313323    0.350684
  S      2.125346   -1.690069    1.705778
  O      3.681090   -0.585500   -0.657411
  C      5.010322   -0.930420   -0.203098
  C      5.199284   -2.434696   -0.191175
  S      1.003905    0.091876   -1.091924
  C     -0.084708   -1.324294   -0.759821
  S     -1.220834   -1.047509    0.627376
  P     -2.473023    0.315340   -0.381214
  S     -2.829600   -0.018395   -2.284887
  O     -1.731891    1.662453   -0.004182
  C     -2.041634    2.924785   -0.638129
  C     -1.082997    3.195826   -1.780778
  O     -3.786441    0.430464    0.509309
  C     -4.934047   -0.410637    0.298598
  C     -4.652657   -1.854643    0.660406
  H      0.683273    2.762495    2.827752
  H      1.137106    3.040570    1.136894
  H      0.292604    1.556241    1.596567
  H      2.257164    0.804303    2.901443
  H      3.109148    2.333913    2.531088
  H      5.676258   -0.450983   -0.922571
  H      5.174771   -0.503247    0.789449
  H      4.526842   -2.893936    0.530284
  H      4.989193   -2.843538   -1.175549
  H      6.223748   -2.665239    0.083169
  H      0.510979   -2.197122   -0.501825
  H     -0.663819   -1.487416   -1.668774
  H     -3.076885    2.909146   -0.989151
  H     -1.935547    3.662949    0.158416
  H     -0.056039    3.136191   -1.431106
  H     -1.218211    2.458933   -2.569446
  H     -1.273368    4.185843   -2.182284
  H     -5.700472    0.025258    0.940679
  H     -5.234274   -0.329043   -0.751149
  H     -4.251624   -1.920615    1.668725
  H     -5.572169   -2.427714    0.598215
  H     -3.925826   -2.276666   -0.032699

 Total Charge           Charge          ....    0
 Multiplicity           Mult            ....    1
 Number of Electrons    NEL             ....  202
 Basis Dimension        Dim             ....  334

ORBITAL ENERGIES
----------------

  NO   OCC          E(Eh)            E(eV)
   0   2.0000     -88.042944     -2395.7703
   1   2.0000     -88.041955     -2395.7434
   2   2.0000     -87.991101     -2394.3596
   3   2.0000     -87.990179     -2394.3345
   4   2.0000     -76.426702     -2079.6763
   5   2.0000     -76.426675     -2079.6756
   6   2.0000     -18.794065      -511.4125
   7   2.0000     -18.792371      -511.3664
   8   2.0000     -18.790406      -511.3129
   9   2.0000     -18.789376      -511.2849
  10   2.0000      -9.953951      -270.8608
  11   2.0000      -9.953920      -270.8599
  12   2.0000      -9.953875      -270.8587
  13   2.0000      -9.952452      -270.8200
  14   2.0000      -9.948640      -270.7163
  15   2.0000      -9.883925      -268.9553
  16   2.0000      -9.880993      -268.8755
  17   2.0000      -9.879032      -268.8221
  18   2.0000      -9.878239      -268.8006
  19   2.0000      -7.687832      -209.1965
  20   2.0000      -7.687179      -209.1788
  21   2.0000      -7.635957      -207.7850
  22   2.0000      -7.635070      -207.7608
  23   2.0000      -6.424541      -174.8206
  24   2.0000      -6.424504      -174.8196
  25   2.0000      -5.715640      -155.5305
  26   2.0000      -5.715063      -155.5148
  27   2.0000      -5.712521      -155.4456
  28   2.0000      -5.711805      -155.4261
  29   2.0000      -5.704688      -155.2325
  30   2.0000      -5.703954      -155.2125
  31   2.0000      -5.664729      -154.1451
  32   2.0000      -5.663813      -154.1202
  33   2.0000      -5.656722      -153.9272
  34   2.0000      -5.656152      -153.9117
  35   2.0000      -5.655812      -153.9025
  36   2.0000      -5.655306      -153.8887
  37   2.0000      -4.647071      -126.4532
  38   2.0000      -4.646959      -126.4502
  39   2.0000      -4.646183      -126.4291
  40   2.0000      -4.646127      -126.4275
  41   2.0000      -4.645178      -126.4017
  42   2.0000      -4.645094      -126.3994
  43   2.0000      -0.987653       -26.8754
  44   2.0000      -0.986363       -26.8403
  45   2.0000      -0.945797       -25.7364
  46   2.0000      -0.943518       -25.6744
  47   2.0000      -0.764563       -20.8048
  48   2.0000      -0.722640       -19.6640
  49   2.0000      -0.707404       -19.2495
  50   2.0000      -0.685918       -18.6648
  51   2.0000      -0.684089       -18.6150
  52   2.0000      -0.674306       -18.3488
  53   2.0000      -0.651905       -17.7392
  54   2.0000      -0.640362       -17.4251
  55   2.0000      -0.601727       -16.3738
  56   2.0000      -0.590187       -16.0598
  57   2.0000      -0.574572       -15.6349
  58   2.0000      -0.572811       -15.5870
  59   2.0000      -0.555313       -15.1108
  60   2.0000      -0.501333       -13.6420
  61   2.0000      -0.500435       -13.6175
  62   2.0000      -0.471074       -12.8186
  63   2.0000      -0.469474       -12.7750
  64   2.0000      -0.461981       -12.5711
  65   2.0000      -0.442038       -12.0285
  66   2.0000      -0.439336       -11.9549
  67   2.0000      -0.435397       -11.8478
  68   2.0000      -0.429057       -11.6752
  69   2.0000      -0.416612       -11.3366
  70   2.0000      -0.405507       -11.0344
  71   2.0000      -0.397688       -10.8216
  72   2.0000      -0.396193       -10.7810
  73   2.0000      -0.380496       -10.3538
  74   2.0000      -0.378600       -10.3022
  75   2.0000      -0.374714       -10.1965
  76   2.0000      -0.368196       -10.0191
  77   2.0000      -0.357397        -9.7253
  78   2.0000      -0.354066        -9.6346
  79   2.0000      -0.349829        -9.5193
  80   2.0000      -0.346753        -9.4356
  81   2.0000      -0.343906        -9.3581
  82   2.0000      -0.340191        -9.2571
  83   2.0000      -0.338240        -9.2040
  84   2.0000      -0.330468        -8.9925
  85   2.0000      -0.316425        -8.6104
  86   2.0000      -0.307074        -8.3559
  87   2.0000      -0.297533        -8.0963
  88   2.0000      -0.293296        -7.9810
  89   2.0000      -0.290532        -7.9058
  90   2.0000      -0.286277        -7.7900
  91   2.0000      -0.278112        -7.5678
  92   2.0000      -0.274764        -7.4767
  93   2.0000      -0.264890        -7.2080
  94   2.0000      -0.262036        -7.1304
  95   2.0000      -0.233033        -6.3412
  96   2.0000      -0.218761        -5.9528
  97   2.0000      -0.214324        -5.8320
  98   2.0000      -0.206151        -5.6097
  99   2.0000      -0.205337        -5.5875
 100   2.0000      -0.201370        -5.4796
 101   0.0000      -0.043363        -1.1800
 102   0.0000      -0.029889        -0.8133
 103   0.0000      -0.004662        -0.1269
 104   0.0000       0.003002         0.0817
 105   0.0000       0.011017         0.2998

MULLIKEN ATOMIC CHARGES
-----------------------
   0 C :   -0.340322
   1 C :   -0.005820
   2 O :   -0.375756
   3 P :    0.615035
   4 S :   -0.335376
   5 O :   -0.367021
   6 C :   -0.002682
   7 C :   -0.293396
   8 S :   -0.065984
   9 C :   -0.368792
  10 S :   -0.053574
  11 P :    0.607048
  12 S :   -0.341030
  13 O :   -0.357593
  14 C :    0.001832
  15 C :   -0.303275
  16 O :   -0.372887
  17 C :   -0.005419
  18 C :   -0.316252
  19 H :    0.107106
  20 H :    0.114584
  21 H :    0.155770
  22 H :    0.110824
  23 H :    0.100460
  24 H :    0.108332
  25 H :    0.101796
  26 H :    0.127993
  27 H :    0.114805
  28 H :    0.107402
  29 H :    0.190751
  30 H :    0.194926
  31 H :    0.102546
  32 H :    0.107216
  33 H :    0.126045
  34 H :    0.127349
  35 H :    0.106213
  36 H :    0.105407
  37 H :    0.112038
  38 H :    0.119761
  39 H :    0.113718
  40 H :    0.126222
Sum of atomic charges:    0.0000000

LOEWDIN ATOMIC CHARGES
----------------------
   0 C :   -0.370478
   1 C :   -0.121695
   2 O :   -0.246154
   3 P :    0.568653
   4 S :   -0.315778
   5 O :   -0.246172
   6 C :   -0.111454
   7 C :   -0.362323
   8 S :    0.102796
   9 C :   -0.483121
  10 S :    0.107884
  11 P :    0.569556
  12 S :   -0.325180
  13 O :   -0.236465
  14 C :   -0.110312
  15 C :   -0.364066
  16 O :   -0.246047
  17 C :   -0.120101
  18 C :   -0.369077
  19 H :    0.129061
  20 H :    0.121845
  21 H :    0.122773
  22 H :    0.107897
  23 H :    0.115937
  24 H :    0.119974
  25 H :    0.109991
  26 H :    0.124397
  27 H :    0.126632
  28 H :    0.128424
  29 H :    0.131165
  30 H :    0.129302
  31 H :    0.110235
  32 H :    0.118827
  33 H :    0.124157
  34 H :    0.124441
  35 H :    0.127574
  36 H :    0.118789
  37 H :    0.110246
  38 H :    0.125439
  39 H :    0.131401
  40 H :    0.121029

  Mayer bond orders larger than 0.100000
B(  0-C ,  1-C ) :   1.1616 B(  0-C , 19-H ) :   0.9380 B(  0-C , 20-H ) :   0.9428
B(  0-C , 21-H ) :   0.9241 B(  1-C ,  2-O ) :   0.9102 B(  1-C , 22-H ) :   0.9089
B(  1-C , 23-H ) :   0.9330 B(  2-O ,  3-P ) :   1.1030 B(  3-P ,  4-S ) :   1.5969
B(  3-P ,  5-O ) :   1.1362 B(  3-P ,  8-S ) :   0.9687 B(  4-S ,  8-S ) :   0.1162
B(  5-O ,  6-C ) :   0.8948 B(  6-C ,  7-C ) :   1.1689 B(  6-C , 24-H ) :   0.9356
B(  6-C , 25-H ) :   0.9176 B(  7-C , 26-H ) :   0.9342 B(  7-C , 27-H ) :   0.9471
B(  7-C , 28-H ) :   0.9402 B(  8-S ,  9-C ) :   1.0026 B(  9-C , 10-S ) :   1.0057
B(  9-C , 29-H ) :   0.8848 B(  9-C , 30-H ) :   0.8717 B( 10-S , 11-P ) :   0.9664
B( 10-S , 12-S ) :   0.1097 B( 11-P , 12-S ) :   1.5807 B( 11-P , 13-O ) :   1.1326
B( 11-P , 16-O ) :   1.1118 B( 13-O , 14-C ) :   0.8884 B( 14-C , 15-C ) :   1.1711
B( 14-C , 31-H ) :   0.9169 B( 14-C , 32-H ) :   0.9335 B( 15-C , 33-H ) :   0.9423
B( 15-C , 34-H ) :   0.9342 B( 15-C , 35-H ) :   0.9391 B( 16-O , 17-C ) :   0.9086
B( 17-C , 18-C ) :   1.1644 B( 17-C , 36-H ) :   0.9336 B( 17-C , 37-H ) :   0.9150
B( 18-C , 38-H ) :   0.9451 B( 18-C , 39-H ) :   0.9381 B( 18-C , 40-H ) :   0.9352

Dispersion correction           -0.064784509
FINAL SINGLE POINT ENERGY     -2929.526469517195

DIPOLE MOMENT
-------------

Method             : SCF
Type of density    : Electron Density
Multiplicity       :   1
Irrep              :   0
Energy             : -2929.6456525872968086 Eh
Relativity type    :
Basis              : AO
                                X                 Y                 Z
Electronic contribution:     -1.478120542      -5.811632393      -2.945321401
Nuclear contribution   :      1.596920700       6.568652457       3.388973426
                        -----------------------------------------
Total Dipole Moment    :      0.118800158       0.757020064       0.443652025
                        -----------------------------------------
Magnitude (a.u.)       :      0.885449024
Magnitude (Debye)      :      2.250632557

Rotational constants in cm-1:             0.013356             0.004538             0.004241
Rotational constants in MHz :           400.408866           136.050372           127.129080

                             ****ORCA TERMINATED NORMALLY****
TOTAL RUN TIME: 0 days 0 hours 0 minutes 20 seconds 785 msec
