                         Program Version 6.0.1  -  RELEASE   -
|  1> ! r2scan-3c def2/J RI DEFGRID2 scfconv6 printgap
|  2> %output
|  3>     printlevel normal
|  4> end
|  5> * xyz 0 1
|  6> C 4.5615170025 -1.6988500172 -3.1381552243
|  7> C 4.2910175406 -1.1319908264 -1.7585315814
|  8> O 3.0152155982 -1.6286219233 -1.3100516113
|  9> C 2.7172394132 -1.5112387904 -0.0360498375
| 10> O 3.4626874899 -1.0704992469 0.8117213381
| 11> C 1.3007625896 -1.9832217603 0.2509311185
| 12> C 0.3233284231 -0.9320074304 -0.2941455066
| 13> H 0.3137418043 -0.9481663058 -1.3864516082
| 14> C 0.8208630577 0.4265647867 0.1623995066
| 15> O 1.7054583715 1.0059410075 -0.4263308165
| 16> O 0.262603179 0.8231603954 1.2856733896
| 17> C 0.7828208595 2.0093324637 1.9170757446
| 18> C 1.8791941134 1.6340150122 2.8998960723
| 19> S -1.3483567592 -1.3024261401 0.3288133874
| 20> P -2.2699434604 0.5757139361 -0.028797791
| 21> S -1.4419081886 1.6978756467 -1.406271184
| 22> O -3.7801084953 0.1499541295 -0.3367172969
| 23> C -4.1297687764 -0.5371927079 -1.5443857021
| 24> O -2.4629562317 1.3233768767 1.3475537513
| 25> C -3.0943800733 0.6855688291 2.4787248177
| 26> H 3.7758740857 -1.3952505431 -3.8233467209
| 27> H 5.5140280216 -1.3241742531 -3.4974156699
| 28> H 4.594444598 -2.7835136634 -3.0969973003
| 29> H 4.2317005378 -0.0388065686 -1.7705427075
| 30> H 5.0530051373 -1.4319698975 -1.0323446392
| 31> H 1.1765942437 -2.0823813376 1.329671531
| 32> H 1.1182499325 -2.93799979 -0.2399067027
| 33> H 1.1591340132 2.6756974094 1.1356252312
| 34> H -0.0765480237 2.4609930398 2.4135560784
| 35> H 1.4844867122 0.9817471607 3.6736353784
| 36> H 2.6839624659 1.1157025504 2.3801676563
| 37> H 2.2749441668 2.5353035476 3.3555254667
| 38> H -3.7818723212 -1.5687558947 -1.4961334577
| 39> H -3.6879085779 -0.0323362987 -2.4047770836
| 40> H -5.2147237078 -0.499311667 -1.5981589525
| 41> H -3.0253834744 1.4081113564 3.2875165093
| 42> H -2.5619203214 -0.2312634468 2.7310149568
| 43> H -4.1335128312 0.4639906471 2.2450249147
| 44> *
| 45>
| 46>                          ****END OF INPUT****

CARTESIAN COORDINATES (ANGSTROEM)
---------------------------------
  C      4.561517   -1.698850   -3.138155
  C      4.291018   -1.131991   -1.758532
  O      3.015216   -1.628622   -1.310052
  C      2.717239   -1.511239   -0.036050
  O      3.462687   -1.070499    0.811721
  C      1.300763   -1.983222    0.250931
  C      0.323328   -0.932007   -0.294146
  H      0.313742   -0.948166   -1.386452
  C      0.820863    0.426565    0.162400
  O      1.705458    1.005941   -0.426331
  O      0.262603    0.823160    1.285673
  C      0.782821    2.009332    1.917076
  C      1.879194    1.634015    2.899896
  S     -1.348357   -1.302426    0.328813
  P     -2.269943    0.575714   -0.028798
  S     -1.441908    1.697876   -1.406271
  O     -3.780108    0.149954   -0.336717
  C     -4.129769   -0.537193   -1.544386
  O     -2.462956    1.323377    1.347554
  C     -3.094380    0.685569    2.478725
  H      3.775874   -1.395251   -3.823347
  H      5.514028   -1.324174   -3.497416
  H      4.594445   -2.783514   -3.096997
  H      4.231701   -0.038807   -1.770543
  H      5.053005   -1.431970   -1.032345
  H      1.176594   -2.082381    1.329672
  H      1.118250   -2.938000   -0.239907
  H      1.159134    2.675697    1.135625
  H     -0.076548    2.460993    2.413556
  H      1.484487    0.981747    3.673635
  H      2.683962    1.115703    2.380168
  H      2.274944    2.535304    3.355525
  H     -3.781872   -1.568756   -1.496133
  H     -3.687909   -0.032336   -2.404777
  H     -5.214724   -0.499312   -1.598159
  H     -3.025383    1.408111    3.287517
  H     -2.561920   -0.231263    2.731015
  H     -4.133513    0.463991    2.245025

 Total Charge           Charge          ....    0
 Multiplicity           Mult            ....    1
 Number of Electrons    NEL             ....  174
 Basis Dimension        Dim             ....  510

ORBITAL ENERGIES
----------------

  NO   OCC          E(Eh)            E(eV)
   0   2.0000     -88.577996     -2410.3298
   1   2.0000     -88.519650     -2408.7421
   2   2.0000     -76.916329     -2092.9997
   3   2.0000     -19.000818      -517.0385
   4   2.0000     -19.000161      -517.0207
   5   2.0000     -18.997511      -516.9485
   6   2.0000     -18.995070      -516.8821
   7   2.0000     -18.931835      -515.1614
   8   2.0000     -18.930995      -515.1386
   9   2.0000     -10.161078      -276.4970
  10   2.0000     -10.159147      -276.4444
  11   2.0000     -10.101142      -274.8661
  12   2.0000     -10.098993      -274.8076
  13   2.0000     -10.094831      -274.6943
  14   2.0000     -10.088946      -274.5342
  15   2.0000     -10.087043      -274.4824
  16   2.0000     -10.065329      -273.8915
  17   2.0000     -10.029764      -272.9238
  18   2.0000     -10.021713      -272.7047
  19   2.0000      -7.872433      -214.2198
  20   2.0000      -7.814184      -212.6348
  21   2.0000      -6.594635      -179.4492
  22   2.0000      -5.819240      -158.3496
  23   2.0000      -5.816218      -158.2673
  24   2.0000      -5.809669      -158.0891
  25   2.0000      -5.762083      -156.7942
  26   2.0000      -5.754288      -156.5821
  27   2.0000      -5.754162      -156.5787
  28   2.0000      -4.740356      -128.9916
  29   2.0000      -4.739720      -128.9743
  30   2.0000      -4.738062      -128.9292
  31   2.0000      -1.080931       -29.4136
  32   2.0000      -1.076065       -29.2812
  33   2.0000      -1.054412       -28.6920
  34   2.0000      -1.012413       -27.5491
  35   2.0000      -0.983735       -26.7688
  36   2.0000      -0.979189       -26.6451
  37   2.0000      -0.815276       -22.1848
  38   2.0000      -0.755612       -20.5612
  39   2.0000      -0.738013       -20.0824
  40   2.0000      -0.734305       -19.9815
  41   2.0000      -0.700236       -19.0544
  42   2.0000      -0.680179       -18.5086
  43   2.0000      -0.658838       -17.9279
  44   2.0000      -0.646837       -17.6013
  45   2.0000      -0.620347       -16.8805
  46   2.0000      -0.599262       -16.3067
  47   2.0000      -0.545509       -14.8441
  48   2.0000      -0.536128       -14.5888
  49   2.0000      -0.524195       -14.2641
  50   2.0000      -0.500731       -13.6256
  51   2.0000      -0.498690       -13.5701
  52   2.0000      -0.474897       -12.9226
  53   2.0000      -0.469959       -12.7882
  54   2.0000      -0.458644       -12.4803
  55   2.0000      -0.453652       -12.3445
  56   2.0000      -0.452225       -12.3057
  57   2.0000      -0.436783       -11.8855
  58   2.0000      -0.435354       -11.8466
  59   2.0000      -0.429633       -11.6909
  60   2.0000      -0.422819       -11.5055
  61   2.0000      -0.414304       -11.2738
  62   2.0000      -0.410930       -11.1820
  63   2.0000      -0.408921       -11.1273
  64   2.0000      -0.384941       -10.4748
  65   2.0000      -0.378316       -10.2945
  66   2.0000      -0.371952       -10.1213
  67   2.0000      -0.365105        -9.9350
  68   2.0000      -0.363439        -9.8897
  69   2.0000      -0.354371        -9.6429
  70   2.0000      -0.344816        -9.3829
  71   2.0000      -0.341533        -9.2936
  72   2.0000      -0.337946        -9.1960
  73   2.0000      -0.329044        -8.9538
  74   2.0000      -0.325478        -8.8567
  75   2.0000      -0.319850        -8.7036
  76   2.0000      -0.315750        -8.5920
  77   2.0000      -0.307497        -8.3674
  78   2.0000      -0.292036        -7.9467
  79   2.0000      -0.282407        -7.6847
  80   2.0000      -0.274477        -7.4689
  81   2.0000      -0.269779        -7.3411
  82   2.0000      -0.252407        -6.8683
  83   2.0000      -0.239512        -6.5175
  84   2.0000      -0.230336        -6.2677
  85   2.0000      -0.217706        -5.9241
  86   2.0000      -0.215703        -5.8696
  87   0.0000      -0.045154        -1.2287
  88   0.0000      -0.025175        -0.6851
  89   0.0000      -0.023452        -0.6382
  90   0.0000       0.008113         0.2208
  91   0.0000       0.015979         0.4348

MULLIKEN ATOMIC CHARGES
-----------------------
   0 C :   -0.447196
   1 C :   -0.159666
   2 O :   -0.114989
   3 C :    0.313939
   4 O :   -0.389561
   5 C :   -0.424872
   6 C :   -0.025912
   7 H :    0.240079
   8 C :    0.298678
   9 O :   -0.377421
  10 O :   -0.137880
  11 C :   -0.153501
  12 C :   -0.469735
  13 S :   -0.215569
  14 P :    0.760390
  15 S :   -0.410570
  16 O :   -0.358034
  17 C :   -0.296238
  18 O :   -0.305847
  19 C :   -0.290591
  20 H :    0.156158
  21 H :    0.147721
  22 H :    0.150621
  23 H :    0.172892
  24 H :    0.165364
  25 H :    0.192737
  26 H :    0.174778
  27 H :    0.179692
  28 H :    0.156383
  29 H :    0.146663
  30 H :    0.191319
  31 H :    0.146418
  32 H :    0.158348
  33 H :    0.175757
  34 H :    0.152752
  35 H :    0.156450
  36 H :    0.171166
  37 H :    0.169277
Sum of atomic charges:   -0.0000000

LOEWDIN ATOMIC CHARGES
----------------------
   0 C :   -0.385912
   1 C :    0.037222
   2 O :   -0.579561
   3 C :    0.349835
   4 O :   -0.415775
   5 C :   -0.203413
   6 C :   -0.194576
   7 H :    0.204203
   8 C :    0.321986
   9 O :   -0.411813
  10 O :   -0.614792
  11 C :    0.035945
  12 C :   -0.386524
  13 S :    0.187374
  14 P :    0.394439
  15 S :   -0.041614
  16 O :   -0.683173
  17 C :   -0.058711
  18 O :   -0.648673
  19 C :   -0.051263
  20 H :    0.160698
  21 H :    0.160269
  22 H :    0.157895
  23 H :    0.186306
  24 H :    0.184597
  25 H :    0.190127
  26 H :    0.185297
  27 H :    0.195618
  28 H :    0.181239
  29 H :    0.155566
  30 H :    0.176069
  31 H :    0.158389
  32 H :    0.169133
  33 H :    0.177257
  34 H :    0.177507
  35 H :    0.179824
  36 H :    0.174250
  37 H :    0.174755

  Mayer bond orders larger than 0.100000
B(  0-C ,  1-C ) :   0.9444 B(  0-C , 20-H ) :   0.9702 B(  0-C , 21-H ) :   0.9668
B(  0-C , 22-H ) :   0.9756 B(  1-C ,  2-O ) :   0.7831 B(  1-C , 23-H ) :   0.9452
B(  1-C , 24-H ) :   0.9603 B(  2-O ,  3-C ) :   1.0855 B(  3-C ,  4-O ) :   1.8159
B(  3-C ,  5-C ) :   0.8838 B(  5-C ,  6-C ) :   0.8976 B(  5-C , 25-H ) :   0.9999
B(  5-C , 26-H ) :   0.9493 B(  6-C ,  7-H ) :   0.9577 B(  6-C ,  8-C ) :   0.9184
B(  6-C , 13-S ) :   0.8653 B(  8-C ,  9-O ) :   1.8061 B(  8-C , 10-O ) :   1.0570
B( 10-O , 11-C ) :   0.7879 B( 11-C , 12-C ) :   0.9266 B( 11-C , 27-H ) :   0.9663
B( 11-C , 28-H ) :   0.9585 B( 12-C , 29-H ) :   0.9752 B( 12-C , 30-H ) :   0.9617
B( 12-C , 31-H ) :   0.9682 B( 13-S , 14-P ) :   0.9987 B( 14-P , 15-S ) :   1.8040
B( 14-P , 16-O ) :   1.0266 B( 14-P , 18-O ) :   1.1468 B( 16-O , 17-C ) :   0.8306
B( 17-C , 32-H ) :   0.9565 B( 17-C , 33-H ) :   0.9591 B( 17-C , 34-H ) :   0.9673
B( 18-O , 19-C ) :   0.7950 B( 19-C , 35-H ) :   0.9650 B( 19-C , 36-H ) :   0.9560
B( 19-C , 37-H ) :   0.9608

Dispersion correction           -0.017571606
FINAL SINGLE POINT ENERGY     -1981.450648245615

DIPOLE MOMENT
-------------

Method             : SCF
Type of density    : Electron Density
Multiplicity       :   1
Irrep              :   0
Energy             : -1981.4700950717292471 Eh
Relativity type    :
Basis              : AO
                                X                 Y                 Z
Electronic contribution:    -13.163900333       2.863302810      -1.680685765
Nuclear contribution   :     12.366077974      -3.924715301       2.146529042
                        -----------------------------------------
Total Dipole Moment    :     -0.797822359      -1.061412491       0.465843277
                        -----------------------------------------
Magnitude (a.u.)       :      1.407169838
Magnitude (Debye)      :      3.576741480

Rotational constants in cm-1:             0.015549             0.006301             0.005495
Rotational constants in MHz :           466.137298           188.896867           164.750846

                             ****ORCA TERMINATED NORMALLY****
TOTAL RUN TIME: 0 days 0 hours 1 minutes 22 seconds 919 msec
