                         Program Version 6.0.1  -  RELEASE   -
|  1> ! r2scan-3c def2/J RI DEFGRID2 scfconv6 printgap
|  2> %output
|  3>     printlevel normal
|  4> end
|  5> %cpcm
|  6>     smd true
|  7>     smdsolvent "water"
|  8> end
|  9> * xyz 0 1
| 10> C 4.5615170025 -1.6988500172 -3.1381552243
| 11> C 4.2910175406 -1.1319908264 -1.7585315814
| 12> O 3.0152155982 -1.6286219233 -1.3100516113
| 13> C 2.7172394132 -1.5112387904 -0.0360498375
| 14> O 3.4626874899 -1.0704992469 0.8117213381
| 15> C 1.3007625896 -1.9832217603 0.2509311185
| 16> C 0.3233284231 -0.9320074304 -0.2941455066
| 17> H 0.3137418043 -0.9481663058 -1.3864516082
| 18> C 0.8208630577 0.4265647867 0.1623995066
| 19> O 1.7054583715 1.0059410075 -0.4263308165
| 20> O 0.262603179 0.8231603954 1.2856733896
| 21> C 0.7828208595 2.0093324637 1.9170757446
| 22> C 1.8791941134 1.6340150122 2.8998960723
| 23> S -1.3483567592 -1.3024261401 0.3288133874
| 24> P -2.2699434604 0.5757139361 -0.028797791
| 25> S -1.4419081886 1.6978756467 -1.406271184
| 26> O -3.7801084953 0.1499541295 -0.3367172969
| 27> C -4.1297687764 -0.5371927079 -1.5443857021
| 28> O -2.4629562317 1.3233768767 1.3475537513
| 29> C -3.0943800733 0.6855688291 2.4787248177
| 30> H 3.7758740857 -1.3952505431 -3.8233467209
| 31> H 5.5140280216 -1.3241742531 -3.4974156699
| 32> H 4.594444598 -2.7835136634 -3.0969973003
| 33> H 4.2317005378 -0.0388065686 -1.7705427075
| 34> H 5.0530051373 -1.4319698975 -1.0323446392
| 35> H 1.1765942437 -2.0823813376 1.329671531
| 36> H 1.1182499325 -2.93799979 -0.2399067027
| 37> H 1.1591340132 2.6756974094 1.1356252312
| 38> H -0.0765480237 2.4609930398 2.4135560784
| 39> H 1.4844867122 0.9817471607 3.6736353784
| 40> H 2.6839624659 1.1157025504 2.3801676563
| 41> H 2.2749441668 2.5353035476 3.3555254667
| 42> H -3.7818723212 -1.5687558947 -1.4961334577
| 43> H -3.6879085779 -0.0323362987 -2.4047770836
| 44> H -5.2147237078 -0.499311667 -1.5981589525
| 45> H -3.0253834744 1.4081113564 3.2875165093
| 46> H -2.5619203214 -0.2312634468 2.7310149568
| 47> H -4.1335128312 0.4639906471 2.2450249147
| 48> *
| 49>
| 50>                          ****END OF INPUT****

CARTESIAN COORDINATES (ANGSTROEM)
---------------------------------
  C      4.561517   -1.698850   -3.138155
  C      4.291018   -1.131991   -1.758532
  O      3.015216   -1.628622   -1.310052
  C      2.717239   -1.511239   -0.036050
  O      3.462687   -1.070499    0.811721
  C      1.300763   -1.983222    0.250931
  C      0.323328   -0.932007   -0.294146
  H      0.313742   -0.948166   -1.386452
  C      0.820863    0.426565    0.162400
  O      1.705458    1.005941   -0.426331
  O      0.262603    0.823160    1.285673
  C      0.782821    2.009332    1.917076
  C      1.879194    1.634015    2.899896
  S     -1.348357   -1.302426    0.328813
  P     -2.269943    0.575714   -0.028798
  S     -1.441908    1.697876   -1.406271
  O     -3.780108    0.149954   -0.336717
  C     -4.129769   -0.537193   -1.544386
  O     -2.462956    1.323377    1.347554
  C     -3.094380    0.685569    2.478725
  H      3.775874   -1.395251   -3.823347
  H      5.514028   -1.324174   -3.497416
  H      4.594445   -2.783514   -3.096997
  H      4.231701   -0.038807   -1.770543
  H      5.053005   -1.431970   -1.032345
  H      1.176594   -2.082381    1.329672
  H      1.118250   -2.938000   -0.239907
  H      1.159134    2.675697    1.135625
  H     -0.076548    2.460993    2.413556
  H      1.484487    0.981747    3.673635
  H      2.683962    1.115703    2.380168
  H      2.274944    2.535304    3.355525
  H     -3.781872   -1.568756   -1.496133
  H     -3.687909   -0.032336   -2.404777
  H     -5.214724   -0.499312   -1.598159
  H     -3.025383    1.408111    3.287517
  H     -2.561920   -0.231263    2.731015
  H     -4.133513    0.463991    2.245025

 Total Charge           Charge          ....    0
 Multiplicity           Mult            ....    1
 Number of Electrons    NEL             ....  174
 Basis Dimension        Dim             ....  510

ORBITAL ENERGIES
----------------

  NO   OCC          E(Eh)            E(eV)
   0   2.0000     -88.581553     -2410.4266
   1   2.0000     -88.531742     -2409.0712
   2   2.0000     -76.922859     -2093.1774
   3   2.0000     -19.012112      -517.3459
   4   2.0000     -19.009555      -517.2763
   5   2.0000     -18.999393      -516.9998
   6   2.0000     -18.996536      -516.9220
   7   2.0000     -18.952425      -515.7217
   8   2.0000     -18.949805      -515.6504
   9   2.0000     -10.177598      -276.9465
  10   2.0000     -10.173069      -276.8233
  11   2.0000     -10.102148      -274.8934
  12   2.0000     -10.087274      -274.4887
  13   2.0000     -10.086727      -274.4738
  14   2.0000     -10.085715      -274.4463
  15   2.0000     -10.082717      -274.3647
  16   2.0000     -10.062525      -273.8152
  17   2.0000     -10.019998      -272.6580
  18   2.0000     -10.019765      -272.6517
  19   2.0000      -7.875880      -214.3136
  20   2.0000      -7.826705      -212.9755
  21   2.0000      -6.601232      -179.6287
  22   2.0000      -5.822765      -158.4455
  23   2.0000      -5.819728      -158.3629
  24   2.0000      -5.812984      -158.1793
  25   2.0000      -5.774448      -157.1307
  26   2.0000      -5.766871      -156.9245
  27   2.0000      -5.766694      -156.9197
  28   2.0000      -4.746881      -129.1692
  29   2.0000      -4.746260      -129.1523
  30   2.0000      -4.744834      -129.1135
  31   2.0000      -1.093858       -29.7654
  32   2.0000      -1.087572       -29.5943
  33   2.0000      -1.055884       -28.7321
  34   2.0000      -1.013007       -27.5653
  35   2.0000      -1.002305       -27.2741
  36   2.0000      -0.996596       -27.1188
  37   2.0000      -0.818593       -22.2750
  38   2.0000      -0.756124       -20.5752
  39   2.0000      -0.739669       -20.1274
  40   2.0000      -0.733215       -19.9518
  41   2.0000      -0.698331       -19.0026
  42   2.0000      -0.672218       -18.2920
  43   2.0000      -0.661254       -17.9936
  44   2.0000      -0.650882       -17.7114
  45   2.0000      -0.620285       -16.8788
  46   2.0000      -0.599726       -16.3194
  47   2.0000      -0.545352       -14.8398
  48   2.0000      -0.537429       -14.6242
  49   2.0000      -0.528377       -14.3779
  50   2.0000      -0.505013       -13.7421
  51   2.0000      -0.495237       -13.4761
  52   2.0000      -0.480495       -13.0749
  53   2.0000      -0.474031       -12.8990
  54   2.0000      -0.466229       -12.6867
  55   2.0000      -0.459408       -12.5011
  56   2.0000      -0.451029       -12.2731
  57   2.0000      -0.447235       -12.1699
  58   2.0000      -0.441856       -12.0235
  59   2.0000      -0.428816       -11.6687
  60   2.0000      -0.415192       -11.2979
  61   2.0000      -0.415024       -11.2934
  62   2.0000      -0.411297       -11.1920
  63   2.0000      -0.408900       -11.1267
  64   2.0000      -0.386913       -10.5284
  65   2.0000      -0.379440       -10.3251
  66   2.0000      -0.370371       -10.0783
  67   2.0000      -0.365858        -9.9555
  68   2.0000      -0.362990        -9.8775
  69   2.0000      -0.353359        -9.6154
  70   2.0000      -0.349632        -9.5140
  71   2.0000      -0.346285        -9.4229
  72   2.0000      -0.338058        -9.1990
  73   2.0000      -0.330538        -8.9944
  74   2.0000      -0.323860        -8.8127
  75   2.0000      -0.319335        -8.6896
  76   2.0000      -0.318731        -8.6731
  77   2.0000      -0.309889        -8.4325
  78   2.0000      -0.293777        -7.9941
  79   2.0000      -0.284552        -7.7430
  80   2.0000      -0.282977        -7.7002
  81   2.0000      -0.281796        -7.6681
  82   2.0000      -0.265483        -7.2242
  83   2.0000      -0.257456        -7.0057
  84   2.0000      -0.242101        -6.5879
  85   2.0000      -0.230638        -6.2760
  86   2.0000      -0.228431        -6.2159
  87   0.0000      -0.051343        -1.3971
  88   0.0000      -0.038803        -1.0559
  89   0.0000      -0.033604        -0.9144
  90   0.0000       0.004031         0.1097
  91   0.0000       0.011509         0.3132

MULLIKEN ATOMIC CHARGES
-----------------------
   0 C :   -0.490658
   1 C :   -0.153697
   2 O :   -0.135243
   3 C :    0.348718
   4 O :   -0.465656
   5 C :   -0.440469
   6 C :   -0.030550
   7 H :    0.267599
   8 C :    0.305504
   9 O :   -0.447669
  10 O :   -0.145203
  11 C :   -0.142722
  12 C :   -0.503164
  13 S :   -0.199290
  14 P :    0.785616
  15 S :   -0.479979
  16 O :   -0.382778
  17 C :   -0.306074
  18 O :   -0.342163
  19 C :   -0.295085
  20 H :    0.165680
  21 H :    0.170245
  22 H :    0.167336
  23 H :    0.179167
  24 H :    0.176788
  25 H :    0.216323
  26 H :    0.214394
  27 H :    0.179930
  28 H :    0.182387
  29 H :    0.170904
  30 H :    0.170787
  31 H :    0.172788
  32 H :    0.176487
  33 H :    0.177449
  34 H :    0.180903
  35 H :    0.184742
  36 H :    0.181067
  37 H :    0.185585
Sum of atomic charges:   -0.0000000

LOEWDIN ATOMIC CHARGES
----------------------
   0 C :   -0.387685
   1 C :    0.039588
   2 O :   -0.581115
   3 C :    0.357775
   4 O :   -0.469838
   5 C :   -0.193526
   6 C :   -0.192318
   7 H :    0.211338
   8 C :    0.323550
   9 O :   -0.466497
  10 O :   -0.614538
  11 C :    0.040266
  12 C :   -0.387428
  13 S :    0.208525
  14 P :    0.398384
  15 S :   -0.092193
  16 O :   -0.690470
  17 C :   -0.053016
  18 O :   -0.666952
  19 C :   -0.041602
  20 H :    0.163240
  21 H :    0.169146
  22 H :    0.163253
  23 H :    0.187213
  24 H :    0.189328
  25 H :    0.197972
  26 H :    0.202789
  27 H :    0.194901
  28 H :    0.192511
  29 H :    0.163398
  30 H :    0.166524
  31 H :    0.168598
  32 H :    0.176915
  33 H :    0.177978
  34 H :    0.189523
  35 H :    0.192009
  36 H :    0.179987
  37 H :    0.182468

  Mayer bond orders larger than 0.100000
B(  0-C ,  1-C ) :   0.9484 B(  0-C , 20-H ) :   0.9672 B(  0-C , 21-H ) :   0.9604
B(  0-C , 22-H ) :   0.9729 B(  1-C ,  2-O ) :   0.7721 B(  1-C , 23-H ) :   0.9360
B(  1-C , 24-H ) :   0.9538 B(  2-O ,  3-C ) :   1.0968 B(  3-C ,  4-O ) :   1.7490
B(  3-C ,  5-C ) :   0.8837 B(  5-C ,  6-C ) :   0.8773 B(  5-C , 25-H ) :   1.0007
B(  5-C , 26-H ) :   0.9360 B(  6-C ,  7-H ) :   0.9501 B(  6-C ,  8-C ) :   0.9139
B(  6-C , 13-S ) :   0.8636 B(  8-C ,  9-O ) :   1.7507 B(  8-C , 10-O ) :   1.0744
B( 10-O , 11-C ) :   0.7715 B( 11-C , 12-C ) :   0.9231 B( 11-C , 27-H ) :   0.9581
B( 11-C , 28-H ) :   0.9481 B( 12-C , 29-H ) :   0.9721 B( 12-C , 30-H ) :   0.9668
B( 12-C , 31-H ) :   0.9613 B( 13-S , 14-P ) :   1.0172 B( 14-P , 15-S ) :   1.7638
B( 14-P , 16-O ) :   1.0386 B( 14-P , 18-O ) :   1.1542 B( 16-O , 17-C ) :   0.8218
B( 17-C , 32-H ) :   0.9498 B( 17-C , 33-H ) :   0.9551 B( 17-C , 34-H ) :   0.9570
B( 18-O , 19-C ) :   0.7863 B( 19-C , 35-H ) :   0.9539 B( 19-C , 36-H ) :   0.9476
B( 19-C , 37-H ) :   0.9520

Dispersion correction           -0.017571606
FINAL SINGLE POINT ENERGY     -1981.467002878945

DIPOLE MOMENT
-------------

Method             : SCF
Type of density    : Electron Density
Multiplicity       :   1
Irrep              :   0
Energy             : -1981.4864497050596128 Eh
Relativity type    :
Basis              : AO
                                X                 Y                 Z
Electronic contribution:    -13.697550457       2.116162969      -1.392129822
Nuclear contribution   :     12.366077974      -3.924715301       2.146529042
                        -----------------------------------------
Total Dipole Moment    :     -1.331472484      -1.808552332       0.754399220
                        -----------------------------------------
Magnitude (a.u.)       :      2.369134588
Magnitude (Debye)      :      6.021861558

Rotational constants in cm-1:             0.015549             0.006301             0.005495
Rotational constants in MHz :           466.137298           188.896867           164.750846

                             ****ORCA TERMINATED NORMALLY****
TOTAL RUN TIME: 0 days 0 hours 1 minutes 45 seconds 558 msec
