                         Program Version 6.0.1  -  RELEASE   -
|  1> ! pbe def2-sv(p) def2/J RI DEFGRID1 loosescf d4 GCP(DFT/SV(P)) printgap
|  2> %output
|  3>     printlevel normal
|  4> end
|  5> * xyz 0 1
|  6> C 4.8478056349 -3.7479358221 -1.5979768697
|  7> C 4.210599408 -2.6344511839 -0.7908300023
|  8> O 3.1805604384 -2.0315675764 -1.6011045665
|  9> C 2.3898683379 -1.1484202634 -1.0380603605
| 10> O 2.4652003266 -0.8046964317 0.1249451447
| 11> C 1.3732141016 -0.5892393151 -2.0100288226
| 12> C 0.3136889914 0.1923232134 -1.2439936657
| 13> H -0.3158894964 0.7651922667 -1.9329578353
| 14> C 0.988316358 1.1864176786 -0.3139249921
| 15> O 1.868030264 1.9218914396 -0.7055250945
| 16> O 0.4819878382 1.2103379683 0.9006947717
| 17> C 1.0814466618 2.1374810874 1.8299479435
| 18> C 0.6540695106 1.777709166 3.2375707847
| 19> S -0.7715383243 -0.9542549522 -0.3361813972
| 20> P -2.2009557036 0.4588606448 0.3556166488
| 21> S -2.2446933057 2.1954963777 -0.5486318707
| 22> O -3.5672937082 -0.3702968826 0.2298779566
| 23> C -4.1220857976 -0.6947345959 -1.0494718155
| 24> O -2.0949146858 0.5642739923 1.9262718533
| 25> C -2.0998976529 -0.6099266433 2.7635675429
| 26> H 5.6325014005 -4.2122992223 -1.0102664678
| 27> H 4.102839312 -4.4943470438 -1.8560198474
| 28> H 5.2738463203 -3.3465296312 -2.5123122215
| 29> H 4.9346093623 -1.8578786153 -0.5255183663
| 30> H 3.75048263 -3.0059234327 0.1299237693
| 31> H 0.9317233398 -1.3983092875 -2.5905774208
| 32> H 1.8996084681 0.0873890639 -2.6871723012
| 33> H 2.1663057526 2.0710285698 1.7012413544
| 34> H 0.7547300303 3.1440255916 1.5492576343
| 35> H 1.1400271489 2.4525208653 3.9344116617
| 36> H -0.4229627964 1.8757508112 3.3339136881
| 37> H 0.9453839524 0.7559163144 3.4631028369
| 38> H -4.1788805348 0.200150086 -1.6711454303
| 39> H -5.1181007747 -1.0798105443 -0.8468458677
| 40> H -3.5078802297 -1.4512307226 -1.5375891988
| 41> H -1.2469113369 -1.2419137193 2.5168032355
| 42> H -3.0274885572 -1.1615258599 2.6251703775
| 43> H -2.0201068634 -0.2372060778 3.7812901688
| 44> *
| 45>
| 46>                          ****END OF INPUT****

CARTESIAN COORDINATES (ANGSTROEM)
---------------------------------
  C      4.847806   -3.747936   -1.597977
  C      4.210599   -2.634451   -0.790830
  O      3.180560   -2.031568   -1.601105
  C      2.389868   -1.148420   -1.038060
  O      2.465200   -0.804696    0.124945
  C      1.373214   -0.589239   -2.010029
  C      0.313689    0.192323   -1.243994
  H     -0.315889    0.765192   -1.932958
  C      0.988316    1.186418   -0.313925
  O      1.868030    1.921891   -0.705525
  O      0.481988    1.210338    0.900695
  C      1.081447    2.137481    1.829948
  C      0.654070    1.777709    3.237571
  S     -0.771538   -0.954255   -0.336181
  P     -2.200956    0.458861    0.355617
  S     -2.244693    2.195496   -0.548632
  O     -3.567294   -0.370297    0.229878
  C     -4.122086   -0.694735   -1.049472
  O     -2.094915    0.564274    1.926272
  C     -2.099898   -0.609927    2.763568
  H      5.632501   -4.212299   -1.010266
  H      4.102839   -4.494347   -1.856020
  H      5.273846   -3.346530   -2.512312
  H      4.934609   -1.857879   -0.525518
  H      3.750483   -3.005923    0.129924
  H      0.931723   -1.398309   -2.590577
  H      1.899608    0.087389   -2.687172
  H      2.166306    2.071029    1.701241
  H      0.754730    3.144026    1.549258
  H      1.140027    2.452521    3.934412
  H     -0.422963    1.875751    3.333914
  H      0.945384    0.755916    3.463103
  H     -4.178881    0.200150   -1.671145
  H     -5.118101   -1.079811   -0.846846
  H     -3.507880   -1.451231   -1.537589
  H     -1.246911   -1.241914    2.516803
  H     -3.027489   -1.161526    2.625170
  H     -2.020107   -0.237206    3.781290

 Total Charge           Charge          ....    0
 Multiplicity           Mult            ....    1
 Number of Electrons    NEL             ....  174
 Basis Dimension        Dim             ....  316

ORBITAL ENERGIES
----------------

  NO   OCC          E(Eh)            E(eV)
   0   2.0000     -88.037358     -2395.6183
   1   2.0000     -87.981370     -2394.0948
   2   2.0000     -76.424035     -2079.6037
   3   2.0000     -18.810628      -511.8632
   4   2.0000     -18.794035      -511.4117
   5   2.0000     -18.793772      -511.4045
   6   2.0000     -18.789829      -511.2973
   7   2.0000     -18.748467      -510.1717
   8   2.0000     -18.721745      -509.4446
   9   2.0000     -10.017401      -272.5873
  10   2.0000     -10.003799      -272.2172
  11   2.0000      -9.955547      -270.9042
  12   2.0000      -9.949401      -270.7370
  13   2.0000      -9.943484      -270.5760
  14   2.0000      -9.941895      -270.5327
  15   2.0000      -9.935296      -270.3532
  16   2.0000      -9.917566      -269.8707
  17   2.0000      -9.895194      -269.2619
  18   2.0000      -9.877787      -268.7882
  19   2.0000      -7.681993      -209.0377
  20   2.0000      -7.626533      -207.5285
  21   2.0000      -6.421054      -174.7258
  22   2.0000      -5.709641      -155.3672
  23   2.0000      -5.706726      -155.2879
  24   2.0000      -5.699044      -155.0789
  25   2.0000      -5.655688      -153.8991
  26   2.0000      -5.647005      -153.6628
  27   2.0000      -5.646582      -153.6513
  28   2.0000      -4.643765      -126.3633
  29   2.0000      -4.642954      -126.3412
  30   2.0000      -4.641365      -126.2980
  31   2.0000      -1.020297       -27.7637
  32   2.0000      -1.001375       -27.2488
  33   2.0000      -0.986489       -26.8437
  34   2.0000      -0.941581       -25.6217
  35   2.0000      -0.924693       -25.1622
  36   2.0000      -0.903041       -24.5730
  37   2.0000      -0.763514       -20.7763
  38   2.0000      -0.721020       -19.6200
  39   2.0000      -0.697644       -18.9838
  40   2.0000      -0.693273       -18.8649
  41   2.0000      -0.660856       -17.9828
  42   2.0000      -0.636271       -17.3138
  43   2.0000      -0.620170       -16.8757
  44   2.0000      -0.610512       -16.6129
  45   2.0000      -0.589284       -16.0352
  46   2.0000      -0.554129       -15.0786
  47   2.0000      -0.517200       -14.0737
  48   2.0000      -0.513811       -13.9815
  49   2.0000      -0.498523       -13.5655
  50   2.0000      -0.476641       -12.9701
  51   2.0000      -0.473274       -12.8784
  52   2.0000      -0.465693       -12.6722
  53   2.0000      -0.452277       -12.3071
  54   2.0000      -0.436685       -11.8828
  55   2.0000      -0.432015       -11.7557
  56   2.0000      -0.421598       -11.4723
  57   2.0000      -0.418774       -11.3954
  58   2.0000      -0.415089       -11.2951
  59   2.0000      -0.408715       -11.1217
  60   2.0000      -0.401080       -10.9139
  61   2.0000      -0.399676       -10.8758
  62   2.0000      -0.393746       -10.7144
  63   2.0000      -0.376985       -10.2583
  64   2.0000      -0.366554        -9.9744
  65   2.0000      -0.363928        -9.9030
  66   2.0000      -0.357084        -9.7167
  67   2.0000      -0.351537        -9.5658
  68   2.0000      -0.345205        -9.3935
  69   2.0000      -0.340095        -9.2545
  70   2.0000      -0.334654        -9.1064
  71   2.0000      -0.327197        -8.9035
  72   2.0000      -0.317194        -8.6313
  73   2.0000      -0.309243        -8.4149
  74   2.0000      -0.309120        -8.4116
  75   2.0000      -0.304475        -8.2852
  76   2.0000      -0.297327        -8.0907
  77   2.0000      -0.289923        -7.8892
  78   2.0000      -0.270179        -7.3519
  79   2.0000      -0.268252        -7.2995
  80   2.0000      -0.258950        -7.0464
  81   2.0000      -0.247715        -6.7407
  82   2.0000      -0.237016        -6.4495
  83   2.0000      -0.229516        -6.2454
  84   2.0000      -0.203779        -5.5451
  85   2.0000      -0.200004        -5.4424
  86   2.0000      -0.196294        -5.3414
  87   0.0000      -0.039497        -1.0748
  88   0.0000      -0.025901        -0.7048
  89   0.0000      -0.009588        -0.2609
  90   0.0000       0.008543         0.2325
  91   0.0000       0.019047         0.5183

MULLIKEN ATOMIC CHARGES
-----------------------
   0 C :   -0.273628
   1 C :   -0.031053
   2 O :   -0.226320
   3 C :    0.113615
   4 O :   -0.200951
   5 C :   -0.097603
   6 C :   -0.301006
   7 H :    0.150062
   8 C :    0.235313
   9 O :   -0.215569
  10 O :   -0.231021
  11 C :   -0.016512
  12 C :   -0.292890
  13 S :   -0.105264
  14 P :    0.622187
  15 S :   -0.317125
  16 O :   -0.390744
  17 C :   -0.097801
  18 O :   -0.360326
  19 C :   -0.114208
  20 H :    0.114073
  21 H :    0.116621
  22 H :    0.118211
  23 H :    0.112130
  24 H :    0.110853
  25 H :    0.126544
  26 H :    0.145696
  27 H :    0.110072
  28 H :    0.106862
  29 H :    0.106117
  30 H :    0.132154
  31 H :    0.112357
  32 H :    0.117301
  33 H :    0.124238
  34 H :    0.110801
  35 H :    0.128644
  36 H :    0.126951
  37 H :    0.131221
Sum of atomic charges:   -0.0000000

LOEWDIN ATOMIC CHARGES
----------------------
   0 C :   -0.350342
   1 C :   -0.104849
   2 O :   -0.057259
   3 C :    0.036283
   4 O :   -0.150746
   5 C :   -0.249089
   6 C :   -0.268104
   7 H :    0.141889
   8 C :    0.014691
   9 O :   -0.170924
  10 O :   -0.057918
  11 C :   -0.100674
  12 C :   -0.355622
  13 S :    0.086777
  14 P :    0.578652
  15 S :   -0.310065
  16 O :   -0.262749
  17 C :   -0.217346
  18 O :   -0.233347
  19 C :   -0.211934
  20 H :    0.132092
  21 H :    0.127520
  22 H :    0.128358
  23 H :    0.119901
  24 H :    0.118794
  25 H :    0.141618
  26 H :    0.160827
  27 H :    0.119813
  28 H :    0.118493
  29 H :    0.128513
  30 H :    0.127811
  31 H :    0.124788
  32 H :    0.111526
  33 H :    0.121907
  34 H :    0.106429
  35 H :    0.113533
  36 H :    0.116201
  37 H :    0.124553

  Mayer bond orders larger than 0.100000
B(  0-C ,  1-C ) :   1.1542 B(  0-C , 20-H ) :   0.9435 B(  0-C , 21-H ) :   0.9506
B(  0-C , 22-H ) :   0.9488 B(  1-C ,  2-O ) :   0.9002 B(  1-C , 23-H ) :   0.9339
B(  1-C , 24-H ) :   0.9289 B(  2-O ,  3-C ) :   1.2505 B(  3-C ,  4-O ) :   2.0067
B(  3-C ,  5-C ) :   1.0019 B(  5-C ,  6-C ) :   1.0634 B(  5-C , 25-H ) :   0.9015
B(  5-C , 26-H ) :   0.8717 B(  6-C ,  7-H ) :   0.8514 B(  6-C ,  8-C ) :   0.8738
B(  6-C , 13-S ) :   1.0195 B(  8-C ,  9-O ) :   2.0447 B(  8-C , 10-O ) :   1.2431
B( 10-O , 11-C ) :   0.8981 B( 11-C , 12-C ) :   1.1623 B( 11-C , 27-H ) :   0.9251
B( 11-C , 28-H ) :   0.9321 B( 12-C , 29-H ) :   0.9414 B( 12-C , 30-H ) :   0.9364
B( 12-C , 31-H ) :   0.9492 B( 13-S , 14-P ) :   0.9584 B( 13-S , 15-S ) :   0.1145
B( 14-P , 15-S ) :   1.6370 B( 14-P , 16-O ) :   1.0652 B( 14-P , 18-O ) :   1.1222
B( 16-O , 17-C ) :   0.9343 B( 17-C , 32-H ) :   0.9360 B( 17-C , 33-H ) :   0.9587
B( 17-C , 34-H ) :   0.9447 B( 18-O , 19-C ) :   0.9146 B( 19-C , 35-H ) :   0.9380
B( 19-C , 36-H ) :   0.9457 B( 19-C , 37-H ) :   0.9563

Dispersion correction           -0.052250457
FINAL SINGLE POINT ENERGY     -1979.020937593212

DIPOLE MOMENT
-------------

Method             : SCF
Type of density    : Electron Density
Multiplicity       :   1
Irrep              :   0
Energy             : -1979.1513952670579783 Eh
Relativity type    :
Basis              : AO
                                X                 Y                 Z
Electronic contribution:    -12.775993644       9.838722559      -4.971994613
Nuclear contribution   :     13.059267172     -11.823380932       5.222932278
                        -----------------------------------------
Total Dipole Moment    :      0.283273528      -1.984658373       0.250937664
                        -----------------------------------------
Magnitude (a.u.)       :      2.020416408
Magnitude (Debye)      :      5.135490385

Rotational constants in cm-1:             0.014911             0.006106             0.005495
Rotational constants in MHz :           447.016502           183.051394           164.746945

                             ****ORCA TERMINATED NORMALLY****
TOTAL RUN TIME: 0 days 0 hours 0 minutes 41 seconds 456 msec
