                         Program Version 6.0.0  -   RELEASE  -
|  1> ! pbe def2-sv(p) def2/J RI DEFGRID1 loosescf d4 GCP(DFT/SV(P)) printgap
|  2> %output
|  3>     printlevel normal
|  4> end
|  5> * xyz 0 1
|  6> C 3.2506498905 -3.3265929727 0.2114436857
|  7> C 3.3349871013 -1.8552997393 0.5575182907
|  8> O 2.3997072272 -1.1551876538 -0.299984779
|  9> P 2.3678056873 0.4236394334 -0.3327018665
| 10> S 4.0807200609 1.3317288414 -0.6288356147
| 11> O 1.7250590056 0.7706989849 1.0976048389
| 12> C 1.8626271395 2.0811196966 1.6675434257
| 13> C 1.0046599573 3.0988909537 0.9422174876
| 14> S 0.8665105666 0.7308761915 -1.7807371062
| 15> C -0.0556698564 -0.846254113 -1.7098741082
| 16> S -0.6625317149 -1.307313624 -0.0788107713
| 17> P -2.2815288132 0.0799325113 0.0928134427
| 18> S -2.6868606906 1.1762160822 -1.4774950498
| 19> O -1.9296398511 0.9618339878 1.3533256439
| 20> C -1.3246796565 0.4981532745 2.585412632
| 21> C -2.0768268533 -0.647296423 3.2266778735
| 22> O -3.517058527 -0.7787684491 0.6177298426
| 23> C -4.4394760544 -1.4229765001 -0.2734920802
| 24> C -3.7993633534 -2.5665671008 -1.034967129
| 25> H 2.2346235563 -3.6818515236 0.3590772933
| 26> H 3.5346268171 -3.4848944676 -0.8249716537
| 27> H 3.9248992511 -3.8817259032 0.8552704577
| 28> H 4.3356473546 -1.4480088415 0.380394998
| 29> H 3.0506147184 -1.6701880967 1.5957491148
| 30> H 1.5588888793 1.9606998323 2.7081294786
| 31> H 2.9179895669 2.3695222744 1.6174909787
| 32> H 1.3577349169 3.2155878176 -0.0832366115
| 33> H -0.0352984268 2.7794029782 0.9136080379
| 34> H 1.0709356984 4.0569433776 1.4472654123
| 35> H 0.5857672067 -1.6546079267 -2.0476153243
| 36> H -0.8937587524 -0.6850601135 -2.3879673472
| 37> H -0.2940014601 0.2070837842 2.3676429156
| 38> H -1.3360605335 1.3893479901 3.2153124774
| 39> H -2.0115364446 -1.5364977588 2.6029689841
| 40> H -1.6335180262 -0.8607549827 4.1946839402
| 41> H -3.1230322663 -0.3850686313 3.3597988907
| 42> H -5.2355167232 -1.7747869144 0.3841832167
| 43> H -4.8345331553 -0.6728868849 -0.9660153506
| 44> H -3.0677631449 -2.1797206186 -1.7425976261
| 45> H -3.3027269628 -3.2482108989 -0.3494284007
| 46> H -4.5655826161 -3.103705733 -1.5847555202
| 47> *
| 48>
| 49>                          ****END OF INPUT****

CARTESIAN COORDINATES (ANGSTROEM)
---------------------------------
  C      3.250650   -3.326593    0.211444
  C      3.334987   -1.855300    0.557518
  O      2.399707   -1.155188   -0.299985
  P      2.367806    0.423639   -0.332702
  S      4.080720    1.331729   -0.628836
  O      1.725059    0.770699    1.097605
  C      1.862627    2.081120    1.667543
  C      1.004660    3.098891    0.942217
  S      0.866511    0.730876   -1.780737
  C     -0.055670   -0.846254   -1.709874
  S     -0.662532   -1.307314   -0.078811
  P     -2.281529    0.079933    0.092813
  S     -2.686861    1.176216   -1.477495
  O     -1.929640    0.961834    1.353326
  C     -1.324680    0.498153    2.585413
  C     -2.076827   -0.647296    3.226678
  O     -3.517059   -0.778768    0.617730
  C     -4.439476   -1.422977   -0.273492
  C     -3.799363   -2.566567   -1.034967
  H      2.234624   -3.681852    0.359077
  H      3.534627   -3.484894   -0.824972
  H      3.924899   -3.881726    0.855270
  H      4.335647   -1.448009    0.380395
  H      3.050615   -1.670188    1.595749
  H      1.558889    1.960700    2.708129
  H      2.917990    2.369522    1.617491
  H      1.357735    3.215588   -0.083237
  H     -0.035298    2.779403    0.913608
  H      1.070936    4.056943    1.447265
  H      0.585767   -1.654608   -2.047615
  H     -0.893759   -0.685060   -2.387967
  H     -0.294001    0.207084    2.367643
  H     -1.336061    1.389348    3.215312
  H     -2.011536   -1.536498    2.602969
  H     -1.633518   -0.860755    4.194684
  H     -3.123032   -0.385069    3.359799
  H     -5.235517   -1.774787    0.384183
  H     -4.834533   -0.672887   -0.966015
  H     -3.067763   -2.179721   -1.742598
  H     -3.302727   -3.248211   -0.349428
  H     -4.565583   -3.103706   -1.584756

 Total Charge           Charge          ....    0
 Multiplicity           Mult            ....    1
 Number of Electrons    NEL             ....  202
 Basis Dimension        Dim             ....  334

ORBITAL ENERGIES
----------------

  NO   OCC          E(Eh)            E(eV)
   0   2.0000     -88.048918     -2395.9329
   1   2.0000     -88.039493     -2395.6764
   2   2.0000     -87.989565     -2394.3178
   3   2.0000     -87.983656     -2394.1570
   4   2.0000     -76.431084     -2079.7955
   5   2.0000     -76.424418     -2079.6141
   6   2.0000     -18.797367      -511.5024
   7   2.0000     -18.796973      -511.4916
   8   2.0000     -18.795545      -511.4528
   9   2.0000     -18.788593      -511.2636
  10   2.0000      -9.960282      -271.0331
  11   2.0000      -9.959197      -271.0035
  12   2.0000      -9.958197      -270.9763
  13   2.0000      -9.955886      -270.9134
  14   2.0000      -9.946730      -270.6643
  15   2.0000      -9.893750      -269.2226
  16   2.0000      -9.893056      -269.2037
  17   2.0000      -9.889489      -269.1067
  18   2.0000      -9.875624      -268.7294
  19   2.0000      -7.693276      -209.3447
  20   2.0000      -7.684757      -209.1129
  21   2.0000      -7.634729      -207.7515
  22   2.0000      -7.628822      -207.5908
  23   2.0000      -6.428412      -174.9260
  24   2.0000      -6.422441      -174.7635
  25   2.0000      -5.721157      -155.6806
  26   2.0000      -5.717785      -155.5888
  27   2.0000      -5.713190      -155.4638
  28   2.0000      -5.710315      -155.3856
  29   2.0000      -5.709043      -155.3509
  30   2.0000      -5.701379      -155.1424
  31   2.0000      -5.663825      -154.1205
  32   2.0000      -5.657783      -153.9561
  33   2.0000      -5.655344      -153.8897
  34   2.0000      -5.654702      -153.8723
  35   2.0000      -5.649767      -153.7380
  36   2.0000      -5.648624      -153.7069
  37   2.0000      -4.651017      -126.5606
  38   2.0000      -4.650194      -126.5382
  39   2.0000      -4.648871      -126.5022
  40   2.0000      -4.645117      -126.4001
  41   2.0000      -4.644305      -126.3780
  42   2.0000      -4.642622      -126.3322
  43   2.0000      -0.990856       -26.9626
  44   2.0000      -0.988253       -26.8917
  45   2.0000      -0.949340       -25.8329
  46   2.0000      -0.945366       -25.7247
  47   2.0000      -0.764729       -20.8093
  48   2.0000      -0.723949       -19.6997
  49   2.0000      -0.714277       -19.4365
  50   2.0000      -0.694995       -18.9118
  51   2.0000      -0.685031       -18.6406
  52   2.0000      -0.677952       -18.4480
  53   2.0000      -0.654549       -17.8112
  54   2.0000      -0.638307       -17.3692
  55   2.0000      -0.602874       -16.4050
  56   2.0000      -0.592616       -16.1259
  57   2.0000      -0.580171       -15.7872
  58   2.0000      -0.572971       -15.5913
  59   2.0000      -0.564464       -15.3599
  60   2.0000      -0.507718       -13.8157
  61   2.0000      -0.497710       -13.5434
  62   2.0000      -0.477480       -12.9929
  63   2.0000      -0.471042       -12.8177
  64   2.0000      -0.463616       -12.6156
  65   2.0000      -0.449023       -12.2185
  66   2.0000      -0.446545       -12.1511
  67   2.0000      -0.440914       -11.9979
  68   2.0000      -0.430672       -11.7192
  69   2.0000      -0.419401       -11.4125
  70   2.0000      -0.413316       -11.2469
  71   2.0000      -0.402487       -10.9522
  72   2.0000      -0.398968       -10.8565
  73   2.0000      -0.388585       -10.5739
  74   2.0000      -0.384170       -10.4538
  75   2.0000      -0.375203       -10.2098
  76   2.0000      -0.367550       -10.0015
  77   2.0000      -0.362609        -9.8671
  78   2.0000      -0.359002        -9.7689
  79   2.0000      -0.358139        -9.7455
  80   2.0000      -0.350914        -9.5489
  81   2.0000      -0.348771        -9.4905
  82   2.0000      -0.344790        -9.3822
  83   2.0000      -0.337017        -9.1707
  84   2.0000      -0.329328        -8.9615
  85   2.0000      -0.324682        -8.8350
  86   2.0000      -0.312321        -8.4987
  87   2.0000      -0.301638        -8.2080
  88   2.0000      -0.297742        -8.1020
  89   2.0000      -0.296754        -8.0751
  90   2.0000      -0.292004        -7.9458
  91   2.0000      -0.278694        -7.5836
  92   2.0000      -0.274525        -7.4702
  93   2.0000      -0.265369        -7.2211
  94   2.0000      -0.261515        -7.1162
  95   2.0000      -0.231690        -6.3046
  96   2.0000      -0.218011        -5.9324
  97   2.0000      -0.211168        -5.7462
  98   2.0000      -0.206767        -5.6264
  99   2.0000      -0.205440        -5.5903
 100   2.0000      -0.192815        -5.2468
 101   0.0000      -0.047792        -1.3005
 102   0.0000      -0.027305        -0.7430
 103   0.0000      -0.020820        -0.5665
 104   0.0000      -0.004614        -0.1255
 105   0.0000       0.012094         0.3291

MULLIKEN ATOMIC CHARGES
-----------------------
   0 C :   -0.282846
   1 C :   -0.006988
   2 O :   -0.387436
   3 P :    0.627620
   4 S :   -0.325255
   5 O :   -0.387091
   6 C :   -0.013531
   7 C :   -0.327717
   8 S :   -0.065421
   9 C :   -0.330747
  10 S :   -0.117443
  11 P :    0.607770
  12 S :   -0.304172
  13 O :   -0.360386
  14 C :   -0.055582
  15 C :   -0.293606
  16 O :   -0.374534
  17 C :   -0.001689
  18 C :   -0.314026
  19 H :    0.116496
  20 H :    0.121418
  21 H :    0.113977
  22 H :    0.110957
  23 H :    0.103787
  24 H :    0.094084
  25 H :    0.114753
  26 H :    0.121627
  27 H :    0.140804
  28 H :    0.108740
  29 H :    0.186437
  30 H :    0.191391
  31 H :    0.148115
  32 H :    0.111560
  33 H :    0.119033
  34 H :    0.113722
  35 H :    0.123803
  36 H :    0.105230
  37 H :    0.114334
  38 H :    0.121604
  39 H :    0.116940
  40 H :    0.114270
Sum of atomic charges:   -0.0000000

LOEWDIN ATOMIC CHARGES
----------------------
   0 C :   -0.351125
   1 C :   -0.114000
   2 O :   -0.248127
   3 P :    0.564204
   4 S :   -0.321697
   5 O :   -0.251763
   6 C :   -0.127901
   7 C :   -0.370259
   8 S :    0.100242
   9 C :   -0.475594
  10 S :    0.078543
  11 P :    0.573741
  12 S :   -0.300133
  13 O :   -0.232048
  14 C :   -0.123327
  15 C :   -0.364186
  16 O :   -0.244222
  17 C :   -0.119233
  18 C :   -0.367947
  19 H :    0.125842
  20 H :    0.129043
  21 H :    0.132197
  22 H :    0.113100
  23 H :    0.112448
  24 H :    0.110229
  25 H :    0.107786
  26 H :    0.120820
  27 H :    0.127761
  28 H :    0.129350
  29 H :    0.136135
  30 H :    0.129134
  31 H :    0.114845
  32 H :    0.121762
  33 H :    0.117685
  34 H :    0.131839
  35 H :    0.129635
  36 H :    0.119041
  37 H :    0.111943
  38 H :    0.119084
  39 H :    0.123781
  40 H :    0.131373

  Mayer bond orders larger than 0.100000
B(  0-C ,  1-C ) :   1.1612 B(  0-C , 19-H ) :   0.9502 B(  0-C , 20-H ) :   0.9505
B(  0-C , 21-H ) :   0.9410 B(  1-C ,  2-O ) :   0.8896 B(  1-C , 22-H ) :   0.9161
B(  1-C , 23-H ) :   0.9281 B(  2-O ,  3-P ) :   1.1027 B(  3-P ,  4-S ) :   1.6554
B(  3-P ,  5-O ) :   1.0467 B(  3-P ,  8-S ) :   0.9907 B(  5-O ,  6-C ) :   0.9049
B(  6-C ,  7-C ) :   1.1642 B(  6-C , 24-H ) :   0.9289 B(  6-C , 25-H ) :   0.9080
B(  7-C , 26-H ) :   0.9348 B(  7-C , 27-H ) :   0.9330 B(  7-C , 28-H ) :   0.9387
B(  8-S ,  9-C ) :   0.9925 B(  9-C , 10-S ) :   1.0115 B(  9-C , 29-H ) :   0.9007
B(  9-C , 30-H ) :   0.8773 B( 10-S , 11-P ) :   0.9310 B( 10-S , 12-S ) :   0.1107
B( 11-P , 12-S ) :   1.6328 B( 11-P , 13-O ) :   1.1373 B( 11-P , 16-O ) :   1.0807
B( 13-O , 14-C ) :   0.8900 B( 14-C , 15-C ) :   1.1717 B( 14-C , 31-H ) :   0.8986
B( 14-C , 32-H ) :   0.9322 B( 15-C , 33-H ) :   0.9385 B( 15-C , 34-H ) :   0.9352
B( 15-C , 35-H ) :   0.9419 B( 16-O , 17-C ) :   0.9130 B( 17-C , 18-C ) :   1.1633
B( 17-C , 36-H ) :   0.9337 B( 17-C , 37-H ) :   0.9151 B( 18-C , 38-H ) :   0.9375
B( 18-C , 39-H ) :   0.9441 B( 18-C , 40-H ) :   0.9377

Dispersion correction           -0.066634480
FINAL SINGLE POINT ENERGY     -2929.517854940117

DIPOLE MOMENT
-------------

Method             : SCF
Type of density    : Electron Density
Multiplicity       :   1
Irrep              :   0
Energy             : -2929.6384493656123595 Eh
Relativity type    :
Basis              : AO
                                X                 Y                 Z
Electronic contribution:      4.886479822      12.165046671     -13.917460474
Nuclear contribution   :     -5.548290994     -13.914733537      15.394957915
                        -----------------------------------------
Total Dipole Moment    :     -0.661811172      -1.749686866       1.477497442
                        -----------------------------------------
Magnitude (a.u.)       :      2.383777852
Magnitude (Debye)      :      6.059081775

Rotational constants in cm-1:             0.011855             0.005305             0.005025
Rotational constants in MHz :           355.414087           159.051657           150.631957

                             ****ORCA TERMINATED NORMALLY****
TOTAL RUN TIME: 0 days 0 hours 0 minutes 22 seconds 218 msec
