                         Program Version 6.0.0  -   RELEASE  -
|  1> ! pbe def2-sv(p) def2/J RI DEFGRID1 loosescf d4 GCP(DFT/SV(P)) printgap
|  2> %output
|  3>     printlevel normal
|  4> end
|  5> * xyz 0 1
|  6> C -0.718752131 -0.5982354427 -0.261790037
|  7> C 0.7109413537 -0.5953529876 0.2899007018
|  8> O 1.4634077176 0.5281609671 -0.1048352878
|  9> O -1.4561775103 0.552602347 0.079362941
| 10> H -1.2271006609 -1.5048551463 0.094034173
| 11> H -0.7011592671 -0.6139361903 -1.3546343572
| 12> H 1.2064204324 -1.5246515931 -0.0225386418
| 13> H 0.6944256391 -0.5595776695 1.3821157339
| 14> H 1.4482544838 0.6012411081 -1.0691593465
| 15> H -1.4425341949 0.6693705422 1.0395442737
| 16> *
| 17>
| 18>                          ****END OF INPUT****

CARTESIAN COORDINATES (ANGSTROEM)
---------------------------------
  C     -0.718752   -0.598235   -0.261790
  C      0.710941   -0.595353    0.289901
  O      1.463408    0.528161   -0.104835
  O     -1.456178    0.552602    0.079363
  H     -1.227101   -1.504855    0.094034
  H     -0.701159   -0.613936   -1.354634
  H      1.206420   -1.524652   -0.022539
  H      0.694426   -0.559578    1.382116
  H      1.448254    0.601241   -1.069159
  H     -1.442534    0.669371    1.039544

 Total Charge           Charge          ....    0
 Multiplicity           Mult            ....    1
 Number of Electrons    NEL             ....   34
 Basis Dimension        Dim             ....   68

ORBITAL ENERGIES
----------------

  NO   OCC          E(Eh)            E(eV)
   0   2.0000     -18.743216      -510.0288
   1   2.0000     -18.743153      -510.0271
   2   2.0000      -9.933664      -270.3087
   3   2.0000      -9.933550      -270.3056
   4   2.0000      -0.929472       -25.2922
   5   2.0000      -0.909860       -24.7585
   6   2.0000      -0.658997       -17.9322
   7   2.0000      -0.569214       -15.4891
   8   2.0000      -0.473957       -12.8970
   9   2.0000      -0.424131       -11.5412
  10   2.0000      -0.407374       -11.0852
  11   2.0000      -0.406263       -11.0550
  12   2.0000      -0.349547        -9.5117
  13   2.0000      -0.288467        -7.8496
  14   2.0000      -0.278800        -7.5865
  15   2.0000      -0.224784        -6.1167
  16   2.0000      -0.206284        -5.6133
  17   0.0000       0.022947         0.6244
  18   0.0000       0.041778         1.1368
  19   0.0000       0.076026         2.0688
  20   0.0000       0.086146         2.3442
  21   0.0000       0.105576         2.8729

MULLIKEN ATOMIC CHARGES
-----------------------
   0 C :   -0.017429
   1 C :   -0.016930
   2 O :   -0.431808
   3 O :   -0.431865
   4 H :    0.071935
   5 H :    0.082655
   6 H :    0.071897
   7 H :    0.082559
   8 H :    0.294459
   9 H :    0.294526
Sum of atomic charges:    0.0000000

LOEWDIN ATOMIC CHARGES
----------------------
   0 C :   -0.148437
   1 C :   -0.148529
   2 O :   -0.340187
   3 O :   -0.340249
   4 H :    0.096854
   5 H :    0.109037
   6 H :    0.096850
   7 H :    0.109030
   8 H :    0.282792
   9 H :    0.282839

  Mayer bond orders larger than 0.100000
B(  0-C ,  1-C ) :   1.0813 B(  0-C ,  3-O ) :   1.0760 B(  0-C ,  4-H ) :   0.9128
B(  0-C ,  5-H ) :   0.9241 B(  1-C ,  2-O ) :   1.0759 B(  1-C ,  6-H ) :   0.9127
B(  1-C ,  7-H ) :   0.9241 B(  2-O ,  8-H ) :   0.8547 B(  3-O ,  9-H ) :   0.8547

Dispersion correction           -0.004852383
FINAL SINGLE POINT ENERGY      -229.722819054791

DIPOLE MOMENT
-------------

Method             : SCF
Type of density    : Electron Density
Multiplicity       :   1
Irrep              :   0
Energy             :  -229.7733814933879728 Eh
Relativity type    :
Basis              : AO
                                X                 Y                 Z
Electronic contribution:      0.014409918       2.129517820      -0.049954670
Nuclear contribution   :     -0.020244892      -2.735048712       0.064694928
                        -----------------------------------------
Total Dipole Moment    :     -0.005834974      -0.605530892       0.014740258
                        -----------------------------------------
Magnitude (a.u.)       :      0.605738379
Magnitude (Debye)      :      1.539664599

Rotational constants in cm-1:             0.524104             0.174200             0.149577
Rotational constants in MHz :         15712.251006          5222.375348          4484.210197

                             ****ORCA TERMINATED NORMALLY****
TOTAL RUN TIME: 0 days 0 hours 0 minutes 4 seconds 344 msec
