                         Program Version 6.0.0  -   RELEASE  -
|  1> ! pbe def2-sv(p) def2/J RI DEFGRID1 loosescf d4 GCP(DFT/SV(P)) printgap
|  2> %output
|  3>     printlevel normal
|  4> end
|  5> * xyz 0 1
|  6> C 3.1325364177 1.2218712744 -2.0381645955
|  7> C 2.2244200543 0.047584046 -2.3344750672
|  8> O 1.3722394183 -0.2852387293 -1.216844239
|  9> P 1.8840473454 -0.6480791292 0.2335994962
| 10> S 2.5125330162 0.7563690512 1.4583095033
| 11> O 2.9648770374 -1.7653385749 -0.108672494
| 12> C 3.8371429362 -2.3209669529 0.896696166
| 13> C 5.2134468143 -1.6909138809 0.8092703591
| 14> S 0.2712538434 -1.7738674157 0.9861279126
| 15> C -0.516484633 -0.5515893975 2.0852420073
| 16> S -2.2025394104 -0.1488765975 1.5874256476
| 17> P -1.7719187166 0.7773027021 -0.2827471925
| 18> S -0.3790626691 2.1510561335 -0.17922991
| 19> O -3.1999279993 1.2987238061 -0.7378123546
| 20> C -3.8406108136 2.4012234442 -0.0625550231
| 21> C -4.9636458288 2.8992081619 -0.9492083221
| 22> O -1.4570016834 -0.323788325 -1.3608632118
| 23> C -2.4201867321 -1.2023190055 -2.0002033406
| 24> C -3.0768863117 -2.1605923295 -1.0291971006
| 25> H 2.5437430014 2.0724854457 -1.6980624065
| 26> H 3.8420130445 0.9599623673 -1.2540069989
| 27> H 3.6773510093 1.4964884958 -2.9358198023
| 28> H 2.8008985375 -0.842369564 -2.597089776
| 29> H 1.5135708553 0.2846708148 -3.1282988286
| 30> H 3.399306907 -2.1586788356 1.8852177535
| 31> H 3.8699953446 -3.3900953622 0.6805086257
| 32> H 5.6191929279 -1.8112234286 -0.1913136996
| 33> H 5.1521583945 -0.6299081174 1.0428613578
| 34> H 5.8720628619 -2.1715273024 1.5252080792
| 35> H 0.1014956546 0.3515457789 2.0982362814
| 36> H -0.5923200206 -0.9884664719 3.0776171277
| 37> H -4.2171858444 2.0382215133 0.8972071848
| 38> H -3.0926060561 3.1802694417 0.1178214966
| 39> H -5.6773500388 2.1007966354 -1.129445096
| 40> H -5.4651187867 3.7248974022 -0.455401008
| 41> H -4.5653465802 3.2400138123 -1.9008158962
| 42> H -3.1615307785 -0.581129133 -2.5051744591
| 43> H -1.8119747615 -1.7330975406 -2.7344682088
| 44> H -3.7283912477 -1.6247343679 -0.3426564415
| 45> H -3.6687346915 -2.8762545264 -1.5915130775
| 46> H -2.3224703686 -2.6945879541 -0.4551356027
| 47> *
| 48>
| 49>                          ****END OF INPUT****

CARTESIAN COORDINATES (ANGSTROEM)
---------------------------------
  C      3.132536    1.221871   -2.038165
  C      2.224420    0.047584   -2.334475
  O      1.372239   -0.285239   -1.216844
  P      1.884047   -0.648079    0.233599
  S      2.512533    0.756369    1.458310
  O      2.964877   -1.765339   -0.108672
  C      3.837143   -2.320967    0.896696
  C      5.213447   -1.690914    0.809270
  S      0.271254   -1.773867    0.986128
  C     -0.516485   -0.551589    2.085242
  S     -2.202539   -0.148877    1.587426
  P     -1.771919    0.777303   -0.282747
  S     -0.379063    2.151056   -0.179230
  O     -3.199928    1.298724   -0.737812
  C     -3.840611    2.401223   -0.062555
  C     -4.963646    2.899208   -0.949208
  O     -1.457002   -0.323788   -1.360863
  C     -2.420187   -1.202319   -2.000203
  C     -3.076886   -2.160592   -1.029197
  H      2.543743    2.072485   -1.698062
  H      3.842013    0.959962   -1.254007
  H      3.677351    1.496488   -2.935820
  H      2.800899   -0.842370   -2.597090
  H      1.513571    0.284671   -3.128299
  H      3.399307   -2.158679    1.885218
  H      3.869995   -3.390095    0.680509
  H      5.619193   -1.811223   -0.191314
  H      5.152158   -0.629908    1.042861
  H      5.872063   -2.171527    1.525208
  H      0.101496    0.351546    2.098236
  H     -0.592320   -0.988466    3.077617
  H     -4.217186    2.038222    0.897207
  H     -3.092606    3.180269    0.117821
  H     -5.677350    2.100797   -1.129445
  H     -5.465119    3.724897   -0.455401
  H     -4.565347    3.240014   -1.900816
  H     -3.161531   -0.581129   -2.505174
  H     -1.811975   -1.733098   -2.734468
  H     -3.728391   -1.624734   -0.342656
  H     -3.668735   -2.876255   -1.591513
  H     -2.322470   -2.694588   -0.455136

 Total Charge           Charge          ....    0
 Multiplicity           Mult            ....    1
 Number of Electrons    NEL             ....  202
 Basis Dimension        Dim             ....  334

ORBITAL ENERGIES
----------------

  NO   OCC          E(Eh)            E(eV)
   0   2.0000     -88.037199     -2395.6140
   1   2.0000     -88.036923     -2395.6065
   2   2.0000     -87.977648     -2393.9935
   3   2.0000     -87.973090     -2393.8695
   4   2.0000     -76.420496     -2079.5074
   5   2.0000     -76.420444     -2079.5060
   6   2.0000     -18.794016      -511.4112
   7   2.0000     -18.789549      -511.2896
   8   2.0000     -18.785963      -511.1920
   9   2.0000     -18.777955      -510.9741
  10   2.0000      -9.954088      -270.8645
  11   2.0000      -9.953166      -270.8394
  12   2.0000      -9.950631      -270.7704
  13   2.0000      -9.949328      -270.7350
  14   2.0000      -9.946036      -270.6454
  15   2.0000      -9.889434      -269.1052
  16   2.0000      -9.883411      -268.9413
  17   2.0000      -9.880220      -268.8545
  18   2.0000      -9.873081      -268.6602
  19   2.0000      -7.682399      -209.0487
  20   2.0000      -7.682127      -209.0413
  21   2.0000      -7.622672      -207.4234
  22   2.0000      -7.618226      -207.3025
  23   2.0000      -6.417700      -174.6345
  24   2.0000      -6.417612      -174.6321
  25   2.0000      -5.710215      -155.3828
  26   2.0000      -5.709953      -155.3757
  27   2.0000      -5.706873      -155.2919
  28   2.0000      -5.706581      -155.2840
  29   2.0000      -5.699398      -155.0885
  30   2.0000      -5.699207      -155.0833
  31   2.0000      -5.651600      -153.7879
  32   2.0000      -5.647220      -153.6687
  33   2.0000      -5.643362      -153.5637
  34   2.0000      -5.642735      -153.5466
  35   2.0000      -5.638940      -153.4433
  36   2.0000      -5.638167      -153.4223
  37   2.0000      -4.640802      -126.2826
  38   2.0000      -4.640487      -126.2741
  39   2.0000      -4.639439      -126.2456
  40   2.0000      -4.639106      -126.2365
  41   2.0000      -4.638139      -126.2102
  42   2.0000      -4.637691      -126.1980
  43   2.0000      -0.986345       -26.8398
  44   2.0000      -0.980893       -26.6915
  45   2.0000      -0.941918       -25.6309
  46   2.0000      -0.935567       -25.4581
  47   2.0000      -0.758032       -20.6271
  48   2.0000      -0.717934       -19.5360
  49   2.0000      -0.706628       -19.2283
  50   2.0000      -0.691572       -18.8186
  51   2.0000      -0.682320       -18.5669
  52   2.0000      -0.669936       -18.2299
  53   2.0000      -0.645313       -17.5599
  54   2.0000      -0.627082       -17.0638
  55   2.0000      -0.589990       -16.0544
  56   2.0000      -0.584763       -15.9122
  57   2.0000      -0.572531       -15.5794
  58   2.0000      -0.568901       -15.4806
  59   2.0000      -0.559179       -15.2160
  60   2.0000      -0.504925       -13.7397
  61   2.0000      -0.496360       -13.5067
  62   2.0000      -0.472026       -12.8445
  63   2.0000      -0.465483       -12.6664
  64   2.0000      -0.445383       -12.1195
  65   2.0000      -0.444577       -12.0976
  66   2.0000      -0.440369       -11.9831
  67   2.0000      -0.431230       -11.7344
  68   2.0000      -0.428550       -11.6615
  69   2.0000      -0.410446       -11.1688
  70   2.0000      -0.404793       -11.0150
  71   2.0000      -0.399929       -10.8826
  72   2.0000      -0.395943       -10.7742
  73   2.0000      -0.382393       -10.4054
  74   2.0000      -0.375373       -10.2144
  75   2.0000      -0.365843        -9.9551
  76   2.0000      -0.363098        -9.8804
  77   2.0000      -0.352868        -9.6020
  78   2.0000      -0.349517        -9.5109
  79   2.0000      -0.347360        -9.4521
  80   2.0000      -0.341842        -9.3020
  81   2.0000      -0.338133        -9.2011
  82   2.0000      -0.336365        -9.1530
  83   2.0000      -0.329845        -8.9755
  84   2.0000      -0.327240        -8.9046
  85   2.0000      -0.319350        -8.6899
  86   2.0000      -0.311098        -8.4654
  87   2.0000      -0.301483        -8.2038
  88   2.0000      -0.294002        -8.0002
  89   2.0000      -0.293069        -7.9748
  90   2.0000      -0.275609        -7.4997
  91   2.0000      -0.271540        -7.3890
  92   2.0000      -0.268679        -7.3111
  93   2.0000      -0.257249        -7.0001
  94   2.0000      -0.252920        -6.8823
  95   2.0000      -0.231146        -6.2898
  96   2.0000      -0.218098        -5.9348
  97   2.0000      -0.207685        -5.6514
  98   2.0000      -0.194123        -5.2824
  99   2.0000      -0.183510        -4.9936
 100   2.0000      -0.178210        -4.8493
 101   0.0000      -0.038776        -1.0551
 102   0.0000      -0.028525        -0.7762
 103   0.0000      -0.000981        -0.0267
 104   0.0000       0.015477         0.4212
 105   0.0000       0.019753         0.5375

MULLIKEN ATOMIC CHARGES
-----------------------
   0 C :   -0.325698
   1 C :    0.010220
   2 O :   -0.350322
   3 P :    0.621121
   4 S :   -0.312610
   5 O :   -0.387035
   6 C :   -0.002486
   7 C :   -0.292981
   8 S :   -0.099392
   9 C :   -0.354065
  10 S :   -0.119486
  11 P :    0.601074
  12 S :   -0.296378
  13 O :   -0.390085
  14 C :   -0.011475
  15 C :   -0.280673
  16 O :   -0.346559
  17 C :    0.007588
  18 C :   -0.318927
  19 H :    0.137371
  20 H :    0.125829
  21 H :    0.105076
  22 H :    0.102099
  23 H :    0.104126
  24 H :    0.099500
  25 H :    0.103704
  26 H :    0.109893
  27 H :    0.129171
  28 H :    0.107727
  29 H :    0.210095
  30 H :    0.179157
  31 H :    0.105240
  32 H :    0.107607
  33 H :    0.113178
  34 H :    0.113533
  35 H :    0.120926
  36 H :    0.108136
  37 H :    0.106569
  38 H :    0.120987
  39 H :    0.109280
  40 H :    0.128968
Sum of atomic charges:    0.0000000

LOEWDIN ATOMIC CHARGES
----------------------
   0 C :   -0.369637
   1 C :   -0.106952
   2 O :   -0.229376
   3 P :    0.569857
   4 S :   -0.303519
   5 O :   -0.252590
   6 C :   -0.117232
   7 C :   -0.361672
   8 S :    0.075354
   9 C :   -0.480807
  10 S :    0.062915
  11 P :    0.560959
  12 S :   -0.301449
  13 O :   -0.253340
  14 C :   -0.120266
  15 C :   -0.350561
  16 O :   -0.227585
  17 C :   -0.105861
  18 C :   -0.371098
  19 H :    0.132944
  20 H :    0.119847
  21 H :    0.126771
  22 H :    0.109270
  23 H :    0.120101
  24 H :    0.107913
  25 H :    0.116580
  26 H :    0.123255
  27 H :    0.125444
  28 H :    0.128916
  29 H :    0.125435
  30 H :    0.136255
  31 H :    0.109086
  32 H :    0.110639
  33 H :    0.124987
  34 H :    0.131760
  35 H :    0.129161
  36 H :    0.113387
  37 H :    0.121115
  38 H :    0.116832
  39 H :    0.129047
  40 H :    0.124115

  Mayer bond orders larger than 0.100000
B(  0-C ,  1-C ) :   1.1670 B(  0-C , 19-H ) :   0.9403 B(  0-C , 20-H ) :   0.9350
B(  0-C , 21-H ) :   0.9355 B(  1-C ,  2-O ) :   0.9070 B(  1-C , 22-H ) :   0.9314
B(  1-C , 23-H ) :   0.9323 B(  2-O ,  3-P ) :   1.1456 B(  3-P ,  4-S ) :   1.6003
B(  3-P ,  5-O ) :   1.0779 B(  3-P ,  8-S ) :   0.9646 B(  4-S ,  8-S ) :   0.1222
B(  5-O ,  6-C ) :   0.9031 B(  6-C ,  7-C ) :   1.1683 B(  6-C , 24-H ) :   0.9106
B(  6-C , 25-H ) :   0.9352 B(  7-C , 26-H ) :   0.9476 B(  7-C , 27-H ) :   0.9331
B(  7-C , 28-H ) :   0.9402 B(  8-S ,  9-C ) :   0.9990 B(  9-C , 10-S ) :   1.0044
B(  9-C , 29-H ) :   0.8432 B(  9-C , 30-H ) :   0.9120 B( 10-S , 11-P ) :   0.9343
B( 10-S , 12-S ) :   0.1079 B( 11-P , 12-S ) :   1.6707 B( 11-P , 13-O ) :   1.0683
B( 11-P , 16-O ) :   1.1432 B( 13-O , 14-C ) :   0.9031 B( 14-C , 15-C ) :   1.1594
B( 14-C , 31-H ) :   0.9292 B( 14-C , 32-H ) :   0.9085 B( 15-C , 33-H ) :   0.9512
B( 15-C , 34-H ) :   0.9419 B( 15-C , 35-H ) :   0.9508 B( 16-O , 17-C ) :   0.8981
B( 17-C , 18-C ) :   1.1706 B( 17-C , 36-H ) :   0.9282 B( 17-C , 37-H ) :   0.9343
B( 18-C , 38-H ) :   0.9393 B( 18-C , 39-H ) :   0.9351 B( 18-C , 40-H ) :   0.9381

Dispersion correction           -0.067231060
FINAL SINGLE POINT ENERGY     -2929.512550668664

DIPOLE MOMENT
-------------

Method             : SCF
Type of density    : Electron Density
Multiplicity       :   1
Irrep              :   0
Energy             : -2929.6303660071221202 Eh
Relativity type    :
Basis              : AO
                                X                 Y                 Z
Electronic contribution:     -0.678851986       1.045284893      10.259530774
Nuclear contribution   :     -0.027505216      -2.085701101     -10.995977238
                        -----------------------------------------
Total Dipole Moment    :     -0.706357202      -1.040416209      -0.736446464
                        -----------------------------------------
Magnitude (a.u.)       :      1.457312519
Magnitude (Debye)      :      3.704194046

Rotational constants in cm-1:             0.013916             0.005053             0.004809
Rotational constants in MHz :           417.199701           151.483266           144.161934

                             ****ORCA TERMINATED NORMALLY****
TOTAL RUN TIME: 0 days 0 hours 0 minutes 21 seconds 520 msec
