                         Program Version 6.0.0  -   RELEASE  -
|  1> ! wb97x-v def2-tzvp def2/J RIJCOSX DEFGRID2 scfconv7 GCP(DFT/TZ) printgap
|  2> %output
|  3>     printlevel normal
|  4> end
|  5> * xyz 0 1
|  6> C 0.0011905023780813498 -2.4191432415379652 0.05757280609153432
|  7> C 1.2024158254120239 -1.722853342789601 0.10829682409536391
|  8> C 1.1917005243815297 -0.32874288070731533 0.08134963225072937
|  9> C -0.003405057817164415 0.37762052698927717 0.006343516140724233
| 10> C -1.1970803186222252 -0.33544524644949475 -0.03971839691889522
| 11> C -1.2031274436019 -1.7290369958785632 -0.018195798694003583
| 12> C -2.506384477043173 0.3867525897168849 -0.15007151758994336
| 13> F -3.4336430337172175 -0.11262357973859188 0.7058599011133412
| 14> F -2.400505296812664 1.7085967981233663 0.10864550908612168
| 15> F -3.040605830002072 0.27367727198251696 -1.3975569123025375
| 16> C 2.5049748295449756 0.3926558115625464 0.13459270113452534
| 17> F 2.37067526381976 1.735919297615133 0.1053863718950391
| 18> F 3.2023315290295002 0.08866990916581334 1.261562954069321
| 19> F 3.30788655679646 0.052953225897798564 -0.9093339874466736
| 20> H 0.002914476347971149 -3.503039106482295 0.0779897037224609
| 21> H 2.142782571231735 -2.2612756466416024 0.16861415614596198
| 22> H -0.0054907810285081205 1.459999280647634 -0.014487523453287287
| 23> H -2.141224905642159 -2.2728091892713103 -0.058527136785889874
| 24> *
| 25>
| 26>                          ****END OF INPUT****

CARTESIAN COORDINATES (ANGSTROEM)
---------------------------------
  C      0.001191   -2.419143    0.057573
  C      1.202416   -1.722853    0.108297
  C      1.191701   -0.328743    0.081350
  C     -0.003405    0.377621    0.006344
  C     -1.197080   -0.335445   -0.039718
  C     -1.203127   -1.729037   -0.018196
  C     -2.506384    0.386753   -0.150072
  F     -3.433643   -0.112624    0.705860
  F     -2.400505    1.708597    0.108646
  F     -3.040606    0.273677   -1.397557
  C      2.504975    0.392656    0.134593
  F      2.370675    1.735919    0.105386
  F      3.202332    0.088670    1.261563
  F      3.307887    0.052953   -0.909334
  H      0.002914   -3.503039    0.077990
  H      2.142783   -2.261276    0.168614
  H     -0.005491    1.459999   -0.014488
  H     -2.141225   -2.272809   -0.058527

 Total Charge           Charge          ....    0
 Multiplicity           Mult            ....    1
 Number of Electrons    NEL             ....  106
 Basis Dimension        Dim             ....  458

ORBITAL ENERGIES
----------------

  NO   OCC          E(Eh)            E(eV)
   0   2.0000     -27.609560      -751.2943
   1   2.0000     -27.608993      -751.2789
   2   2.0000     -27.605145      -751.1742
   3   2.0000     -27.603510      -751.1297
   4   2.0000     -27.603245      -751.1225
   5   2.0000     -27.602090      -751.0910
   6   2.0000     -12.314139      -335.0847
   7   2.0000     -12.314056      -335.0825
   8   2.0000     -12.105716      -329.4133
   9   2.0000     -12.105676      -329.4122
  10   2.0000     -12.099727      -329.2503
  11   2.0000     -12.097212      -329.1819
  12   2.0000     -12.097169      -329.1807
  13   2.0000     -12.090327      -328.9945
  14   2.0000      -2.066203       -56.2242
  15   2.0000      -2.066174       -56.2234
  16   2.0000      -2.019982       -54.9665
  17   2.0000      -2.019908       -54.9645
  18   2.0000      -2.014326       -54.8126
  19   2.0000      -2.014146       -54.8077
  20   2.0000      -1.447826       -39.3974
  21   2.0000      -1.409555       -38.3559
  22   2.0000      -1.384805       -37.6825
  23   2.0000      -1.323425       -36.0122
  24   2.0000      -1.322365       -35.9834
  25   2.0000      -1.264353       -34.4048
  26   2.0000      -1.264070       -34.3971
  27   2.0000      -1.258462       -34.2445
  28   2.0000      -1.258238       -34.2384
  29   2.0000      -1.217828       -33.1388
  30   2.0000      -1.216683       -33.1076
  31   2.0000      -1.172319       -31.9004
  32   2.0000      -1.170604       -31.8537
  33   2.0000      -1.170299       -31.8455
  34   2.0000      -1.170103       -31.8401
  35   2.0000      -1.158600       -31.5271
  36   2.0000      -1.156655       -31.4742
  37   2.0000      -1.155420       -31.4406
  38   2.0000      -1.154664       -31.4200
  39   2.0000      -1.151203       -31.3258
  40   2.0000      -1.151126       -31.3237
  41   2.0000      -1.145768       -31.1779
  42   2.0000      -1.142569       -31.0909
  43   2.0000      -1.049249       -28.5515
  44   2.0000      -1.002571       -27.2813
  45   2.0000      -0.985202       -26.8087
  46   2.0000      -0.979303       -26.6482
  47   2.0000      -0.925436       -25.1824
  48   2.0000      -0.876541       -23.8519
  49   2.0000      -0.863228       -23.4896
  50   2.0000      -0.823672       -22.4133
  51   2.0000      -0.700957       -19.0740
  52   2.0000      -0.687505       -18.7080
  53   0.0000      -0.332976        -9.0607
  54   0.0000      -0.308540        -8.3958
  55   0.0000      -0.288998        -7.8640
  56   0.0000      -0.283017        -7.7013
  57   0.0000      -0.256593        -6.9823

MULLIKEN ATOMIC CHARGES
-----------------------
   0 C :   -0.088895
   1 C :   -0.199634
   2 C :    0.123147
   3 C :   -0.292832
   4 C :    0.126051
   5 C :   -0.196915
   6 C :    0.440395
   7 F :   -0.163020
   8 F :   -0.159821
   9 F :   -0.160632
  10 C :    0.442404
  11 F :   -0.159332
  12 F :   -0.161989
  13 F :   -0.162054
  14 H :    0.137836
  15 H :    0.148776
  16 H :    0.176028
  17 H :    0.150485
Sum of atomic charges:    0.0000000

LOEWDIN ATOMIC CHARGES
----------------------
   0 C :   -0.115332
   1 C :   -0.069858
   2 C :   -0.123372
   3 C :   -0.042331
   4 C :   -0.123191
   5 C :   -0.070303
   6 C :   -0.595012
   7 F :    0.183504
   8 F :    0.193777
   9 F :    0.175861
  10 C :   -0.594930
  11 F :    0.195021
  12 F :    0.179340
  13 F :    0.178823
  14 H :    0.149792
  15 H :    0.157772
  16 H :    0.162896
  17 H :    0.157542

  Mayer bond orders larger than 0.100000
B(  0-C ,  1-C ) :   1.4275 B(  0-C ,  5-C ) :   1.4192 B(  0-C , 14-H ) :   0.9686
B(  1-C ,  2-C ) :   1.4001 B(  1-C , 15-H ) :   0.9553 B(  2-C ,  3-C ) :   1.3724
B(  2-C , 10-C ) :   1.0059 B(  3-C ,  4-C ) :   1.3694 B(  3-C , 16-H ) :   0.9383
B(  4-C ,  5-C ) :   1.4040 B(  4-C ,  6-C ) :   1.0049 B(  5-C , 17-H ) :   0.9544
B(  6-C ,  7-F ) :   1.1605 B(  6-C ,  8-F ) :   1.1624 B(  6-C ,  9-F ) :   1.1687
B( 10-C , 11-F ) :   1.1644 B( 10-C , 12-F ) :   1.1652 B( 10-C , 13-F ) :   1.1653

FINAL SINGLE POINT ENERGY      -906.429750718516

DIPOLE MOMENT
-------------

Method             : SCF
Type of density    : Electron Density
Multiplicity       :   1
Irrep              :   0
Energy             :  -906.4484384903162209 Eh
Relativity type    :
Basis              : AO
                                X                 Y                 Z
Electronic contribution:      0.001588026       8.590192009      -0.232243735
Nuclear contribution   :     -0.006653015      -9.642725048       0.278706563
                        -----------------------------------------
Total Dipole Moment    :     -0.005064989      -1.052533039       0.046462828
                        -----------------------------------------
Magnitude (a.u.)       :      1.053570239
Magnitude (Debye)      :      2.677962725

Rotational constants in cm-1:             0.044452             0.012568             0.010940
Rotational constants in MHz :          1332.625912           376.781170           327.967451

                             ****ORCA TERMINATED NORMALLY****
TOTAL RUN TIME: 0 days 0 hours 4 minutes 40 seconds 979 msec
