                         Program Version 6.0.0  -   RELEASE  -
|  1> ! wb97x-v def2-tzvp def2/J RIJCOSX DEFGRID2 scfconv7 GCP(DFT/TZ) printgap
|  2> %output
|  3>     printlevel normal
|  4> end
|  5> %cpcm
|  6>     smd true
|  7>     smdsolvent "water"
|  8> end
|  9> * xyz 0 1
| 10> C 0.0011905023780813498 -2.4191432415379652 0.05757280609153432
| 11> C 1.2024158254120239 -1.722853342789601 0.10829682409536391
| 12> C 1.1917005243815297 -0.32874288070731533 0.08134963225072937
| 13> C -0.003405057817164415 0.37762052698927717 0.006343516140724233
| 14> C -1.1970803186222252 -0.33544524644949475 -0.03971839691889522
| 15> C -1.2031274436019 -1.7290369958785632 -0.018195798694003583
| 16> C -2.506384477043173 0.3867525897168849 -0.15007151758994336
| 17> F -3.4336430337172175 -0.11262357973859188 0.7058599011133412
| 18> F -2.400505296812664 1.7085967981233663 0.10864550908612168
| 19> F -3.040605830002072 0.27367727198251696 -1.3975569123025375
| 20> C 2.5049748295449756 0.3926558115625464 0.13459270113452534
| 21> F 2.37067526381976 1.735919297615133 0.1053863718950391
| 22> F 3.2023315290295002 0.08866990916581334 1.261562954069321
| 23> F 3.30788655679646 0.052953225897798564 -0.9093339874466736
| 24> H 0.002914476347971149 -3.503039106482295 0.0779897037224609
| 25> H 2.142782571231735 -2.2612756466416024 0.16861415614596198
| 26> H -0.0054907810285081205 1.459999280647634 -0.014487523453287287
| 27> H -2.141224905642159 -2.2728091892713103 -0.058527136785889874
| 28> *
| 29>
| 30>                          ****END OF INPUT****

CARTESIAN COORDINATES (ANGSTROEM)
---------------------------------
  C      0.001191   -2.419143    0.057573
  C      1.202416   -1.722853    0.108297
  C      1.191701   -0.328743    0.081350
  C     -0.003405    0.377621    0.006344
  C     -1.197080   -0.335445   -0.039718
  C     -1.203127   -1.729037   -0.018196
  C     -2.506384    0.386753   -0.150072
  F     -3.433643   -0.112624    0.705860
  F     -2.400505    1.708597    0.108646
  F     -3.040606    0.273677   -1.397557
  C      2.504975    0.392656    0.134593
  F      2.370675    1.735919    0.105386
  F      3.202332    0.088670    1.261563
  F      3.307887    0.052953   -0.909334
  H      0.002914   -3.503039    0.077990
  H      2.142783   -2.261276    0.168614
  H     -0.005491    1.459999   -0.014488
  H     -2.141225   -2.272809   -0.058527

 Total Charge           Charge          ....    0
 Multiplicity           Mult            ....    1
 Number of Electrons    NEL             ....  106
 Basis Dimension        Dim             ....  458

ORBITAL ENERGIES
----------------

  NO   OCC          E(Eh)            E(eV)
   0   2.0000     -27.606269      -751.2048
   1   2.0000     -27.605770      -751.1912
   2   2.0000     -27.602510      -751.1025
   3   2.0000     -27.601432      -751.0732
   4   2.0000     -27.601214      -751.0672
   5   2.0000     -27.600508      -751.0480
   6   2.0000     -12.308536      -334.9323
   7   2.0000     -12.308447      -334.9299
   8   2.0000     -12.088982      -328.9579
   9   2.0000     -12.088948      -328.9570
  10   2.0000     -12.082442      -328.7800
  11   2.0000     -12.076989      -328.6316
  12   2.0000     -12.076931      -328.6300
  13   2.0000     -12.067752      -328.3802
  14   2.0000      -2.063738       -56.1572
  15   2.0000      -2.063697       -56.1561
  16   2.0000      -2.017359       -54.8951
  17   2.0000      -2.017290       -54.8932
  18   2.0000      -2.012712       -54.7687
  19   2.0000      -2.012524       -54.7636
  20   2.0000      -1.433255       -39.0008
  21   2.0000      -1.403594       -38.1937
  22   2.0000      -1.377354       -37.4797
  23   2.0000      -1.310607       -35.6634
  24   2.0000      -1.304866       -35.5072
  25   2.0000      -1.261746       -34.3339
  26   2.0000      -1.261590       -34.3296
  27   2.0000      -1.256976       -34.2040
  28   2.0000      -1.256782       -34.1988
  29   2.0000      -1.211862       -32.9764
  30   2.0000      -1.207801       -32.8659
  31   2.0000      -1.169450       -31.8223
  32   2.0000      -1.168544       -31.7977
  33   2.0000      -1.168359       -31.7927
  34   2.0000      -1.168076       -31.7850
  35   2.0000      -1.155557       -31.4443
  36   2.0000      -1.154652       -31.4197
  37   2.0000      -1.153669       -31.3929
  38   2.0000      -1.153084       -31.3770
  39   2.0000      -1.149856       -31.2892
  40   2.0000      -1.149757       -31.2865
  41   2.0000      -1.131566       -30.7915
  42   2.0000      -1.129697       -30.7406
  43   2.0000      -1.036625       -28.2080
  44   2.0000      -0.984520       -26.7901
  45   2.0000      -0.965170       -26.2636
  46   2.0000      -0.964013       -26.2321
  47   2.0000      -0.903103       -24.5747
  48   2.0000      -0.854744       -23.2588
  49   2.0000      -0.841304       -22.8930
  50   2.0000      -0.806235       -21.9388
  51   2.0000      -0.684472       -18.6254
  52   2.0000      -0.668199       -18.1826
  53   0.0000      -0.317714        -8.6454
  54   0.0000      -0.294405        -8.0112
  55   0.0000      -0.285075        -7.7573
  56   0.0000      -0.279685        -7.6106
  57   0.0000      -0.248766        -6.7693

MULLIKEN ATOMIC CHARGES
-----------------------
   0 C :   -0.126815
   1 C :   -0.225248
   2 C :    0.136826
   3 C :   -0.304499
   4 C :    0.138784
   5 C :   -0.221242
   6 C :    0.454157
   7 F :   -0.174852
   8 F :   -0.169563
   9 F :   -0.175813
  10 C :    0.456332
  11 F :   -0.168739
  12 F :   -0.175809
  13 F :   -0.175961
  14 H :    0.176266
  15 H :    0.183729
  16 H :    0.189031
  17 H :    0.183416
Sum of atomic charges:    0.0000000

LOEWDIN ATOMIC CHARGES
----------------------
   0 C :   -0.111657
   1 C :   -0.066855
   2 C :   -0.130002
   3 C :   -0.039857
   4 C :   -0.129738
   5 C :   -0.066922
   6 C :   -0.590567
   7 F :    0.176493
   8 F :    0.188127
   9 F :    0.166701
  10 C :   -0.590494
  11 F :    0.189607
  12 F :    0.171179
  13 F :    0.170568
  14 H :    0.160659
  15 H :    0.167519
  16 H :    0.168222
  17 H :    0.167018

  Mayer bond orders larger than 0.100000
B(  0-C ,  1-C ) :   1.4155 B(  0-C ,  5-C ) :   1.4082 B(  0-C , 14-H ) :   0.9714
B(  1-C ,  2-C ) :   1.3578 B(  1-C , 15-H ) :   0.9610 B(  2-C ,  3-C ) :   1.3556
B(  2-C , 10-C ) :   1.0094 B(  3-C ,  4-C ) :   1.3540 B(  3-C , 16-H ) :   0.9490
B(  4-C ,  5-C ) :   1.3609 B(  4-C ,  6-C ) :   1.0082 B(  5-C , 17-H ) :   0.9612
B(  6-C ,  7-F ) :   1.1551 B(  6-C ,  8-F ) :   1.1593 B(  6-C ,  9-F ) :   1.1593
B( 10-C , 11-F ) :   1.1613 B( 10-C , 12-F ) :   1.1573 B( 10-C , 13-F ) :   1.1573

FINAL SINGLE POINT ENERGY      -906.429167321142

DIPOLE MOMENT
-------------

Method             : SCF
Type of density    : Electron Density
Multiplicity       :   1
Irrep              :   0
Energy             :  -906.4478550929425182 Eh
Relativity type    :
Basis              : AO
                                X                 Y                 Z
Electronic contribution:      0.000522076       8.293725991      -0.221479925
Nuclear contribution   :     -0.006653015      -9.642725048       0.278706563
                        -----------------------------------------
Total Dipole Moment    :     -0.006130939      -1.348999057       0.057226637
                        -----------------------------------------
Magnitude (a.u.)       :      1.350226252
Magnitude (Debye)      :      3.432002388

Rotational constants in cm-1:             0.044452             0.012568             0.010940
Rotational constants in MHz :          1332.625912           376.781170           327.967451

                             ****ORCA TERMINATED NORMALLY****
TOTAL RUN TIME: 0 days 0 hours 5 minutes 6 seconds 640 msec
