                         Program Version 6.0.1  -  RELEASE   -
|  1> ! pbe def2-sv(p) def2/J RI DEFGRID1 loosescf d4 GCP(DFT/SV(P)) printgap
|  2> %output
|  3>     printlevel normal
|  4> end
|  5> * xyz 0 1
|  6> C 5.0022723815 -1.0649043077 -1.1269069772
|  7> C 4.1965098311 -2.3286889873 -1.3811629841
|  8> O 2.858101326 -1.9919092873 -1.7990408631
|  9> C 1.926908226 -1.8498787564 -0.8852272332
| 10> O 2.0817633254 -2.0318706159 0.3045770797
| 11> C 0.6164195717 -1.3743029842 -1.4860170214
| 12> C 0.5262992328 0.1407375972 -1.2566401892
| 13> H 1.1833403173 0.6867311327 -1.9343043052
| 14> C 0.8660762709 0.4712954405 0.1803925046
| 15> O 0.0814323625 0.2466525531 1.0812312955
| 16> O 2.0502634589 0.9979118445 0.3180964048
| 17> C 2.4790366908 1.3650274465 1.6501494407
| 18> C 1.8654540196 2.6873272391 2.0782009131
| 19> S -1.1621579683 0.7569870574 -1.5527082859
| 20> P -2.2126391494 0.5318490689 0.2991497313
| 21> S -2.1382054641 1.8443949368 1.753270531
| 22> O -3.6711556414 0.732423787 -0.3261044201
| 23> C -4.269530726 -0.1206144113 -1.317840407
| 24> O -2.2617965147 -1.0362095159 0.6503799808
| 25> C -1.768239282 -1.6203752679 1.8549682895
| 26> H 4.5452718549 -0.4877251981 -0.3259082427
| 27> H 6.0124156159 -1.3344391483 -0.8373388604
| 28> H 5.0364798568 -0.4546818096 -2.0248247601
| 29> H 4.1365156916 -2.9425468655 -0.4781885796
| 30> H 4.6085648867 -2.9059522674 -2.2086804379
| 31> H -0.2061103624 -1.871374062 -0.9694098363
| 32> H 0.5803215986 -1.5889294857 -2.5517924598
| 33> H 2.1981199347 0.5605376654 2.3348457945
| 34> H 3.5634776062 1.4370379999 1.5682896459
| 35> H 2.2590613837 2.9627169248 3.0507852528
| 36> H 2.1085389321 3.4651641394 1.3595006595
| 37> H 0.7823347755 2.6022369264 2.1535973614
| 38> H -5.3243766773 0.1426085473 -1.3171882181
| 39> H -4.1353659214 -1.1660365075 -1.0459809108
| 40> H -3.8260826684 0.0785374246 -2.2923169186
| 41> H -2.4612887666 -2.4202568604 2.1063022534
| 42> H -1.7371243587 -0.8759895633 2.6515304408
| 43> H -0.7646851703 -2.0135841792 1.6914156637
| 44> *
| 45>
| 46>                          ****END OF INPUT****

CARTESIAN COORDINATES (ANGSTROEM)
---------------------------------
  C      5.002272   -1.064904   -1.126907
  C      4.196510   -2.328689   -1.381163
  O      2.858101   -1.991909   -1.799041
  C      1.926908   -1.849879   -0.885227
  O      2.081763   -2.031871    0.304577
  C      0.616420   -1.374303   -1.486017
  C      0.526299    0.140738   -1.256640
  H      1.183340    0.686731   -1.934304
  C      0.866076    0.471295    0.180393
  O      0.081432    0.246653    1.081231
  O      2.050263    0.997912    0.318096
  C      2.479037    1.365027    1.650149
  C      1.865454    2.687327    2.078201
  S     -1.162158    0.756987   -1.552708
  P     -2.212639    0.531849    0.299150
  S     -2.138205    1.844395    1.753271
  O     -3.671156    0.732424   -0.326104
  C     -4.269531   -0.120614   -1.317840
  O     -2.261797   -1.036210    0.650380
  C     -1.768239   -1.620375    1.854968
  H      4.545272   -0.487725   -0.325908
  H      6.012416   -1.334439   -0.837339
  H      5.036480   -0.454682   -2.024825
  H      4.136516   -2.942547   -0.478189
  H      4.608565   -2.905952   -2.208680
  H     -0.206110   -1.871374   -0.969410
  H      0.580322   -1.588929   -2.551792
  H      2.198120    0.560538    2.334846
  H      3.563478    1.437038    1.568290
  H      2.259061    2.962717    3.050785
  H      2.108539    3.465164    1.359501
  H      0.782335    2.602237    2.153597
  H     -5.324377    0.142609   -1.317188
  H     -4.135366   -1.166037   -1.045981
  H     -3.826083    0.078537   -2.292317
  H     -2.461289   -2.420257    2.106302
  H     -1.737124   -0.875990    2.651530
  H     -0.764685   -2.013584    1.691416

 Total Charge           Charge          ....    0
 Multiplicity           Mult            ....    1
 Number of Electrons    NEL             ....  174
 Basis Dimension        Dim             ....  316

ORBITAL ENERGIES
----------------

  NO   OCC          E(Eh)            E(eV)
   0   2.0000     -88.036575     -2395.5970
   1   2.0000     -87.962250     -2393.5745
   2   2.0000     -76.417260     -2079.4194
   3   2.0000     -18.822522      -512.1869
   4   2.0000     -18.818881      -512.0878
   5   2.0000     -18.781093      -511.0595
   6   2.0000     -18.771888      -510.8090
   7   2.0000     -18.762960      -510.5661
   8   2.0000     -18.752228      -510.2741
   9   2.0000     -10.027933      -272.8739
  10   2.0000     -10.023720      -272.7593
  11   2.0000      -9.960135      -271.0291
  12   2.0000      -9.957380      -270.9541
  13   2.0000      -9.954781      -270.8834
  14   2.0000      -9.934937      -270.3434
  15   2.0000      -9.929608      -270.1984
  16   2.0000      -9.919471      -269.9225
  17   2.0000      -9.899065      -269.3673
  18   2.0000      -9.882293      -268.9109
  19   2.0000      -7.681542      -209.0254
  20   2.0000      -7.607597      -207.0132
  21   2.0000      -6.412532      -174.4939
  22   2.0000      -5.709816      -155.3720
  23   2.0000      -5.705703      -155.2601
  24   2.0000      -5.698466      -155.0631
  25   2.0000      -5.637105      -153.3934
  26   2.0000      -5.628217      -153.1516
  27   2.0000      -5.627096      -153.1211
  28   2.0000      -4.635690      -126.1435
  29   2.0000      -4.634382      -126.1080
  30   2.0000      -4.632884      -126.0672
  31   2.0000      -1.033229       -28.1156
  32   2.0000      -1.025851       -27.9148
  33   2.0000      -0.968441       -26.3526
  34   2.0000      -0.941231       -25.6122
  35   2.0000      -0.929998       -25.3065
  36   2.0000      -0.924318       -25.1520
  37   2.0000      -0.771698       -20.9990
  38   2.0000      -0.722048       -19.6479
  39   2.0000      -0.708998       -19.2928
  40   2.0000      -0.690083       -18.7781
  41   2.0000      -0.660178       -17.9644
  42   2.0000      -0.626371       -17.0444
  43   2.0000      -0.622790       -16.9470
  44   2.0000      -0.606063       -16.4918
  45   2.0000      -0.601236       -16.3604
  46   2.0000      -0.569896       -15.5077
  47   2.0000      -0.514028       -13.9874
  48   2.0000      -0.511309       -13.9134
  49   2.0000      -0.500891       -13.6299
  50   2.0000      -0.487070       -13.2538
  51   2.0000      -0.467202       -12.7132
  52   2.0000      -0.465713       -12.6727
  53   2.0000      -0.459094       -12.4926
  54   2.0000      -0.447608       -12.1800
  55   2.0000      -0.435341       -11.8462
  56   2.0000      -0.425840       -11.5877
  57   2.0000      -0.424201       -11.5431
  58   2.0000      -0.415838       -11.3155
  59   2.0000      -0.408909       -11.1270
  60   2.0000      -0.403820       -10.9885
  61   2.0000      -0.397654       -10.8207
  62   2.0000      -0.392397       -10.6777
  63   2.0000      -0.390578       -10.6282
  64   2.0000      -0.382244       -10.4014
  65   2.0000      -0.369263       -10.0482
  66   2.0000      -0.360560        -9.8113
  67   2.0000      -0.357792        -9.7360
  68   2.0000      -0.352402        -9.5893
  69   2.0000      -0.345915        -9.4128
  70   2.0000      -0.338148        -9.2015
  71   2.0000      -0.336848        -9.1661
  72   2.0000      -0.325011        -8.8440
  73   2.0000      -0.309768        -8.4292
  74   2.0000      -0.305620        -8.3163
  75   2.0000      -0.299337        -8.1454
  76   2.0000      -0.293431        -7.9847
  77   2.0000      -0.283165        -7.7053
  78   2.0000      -0.278180        -7.5697
  79   2.0000      -0.274443        -7.4680
  80   2.0000      -0.258371        -7.0306
  81   2.0000      -0.253616        -6.9012
  82   2.0000      -0.243994        -6.6394
  83   2.0000      -0.237173        -6.4538
  84   2.0000      -0.219876        -5.9831
  85   2.0000      -0.182430        -4.9642
  86   2.0000      -0.172308        -4.6887
  87   0.0000      -0.055749        -1.5170
  88   0.0000      -0.045465        -1.2372
  89   0.0000      -0.023723        -0.6455
  90   0.0000       0.011995         0.3264
  91   0.0000       0.029980         0.8158

MULLIKEN ATOMIC CHARGES
-----------------------
   0 C :   -0.313132
   1 C :   -0.019073
   2 O :   -0.220045
   3 C :    0.096319
   4 O :   -0.209749
   5 C :   -0.024370
   6 C :   -0.300798
   7 H :    0.137612
   8 C :    0.213993
   9 O :   -0.196601
  10 O :   -0.217631
  11 C :   -0.018578
  12 C :   -0.321559
  13 S :   -0.100894
  14 P :    0.636582
  15 S :   -0.306075
  16 O :   -0.377471
  17 C :   -0.110165
  18 O :   -0.402347
  19 C :   -0.098174
  20 H :    0.131794
  21 H :    0.117177
  22 H :    0.117354
  23 H :    0.114453
  24 H :    0.109424
  25 H :    0.129204
  26 H :    0.110717
  27 H :    0.120196
  28 H :    0.106533
  29 H :    0.112892
  30 H :    0.112200
  31 H :    0.156125
  32 H :    0.125074
  33 H :    0.115873
  34 H :    0.118250
  35 H :    0.113504
  36 H :    0.120151
  37 H :    0.121239
Sum of atomic charges:    0.0000000

LOEWDIN ATOMIC CHARGES
----------------------
   0 C :   -0.355733
   1 C :   -0.110685
   2 O :   -0.050734
   3 C :    0.027502
   4 O :   -0.168084
   5 C :   -0.242657
   6 C :   -0.259133
   7 H :    0.141712
   8 C :    0.018601
   9 O :   -0.140065
  10 O :   -0.034294
  11 C :   -0.104831
  12 C :   -0.362500
  13 S :    0.099524
  14 P :    0.583117
  15 S :   -0.313916
  16 O :   -0.259213
  17 C :   -0.216504
  18 O :   -0.262197
  19 C :   -0.215989
  20 H :    0.129071
  21 H :    0.132793
  22 H :    0.126603
  23 H :    0.122438
  24 H :    0.120716
  25 H :    0.144565
  26 H :    0.137457
  27 H :    0.126408
  28 H :    0.117133
  29 H :    0.132481
  30 H :    0.125101
  31 H :    0.133690
  32 H :    0.122507
  33 H :    0.110512
  34 H :    0.106327
  35 H :    0.114915
  36 H :    0.112145
  37 H :    0.111218

  Mayer bond orders larger than 0.100000
B(  0-C ,  1-C ) :   1.1746 B(  0-C , 20-H ) :   0.9411 B(  0-C , 21-H ) :   0.9427
B(  0-C , 22-H ) :   0.9484 B(  1-C ,  2-O ) :   0.9034 B(  1-C , 23-H ) :   0.9112
B(  1-C , 24-H ) :   0.9366 B(  2-O ,  3-C ) :   1.2567 B(  3-C ,  4-O ) :   1.9761
B(  3-C ,  5-C ) :   1.0061 B(  5-C ,  6-C ) :   1.0309 B(  5-C , 25-H ) :   0.8809
B(  5-C , 26-H ) :   0.9015 B(  6-C ,  7-H ) :   0.8798 B(  6-C ,  8-C ) :   0.9172
B(  6-C , 13-S ) :   1.0223 B(  8-C ,  9-O ) :   1.8666 B(  8-C , 10-O ) :   1.2664
B(  9-O , 14-P ) :   0.1531 B( 10-O , 11-C ) :   0.8934 B( 11-C , 12-C ) :   1.1748
B( 11-C , 27-H ) :   0.9183 B( 11-C , 28-H ) :   0.9330 B( 12-C , 29-H ) :   0.9406
B( 12-C , 30-H ) :   0.9463 B( 12-C , 31-H ) :   0.9223 B( 13-S , 14-P ) :   0.9208
B( 13-S , 15-S ) :   0.1022 B( 14-P , 15-S ) :   1.5996 B( 14-P , 16-O ) :   1.0862
B( 14-P , 18-O ) :   1.0523 B( 16-O , 17-C ) :   0.9299 B( 17-C , 32-H ) :   0.9597
B( 17-C , 33-H ) :   0.9438 B( 17-C , 34-H ) :   0.9463 B( 18-O , 19-C ) :   0.9239
B( 19-C , 35-H ) :   0.9533 B( 19-C , 36-H ) :   0.9354 B( 19-C , 37-H ) :   0.9438

Dispersion correction           -0.052666548
FINAL SINGLE POINT ENERGY     -1979.004654304806

DIPOLE MOMENT
-------------

Method             : SCF
Type of density    : Electron Density
Multiplicity       :   1
Irrep              :   0
Energy             : -1979.1372957689327450 Eh
Relativity type    :
Basis              : AO
                                X                 Y                 Z
Electronic contribution:    -17.655941248       5.124666468      -1.672544497
Nuclear contribution   :     19.501316535      -6.343363116       0.603107467
                        -----------------------------------------
Total Dipole Moment    :      1.845375287      -1.218696648      -1.069437030
                        -----------------------------------------
Magnitude (a.u.)       :      2.456486725
Magnitude (Debye)      :      6.243893045

Rotational constants in cm-1:             0.015677             0.006647             0.005620
Rotational constants in MHz :           469.970892           199.277531           168.497606

                             ****ORCA TERMINATED NORMALLY****
TOTAL RUN TIME: 0 days 0 hours 0 minutes 42 seconds 454 msec
