                         Program Version 6.0.0  -   RELEASE  -
|  1> ! pbe def2-sv(p) def2/J RI DEFGRID1 loosescf d4 GCP(DFT/SV(P)) printgap
|  2> %output
|  3>     printlevel normal
|  4> end
|  5> * xyz 0 1
|  6> C 2.8138061371 2.6322049561 -0.4138552013
|  7> C 2.349509516 1.5079482414 -1.3177954498
|  8> O 1.4810378304 0.5865650516 -0.6257963592
|  9> P 1.9593004452 -0.5304724318 0.3887627429
| 10> S 2.6452783305 0.0313919739 2.14264885
| 11> O 3.0032985296 -1.3417594457 -0.4916174248
| 12> C 3.9366003384 -2.2683037507 0.0929254822
| 13> C 3.2463661921 -3.5146910248 0.6068782249
| 14> S 0.2093843784 -1.7065312907 0.4348523873
| 15> C -0.6155238534 -0.7880942151 1.7618408769
| 16> S -0.9794545189 0.9357419272 1.3245928774
| 17> P -2.092619601 0.6279760518 -0.4557722893
| 18> S -1.2555252134 0.3142617611 -2.2055545658
| 19> O -3.0502621613 1.9020087981 -0.4672280217
| 20> C -2.6925279111 3.1145683858 -1.1490762179
| 21> C -1.4797183061 3.7722866885 -0.52238781
| 22> O -3.0723660678 -0.5002332365 0.0591121536
| 23> C -3.647383015 -1.5252788643 -0.7823865113
| 24> C -3.3114073822 -2.8886058645 -0.2114967325
| 25> H 3.4478764162 2.2437596224 0.3808104209
| 26> H 3.3776518021 3.3513047342 -0.9994296234
| 27> H 1.959509471 3.1287339447 0.0406197088
| 28> H 3.1946515757 0.9505449032 -1.7280541284
| 29> H 1.7249337885 1.8766729656 -2.1349349281
| 30> H 4.6271116838 -2.4936934568 -0.7207602952
| 31> H 4.4661251649 -1.7585729593 0.9043424878
| 32> H 2.6075486379 -3.2632585591 1.4525866367
| 33> H 2.6341411656 -3.9569021307 -0.1750626405
| 34> H 3.9938128264 -4.23173899 0.9305480297
| 35> H 0.0404436496 -0.7388350948 2.6317851268
| 36> H -1.538913702 -1.3148196082 1.9882942243
| 37> H -2.4994089901 2.8749062203 -2.2001024733
| 38> H -3.5826379861 3.7391257618 -1.0661739191
| 39> H -0.615613919 3.1149883534 -0.6289157018
| 40> H -1.2732566632 4.7126293371 -1.0232305847
| 41> H -1.6495961208 3.9517762779 0.5365647197
| 42> H -4.7239166853 -1.3457347981 -0.7876742995
| 43> H -3.2525707783 -1.4142726766 -1.7978953077
| 44> H -3.7695049617 -3.6531869091 -0.8302626734
| 45> H -2.2328528968 -3.036785471 -0.2018698168
| 46> H -3.6903814731 -2.9747535999 0.8029272891
| 47> *
| 48>
| 49>                          ****END OF INPUT****

CARTESIAN COORDINATES (ANGSTROEM)
---------------------------------
  C      2.813806    2.632205   -0.413855
  C      2.349510    1.507948   -1.317795
  O      1.481038    0.586565   -0.625796
  P      1.959300   -0.530472    0.388763
  S      2.645278    0.031392    2.142649
  O      3.003299   -1.341759   -0.491617
  C      3.936600   -2.268304    0.092925
  C      3.246366   -3.514691    0.606878
  S      0.209384   -1.706531    0.434852
  C     -0.615524   -0.788094    1.761841
  S     -0.979455    0.935742    1.324593
  P     -2.092620    0.627976   -0.455772
  S     -1.255525    0.314262   -2.205555
  O     -3.050262    1.902009   -0.467228
  C     -2.692528    3.114568   -1.149076
  C     -1.479718    3.772287   -0.522388
  O     -3.072366   -0.500233    0.059112
  C     -3.647383   -1.525279   -0.782387
  C     -3.311407   -2.888606   -0.211497
  H      3.447876    2.243760    0.380810
  H      3.377652    3.351305   -0.999430
  H      1.959509    3.128734    0.040620
  H      3.194652    0.950545   -1.728054
  H      1.724934    1.876673   -2.134935
  H      4.627112   -2.493693   -0.720760
  H      4.466125   -1.758573    0.904342
  H      2.607549   -3.263259    1.452587
  H      2.634141   -3.956902   -0.175063
  H      3.993813   -4.231739    0.930548
  H      0.040444   -0.738835    2.631785
  H     -1.538914   -1.314820    1.988294
  H     -2.499409    2.874906   -2.200102
  H     -3.582638    3.739126   -1.066174
  H     -0.615614    3.114988   -0.628916
  H     -1.273257    4.712629   -1.023231
  H     -1.649596    3.951776    0.536565
  H     -4.723917   -1.345735   -0.787674
  H     -3.252571   -1.414273   -1.797895
  H     -3.769505   -3.653187   -0.830263
  H     -2.232853   -3.036785   -0.201870
  H     -3.690381   -2.974754    0.802927

 Total Charge           Charge          ....    0
 Multiplicity           Mult            ....    1
 Number of Electrons    NEL             ....  202
 Basis Dimension        Dim             ....  334

ORBITAL ENERGIES
----------------

  NO   OCC          E(Eh)            E(eV)
   0   2.0000     -88.042469     -2395.7574
   1   2.0000     -88.036880     -2395.6053
   2   2.0000     -87.986053     -2394.2222
   3   2.0000     -87.980690     -2394.0763
   4   2.0000     -76.426068     -2079.6590
   5   2.0000     -76.422647     -2079.5659
   6   2.0000     -18.796041      -511.4663
   7   2.0000     -18.791556      -511.3442
   8   2.0000     -18.784844      -511.1616
   9   2.0000     -18.782540      -511.0989
  10   2.0000      -9.955429      -270.9010
  11   2.0000      -9.952992      -270.8347
  12   2.0000      -9.951163      -270.7849
  13   2.0000      -9.948571      -270.7144
  14   2.0000      -9.947573      -270.6872
  15   2.0000      -9.887595      -269.0551
  16   2.0000      -9.884765      -268.9781
  17   2.0000      -9.884723      -268.9770
  18   2.0000      -9.876852      -268.7628
  19   2.0000      -7.687330      -209.1829
  20   2.0000      -7.681978      -209.0373
  21   2.0000      -7.631022      -207.6507
  22   2.0000      -7.625658      -207.5047
  23   2.0000      -6.423418      -174.7901
  24   2.0000      -6.419999      -174.6971
  25   2.0000      -5.715217      -155.5190
  26   2.0000      -5.712007      -155.4316
  27   2.0000      -5.710170      -155.3816
  28   2.0000      -5.706527      -155.2825
  29   2.0000      -5.704100      -155.2164
  30   2.0000      -5.698572      -155.0660
  31   2.0000      -5.659814      -154.0114
  32   2.0000      -5.654492      -153.8666
  33   2.0000      -5.651832      -153.7942
  34   2.0000      -5.651141      -153.7754
  35   2.0000      -5.646451      -153.6477
  36   2.0000      -5.645728      -153.6281
  37   2.0000      -4.646309      -126.4325
  38   2.0000      -4.644927      -126.3949
  39   2.0000      -4.643866      -126.3660
  40   2.0000      -4.642701      -126.3343
  41   2.0000      -4.641801      -126.3098
  42   2.0000      -4.640306      -126.2692
  43   2.0000      -0.986010       -26.8307
  44   2.0000      -0.983056       -26.7503
  45   2.0000      -0.943183       -25.6653
  46   2.0000      -0.941618       -25.6227
  47   2.0000      -0.763889       -20.7865
  48   2.0000      -0.719894       -19.5893
  49   2.0000      -0.707085       -19.2408
  50   2.0000      -0.686127       -18.6705
  51   2.0000      -0.684946       -18.6383
  52   2.0000      -0.670869       -18.2553
  53   2.0000      -0.649378       -17.6705
  54   2.0000      -0.637332       -17.3427
  55   2.0000      -0.599063       -16.3013
  56   2.0000      -0.590278       -16.0623
  57   2.0000      -0.574826       -15.6418
  58   2.0000      -0.571401       -15.5486
  59   2.0000      -0.557261       -15.1638
  60   2.0000      -0.499526       -13.5928
  61   2.0000      -0.496675       -13.5152
  62   2.0000      -0.469261       -12.7692
  63   2.0000      -0.468636       -12.7522
  64   2.0000      -0.459162       -12.4944
  65   2.0000      -0.439483       -11.9590
  66   2.0000      -0.437588       -11.9074
  67   2.0000      -0.431828       -11.7506
  68   2.0000      -0.426160       -11.5964
  69   2.0000      -0.415804       -11.3146
  70   2.0000      -0.410525       -11.1710
  71   2.0000      -0.401651       -10.9295
  72   2.0000      -0.389608       -10.6018
  73   2.0000      -0.387790       -10.5523
  74   2.0000      -0.376091       -10.2340
  75   2.0000      -0.372410       -10.1338
  76   2.0000      -0.368972       -10.0402
  77   2.0000      -0.358149        -9.7457
  78   2.0000      -0.354683        -9.6514
  79   2.0000      -0.351837        -9.5740
  80   2.0000      -0.347883        -9.4664
  81   2.0000      -0.341564        -9.2944
  82   2.0000      -0.341316        -9.2877
  83   2.0000      -0.338074        -9.1995
  84   2.0000      -0.331609        -9.0235
  85   2.0000      -0.321516        -8.7489
  86   2.0000      -0.303989        -8.2720
  87   2.0000      -0.296364        -8.0645
  88   2.0000      -0.294360        -8.0099
  89   2.0000      -0.286142        -7.7863
  90   2.0000      -0.282229        -7.6798
  91   2.0000      -0.274350        -7.4654
  92   2.0000      -0.269478        -7.3329
  93   2.0000      -0.260446        -7.0871
  94   2.0000      -0.257567        -7.0088
  95   2.0000      -0.238014        -6.4767
  96   2.0000      -0.214605        -5.8397
  97   2.0000      -0.208057        -5.6615
  98   2.0000      -0.200828        -5.4648
  99   2.0000      -0.194130        -5.2825
 100   2.0000      -0.189154        -5.1471
 101   0.0000      -0.048823        -1.3285
 102   0.0000      -0.026563        -0.7228
 103   0.0000      -0.013031        -0.3546
 104   0.0000      -0.000318        -0.0086
 105   0.0000       0.020994         0.5713

MULLIKEN ATOMIC CHARGES
-----------------------
   0 C :   -0.314214
   1 C :   -0.000677
   2 O :   -0.350205
   3 P :    0.644159
   4 S :   -0.339942
   5 O :   -0.376239
   6 C :   -0.005608
   7 C :   -0.315372
   8 S :   -0.092366
   9 C :   -0.353056
  10 S :   -0.086498
  11 P :    0.608779
  12 S :   -0.319562
  13 O :   -0.367954
  14 C :    0.006484
  15 C :   -0.358670
  16 O :   -0.375200
  17 C :   -0.003592
  18 C :   -0.309031
  19 H :    0.124752
  20 H :    0.105018
  21 H :    0.126099
  22 H :    0.103014
  23 H :    0.109482
  24 H :    0.105196
  25 H :    0.112517
  26 H :    0.125466
  27 H :    0.118486
  28 H :    0.113729
  29 H :    0.192374
  30 H :    0.189060
  31 H :    0.107139
  32 H :    0.104804
  33 H :    0.153029
  34 H :    0.114648
  35 H :    0.125062
  36 H :    0.106195
  37 H :    0.111984
  38 H :    0.113517
  39 H :    0.130593
  40 H :    0.116597
Sum of atomic charges:   -0.0000000

LOEWDIN ATOMIC CHARGES
----------------------
   0 C :   -0.365974
   1 C :   -0.110826
   2 O :   -0.232212
   3 P :    0.576201
   4 S :   -0.323892
   5 O :   -0.241840
   6 C :   -0.120507
   7 C :   -0.368944
   8 S :    0.096587
   9 C :   -0.477618
  10 S :    0.090707
  11 P :    0.569276
  12 S :   -0.310234
  13 O :   -0.248188
  14 C :   -0.121001
  15 C :   -0.374465
  16 O :   -0.243554
  17 C :   -0.116384
  18 C :   -0.358901
  19 H :    0.121826
  20 H :    0.126889
  21 H :    0.127273
  22 H :    0.110094
  23 H :    0.117479
  24 H :    0.118488
  25 H :    0.110300
  26 H :    0.120794
  27 H :    0.125123
  28 H :    0.131586
  29 H :    0.130634
  30 H :    0.132666
  31 H :    0.108079
  32 H :    0.118671
  33 H :    0.122045
  34 H :    0.131657
  35 H :    0.126294
  36 H :    0.117260
  37 H :    0.108086
  38 H :    0.132197
  39 H :    0.120236
  40 H :    0.124092

  Mayer bond orders larger than 0.100000
B(  0-C ,  1-C ) :   1.1663 B(  0-C , 19-H ) :   0.9333 B(  0-C , 20-H ) :   0.9383
B(  0-C , 21-H ) :   0.9454 B(  1-C ,  2-O ) :   0.9057 B(  1-C , 22-H ) :   0.9282
B(  1-C , 23-H ) :   0.9263 B(  2-O ,  3-P ) :   1.1398 B(  3-P ,  4-S ) :   1.6005
B(  3-P ,  5-O ) :   1.1008 B(  3-P ,  8-S ) :   0.9430 B(  4-S ,  8-S ) :   0.1119
B(  5-O ,  6-C ) :   0.9055 B(  6-C ,  7-C ) :   1.1657 B(  6-C , 24-H ) :   0.9328
B(  6-C , 25-H ) :   0.9129 B(  7-C , 26-H ) :   0.9343 B(  7-C , 27-H ) :   0.9456
B(  7-C , 28-H ) :   0.9381 B(  8-S ,  9-C ) :   1.0121 B(  9-C , 10-S ) :   1.0047
B(  9-C , 29-H ) :   0.8812 B(  9-C , 30-H ) :   0.8988 B( 10-S , 11-P ) :   0.9554
B( 10-S , 12-S ) :   0.1104 B( 11-P , 12-S ) :   1.6132 B( 11-P , 13-O ) :   1.1067
B( 11-P , 16-O ) :   1.1169 B( 13-O , 14-C ) :   0.9153 B( 14-C , 15-C ) :   1.1592
B( 14-C , 31-H ) :   0.9129 B( 14-C , 32-H ) :   0.9325 B( 15-C , 33-H ) :   0.9222
B( 15-C , 34-H ) :   0.9380 B( 15-C , 35-H ) :   0.9425 B( 16-O , 17-C ) :   0.8974
B( 17-C , 18-C ) :   1.1658 B( 17-C , 36-H ) :   0.9331 B( 17-C , 37-H ) :   0.8997
B( 18-C , 38-H ) :   0.9395 B( 18-C , 39-H ) :   0.9377 B( 18-C , 40-H ) :   0.9473

Dispersion correction           -0.067810069
FINAL SINGLE POINT ENERGY     -2929.517040003297

DIPOLE MOMENT
-------------

Method             : SCF
Type of density    : Electron Density
Multiplicity       :   1
Irrep              :   0
Energy             : -2929.6338126664559240 Eh
Relativity type    :
Basis              : AO
                                X                 Y                 Z
Electronic contribution:     -3.234923392      -0.019288919       3.943070280
Nuclear contribution   :      3.121430033      -0.288627563      -4.351707686
                        -----------------------------------------
Total Dipole Moment    :     -0.113493359      -0.307916482      -0.408637406
                        -----------------------------------------
Magnitude (a.u.)       :      0.524097159
Magnitude (Debye)      :      1.332149111

Rotational constants in cm-1:             0.011206             0.006118             0.004967
Rotational constants in MHz :           335.941688           183.422514           148.911276

                             ****ORCA TERMINATED NORMALLY****
TOTAL RUN TIME: 0 days 0 hours 0 minutes 21 seconds 893 msec
