                         Program Version 6.0.1  -  RELEASE   -
|  1> ! pbe def2-sv(p) def2/J RI DEFGRID1 loosescf d4 GCP(DFT/SV(P)) printgap
|  2> %output
|  3>     printlevel normal
|  4> end
|  5> * xyz 0 1
|  6> C 2.9461142554 -4.5081043368 -1.2832917529
|  7> C 3.7814848936 -3.2866296945 -1.6322653576
|  8> O 3.4870243443 -2.1953803658 -0.7383808477
|  9> C 2.4784532258 -1.3992118373 -1.0321303024
| 10> O 1.7908563008 -1.4909527951 -2.0238502149
| 11> C 2.3047911807 -0.3285882951 0.0303739455
| 12> C 0.8969546192 0.2435498338 -0.0240648982
| 13> H 0.6435817643 0.4865919616 -1.0642845744
| 14> C 0.7057181205 1.5007893089 0.8014388745
| 15> O -0.2551998109 1.6596684531 1.5263606736
| 16> O 1.6682183591 2.3635922871 0.6185617048
| 17> C 1.5483204365 3.6624179571 1.2403780727
| 18> C 0.7565832935 4.6041182956 0.3486546998
| 19> S -0.3201799107 -0.9896645152 0.551541551
| 20> P -2.0764193159 0.1670394205 0.2467941463
| 21> S -1.9932266676 1.6388053635 -1.040472203
| 22> O -3.1014337265 -0.9872973502 -0.2131015016
| 23> C -2.9787812586 -1.6201905155 -1.4880660182
| 24> O -2.7401084991 0.5472204356 1.6263409751
| 25> C -2.9144696463 -0.4063798652 2.6923406071
| 26> H 3.1150443948 -4.794287204 -0.2490288412
| 27> H 1.8897566873 -4.2884265894 -1.4205833983
| 28> H 3.2232066141 -5.331127154 -1.9336330294
| 29> H 3.5839660081 -2.9618672569 -2.6577018858
| 30> H 4.8452690575 -3.4769075818 -1.4903749159
| 31> H 3.0214355551 0.4712871248 -0.1694344751
| 32> H 2.5234242875 -0.7612721496 1.0063312758
| 33> H 1.0595160818 3.5409104854 2.2104658847
| 34> H 2.5774897507 3.9980760669 1.3653397056
| 35> H 0.6932562695 5.5793269343 0.8194976553
| 36> H 1.2394925063 4.7014847082 -0.619593937
| 37> H -0.2506935469 4.2194573511 0.1956914192
| 38> H -2.9450387736 -0.867818679 -2.277976383
| 39> H -3.8628676778 -2.243490128 -1.592832702
| 40> H -2.0732460941 -2.2271283876 -1.5204888275
| 41> H -1.9490248385 -0.8264805174 2.9744361588
| 42> H -3.5917462039 -1.1974418158 2.3751464286
| 43> H -3.3386941708 0.1657417276 3.5132148197
| 44> *
| 45>
| 46>                          ****END OF INPUT****

CARTESIAN COORDINATES (ANGSTROEM)
---------------------------------
  C      2.946114   -4.508104   -1.283292
  C      3.781485   -3.286630   -1.632265
  O      3.487024   -2.195380   -0.738381
  C      2.478453   -1.399212   -1.032130
  O      1.790856   -1.490953   -2.023850
  C      2.304791   -0.328588    0.030374
  C      0.896955    0.243550   -0.024065
  H      0.643582    0.486592   -1.064285
  C      0.705718    1.500789    0.801439
  O     -0.255200    1.659668    1.526361
  O      1.668218    2.363592    0.618562
  C      1.548320    3.662418    1.240378
  C      0.756583    4.604118    0.348655
  S     -0.320180   -0.989665    0.551542
  P     -2.076419    0.167039    0.246794
  S     -1.993227    1.638805   -1.040472
  O     -3.101434   -0.987297   -0.213102
  C     -2.978781   -1.620191   -1.488066
  O     -2.740108    0.547220    1.626341
  C     -2.914470   -0.406380    2.692341
  H      3.115044   -4.794287   -0.249029
  H      1.889757   -4.288427   -1.420583
  H      3.223207   -5.331127   -1.933633
  H      3.583966   -2.961867   -2.657702
  H      4.845269   -3.476908   -1.490375
  H      3.021436    0.471287   -0.169434
  H      2.523424   -0.761272    1.006331
  H      1.059516    3.540910    2.210466
  H      2.577490    3.998076    1.365340
  H      0.693256    5.579327    0.819498
  H      1.239493    4.701485   -0.619594
  H     -0.250694    4.219457    0.195691
  H     -2.945039   -0.867819   -2.277976
  H     -3.862868   -2.243490   -1.592833
  H     -2.073246   -2.227128   -1.520489
  H     -1.949025   -0.826481    2.974436
  H     -3.591746   -1.197442    2.375146
  H     -3.338694    0.165742    3.513215

 Total Charge           Charge          ....    0
 Multiplicity           Mult            ....    1
 Number of Electrons    NEL             ....  174
 Basis Dimension        Dim             ....  316

ORBITAL ENERGIES
----------------

  NO   OCC          E(Eh)            E(eV)
   0   2.0000     -88.033771     -2395.5207
   1   2.0000     -87.972291     -2393.8477
   2   2.0000     -76.416573     -2079.4007
   3   2.0000     -18.815606      -511.9987
   4   2.0000     -18.808010      -511.7920
   5   2.0000     -18.780285      -511.0375
   6   2.0000     -18.777528      -510.9625
   7   2.0000     -18.746795      -510.1262
   8   2.0000     -18.742767      -510.0166
   9   2.0000     -10.018027      -272.6044
  10   2.0000     -10.016505      -272.5629
  11   2.0000      -9.953232      -270.8412
  12   2.0000      -9.952620      -270.8245
  13   2.0000      -9.942550      -270.5505
  14   2.0000      -9.940940      -270.5067
  15   2.0000      -9.931335      -270.2454
  16   2.0000      -9.918609      -269.8991
  17   2.0000      -9.891333      -269.1568
  18   2.0000      -9.883720      -268.9497
  19   2.0000      -7.678608      -208.9456
  20   2.0000      -7.617516      -207.2832
  21   2.0000      -6.412914      -174.5043
  22   2.0000      -5.706333      -155.2772
  23   2.0000      -5.703362      -155.1964
  24   2.0000      -5.695547      -154.9837
  25   2.0000      -5.646725      -153.6552
  26   2.0000      -5.638114      -153.4209
  27   2.0000      -5.637335      -153.3997
  28   2.0000      -4.635617      -126.1416
  29   2.0000      -4.634960      -126.1237
  30   2.0000      -4.633262      -126.0775
  31   2.0000      -1.023152       -27.8414
  32   2.0000      -1.016827       -27.6693
  33   2.0000      -0.974136       -26.5076
  34   2.0000      -0.929345       -25.2888
  35   2.0000      -0.924431       -25.1550
  36   2.0000      -0.923216       -25.1220
  37   2.0000      -0.763973       -20.7888
  38   2.0000      -0.715431       -19.4679
  39   2.0000      -0.707544       -19.2532
  40   2.0000      -0.688065       -18.7232
  41   2.0000      -0.657316       -17.8865
  42   2.0000      -0.625889       -17.0313
  43   2.0000      -0.621722       -16.9179
  44   2.0000      -0.611157       -16.6304
  45   2.0000      -0.598342       -16.2817
  46   2.0000      -0.563226       -15.3262
  47   2.0000      -0.508706       -13.8426
  48   2.0000      -0.504211       -13.7203
  49   2.0000      -0.498715       -13.5707
  50   2.0000      -0.479209       -13.0399
  51   2.0000      -0.465463       -12.6659
  52   2.0000      -0.463102       -12.6017
  53   2.0000      -0.449184       -12.2229
  54   2.0000      -0.436578       -11.8799
  55   2.0000      -0.432433       -11.7671
  56   2.0000      -0.422914       -11.5081
  57   2.0000      -0.416702       -11.3390
  58   2.0000      -0.415330       -11.3017
  59   2.0000      -0.404361       -11.0032
  60   2.0000      -0.400587       -10.9005
  61   2.0000      -0.399708       -10.8766
  62   2.0000      -0.391569       -10.6551
  63   2.0000      -0.385929       -10.5017
  64   2.0000      -0.375894       -10.2286
  65   2.0000      -0.369587       -10.0570
  66   2.0000      -0.361784        -9.8446
  67   2.0000      -0.352912        -9.6032
  68   2.0000      -0.347316        -9.4509
  69   2.0000      -0.337660        -9.1882
  70   2.0000      -0.333435        -9.0732
  71   2.0000      -0.330785        -9.0011
  72   2.0000      -0.325520        -8.8578
  73   2.0000      -0.311275        -8.4702
  74   2.0000      -0.301458        -8.2031
  75   2.0000      -0.299937        -8.1617
  76   2.0000      -0.290519        -7.9054
  77   2.0000      -0.286052        -7.7839
  78   2.0000      -0.269406        -7.3309
  79   2.0000      -0.266851        -7.2614
  80   2.0000      -0.260572        -7.0905
  81   2.0000      -0.248859        -6.7718
  82   2.0000      -0.233854        -6.3635
  83   2.0000      -0.230769        -6.2796
  84   2.0000      -0.214181        -5.8282
  85   2.0000      -0.193728        -5.2716
  86   2.0000      -0.186931        -5.0866
  87   0.0000      -0.040483        -1.1016
  88   0.0000      -0.031596        -0.8598
  89   0.0000      -0.019984        -0.5438
  90   0.0000       0.011457         0.3118
  91   0.0000       0.029172         0.7938

MULLIKEN ATOMIC CHARGES
-----------------------
   0 C :   -0.305093
   1 C :   -0.013311
   2 O :   -0.229923
   3 C :    0.136220
   4 O :   -0.195619
   5 C :   -0.127288
   6 C :   -0.298499
   7 H :    0.164480
   8 C :    0.222522
   9 O :   -0.181816
  10 O :   -0.227931
  11 C :   -0.011302
  12 C :   -0.309041
  13 S :   -0.109930
  14 P :    0.625488
  15 S :   -0.327484
  16 O :   -0.395013
  17 C :   -0.100158
  18 O :   -0.352305
  19 C :   -0.102598
  20 H :    0.115335
  21 H :    0.129632
  22 H :    0.114939
  23 H :    0.110844
  24 H :    0.104894
  25 H :    0.141152
  26 H :    0.115261
  27 H :    0.113199
  28 H :    0.103303
  29 H :    0.112519
  30 H :    0.114572
  31 H :    0.144711
  32 H :    0.116788
  33 H :    0.118215
  34 H :    0.114525
  35 H :    0.118195
  36 H :    0.120616
  37 H :    0.129903
Sum of atomic charges:    0.0000000

LOEWDIN ATOMIC CHARGES
----------------------
   0 C :   -0.355430
   1 C :   -0.110384
   2 O :   -0.059713
   3 C :    0.030487
   4 O :   -0.158430
   5 C :   -0.254040
   6 C :   -0.268572
   7 H :    0.149368
   8 C :    0.014527
   9 O :   -0.158442
  10 O :   -0.043620
  11 C :   -0.106750
  12 C :   -0.356990
  13 S :    0.092151
  14 P :    0.589898
  15 S :   -0.319878
  16 O :   -0.267983
  17 C :   -0.220214
  18 O :   -0.230642
  19 C :   -0.208138
  20 H :    0.125523
  21 H :    0.131828
  22 H :    0.131597
  23 H :    0.121000
  24 H :    0.118749
  25 H :    0.156189
  26 H :    0.138783
  27 H :    0.122706
  28 H :    0.117783
  29 H :    0.130920
  30 H :    0.125828
  31 H :    0.135920
  32 H :    0.110633
  33 H :    0.118684
  34 H :    0.106999
  35 H :    0.109859
  36 H :    0.113926
  37 H :    0.125868

  Mayer bond orders larger than 0.100000
B(  0-C ,  1-C ) :   1.1750 B(  0-C , 20-H ) :   0.9488 B(  0-C , 21-H ) :   0.9457
B(  0-C , 22-H ) :   0.9439 B(  1-C ,  2-O ) :   0.9117 B(  1-C , 23-H ) :   0.9138
B(  1-C , 24-H ) :   0.9372 B(  2-O ,  3-C ) :   1.2432 B(  3-C ,  4-O ) :   2.0400
B(  3-C ,  5-C ) :   0.9953 B(  5-C ,  6-C ) :   1.0895 B(  5-C , 25-H ) :   0.8686
B(  5-C , 26-H ) :   0.9030 B(  6-C ,  7-H ) :   0.8308 B(  6-C ,  8-C ) :   0.8957
B(  6-C , 13-S ) :   1.0218 B(  8-C ,  9-O ) :   2.0128 B(  8-C , 10-O ) :   1.2615
B( 10-O , 11-C ) :   0.8991 B( 11-C , 12-C ) :   1.1802 B( 11-C , 27-H ) :   0.9125
B( 11-C , 28-H ) :   0.9366 B( 12-C , 29-H ) :   0.9420 B( 12-C , 30-H ) :   0.9485
B( 12-C , 31-H ) :   0.9351 B( 13-S , 14-P ) :   0.9431 B( 13-S , 15-S ) :   0.1119
B( 14-P , 15-S ) :   1.6161 B( 14-P , 16-O ) :   1.0541 B( 14-P , 18-O ) :   1.1375
B( 16-O , 17-C ) :   0.9392 B( 17-C , 32-H ) :   0.9364 B( 17-C , 33-H ) :   0.9587
B( 17-C , 34-H ) :   0.9432 B( 18-O , 19-C ) :   0.9225 B( 19-C , 35-H ) :   0.9394
B( 19-C , 36-H ) :   0.9469 B( 19-C , 37-H ) :   0.9602

Dispersion correction           -0.050031521
FINAL SINGLE POINT ENERGY     -1979.018221702444

DIPOLE MOMENT
-------------

Method             : SCF
Type of density    : Electron Density
Multiplicity       :   1
Irrep              :   0
Energy             : -1979.1491899493839810 Eh
Relativity type    :
Basis              : AO
                                X                 Y                 Z
Electronic contribution:    -10.242719801       4.755741496       1.382423343
Nuclear contribution   :     11.695697538      -5.623508348      -0.697251507
                        -----------------------------------------
Total Dipole Moment    :      1.452977737      -0.867766852       0.685171836
                        -----------------------------------------
Magnitude (a.u.)       :      1.825821475
Magnitude (Debye)      :      4.640869374

Rotational constants in cm-1:             0.011194             0.007018             0.005160
Rotational constants in MHz :           335.574458           210.408477           154.688903

                             ****ORCA TERMINATED NORMALLY****
TOTAL RUN TIME: 0 days 0 hours 0 minutes 37 seconds 329 msec
