                         Program Version 6.0.1  -  RELEASE   -
|  1> ! pbe def2-sv(p) def2/J RI DEFGRID1 loosescf d4 GCP(DFT/SV(P)) printgap
|  2> %output
|  3>     printlevel normal
|  4> end
|  5> * xyz 0 1
|  6> C 4.595349297 -2.9548506438 -1.7965378217
|  7> C 3.0810941667 -2.9103662922 -1.9299045631
|  8> O 2.5520868592 -1.7070936225 -1.3420604022
|  9> C 2.2552430573 -1.7116700787 -0.0588100717
| 10> O 2.3826022261 -2.6652078306 0.6760503743
| 11> C 1.7434737417 -0.3626622716 0.4142020853
| 12> C 0.9617134793 0.3776537909 -0.6692365722
| 13> H 1.596040223 0.5398465766 -1.5435015622
| 14> C 0.4470806574 1.7023961334 -0.1504832981
| 15> O -0.7439503046 1.9454352124 -0.0600632942
| 16> O 1.3961714218 2.5173873636 0.1910633504
| 17> C 1.0243847662 3.7992110485 0.7526004891
| 18> C 2.2991665278 4.5283884125 1.1238299821
| 19> S -0.4712942089 -0.5788016205 -1.2781582024
| 20> P -1.9069264156 -0.1881075851 0.2224251249
| 21> S -1.4966873647 0.1292498277 2.1259796599
| 22> O -3.1423460068 0.6445372202 -0.3572054834
| 23> C -3.4908383356 1.9878462142 -0.0233833307
| 24> O -2.5150385211 -1.6633049198 0.0081526216
| 25> C -3.6402825395 -2.120969804 0.7608325606
| 26> H 4.9744969247 -3.8341035882 -2.3065881827
| 27> H 5.0362436607 -2.0657993194 -2.2384866389
| 28> H 4.8761594203 -3.0078552473 -0.7471495803
| 29> H 2.621549704 -3.7717032005 -1.437411266
| 30> H 2.7723241237 -2.8610316463 -2.9740576833
| 31> H 2.6064875196 0.2416596214 0.705005504
| 32> H 1.1292119632 -0.530504658 1.3024947132
| 33> H 0.4461376059 4.3448521396 0.0019222197
| 34> H 0.3855033155 3.6168871374 1.6217217699
| 35> H 2.9244496172 4.656628952 0.2457378521
| 36> H 2.0465832771 5.502412792 1.5290174559
| 37> H 2.8502719167 3.964938886 1.8703092208
| 38> H -3.0315653458 2.670242403 -0.7350739955
| 39> H -3.1512548846 2.2242748127 0.9858613506
| 40> H -4.5760312506 2.035994028 -0.0833339504
| 41> H -3.4994685095 -1.8963748271 1.8206193162
| 42> H -3.6818932399 -3.1960623001 0.6051292663
| 43> H -4.5512017368 -1.6445068495 0.399521278
| 44> *
| 45>
| 46>                          ****END OF INPUT****

CARTESIAN COORDINATES (ANGSTROEM)
---------------------------------
  C      4.595349   -2.954851   -1.796538
  C      3.081094   -2.910366   -1.929905
  O      2.552087   -1.707094   -1.342060
  C      2.255243   -1.711670   -0.058810
  O      2.382602   -2.665208    0.676050
  C      1.743474   -0.362662    0.414202
  C      0.961713    0.377654   -0.669237
  H      1.596040    0.539847   -1.543502
  C      0.447081    1.702396   -0.150483
  O     -0.743950    1.945435   -0.060063
  O      1.396171    2.517387    0.191063
  C      1.024385    3.799211    0.752600
  C      2.299167    4.528388    1.123830
  S     -0.471294   -0.578802   -1.278158
  P     -1.906926   -0.188108    0.222425
  S     -1.496687    0.129250    2.125980
  O     -3.142346    0.644537   -0.357205
  C     -3.490838    1.987846   -0.023383
  O     -2.515039   -1.663305    0.008153
  C     -3.640283   -2.120970    0.760833
  H      4.974497   -3.834104   -2.306588
  H      5.036244   -2.065799   -2.238487
  H      4.876159   -3.007855   -0.747150
  H      2.621550   -3.771703   -1.437411
  H      2.772324   -2.861032   -2.974058
  H      2.606488    0.241660    0.705006
  H      1.129212   -0.530505    1.302495
  H      0.446138    4.344852    0.001922
  H      0.385503    3.616887    1.621722
  H      2.924450    4.656629    0.245738
  H      2.046583    5.502413    1.529017
  H      2.850272    3.964939    1.870309
  H     -3.031565    2.670242   -0.735074
  H     -3.151255    2.224275    0.985861
  H     -4.576031    2.035994   -0.083334
  H     -3.499469   -1.896375    1.820619
  H     -3.681893   -3.196062    0.605129
  H     -4.551202   -1.644507    0.399521

 Total Charge           Charge          ....    0
 Multiplicity           Mult            ....    1
 Number of Electrons    NEL             ....  174
 Basis Dimension        Dim             ....  316

ORBITAL ENERGIES
----------------

  NO   OCC          E(Eh)            E(eV)
   0   2.0000     -88.032362     -2395.4824
   1   2.0000     -87.968133     -2393.7346
   2   2.0000     -76.415956     -2079.3839
   3   2.0000     -18.832251      -512.4516
   4   2.0000     -18.804645      -511.7004
   5   2.0000     -18.778772      -510.9964
   6   2.0000     -18.767338      -510.6852
   7   2.0000     -18.766128      -510.6523
   8   2.0000     -18.733765      -509.7717
   9   2.0000     -10.035184      -273.0712
  10   2.0000     -10.008707      -272.3508
  11   2.0000      -9.966580      -271.2044
  12   2.0000      -9.951480      -270.7935
  13   2.0000      -9.948521      -270.7130
  14   2.0000      -9.931185      -270.2413
  15   2.0000      -9.926022      -270.1008
  16   2.0000      -9.907948      -269.6090
  17   2.0000      -9.902542      -269.4619
  18   2.0000      -9.888629      -269.0833
  19   2.0000      -7.677458      -208.9143
  20   2.0000      -7.613243      -207.1669
  21   2.0000      -6.411512      -174.4661
  22   2.0000      -5.705740      -155.2611
  23   2.0000      -5.702139      -155.1631
  24   2.0000      -5.693811      -154.9365
  25   2.0000      -5.642371      -153.5367
  26   2.0000      -5.634171      -153.3136
  27   2.0000      -5.632849      -153.2776
  28   2.0000      -4.634207      -126.1032
  29   2.0000      -4.633513      -126.0843
  30   2.0000      -4.632125      -126.0465
  31   2.0000      -1.042682       -28.3728
  32   2.0000      -1.011220       -27.5167
  33   2.0000      -0.966678       -26.3046
  34   2.0000      -0.945211       -25.7205
  35   2.0000      -0.920780       -25.0557
  36   2.0000      -0.912408       -24.8279
  37   2.0000      -0.768702       -20.9174
  38   2.0000      -0.725935       -19.7537
  39   2.0000      -0.708644       -19.2832
  40   2.0000      -0.686180       -18.6719
  41   2.0000      -0.649549       -17.6751
  42   2.0000      -0.628592       -17.1049
  43   2.0000      -0.617043       -16.7906
  44   2.0000      -0.612788       -16.6748
  45   2.0000      -0.594797       -16.1852
  46   2.0000      -0.566870       -15.4253
  47   2.0000      -0.528618       -14.3844
  48   2.0000      -0.505420       -13.7532
  49   2.0000      -0.498448       -13.5635
  50   2.0000      -0.486699       -13.2437
  51   2.0000      -0.468862       -12.7584
  52   2.0000      -0.463649       -12.6165
  53   2.0000      -0.450617       -12.2619
  54   2.0000      -0.447777       -12.1846
  55   2.0000      -0.438458       -11.9311
  56   2.0000      -0.419663       -11.4196
  57   2.0000      -0.412135       -11.2148
  58   2.0000      -0.410295       -11.1647
  59   2.0000      -0.403492       -10.9796
  60   2.0000      -0.397514       -10.8169
  61   2.0000      -0.388732       -10.5779
  62   2.0000      -0.387400       -10.5417
  63   2.0000      -0.384900       -10.4737
  64   2.0000      -0.378769       -10.3068
  65   2.0000      -0.373124       -10.1532
  66   2.0000      -0.367876       -10.0104
  67   2.0000      -0.357163        -9.7189
  68   2.0000      -0.350162        -9.5284
  69   2.0000      -0.343953        -9.3594
  70   2.0000      -0.335488        -9.1291
  71   2.0000      -0.331261        -9.0141
  72   2.0000      -0.328625        -8.9424
  73   2.0000      -0.318630        -8.6704
  74   2.0000      -0.301999        -8.2178
  75   2.0000      -0.295342        -8.0367
  76   2.0000      -0.291514        -7.9325
  77   2.0000      -0.289374        -7.8743
  78   2.0000      -0.273745        -7.4490
  79   2.0000      -0.261097        -7.1048
  80   2.0000      -0.259133        -7.0514
  81   2.0000      -0.255706        -6.9581
  82   2.0000      -0.244952        -6.6655
  83   2.0000      -0.217683        -5.9235
  84   2.0000      -0.210750        -5.7348
  85   2.0000      -0.189101        -5.1457
  86   2.0000      -0.181278        -4.9328
  87   0.0000      -0.049821        -1.3557
  88   0.0000      -0.036914        -1.0045
  89   0.0000      -0.017023        -0.4632
  90   0.0000       0.008276         0.2252
  91   0.0000       0.027790         0.7562

MULLIKEN ATOMIC CHARGES
-----------------------
   0 C :   -0.304807
   1 C :   -0.009600
   2 O :   -0.242302
   3 C :    0.145362
   4 O :   -0.189948
   5 C :   -0.118285
   6 C :   -0.301950
   7 H :    0.147385
   8 C :    0.236740
   9 O :   -0.204169
  10 O :   -0.215704
  11 C :   -0.034734
  12 C :   -0.275316
  13 S :   -0.060601
  14 P :    0.649063
  15 S :   -0.357668
  16 O :   -0.390718
  17 C :   -0.082778
  18 O :   -0.393908
  19 C :   -0.095196
  20 H :    0.114718
  21 H :    0.110731
  22 H :    0.127351
  23 H :    0.115617
  24 H :    0.104034
  25 H :    0.123738
  26 H :    0.130244
  27 H :    0.111950
  28 H :    0.126114
  29 H :    0.118783
  30 H :    0.118580
  31 H :    0.123914
  32 H :    0.110729
  33 H :    0.111736
  34 H :    0.113976
  35 H :    0.112186
  36 H :    0.119850
  37 H :    0.104884
Sum of atomic charges:   -0.0000000

LOEWDIN ATOMIC CHARGES
----------------------
   0 C :   -0.355969
   1 C :   -0.109270
   2 O :   -0.062672
   3 C :    0.029955
   4 O :   -0.157068
   5 C :   -0.256244
   6 C :   -0.267950
   7 H :    0.149332
   8 C :    0.030592
   9 O :   -0.151758
  10 O :   -0.033964
  11 C :   -0.101963
  12 C :   -0.349943
  13 S :    0.125790
  14 P :    0.590188
  15 S :   -0.350188
  16 O :   -0.252507
  17 C :   -0.212067
  18 O :   -0.271445
  19 C :   -0.216354
  20 H :    0.131506
  21 H :    0.123210
  22 H :    0.130920
  23 H :    0.123870
  24 H :    0.118308
  25 H :    0.145891
  26 H :    0.140766
  27 H :    0.120136
  28 H :    0.127010
  29 H :    0.128690
  30 H :    0.135111
  31 H :    0.130839
  32 H :    0.110651
  33 H :    0.107534
  34 H :    0.114668
  35 H :    0.107234
  36 H :    0.119592
  37 H :    0.107570

  Mayer bond orders larger than 0.100000
B(  0-C ,  1-C ) :   1.1749 B(  0-C , 20-H ) :   0.9445 B(  0-C , 21-H ) :   0.9491
B(  0-C , 22-H ) :   0.9460 B(  1-C ,  2-O ) :   0.9108 B(  1-C , 23-H ) :   0.9131
B(  1-C , 24-H ) :   0.9374 B(  2-O ,  3-C ) :   1.2081 B(  3-C ,  4-O ) :   2.0747
B(  3-C ,  5-C ) :   1.0192 B(  5-C ,  6-C ) :   1.0369 B(  5-C , 25-H ) :   0.8721
B(  5-C , 26-H ) :   0.8790 B(  6-C ,  7-H ) :   0.8554 B(  6-C ,  8-C ) :   0.9284
B(  6-C , 13-S ) :   1.0382 B(  8-C ,  9-O ) :   1.8949 B(  8-C , 10-O ) :   1.2918
B(  9-O , 14-P ) :   0.1378 B( 10-O , 11-C ) :   0.8829 B( 11-C , 12-C ) :   1.1559
B( 11-C , 27-H ) :   0.9322 B( 11-C , 28-H ) :   0.9279 B( 12-C , 29-H ) :   0.9492
B( 12-C , 30-H ) :   0.9417 B( 12-C , 31-H ) :   0.9494 B( 13-S , 14-P ) :   0.9316
B( 13-S , 15-S ) :   0.1086 B( 14-P , 15-S ) :   1.5474 B( 14-P , 16-O ) :   1.0908
B( 14-P , 18-O ) :   1.0708 B( 16-O , 17-C ) :   0.9333 B( 17-C , 32-H ) :   0.9534
B( 17-C , 33-H ) :   0.9347 B( 17-C , 34-H ) :   0.9544 B( 18-O , 19-C ) :   0.9431
B( 19-C , 35-H ) :   0.9327 B( 19-C , 36-H ) :   0.9609 B( 19-C , 37-H ) :   0.9509

Dispersion correction           -0.050418997
FINAL SINGLE POINT ENERGY     -1979.012055358680

DIPOLE MOMENT
-------------

Method             : SCF
Type of density    : Electron Density
Multiplicity       :   1
Irrep              :   0
Energy             : -1979.1434829987224475 Eh
Relativity type    :
Basis              : AO
                                X                 Y                 Z
Electronic contribution:    -12.029342870      -5.149936585       0.185009155
Nuclear contribution   :     12.805848677       6.724967904      -1.154153027
                        -----------------------------------------
Total Dipole Moment    :      0.776505806       1.575031319      -0.969143873
                        -----------------------------------------
Magnitude (a.u.)       :      2.005723004
Magnitude (Debye)      :      5.098142721

Rotational constants in cm-1:             0.010866             0.007476             0.005198
Rotational constants in MHz :           325.762686           224.116374           155.847068

                             ****ORCA TERMINATED NORMALLY****
TOTAL RUN TIME: 0 days 0 hours 0 minutes 41 seconds 350 msec
