                         Program Version 6.0.0  -   RELEASE  -
|  1> ! pbe def2-sv(p) def2/J RI DEFGRID1 loosescf d4 GCP(DFT/SV(P)) printgap
|  2> %output
|  3>     printlevel normal
|  4> end
|  5> * xyz 0 1
|  6> C 3.3872879021 0.3863682544 -2.8545782729
|  7> C 1.9324351114 0.5879466943 -2.4892619738
|  8> O 1.4707712377 -0.385397371 -1.5306902229
|  9> P 2.0649611458 -0.4861120584 -0.0671613058
| 10> S 2.682506861 1.1591089145 0.8095641104
| 11> O 3.2076666367 -1.5691327783 -0.2973245368
| 12> C 4.2523663087 -1.8123746411 0.6583793082
| 13> C 3.7241878613 -2.3993840934 1.9517179339
| 14> S 0.5108344689 -1.582185799 0.8677717837
| 15> C 0.0097569779 -0.3926971348 2.1630773236
| 16> S -1.7855533079 -0.174727176 2.2622651631
| 17> P -2.1381278165 0.656768691 0.3522990354
| 18> S -0.719108851 1.7442744395 -0.4626507006
| 19> O -3.4674901034 1.4126918814 0.7449668729
| 20> C -3.9922641975 2.5137561578 -0.0262607261
| 21> C -4.4156659477 2.0881436873 -1.4165146837
| 22> O -2.6852817847 -0.5279335944 -0.55796079
| 23> C -1.939080134 -1.2631202754 -1.5415127904
| 24> C -2.8249195196 -1.4839641913 -2.7520796017
| 25> H 3.5517568322 -0.635755039 -3.1856434763
| 26> H 3.6556430746 1.0750403761 -3.6495606181
| 27> H 4.0181411845 0.5838092769 -1.9884883338
| 28> H 1.2746325733 0.4384024907 -3.3467230921
| 29> H 1.7632544913 1.5860957997 -2.0712338883
| 30> H 4.9205738849 -2.5045984332 0.1445250625
| 31> H 4.7695532369 -0.8670647287 0.8517826617
| 32> H 3.1188181128 -1.6586315628 2.4732388816
| 33> H 3.1129497633 -3.275095766 1.7486922466
| 34> H 4.5589156065 -2.6795238612 2.5861944943
| 35> H 0.4988751774 0.5642473425 1.9613126797
| 36> H 0.3067125933 -0.7871450457 3.1315166709
| 37> H -4.8381424458 2.8633121356 0.5672046371
| 38> H -3.2265153226 3.2943046799 -0.0779921558
| 39> H -5.0974687859 1.2437137673 -1.3590587944
| 40> H -4.9067043075 2.9190617295 -1.9134659121
| 41> H -3.5386127834 1.798697238 -1.9942653726
| 42> H -1.0383274389 -0.6978158953 -1.8038569488
| 43> H -1.6427036738 -2.2125630242 -1.0878238881
| 44> H -2.2947986894 -2.1023590761 -3.4690040183
| 45> H -3.740026168 -1.9855529561 -2.4513251101
| 46> H -3.078570978 -0.5349170885 -3.2165194775
| 47> *
| 48>
| 49>                          ****END OF INPUT****

CARTESIAN COORDINATES (ANGSTROEM)
---------------------------------
  C      3.387288    0.386368   -2.854578
  C      1.932435    0.587947   -2.489262
  O      1.470771   -0.385397   -1.530690
  P      2.064961   -0.486112   -0.067161
  S      2.682507    1.159109    0.809564
  O      3.207667   -1.569133   -0.297325
  C      4.252366   -1.812375    0.658379
  C      3.724188   -2.399384    1.951718
  S      0.510834   -1.582186    0.867772
  C      0.009757   -0.392697    2.163077
  S     -1.785553   -0.174727    2.262265
  P     -2.138128    0.656769    0.352299
  S     -0.719109    1.744274   -0.462651
  O     -3.467490    1.412692    0.744967
  C     -3.992264    2.513756   -0.026261
  C     -4.415666    2.088144   -1.416515
  O     -2.685282   -0.527934   -0.557961
  C     -1.939080   -1.263120   -1.541513
  C     -2.824920   -1.483964   -2.752080
  H      3.551757   -0.635755   -3.185643
  H      3.655643    1.075040   -3.649561
  H      4.018141    0.583809   -1.988488
  H      1.274633    0.438402   -3.346723
  H      1.763254    1.586096   -2.071234
  H      4.920574   -2.504598    0.144525
  H      4.769553   -0.867065    0.851783
  H      3.118818   -1.658632    2.473239
  H      3.112950   -3.275096    1.748692
  H      4.558916   -2.679524    2.586194
  H      0.498875    0.564247    1.961313
  H      0.306713   -0.787145    3.131517
  H     -4.838142    2.863312    0.567205
  H     -3.226515    3.294305   -0.077992
  H     -5.097469    1.243714   -1.359059
  H     -4.906704    2.919062   -1.913466
  H     -3.538613    1.798697   -1.994265
  H     -1.038327   -0.697816   -1.803857
  H     -1.642704   -2.212563   -1.087824
  H     -2.294799   -2.102359   -3.469004
  H     -3.740026   -1.985553   -2.451325
  H     -3.078571   -0.534917   -3.216519

 Total Charge           Charge          ....    0
 Multiplicity           Mult            ....    1
 Number of Electrons    NEL             ....  202
 Basis Dimension        Dim             ....  334

ORBITAL ENERGIES
----------------

  NO   OCC          E(Eh)            E(eV)
   0   2.0000     -88.042721     -2395.7642
   1   2.0000     -88.038298     -2395.6439
   2   2.0000     -87.989579     -2394.3182
   3   2.0000     -87.984551     -2394.1813
   4   2.0000     -76.426697     -2079.6761
   5   2.0000     -76.423443     -2079.5876
   6   2.0000     -18.790414      -511.3132
   7   2.0000     -18.789029      -511.2755
   8   2.0000     -18.788326      -511.2563
   9   2.0000     -18.785009      -511.1661
  10   2.0000      -9.953026      -270.8356
  11   2.0000      -9.952506      -270.8215
  12   2.0000      -9.952064      -270.8094
  13   2.0000      -9.949644      -270.7436
  14   2.0000      -9.943303      -270.5710
  15   2.0000      -9.884688      -268.9760
  16   2.0000      -9.884234      -268.9637
  17   2.0000      -9.883331      -268.9391
  18   2.0000      -9.882264      -268.9101
  19   2.0000      -7.687242      -209.1805
  20   2.0000      -7.684052      -209.0937
  21   2.0000      -7.634455      -207.7441
  22   2.0000      -7.629144      -207.5996
  23   2.0000      -6.424041      -174.8071
  24   2.0000      -6.420879      -174.7210
  25   2.0000      -5.715080      -155.5152
  26   2.0000      -5.712117      -155.4346
  27   2.0000      -5.711949      -155.4300
  28   2.0000      -5.708556      -155.3377
  29   2.0000      -5.704094      -155.2163
  30   2.0000      -5.700741      -155.1251
  31   2.0000      -5.663281      -154.1057
  32   2.0000      -5.657927      -153.9600
  33   2.0000      -5.655316      -153.8890
  34   2.0000      -5.654478      -153.8662
  35   2.0000      -5.649995      -153.7442
  36   2.0000      -5.649241      -153.7237
  37   2.0000      -4.646262      -126.4312
  38   2.0000      -4.645693      -126.4157
  39   2.0000      -4.644958      -126.3957
  40   2.0000      -4.643233      -126.3488
  41   2.0000      -4.642653      -126.3330
  42   2.0000      -4.641554      -126.3031
  43   2.0000      -0.986110       -26.8334
  44   2.0000      -0.982167       -26.7261
  45   2.0000      -0.943893       -25.6846
  46   2.0000      -0.940334       -25.5878
  47   2.0000      -0.759857       -20.6768
  48   2.0000      -0.721361       -19.6292
  49   2.0000      -0.707251       -19.2453
  50   2.0000      -0.686347       -18.6765
  51   2.0000      -0.685797       -18.6615
  52   2.0000      -0.672496       -18.2995
  53   2.0000      -0.650898       -17.7118
  54   2.0000      -0.635537       -17.2938
  55   2.0000      -0.604458       -16.4481
  56   2.0000      -0.594169       -16.1682
  57   2.0000      -0.571817       -15.5599
  58   2.0000      -0.564854       -15.3704
  59   2.0000      -0.558195       -15.1892
  60   2.0000      -0.497925       -13.5492
  61   2.0000      -0.489035       -13.3073
  62   2.0000      -0.474774       -12.9193
  63   2.0000      -0.470567       -12.8048
  64   2.0000      -0.449111       -12.2209
  65   2.0000      -0.446869       -12.1599
  66   2.0000      -0.439602       -11.9622
  67   2.0000      -0.429364       -11.6836
  68   2.0000      -0.427436       -11.6311
  69   2.0000      -0.418683       -11.3929
  70   2.0000      -0.403755       -10.9867
  71   2.0000      -0.397479       -10.8160
  72   2.0000      -0.391439       -10.6516
  73   2.0000      -0.385134       -10.4800
  74   2.0000      -0.381630       -10.3847
  75   2.0000      -0.375624       -10.2212
  76   2.0000      -0.372431       -10.1344
  77   2.0000      -0.355013        -9.6604
  78   2.0000      -0.353006        -9.6058
  79   2.0000      -0.348451        -9.4818
  80   2.0000      -0.346942        -9.4408
  81   2.0000      -0.341586        -9.2950
  82   2.0000      -0.339952        -9.2506
  83   2.0000      -0.336649        -9.1607
  84   2.0000      -0.333970        -9.0878
  85   2.0000      -0.315275        -8.5791
  86   2.0000      -0.310669        -8.4537
  87   2.0000      -0.295636        -8.0447
  88   2.0000      -0.291661        -7.9365
  89   2.0000      -0.283718        -7.7204
  90   2.0000      -0.281761        -7.6671
  91   2.0000      -0.273858        -7.4521
  92   2.0000      -0.270865        -7.3706
  93   2.0000      -0.265188        -7.2161
  94   2.0000      -0.256601        -6.9825
  95   2.0000      -0.231315        -6.2944
  96   2.0000      -0.220246        -5.9932
  97   2.0000      -0.215825        -5.8729
  98   2.0000      -0.202445        -5.5088
  99   2.0000      -0.199780        -5.4363
 100   2.0000      -0.190515        -5.1842
 101   0.0000      -0.043919        -1.1951
 102   0.0000      -0.035710        -0.9717
 103   0.0000      -0.004293        -0.1168
 104   0.0000       0.011999         0.3265
 105   0.0000       0.018815         0.5120

MULLIKEN ATOMIC CHARGES
-----------------------
   0 C :   -0.303492
   1 C :   -0.001985
   2 O :   -0.363208
   3 P :    0.620139
   4 S :   -0.312825
   5 O :   -0.371033
   6 C :   -0.001722
   7 C :   -0.312041
   8 S :   -0.105689
   9 C :   -0.359733
  10 S :   -0.086564
  11 P :    0.630040
  12 S :   -0.332265
  13 O :   -0.377070
  14 C :    0.003368
  15 C :   -0.319617
  16 O :   -0.375932
  17 C :   -0.035593
  18 C :   -0.281475
  19 H :    0.115330
  20 H :    0.111630
  21 H :    0.123229
  22 H :    0.102085
  23 H :    0.121845
  24 H :    0.104441
  25 H :    0.109181
  26 H :    0.118648
  27 H :    0.120131
  28 H :    0.112504
  29 H :    0.212668
  30 H :    0.181340
  31 H :    0.107042
  32 H :    0.112680
  33 H :    0.120137
  34 H :    0.111955
  35 H :    0.127423
  36 H :    0.130413
  37 H :    0.105480
  38 H :    0.107908
  39 H :    0.114302
  40 H :    0.116327
Sum of atomic charges:    0.0000000

LOEWDIN ATOMIC CHARGES
----------------------
   0 C :   -0.366618
   1 C :   -0.114929
   2 O :   -0.235624
   3 P :    0.577170
   4 S :   -0.300156
   5 O :   -0.245894
   6 C :   -0.119292
   7 C :   -0.368978
   8 S :    0.084708
   9 C :   -0.478522
  10 S :    0.085391
  11 P :    0.566871
  12 S :   -0.308536
  13 O :   -0.245752
  14 C :   -0.111398
  15 C :   -0.366936
  16 O :   -0.246053
  17 C :   -0.126000
  18 C :   -0.352689
  19 H :    0.125698
  20 H :    0.130525
  21 H :    0.121684
  22 H :    0.117117
  23 H :    0.111820
  24 H :    0.118458
  25 H :    0.109452
  26 H :    0.118712
  27 H :    0.124769
  28 H :    0.130344
  29 H :    0.124820
  30 H :    0.133981
  31 H :    0.120199
  32 H :    0.112999
  33 H :    0.127328
  34 H :    0.130504
  35 H :    0.120709
  36 H :    0.108191
  37 H :    0.107833
  38 H :    0.128922
  39 H :    0.125489
  40 H :    0.123684

  Mayer bond orders larger than 0.100000
B(  0-C ,  1-C ) :   1.1641 B(  0-C , 19-H ) :   0.9446 B(  0-C , 20-H ) :   0.9382
B(  0-C , 21-H ) :   0.9344 B(  1-C ,  2-O ) :   0.8992 B(  1-C , 22-H ) :   0.9347
B(  1-C , 23-H ) :   0.9179 B(  2-O ,  3-P ) :   1.1306 B(  3-P ,  4-S ) :   1.5911
B(  3-P ,  5-O ) :   1.1003 B(  3-P ,  8-S ) :   0.9473 B(  4-S ,  8-S ) :   0.1176
B(  5-O ,  6-C ) :   0.9153 B(  6-C ,  7-C ) :   1.1662 B(  6-C , 24-H ) :   0.9340
B(  6-C , 25-H ) :   0.9162 B(  7-C , 26-H ) :   0.9375 B(  7-C , 27-H ) :   0.9427
B(  7-C , 28-H ) :   0.9378 B(  8-S ,  9-C ) :   0.9833 B(  9-C , 10-S ) :   1.0166
B(  9-C , 29-H ) :   0.8513 B(  9-C , 30-H ) :   0.9102 B( 10-S , 11-P ) :   0.9412
B( 10-S , 12-S ) :   0.1079 B( 11-P , 12-S ) :   1.6114 B( 11-P , 13-O ) :   1.1327
B( 11-P , 16-O ) :   1.1066 B( 13-O , 14-C ) :   0.9085 B( 14-C , 15-C ) :   1.1628
B( 14-C , 31-H ) :   0.9354 B( 14-C , 32-H ) :   0.9199 B( 15-C , 33-H ) :   0.9453
B( 15-C , 34-H ) :   0.9368 B( 15-C , 35-H ) :   0.9306 B( 16-O , 17-C ) :   0.9017
B( 17-C , 18-C ) :   1.1548 B( 17-C , 36-H ) :   0.9006 B( 17-C , 37-H ) :   0.9276
B( 18-C , 38-H ) :   0.9420 B( 18-C , 39-H ) :   0.9490 B( 18-C , 40-H ) :   0.9475

Dispersion correction           -0.067146019
FINAL SINGLE POINT ENERGY     -2929.522021673228

DIPOLE MOMENT
-------------

Method             : SCF
Type of density    : Electron Density
Multiplicity       :   1
Irrep              :   0
Energy             : -2929.6402192108625968 Eh
Relativity type    :
Basis              : AO
                                X                 Y                 Z
Electronic contribution:     -1.995614924       2.936042886      16.608445129
Nuclear contribution   :      2.038755980      -3.554856028     -17.408005211
                        -----------------------------------------
Total Dipole Moment    :      0.043141056      -0.618813141      -0.799560082
                        -----------------------------------------
Magnitude (a.u.)       :      1.011971926
Magnitude (Debye)      :      2.572228218

Rotational constants in cm-1:             0.012596             0.005249             0.004773
Rotational constants in MHz :           377.604048           157.361074           143.099934

                             ****ORCA TERMINATED NORMALLY****
TOTAL RUN TIME: 0 days 0 hours 0 minutes 21 seconds 403 msec
