                         Program Version 6.0.0  -   RELEASE  -
|  1> ! pbe def2-sv(p) def2/J RI DEFGRID1 loosescf d4 GCP(DFT/SV(P)) printgap
|  2> %output
|  3>     printlevel normal
|  4> end
|  5> * xyz 0 1
|  6> C 5.4641370988 -0.1762867164 -0.8213889899
|  7> C 4.455257441 -0.9589968055 -0.0033127412
|  8> O 3.4456401302 -0.0844516741 0.5381773264
|  9> P 2.0377588854 0.1311340309 -0.171548163
| 10> S 2.0939572666 0.5916270927 -2.0796275277
| 11> O 1.3723410827 1.166634038 0.8212838374
| 12> C 1.4816862556 2.5904975628 0.6333512345
| 13> C 2.9057966126 3.07219756 0.8034682166
| 14> S 1.0612040397 -1.6649458771 0.3219050882
| 15> C -0.1512160668 -1.8083406828 -1.0387398006
| 16> S -1.8526763557 -1.8799585269 -0.4450177083
| 17> P -2.0377905798 0.1474988735 0.166452064
| 18> S -1.2974707457 1.4563683529 -1.090164022
| 19> O -1.3872228269 0.2736385778 1.5938549619
| 20> C -1.461914817 -0.6897325953 2.6766679883
| 21> C -2.8782194617 -1.1023195766 3.0100402962
| 22> O -3.5830883798 0.3472633957 0.4663429269
| 23> C -4.556261466 0.5838354435 -0.5662631195
| 24> C -5.1462315136 -0.7138586197 -1.082492816
| 25> H 6.2415436772 -0.8490232371 -1.1685557863
| 26> H 4.9777765372 0.2770371907 -1.6826053284
| 27> H 5.9102603963 0.6071791235 -0.2152088432
| 28> H 4.9204431791 -1.4179236386 0.8709586509
| 29> H 3.9766740933 -1.7328246387 -0.6104602409
| 30> H 1.0978367434 2.8391477418 -0.3621379113
| 31> H 0.8121226855 3.0029090133 1.3898668761
| 32> H 2.9264324229 4.1562809815 0.751863747
| 33> H 3.3002980103 2.7432726728 1.7613076478
| 34> H 3.5276842309 2.6666691527 0.0061502127
| 35> H 0.031393497 -2.7477313271 -1.5538421213
| 36> H -0.0221710177 -0.9558039346 -1.7119432913
| 37> H -0.8547964913 -1.5572092493 2.4015481362
| 38> H -0.9870725653 -0.1611760852 3.5046529481
| 39> H -3.3116157159 -1.6660629806 2.1865853932
| 40> H -2.8599039072 -1.7293807559 3.8962125647
| 41> H -3.492388441 -0.2261555893 3.2005137818
| 42> H -5.3170768299 1.1990749293 -0.0826338994
| 43> H -4.0840431843 1.1561703819 -1.3718762945
| 44> H -5.5588423271 -1.2895066711 -0.2589226991
| 45> H -5.9364155733 -0.4851240769 -1.7904196612
| 46> H -4.3855861703 -1.310173053 -1.5807660264
| 47> *
| 48>
| 49>                          ****END OF INPUT****

CARTESIAN COORDINATES (ANGSTROEM)
---------------------------------
  C      5.464137   -0.176287   -0.821389
  C      4.455257   -0.958997   -0.003313
  O      3.445640   -0.084452    0.538177
  P      2.037759    0.131134   -0.171548
  S      2.093957    0.591627   -2.079628
  O      1.372341    1.166634    0.821284
  C      1.481686    2.590498    0.633351
  C      2.905797    3.072198    0.803468
  S      1.061204   -1.664946    0.321905
  C     -0.151216   -1.808341   -1.038740
  S     -1.852676   -1.879959   -0.445018
  P     -2.037791    0.147499    0.166452
  S     -1.297471    1.456368   -1.090164
  O     -1.387223    0.273639    1.593855
  C     -1.461915   -0.689733    2.676668
  C     -2.878219   -1.102320    3.010040
  O     -3.583088    0.347263    0.466343
  C     -4.556261    0.583835   -0.566263
  C     -5.146232   -0.713859   -1.082493
  H      6.241544   -0.849023   -1.168556
  H      4.977777    0.277037   -1.682605
  H      5.910260    0.607179   -0.215209
  H      4.920443   -1.417924    0.870959
  H      3.976674   -1.732825   -0.610460
  H      1.097837    2.839148   -0.362138
  H      0.812123    3.002909    1.389867
  H      2.926432    4.156281    0.751864
  H      3.300298    2.743273    1.761308
  H      3.527684    2.666669    0.006150
  H      0.031393   -2.747731   -1.553842
  H     -0.022171   -0.955804   -1.711943
  H     -0.854796   -1.557209    2.401548
  H     -0.987073   -0.161176    3.504653
  H     -3.311616   -1.666063    2.186585
  H     -2.859904   -1.729381    3.896213
  H     -3.492388   -0.226156    3.200514
  H     -5.317077    1.199075   -0.082634
  H     -4.084043    1.156170   -1.371876
  H     -5.558842   -1.289507   -0.258923
  H     -5.936416   -0.485124   -1.790420
  H     -4.385586   -1.310173   -1.580766

 Total Charge           Charge          ....    0
 Multiplicity           Mult            ....    1
 Number of Electrons    NEL             ....  202
 Basis Dimension        Dim             ....  334

ORBITAL ENERGIES
----------------

  NO   OCC          E(Eh)            E(eV)
   0   2.0000     -88.046681     -2395.8720
   1   2.0000     -88.042395     -2395.7554
   2   2.0000     -87.981787     -2394.1061
   3   2.0000     -87.978150     -2394.0072
   4   2.0000     -76.424251     -2079.6096
   5   2.0000     -76.421323     -2079.5299
   6   2.0000     -18.793954      -511.4095
   7   2.0000     -18.788808      -511.2695
   8   2.0000     -18.788556      -511.2626
   9   2.0000     -18.779599      -511.0189
  10   2.0000      -9.955398      -270.9002
  11   2.0000      -9.952205      -270.8133
  12   2.0000      -9.952101      -270.8104
  13   2.0000      -9.951292      -270.7884
  14   2.0000      -9.938265      -270.4339
  15   2.0000      -9.886330      -269.0207
  16   2.0000      -9.886171      -269.0164
  17   2.0000      -9.878954      -268.8200
  18   2.0000      -9.875320      -268.7211
  19   2.0000      -7.691555      -209.2979
  20   2.0000      -7.687465      -209.1866
  21   2.0000      -7.626716      -207.5335
  22   2.0000      -7.623119      -207.4356
  23   2.0000      -6.421682      -174.7429
  24   2.0000      -6.418863      -174.6662
  25   2.0000      -5.719328      -155.6308
  26   2.0000      -5.715858      -155.5364
  27   2.0000      -5.715283      -155.5208
  28   2.0000      -5.711885      -155.4283
  29   2.0000      -5.708857      -155.3459
  30   2.0000      -5.704531      -155.2282
  31   2.0000      -5.655567      -153.8958
  32   2.0000      -5.652123      -153.8021
  33   2.0000      -5.647494      -153.6761
  34   2.0000      -5.646796      -153.6571
  35   2.0000      -5.643534      -153.5684
  36   2.0000      -5.643346      -153.5632
  37   2.0000      -4.644429      -126.3813
  38   2.0000      -4.643645      -126.3600
  39   2.0000      -4.641788      -126.3095
  40   2.0000      -4.641180      -126.2929
  41   2.0000      -4.640539      -126.2755
  42   2.0000      -4.639659      -126.2515
  43   2.0000      -0.986194       -26.8357
  44   2.0000      -0.980693       -26.6860
  45   2.0000      -0.944183       -25.6925
  46   2.0000      -0.937792       -25.5186
  47   2.0000      -0.762963       -20.7613
  48   2.0000      -0.719103       -19.5678
  49   2.0000      -0.707492       -19.2518
  50   2.0000      -0.690617       -18.7926
  51   2.0000      -0.681340       -18.5402
  52   2.0000      -0.673304       -18.3215
  53   2.0000      -0.648309       -17.6414
  54   2.0000      -0.631885       -17.1945
  55   2.0000      -0.598348       -16.2819
  56   2.0000      -0.590456       -16.0671
  57   2.0000      -0.574629       -15.6364
  58   2.0000      -0.566005       -15.4018
  59   2.0000      -0.558928       -15.2092
  60   2.0000      -0.498924       -13.5764
  61   2.0000      -0.492082       -13.3902
  62   2.0000      -0.472391       -12.8544
  63   2.0000      -0.466550       -12.6955
  64   2.0000      -0.450173       -12.2498
  65   2.0000      -0.444030       -12.0827
  66   2.0000      -0.439959       -11.9719
  67   2.0000      -0.434471       -11.8226
  68   2.0000      -0.429164       -11.6781
  69   2.0000      -0.411019       -11.1844
  70   2.0000      -0.408302       -11.1105
  71   2.0000      -0.396511       -10.7896
  72   2.0000      -0.393527       -10.7084
  73   2.0000      -0.385021       -10.4769
  74   2.0000      -0.380494       -10.3538
  75   2.0000      -0.369649       -10.0586
  76   2.0000      -0.365761        -9.9529
  77   2.0000      -0.360637        -9.8134
  78   2.0000      -0.352485        -9.5916
  79   2.0000      -0.350282        -9.5317
  80   2.0000      -0.346705        -9.4343
  81   2.0000      -0.341965        -9.3053
  82   2.0000      -0.334141        -9.0924
  83   2.0000      -0.332888        -9.0584
  84   2.0000      -0.329145        -8.9565
  85   2.0000      -0.316279        -8.6064
  86   2.0000      -0.310333        -8.4446
  87   2.0000      -0.294067        -8.0020
  88   2.0000      -0.291390        -7.9291
  89   2.0000      -0.289930        -7.8894
  90   2.0000      -0.276796        -7.5320
  91   2.0000      -0.271653        -7.3920
  92   2.0000      -0.263489        -7.1699
  93   2.0000      -0.262336        -7.1385
  94   2.0000      -0.258394        -7.0312
  95   2.0000      -0.238879        -6.5002
  96   2.0000      -0.222571        -6.0565
  97   2.0000      -0.211353        -5.7512
  98   2.0000      -0.201391        -5.4801
  99   2.0000      -0.191978        -5.2240
 100   2.0000      -0.183464        -4.9923
 101   0.0000      -0.039590        -1.0773
 102   0.0000      -0.029608        -0.8057
 103   0.0000      -0.008730        -0.2376
 104   0.0000       0.013407         0.3648
 105   0.0000       0.022538         0.6133

MULLIKEN ATOMIC CHARGES
-----------------------
   0 C :   -0.292887
   1 C :   -0.006382
   2 O :   -0.374653
   3 P :    0.609874
   4 S :   -0.317577
   5 O :   -0.352293
   6 C :   -0.002272
   7 C :   -0.305664
   8 S :   -0.102722
   9 C :   -0.351627
  10 S :   -0.115622
  11 P :    0.598911
  12 S :   -0.301896
  13 O :   -0.349470
  14 C :   -0.000239
  15 C :   -0.308383
  16 O :   -0.371912
  17 C :   -0.005721
  18 C :   -0.312483
  19 H :    0.106389
  20 H :    0.128511
  21 H :    0.114168
  22 H :    0.104771
  23 H :    0.097276
  24 H :    0.123247
  25 H :    0.102448
  26 H :    0.108958
  27 H :    0.112114
  28 H :    0.123445
  29 H :    0.182505
  30 H :    0.213187
  31 H :    0.114625
  32 H :    0.108393
  33 H :    0.117770
  34 H :    0.112420
  35 H :    0.121247
  36 H :    0.106377
  37 H :    0.108222
  38 H :    0.115180
  39 H :    0.113457
  40 H :    0.128308
Sum of atomic charges:   -0.0000000

LOEWDIN ATOMIC CHARGES
----------------------
   0 C :   -0.363489
   1 C :   -0.117218
   2 O :   -0.247126
   3 P :    0.568499
   4 S :   -0.310339
   5 O :   -0.229593
   6 C :   -0.118120
   7 C :   -0.366721
   8 S :    0.082144
   9 C :   -0.478874
  10 S :    0.072306
  11 P :    0.565126
  12 S :   -0.292903
  13 O :   -0.228103
  14 C :   -0.114022
  15 C :   -0.367510
  16 O :   -0.240640
  17 C :   -0.119520
  18 C :   -0.366970
  19 H :    0.128120
  20 H :    0.124546
  21 H :    0.124852
  22 H :    0.117410
  23 H :    0.105604
  24 H :    0.109495
  25 H :    0.118757
  26 H :    0.129145
  27 H :    0.123862
  28 H :    0.121259
  29 H :    0.137400
  30 H :    0.127431
  31 H :    0.102669
  32 H :    0.122625
  33 H :    0.116732
  34 H :    0.130928
  35 H :    0.127713
  36 H :    0.119326
  37 H :    0.109038
  38 H :    0.124738
  39 H :    0.131816
  40 H :    0.119608

  Mayer bond orders larger than 0.100000
B(  0-C ,  1-C ) :   1.1683 B(  0-C , 19-H ) :   0.9399 B(  0-C , 20-H ) :   0.9311
B(  0-C , 21-H ) :   0.9457 B(  1-C ,  2-O ) :   0.9074 B(  1-C , 22-H ) :   0.9360
B(  1-C , 23-H ) :   0.9129 B(  2-O ,  3-P ) :   1.0959 B(  3-P ,  4-S ) :   1.6028
B(  3-P ,  5-O ) :   1.1542 B(  3-P ,  8-S ) :   0.9586 B(  4-S ,  8-S ) :   0.1155
B(  5-O ,  6-C ) :   0.9004 B(  6-C ,  7-C ) :   1.1576 B(  6-C , 24-H ) :   0.9130
B(  6-C , 25-H ) :   0.9359 B(  7-C , 26-H ) :   0.9387 B(  7-C , 27-H ) :   0.9449
B(  7-C , 28-H ) :   0.9345 B(  8-S ,  9-C ) :   0.9908 B(  9-C , 10-S ) :   1.0056
B(  9-C , 29-H ) :   0.9107 B(  9-C , 30-H ) :   0.8452 B( 10-S , 11-P ) :   0.9325
B( 10-S , 12-S ) :   0.1042 B( 11-P , 12-S ) :   1.6445 B( 11-P , 13-O ) :   1.1534
B( 11-P , 16-O ) :   1.0932 B( 13-O , 14-C ) :   0.8967 B( 14-C , 15-C ) :   1.1693
B( 14-C , 31-H ) :   0.9099 B( 14-C , 32-H ) :   0.9353 B( 15-C , 33-H ) :   0.9383
B( 15-C , 34-H ) :   0.9355 B( 15-C , 35-H ) :   0.9426 B( 16-O , 17-C ) :   0.9060
B( 17-C , 18-C ) :   1.1657 B( 17-C , 36-H ) :   0.9343 B( 17-C , 37-H ) :   0.9045
B( 18-C , 38-H ) :   0.9479 B( 18-C , 39-H ) :   0.9396 B( 18-C , 40-H ) :   0.9340

Dispersion correction           -0.067874174
FINAL SINGLE POINT ENERGY     -2929.519852131910

DIPOLE MOMENT
-------------

Method             : SCF
Type of density    : Electron Density
Multiplicity       :   1
Irrep              :   0
Energy             : -2929.6379242435577908 Eh
Relativity type    :
Basis              : AO
                                X                 Y                 Z
Electronic contribution:     -1.185047813      -2.906666418      -6.239207359
Nuclear contribution   :      0.853758805       2.183455171       7.262132011
                        -----------------------------------------
Total Dipole Moment    :     -0.331289008      -0.723211247       1.022924652
                        -----------------------------------------
Magnitude (a.u.)       :      1.295824740
Magnitude (Debye)      :      3.293724733

Rotational constants in cm-1:             0.014144             0.004962             0.004831
Rotational constants in MHz :           424.014938           148.770533           144.824599

                             ****ORCA TERMINATED NORMALLY****
TOTAL RUN TIME: 0 days 0 hours 0 minutes 21 seconds 879 msec
