                         Program Version 6.0.1  -  RELEASE   -
|  1> ! pbe def2-sv(p) def2/J RI DEFGRID1 loosescf d4 GCP(DFT/SV(P)) printgap
|  2> %output
|  3>     printlevel normal
|  4> end
|  5> * xyz 0 1
|  6> C 2.6326273992 -3.7376635787 -0.3098399595
|  7> C 2.83182046 -3.0407657945 1.0266428907
|  8> O 2.8001352911 -1.609996672 0.8576875178
|  9> C 1.6455092169 -0.9901122376 0.9352327865
| 10> O 0.589759033 -1.5385251778 1.1907400443
| 11> C 1.7828123565 0.4943304005 0.6755727963
| 12> C 0.6103995002 0.9790908337 -0.1636987537
| 13> H 0.4879505438 0.3616607696 -1.0638128241
| 14> C 0.685222125 2.4373765554 -0.5929985562
| 15> O -0.0309967238 2.8936024074 -1.4550450719
| 16> O 1.5719598519 3.114871311 0.0961438107
| 17> C 1.7303105826 4.5211036711 -0.1884366549
| 18> C 2.7113580697 4.738785017 -1.3288710728
| 19> S -0.9785578714 0.8481864112 0.7464434998
| 20> P -1.7009312339 -0.9850326362 -0.0733796315
| 21> S -0.7255432317 -1.7900447275 -1.5661204392
| 22> O -2.065640875 -1.9838112076 1.0871067242
| 23> C -2.7808770026 -1.5709991673 2.267419699
| 24> O -3.1929540078 -0.5447087108 -0.5032205607
| 25> C -3.4060917362 0.3423389154 -1.6010156889
| 26> H 2.6929238831 -4.81170626 -0.169695372
| 27> H 1.6551080466 -3.491250566 -0.7221344306
| 28> H 3.3963430233 -3.4230476236 -1.0154141696
| 29> H 3.8185702524 -3.2469611733 1.4413017813
| 30> H 2.0485916168 -3.3278583906 1.7337246749
| 31> H 2.7240774807 0.6758328388 0.157685584
| 32> H 1.7959641316 1.0213888275 1.6318789105
| 33> H 0.7504011985 4.9382306969 -0.4350677109
| 34> H 2.1031047096 4.943192963 0.7445578619
| 35> H 2.322387962 4.3016276533 -2.2456698279
| 36> H 2.8520403589 5.8038513666 -1.4801289978
| 37> H 3.6684952599 4.2812697003 -1.0952362649
| 38> H -2.2151873816 -0.800028248 2.7903109722
| 39> H -2.8595110285 -2.4685246995 2.87534986
| 40> H -3.7660285191 -1.1965380757 1.9944722161
| 41> H -4.484317856 0.4238563028 -1.7089006587
| 42> H -2.9605331702 -0.0699468678 -2.5079844986
| 43> H -2.9664319366 1.319305419 -1.3917114891
| 44> *
| 45>
| 46>                          ****END OF INPUT****

CARTESIAN COORDINATES (ANGSTROEM)
---------------------------------
  C      2.632627   -3.737664   -0.309840
  C      2.831820   -3.040766    1.026643
  O      2.800135   -1.609997    0.857688
  C      1.645509   -0.990112    0.935233
  O      0.589759   -1.538525    1.190740
  C      1.782812    0.494330    0.675573
  C      0.610400    0.979091   -0.163699
  H      0.487951    0.361661   -1.063813
  C      0.685222    2.437377   -0.592999
  O     -0.030997    2.893602   -1.455045
  O      1.571960    3.114871    0.096144
  C      1.730311    4.521104   -0.188437
  C      2.711358    4.738785   -1.328871
  S     -0.978558    0.848186    0.746443
  P     -1.700931   -0.985033   -0.073380
  S     -0.725543   -1.790045   -1.566120
  O     -2.065641   -1.983811    1.087107
  C     -2.780877   -1.570999    2.267420
  O     -3.192954   -0.544709   -0.503221
  C     -3.406092    0.342339   -1.601016
  H      2.692924   -4.811706   -0.169695
  H      1.655108   -3.491251   -0.722134
  H      3.396343   -3.423048   -1.015414
  H      3.818570   -3.246961    1.441302
  H      2.048592   -3.327858    1.733725
  H      2.724077    0.675833    0.157686
  H      1.795964    1.021389    1.631879
  H      0.750401    4.938231   -0.435068
  H      2.103105    4.943193    0.744558
  H      2.322388    4.301628   -2.245670
  H      2.852040    5.803851   -1.480129
  H      3.668495    4.281270   -1.095236
  H     -2.215187   -0.800028    2.790311
  H     -2.859511   -2.468525    2.875350
  H     -3.766029   -1.196538    1.994472
  H     -4.484318    0.423856   -1.708901
  H     -2.960533   -0.069947   -2.507984
  H     -2.966432    1.319305   -1.391711

 Total Charge           Charge          ....    0
 Multiplicity           Mult            ....    1
 Number of Electrons    NEL             ....  174
 Basis Dimension        Dim             ....  316

ORBITAL ENERGIES
----------------

  NO   OCC          E(Eh)            E(eV)
   0   2.0000     -88.035213     -2395.5599
   1   2.0000     -87.977945     -2394.0016
   2   2.0000     -76.418754     -2079.4600
   3   2.0000     -18.814638      -511.9723
   4   2.0000     -18.805992      -511.7371
   5   2.0000     -18.785111      -511.1689
   6   2.0000     -18.776865      -510.9445
   7   2.0000     -18.742011      -509.9960
   8   2.0000     -18.738961      -509.9130
   9   2.0000     -10.017922      -272.6015
  10   2.0000     -10.011801      -272.4350
  11   2.0000      -9.956448      -270.9287
  12   2.0000      -9.945525      -270.6315
  13   2.0000      -9.944800      -270.6118
  14   2.0000      -9.941670      -270.5266
  15   2.0000      -9.928683      -270.1732
  16   2.0000      -9.909344      -269.6470
  17   2.0000      -9.893633      -269.2194
  18   2.0000      -9.878633      -268.8113
  19   2.0000      -7.679472      -208.9690
  20   2.0000      -7.623021      -207.4330
  21   2.0000      -6.415257      -174.5680
  22   2.0000      -5.707468      -155.3081
  23   2.0000      -5.704347      -155.2232
  24   2.0000      -5.696098      -154.9987
  25   2.0000      -5.652127      -153.8022
  26   2.0000      -5.643898      -153.5783
  27   2.0000      -5.642631      -153.5438
  28   2.0000      -4.637949      -126.2050
  29   2.0000      -4.637151      -126.1833
  30   2.0000      -4.635726      -126.1445
  31   2.0000      -1.021742       -27.8030
  32   2.0000      -1.013472       -27.5780
  33   2.0000      -0.976956       -26.5843
  34   2.0000      -0.930301       -25.3148
  35   2.0000      -0.922237       -25.0953
  36   2.0000      -0.917041       -24.9539
  37   2.0000      -0.761770       -20.7288
  38   2.0000      -0.711501       -19.3609
  39   2.0000      -0.708568       -19.2811
  40   2.0000      -0.687141       -18.6981
  41   2.0000      -0.654965       -17.8225
  42   2.0000      -0.626524       -17.0486
  43   2.0000      -0.620924       -16.8962
  44   2.0000      -0.614663       -16.7258
  45   2.0000      -0.593360       -16.1461
  46   2.0000      -0.568368       -15.4661
  47   2.0000      -0.509123       -13.8539
  48   2.0000      -0.503966       -13.7136
  49   2.0000      -0.497889       -13.5482
  50   2.0000      -0.476259       -12.9597
  51   2.0000      -0.465502       -12.6670
  52   2.0000      -0.456787       -12.4298
  53   2.0000      -0.450872       -12.2689
  54   2.0000      -0.435155       -11.8412
  55   2.0000      -0.426740       -11.6122
  56   2.0000      -0.419250       -11.4084
  57   2.0000      -0.418504       -11.3881
  58   2.0000      -0.414957       -11.2915
  59   2.0000      -0.405357       -11.0303
  60   2.0000      -0.399869       -10.8810
  61   2.0000      -0.393831       -10.7167
  62   2.0000      -0.389692       -10.6040
  63   2.0000      -0.384423       -10.4607
  64   2.0000      -0.376293       -10.2395
  65   2.0000      -0.367101        -9.9893
  66   2.0000      -0.364277        -9.9125
  67   2.0000      -0.353601        -9.6220
  68   2.0000      -0.348060        -9.4712
  69   2.0000      -0.336641        -9.1605
  70   2.0000      -0.332525        -9.0485
  71   2.0000      -0.330026        -8.9805
  72   2.0000      -0.323905        -8.8139
  73   2.0000      -0.307566        -8.3693
  74   2.0000      -0.303320        -8.2537
  75   2.0000      -0.294518        -8.0142
  76   2.0000      -0.288972        -7.8633
  77   2.0000      -0.286831        -7.8051
  78   2.0000      -0.268335        -7.3018
  79   2.0000      -0.263880        -7.1805
  80   2.0000      -0.260766        -7.0958
  81   2.0000      -0.251492        -6.8434
  82   2.0000      -0.236821        -6.4442
  83   2.0000      -0.227667        -6.1951
  84   2.0000      -0.205127        -5.5818
  85   2.0000      -0.198395        -5.3986
  86   2.0000      -0.189184        -5.1480
  87   0.0000      -0.048279        -1.3137
  88   0.0000      -0.034245        -0.9319
  89   0.0000      -0.026122        -0.7108
  90   0.0000       0.025731         0.7002
  91   0.0000       0.032995         0.8978

MULLIKEN ATOMIC CHARGES
-----------------------
   0 C :   -0.314520
   1 C :   -0.015031
   2 O :   -0.219554
   3 C :    0.130242
   4 O :   -0.206201
   5 C :   -0.012372
   6 C :   -0.395180
   7 H :    0.156679
   8 C :    0.225849
   9 O :   -0.186275
  10 O :   -0.225769
  11 C :   -0.011699
  12 C :   -0.306770
  13 S :   -0.101703
  14 P :    0.631373
  15 S :   -0.309737
  16 O :   -0.353464
  17 C :   -0.104966
  18 O :   -0.391868
  19 C :   -0.104437
  20 H :    0.109590
  21 H :    0.146377
  22 H :    0.109411
  23 H :    0.101604
  24 H :    0.110232
  25 H :    0.106642
  26 H :    0.119100
  27 H :    0.114032
  28 H :    0.106141
  29 H :    0.131231
  30 H :    0.116726
  31 H :    0.115818
  32 H :    0.122393
  33 H :    0.130998
  34 H :    0.123412
  35 H :    0.117143
  36 H :    0.115117
  37 H :    0.119433
Sum of atomic charges:   -0.0000000

LOEWDIN ATOMIC CHARGES
----------------------
   0 C :   -0.359598
   1 C :   -0.110858
   2 O :   -0.049655
   3 C :    0.038363
   4 O :   -0.173146
   5 C :   -0.254301
   6 C :   -0.266901
   7 H :    0.134704
   8 C :    0.010770
   9 O :   -0.157964
  10 O :   -0.049323
  11 C :   -0.108387
  12 C :   -0.355482
  13 S :    0.101885
  14 P :    0.596271
  15 S :   -0.299025
  16 O :   -0.227705
  17 C :   -0.207331
  18 O :   -0.268317
  19 C :   -0.222878
  20 H :    0.129727
  21 H :    0.130938
  22 H :    0.123191
  23 H :    0.116709
  24 H :    0.121002
  25 H :    0.138131
  26 H :    0.145560
  27 H :    0.123179
  28 H :    0.119665
  29 H :    0.132612
  30 H :    0.132871
  31 H :    0.125540
  32 H :    0.111655
  33 H :    0.126569
  34 H :    0.115159
  35 H :    0.118337
  36 H :    0.109766
  37 H :    0.108269

  Mayer bond orders larger than 0.100000
B(  0-C ,  1-C ) :   1.1776 B(  0-C , 20-H ) :   0.9423 B(  0-C , 21-H ) :   0.9302
B(  0-C , 22-H ) :   0.9490 B(  1-C ,  2-O ) :   0.9055 B(  1-C , 23-H ) :   0.9368
B(  1-C , 24-H ) :   0.9113 B(  2-O ,  3-C ) :   1.2656 B(  3-C ,  4-O ) :   1.9634
B(  3-C ,  5-C ) :   1.0002 B(  5-C ,  6-C ) :   0.9956 B(  5-C , 25-H ) :   0.8990
B(  5-C , 26-H ) :   0.8709 B(  6-C ,  7-H ) :   0.8362 B(  6-C ,  8-C ) :   0.9009
B(  6-C , 13-S ) :   1.0260 B(  7-H , 15-S ) :   0.1167 B(  8-C ,  9-O ) :   2.0655
B(  8-C , 10-O ) :   1.2547 B( 10-O , 11-C ) :   0.9073 B( 11-C , 12-C ) :   1.1761
B( 11-C , 27-H ) :   0.9140 B( 11-C , 28-H ) :   0.9366 B( 12-C , 29-H ) :   0.9454
B( 12-C , 30-H ) :   0.9436 B( 12-C , 31-H ) :   0.9484 B( 13-S , 14-P ) :   0.9307
B( 13-S , 15-S ) :   0.1147 B( 14-P , 15-S ) :   1.5991 B( 14-P , 16-O ) :   1.1439
B( 14-P , 18-O ) :   1.0546 B( 16-O , 17-C ) :   0.9207 B( 17-C , 32-H ) :   0.9406
B( 17-C , 33-H ) :   0.9601 B( 17-C , 34-H ) :   0.9459 B( 18-O , 19-C ) :   0.9385
B( 19-C , 35-H ) :   0.9585 B( 19-C , 36-H ) :   0.9389 B( 19-C , 37-H ) :   0.9371

Dispersion correction           -0.051194475
FINAL SINGLE POINT ENERGY     -1979.015246962387

DIPOLE MOMENT
-------------

Method             : SCF
Type of density    : Electron Density
Multiplicity       :   1
Irrep              :   0
Energy             : -1979.1458759667102640 Eh
Relativity type    :
Basis              : AO
                                X                 Y                 Z
Electronic contribution:    -11.104408987      -4.976911174       1.406213163
Nuclear contribution   :     11.944150118       5.823028501      -0.329479641
                        -----------------------------------------
Total Dipole Moment    :      0.839741131       0.846117326       1.076733523
                        -----------------------------------------
Magnitude (a.u.)       :      1.606373175
Magnitude (Debye)      :      4.083076122

Rotational constants in cm-1:             0.010929             0.007668             0.005478
Rotational constants in MHz :           327.655336           229.866324           164.214858

                             ****ORCA TERMINATED NORMALLY****
TOTAL RUN TIME: 0 days 0 hours 0 minutes 40 seconds 753 msec
