                         Program Version 6.0.0  -   RELEASE  -
|  1> ! r2scan-3c def2/J RI DEFGRID2 scfconv6 printgap
|  2> %output
|  3>     printlevel normal
|  4> end
|  5> * xyz 0 1
|  6> C 4.6247463595 2.592151122 -0.6269280193
|  7> C 3.2406121769 2.0141844444 -0.4118873932
|  8> O 3.3934230319 0.6743904513 0.1014540421
|  9> P 2.2266351114 -0.0490285553 0.8956294491
| 10> S 1.4402856446 0.957903128 2.373016098
| 11> O 2.8873170026 -1.3890125903 1.3934939887
| 12> C 3.6602082417 -2.272694304 0.5412748075
| 13> C 5.1386378331 -1.960654804 0.6450038082
| 14> S 0.9012314276 -0.6471084721 -0.6784404369
| 15> C -0.3161317736 -1.4542832505 0.3980491231
| 16> S -1.6226505865 -0.3439739621 0.9767026429
| 17> P -2.5350678219 -0.0616144734 -0.9345837386
| 18> S -2.4372749537 -1.5712163051 -2.1695138402
| 19> O -1.8812699333 1.2396497835 -1.5401675867
| 20> C -1.9193821253 2.5342030791 -0.8828079031
| 21> C -0.5143780132 2.9691059772 -0.5196404128
| 22> O -3.9982338415 0.4525877393 -0.5766368988
| 23> C -5.1079514466 -0.4403635336 -0.369423561
| 24> C -4.9308387611 -1.3094079225 0.858643088
| 25> H 5.164763251 2.6271280581 0.31507139
| 26> H 5.1805031965 1.9799502534 -1.3312907985
| 27> H 4.5313931909 3.5980845827 -1.0225259451
| 28> H 2.6821848806 1.9534125609 -1.3495576556
| 29> H 2.6693376084 2.6032810781 0.3126764691
| 30> H 3.4381853067 -3.2733825156 0.916472241
| 31> H 3.3037536972 -2.1740771485 -0.4876586155
| 32> H 5.3408094065 -0.9619622533 0.2682126424
| 33> H 5.4582807158 -2.0159033352 1.6819955559
| 34> H 5.6953595059 -2.6852327886 0.0588856061
| 35> H 0.179588694 -1.8430888228 1.2854709225
| 36> H -0.7666483079 -2.2521624126 -0.1925897315
| 37> H -2.3670954761 3.2100000366 -1.6131124209
| 38> H -2.5577975799 2.4721826911 0.0008864111
| 39> H 0.1254234655 2.923147933 -1.3968193834
| 40> H -0.5422862626 3.9876518926 -0.146280062
| 41> H -0.101024816 2.3268004314 0.2562274292
| 42> H -5.962429829 0.2304139405 -0.2689726058
| 43> H -5.2219683107 -1.058939291 -1.2648178919
| 44> H -5.8470902089 -1.8618944692 1.0402975248
| 45> H -4.1185031822 -2.0170629054 0.7001694945
| 46> H -4.6992084576 -0.6977948808 1.7272531708
| 47> *
| 48>
| 49>                          ****END OF INPUT****

CARTESIAN COORDINATES (ANGSTROEM)
---------------------------------
  C      4.624746    2.592151   -0.626928
  C      3.240612    2.014184   -0.411887
  O      3.393423    0.674390    0.101454
  P      2.226635   -0.049029    0.895629
  S      1.440286    0.957903    2.373016
  O      2.887317   -1.389013    1.393494
  C      3.660208   -2.272694    0.541275
  C      5.138638   -1.960655    0.645004
  S      0.901231   -0.647108   -0.678440
  C     -0.316132   -1.454283    0.398049
  S     -1.622651   -0.343974    0.976703
  P     -2.535068   -0.061614   -0.934584
  S     -2.437275   -1.571216   -2.169514
  O     -1.881270    1.239650   -1.540168
  C     -1.919382    2.534203   -0.882808
  C     -0.514378    2.969106   -0.519640
  O     -3.998234    0.452588   -0.576637
  C     -5.107951   -0.440364   -0.369424
  C     -4.930839   -1.309408    0.858643
  H      5.164763    2.627128    0.315071
  H      5.180503    1.979950   -1.331291
  H      4.531393    3.598085   -1.022526
  H      2.682185    1.953413   -1.349558
  H      2.669338    2.603281    0.312676
  H      3.438185   -3.273383    0.916472
  H      3.303754   -2.174077   -0.487659
  H      5.340809   -0.961962    0.268213
  H      5.458281   -2.015903    1.681996
  H      5.695360   -2.685233    0.058886
  H      0.179589   -1.843089    1.285471
  H     -0.766648   -2.252162   -0.192590
  H     -2.367095    3.210000   -1.613112
  H     -2.557798    2.472183    0.000886
  H      0.125423    2.923148   -1.396819
  H     -0.542286    3.987652   -0.146280
  H     -0.101025    2.326800    0.256227
  H     -5.962430    0.230414   -0.268973
  H     -5.221968   -1.058939   -1.264818
  H     -5.847090   -1.861894    1.040298
  H     -4.118503   -2.017063    0.700169
  H     -4.699208   -0.697795    1.727253

 Total Charge           Charge          ....    0
 Multiplicity           Mult            ....    1
 Number of Electrons    NEL             ....  202
 Basis Dimension        Dim             ....  539

ORBITAL ENERGIES
----------------

  NO   OCC          E(Eh)            E(eV)
   0   2.0000     -88.572705     -2410.1858
   1   2.0000     -88.570586     -2410.1282
   2   2.0000     -88.519343     -2408.7338
   3   2.0000     -88.518880     -2408.7212
   4   2.0000     -76.915227     -2092.9697
   5   2.0000     -76.910853     -2092.8507
   6   2.0000     -18.999408      -517.0002
   7   2.0000     -18.996351      -516.9170
   8   2.0000     -18.991347      -516.7808
   9   2.0000     -18.985400      -516.6190
  10   2.0000     -10.105883      -274.9951
  11   2.0000     -10.105011      -274.9713
  12   2.0000     -10.104999      -274.9710
  13   2.0000     -10.098445      -274.7927
  14   2.0000     -10.098261      -274.7876
  15   2.0000     -10.038857      -273.1712
  16   2.0000     -10.033618      -273.0286
  17   2.0000     -10.027206      -272.8542
  18   2.0000     -10.022617      -272.7293
  19   2.0000      -7.866645      -214.0623
  20   2.0000      -7.864643      -214.0078
  21   2.0000      -7.814105      -212.6326
  22   2.0000      -7.813783      -212.6238
  23   2.0000      -6.593719      -179.4242
  24   2.0000      -6.589348      -179.3053
  25   2.0000      -5.813409      -158.1909
  26   2.0000      -5.811456      -158.1377
  27   2.0000      -5.810548      -158.1131
  28   2.0000      -5.808568      -158.0592
  29   2.0000      -5.803892      -157.9319
  30   2.0000      -5.801809      -157.8752
  31   2.0000      -5.761878      -156.7887
  32   2.0000      -5.761448      -156.7770
  33   2.0000      -5.754436      -156.5862
  34   2.0000      -5.753999      -156.5743
  35   2.0000      -5.753939      -156.5726
  36   2.0000      -5.753793      -156.5687
  37   2.0000      -4.739719      -128.9743
  38   2.0000      -4.738769      -128.9485
  39   2.0000      -4.736861      -128.8965
  40   2.0000      -4.735195      -128.8512
  41   2.0000      -4.734110      -128.8217
  42   2.0000      -4.732939      -128.7898
  43   2.0000      -1.056656       -28.7531
  44   2.0000      -1.047904       -28.5149
  45   2.0000      -1.016868       -27.6704
  46   2.0000      -1.006142       -27.3785
  47   2.0000      -0.798419       -21.7261
  48   2.0000      -0.761770       -20.7288
  49   2.0000      -0.750360       -20.4183
  50   2.0000      -0.741742       -20.1838
  51   2.0000      -0.730763       -19.8851
  52   2.0000      -0.708089       -19.2681
  53   2.0000      -0.684892       -18.6369
  54   2.0000      -0.668611       -18.1938
  55   2.0000      -0.625359       -17.0169
  56   2.0000      -0.622987       -16.9523
  57   2.0000      -0.608595       -16.5607
  58   2.0000      -0.604174       -16.4404
  59   2.0000      -0.590701       -16.0738
  60   2.0000      -0.538869       -14.6634
  61   2.0000      -0.524271       -14.2661
  62   2.0000      -0.506179       -13.7738
  63   2.0000      -0.489871       -13.3301
  64   2.0000      -0.475595       -12.9416
  65   2.0000      -0.468333       -12.7440
  66   2.0000      -0.458196       -12.4681
  67   2.0000      -0.457812       -12.4577
  68   2.0000      -0.450271       -12.2525
  69   2.0000      -0.438085       -11.9209
  70   2.0000      -0.424316       -11.5462
  71   2.0000      -0.412495       -11.2246
  72   2.0000      -0.406936       -11.0733
  73   2.0000      -0.401679       -10.9302
  74   2.0000      -0.386779       -10.5248
  75   2.0000      -0.385671       -10.4946
  76   2.0000      -0.382972       -10.4212
  77   2.0000      -0.376035       -10.2324
  78   2.0000      -0.372853       -10.1459
  79   2.0000      -0.370844       -10.0912
  80   2.0000      -0.366563        -9.9747
  81   2.0000      -0.364162        -9.9094
  82   2.0000      -0.357788        -9.7359
  83   2.0000      -0.352108        -9.5813
  84   2.0000      -0.348495        -9.4830
  85   2.0000      -0.335024        -9.1165
  86   2.0000      -0.324046        -8.8177
  87   2.0000      -0.321076        -8.7369
  88   2.0000      -0.312901        -8.5145
  89   2.0000      -0.311954        -8.4887
  90   2.0000      -0.307556        -8.3690
  91   2.0000      -0.292567        -7.9612
  92   2.0000      -0.283966        -7.7271
  93   2.0000      -0.277272        -7.5450
  94   2.0000      -0.272355        -7.4112
  95   2.0000      -0.246468        -6.7067
  96   2.0000      -0.226801        -6.1716
  97   2.0000      -0.225024        -6.1232
  98   2.0000      -0.219083        -5.9615
  99   2.0000      -0.213208        -5.8017
 100   2.0000      -0.206504        -5.6193
 101   0.0000      -0.041835        -1.1384
 102   0.0000      -0.027874        -0.7585
 103   0.0000      -0.003337        -0.0908
 104   0.0000       0.007719         0.2101
 105   0.0000       0.011437         0.3112

MULLIKEN ATOMIC CHARGES
-----------------------
   0 C :   -0.452074
   1 C :   -0.141578
   2 O :   -0.280228
   3 P :    0.636055
   4 S :   -0.415298
   5 O :   -0.285840
   6 C :   -0.109522
   7 C :   -0.459425
   8 S :   -0.169526
   9 C :   -0.243690
  10 S :   -0.113270
  11 P :    0.654873
  12 S :   -0.449564
  13 O :   -0.269939
  14 C :   -0.122461
  15 C :   -0.456517
  16 O :   -0.293333
  17 C :   -0.167365
  18 C :   -0.442096
  19 H :    0.161992
  20 H :    0.152817
  21 H :    0.148152
  22 H :    0.153594
  23 H :    0.171429
  24 H :    0.151981
  25 H :    0.166478
  26 H :    0.166182
  27 H :    0.158084
  28 H :    0.147620
  29 H :    0.193336
  30 H :    0.219905
  31 H :    0.151463
  32 H :    0.154771
  33 H :    0.146184
  34 H :    0.143562
  35 H :    0.193775
  36 H :    0.148009
  37 H :    0.173349
  38 H :    0.146945
  39 H :    0.176237
  40 H :    0.154930
Sum of atomic charges:    0.0000000

LOEWDIN ATOMIC CHARGES
----------------------
   0 C :   -0.385328
   1 C :    0.020916
   2 O :   -0.674300
   3 P :    0.367529
   4 S :   -0.094205
   5 O :   -0.656689
   6 C :    0.023851
   7 C :   -0.392673
   8 S :    0.135749
   9 C :   -0.421279
  10 S :    0.142329
  11 P :    0.377716
  12 S :   -0.103766
  13 O :   -0.651937
  14 C :    0.027070
  15 C :   -0.408472
  16 O :   -0.673408
  17 C :    0.022230
  18 C :   -0.408876
  19 H :    0.162949
  20 H :    0.159349
  21 H :    0.161207
  22 H :    0.172204
  23 H :    0.182141
  24 H :    0.179934
  25 H :    0.178086
  26 H :    0.166725
  27 H :    0.161757
  28 H :    0.159387
  29 H :    0.188323
  30 H :    0.192412
  31 H :    0.178876
  32 H :    0.177331
  33 H :    0.158166
  34 H :    0.157900
  35 H :    0.172470
  36 H :    0.179489
  37 H :    0.179874
  38 H :    0.158892
  39 H :    0.165395
  40 H :    0.160676

  Mayer bond orders larger than 0.100000
B(  0-C ,  1-C ) :   0.9593 B(  0-C , 19-H ) :   0.9723 B(  0-C , 20-H ) :   0.9720
B(  0-C , 21-H ) :   0.9626 B(  1-C ,  2-O ) :   0.7785 B(  1-C , 22-H ) :   0.9392
B(  1-C , 23-H ) :   0.9452 B(  2-O ,  3-P ) :   1.0403 B(  3-P ,  4-S ) :   1.8754
B(  3-P ,  5-O ) :   1.1498 B(  3-P ,  8-S ) :   0.9877 B(  5-O ,  6-C ) :   0.7555
B(  6-C ,  7-C ) :   0.9444 B(  6-C , 24-H ) :   0.9597 B(  6-C , 25-H ) :   0.9646
B(  7-C , 26-H ) :   0.9665 B(  7-C , 27-H ) :   0.9703 B(  7-C , 28-H ) :   0.9651
B(  8-S ,  9-C ) :   0.8870 B(  9-C , 10-S ) :   0.9327 B(  9-C , 29-H ) :   0.9145
B(  9-C , 30-H ) :   0.9120 B( 10-S , 11-P ) :   0.9990 B( 11-P , 12-S ) :   1.8214
B( 11-P , 13-O ) :   1.1582 B( 11-P , 16-O ) :   1.0389 B( 13-O , 14-C ) :   0.7421
B( 14-C , 15-C ) :   0.9573 B( 14-C , 31-H ) :   0.9590 B( 14-C , 32-H ) :   0.9712
B( 15-C , 33-H ) :   0.9674 B( 15-C , 34-H ) :   0.9610 B( 15-C , 35-H ) :   0.9481
B( 16-O , 17-C ) :   0.8225 B( 17-C , 18-C ) :   0.9185 B( 17-C , 36-H ) :   0.9617
B( 17-C , 37-H ) :   0.9700 B( 18-C , 38-H ) :   0.9569 B( 18-C , 39-H ) :   0.9643
B( 18-C , 40-H ) :   0.9664

Dispersion correction           -0.021167473
FINAL SINGLE POINT ENERGY     -2932.461793045314

DIPOLE MOMENT
-------------

Method             : SCF
Type of density    : Electron Density
Multiplicity       :   1
Irrep              :   0
Energy             : -2932.4867679672906888 Eh
Relativity type    :
Basis              : AO
                                X                 Y                 Z
Electronic contribution:    -10.635294862      -6.426876487       0.319633609
Nuclear contribution   :     11.200489693       6.793174765      -0.467402163
                        -----------------------------------------
Total Dipole Moment    :      0.565194831       0.366298278      -0.147768554
                        -----------------------------------------
Magnitude (a.u.)       :      0.689532574
Magnitude (Debye)      :      1.752652518

Rotational constants in cm-1:             0.013411             0.004459             0.004106
Rotational constants in MHz :           402.037187           133.664104           123.090617

                             ****ORCA TERMINATED NORMALLY****
TOTAL RUN TIME: 0 days 0 hours 1 minutes 16 seconds 950 msec
