                         Program Version 6.0.0  -   RELEASE  -
|  1> ! r2scan-3c def2/J RI DEFGRID2 scfconv6 printgap
|  2> %output
|  3>     printlevel normal
|  4> end
|  5> %cpcm
|  6>     smd true
|  7>     smdsolvent "water"
|  8> end
|  9> * xyz 0 1
| 10> C 4.6247463595 2.592151122 -0.6269280193
| 11> C 3.2406121769 2.0141844444 -0.4118873932
| 12> O 3.3934230319 0.6743904513 0.1014540421
| 13> P 2.2266351114 -0.0490285553 0.8956294491
| 14> S 1.4402856446 0.957903128 2.373016098
| 15> O 2.8873170026 -1.3890125903 1.3934939887
| 16> C 3.6602082417 -2.272694304 0.5412748075
| 17> C 5.1386378331 -1.960654804 0.6450038082
| 18> S 0.9012314276 -0.6471084721 -0.6784404369
| 19> C -0.3161317736 -1.4542832505 0.3980491231
| 20> S -1.6226505865 -0.3439739621 0.9767026429
| 21> P -2.5350678219 -0.0616144734 -0.9345837386
| 22> S -2.4372749537 -1.5712163051 -2.1695138402
| 23> O -1.8812699333 1.2396497835 -1.5401675867
| 24> C -1.9193821253 2.5342030791 -0.8828079031
| 25> C -0.5143780132 2.9691059772 -0.5196404128
| 26> O -3.9982338415 0.4525877393 -0.5766368988
| 27> C -5.1079514466 -0.4403635336 -0.369423561
| 28> C -4.9308387611 -1.3094079225 0.858643088
| 29> H 5.164763251 2.6271280581 0.31507139
| 30> H 5.1805031965 1.9799502534 -1.3312907985
| 31> H 4.5313931909 3.5980845827 -1.0225259451
| 32> H 2.6821848806 1.9534125609 -1.3495576556
| 33> H 2.6693376084 2.6032810781 0.3126764691
| 34> H 3.4381853067 -3.2733825156 0.916472241
| 35> H 3.3037536972 -2.1740771485 -0.4876586155
| 36> H 5.3408094065 -0.9619622533 0.2682126424
| 37> H 5.4582807158 -2.0159033352 1.6819955559
| 38> H 5.6953595059 -2.6852327886 0.0588856061
| 39> H 0.179588694 -1.8430888228 1.2854709225
| 40> H -0.7666483079 -2.2521624126 -0.1925897315
| 41> H -2.3670954761 3.2100000366 -1.6131124209
| 42> H -2.5577975799 2.4721826911 0.0008864111
| 43> H 0.1254234655 2.923147933 -1.3968193834
| 44> H -0.5422862626 3.9876518926 -0.146280062
| 45> H -0.101024816 2.3268004314 0.2562274292
| 46> H -5.962429829 0.2304139405 -0.2689726058
| 47> H -5.2219683107 -1.058939291 -1.2648178919
| 48> H -5.8470902089 -1.8618944692 1.0402975248
| 49> H -4.1185031822 -2.0170629054 0.7001694945
| 50> H -4.6992084576 -0.6977948808 1.7272531708
| 51> *
| 52>
| 53>                          ****END OF INPUT****

CARTESIAN COORDINATES (ANGSTROEM)
---------------------------------
  C      4.624746    2.592151   -0.626928
  C      3.240612    2.014184   -0.411887
  O      3.393423    0.674390    0.101454
  P      2.226635   -0.049029    0.895629
  S      1.440286    0.957903    2.373016
  O      2.887317   -1.389013    1.393494
  C      3.660208   -2.272694    0.541275
  C      5.138638   -1.960655    0.645004
  S      0.901231   -0.647108   -0.678440
  C     -0.316132   -1.454283    0.398049
  S     -1.622651   -0.343974    0.976703
  P     -2.535068   -0.061614   -0.934584
  S     -2.437275   -1.571216   -2.169514
  O     -1.881270    1.239650   -1.540168
  C     -1.919382    2.534203   -0.882808
  C     -0.514378    2.969106   -0.519640
  O     -3.998234    0.452588   -0.576637
  C     -5.107951   -0.440364   -0.369424
  C     -4.930839   -1.309408    0.858643
  H      5.164763    2.627128    0.315071
  H      5.180503    1.979950   -1.331291
  H      4.531393    3.598085   -1.022526
  H      2.682185    1.953413   -1.349558
  H      2.669338    2.603281    0.312676
  H      3.438185   -3.273383    0.916472
  H      3.303754   -2.174077   -0.487659
  H      5.340809   -0.961962    0.268213
  H      5.458281   -2.015903    1.681996
  H      5.695360   -2.685233    0.058886
  H      0.179589   -1.843089    1.285471
  H     -0.766648   -2.252162   -0.192590
  H     -2.367095    3.210000   -1.613112
  H     -2.557798    2.472183    0.000886
  H      0.125423    2.923148   -1.396819
  H     -0.542286    3.987652   -0.146280
  H     -0.101025    2.326800    0.256227
  H     -5.962430    0.230414   -0.268973
  H     -5.221968   -1.058939   -1.264818
  H     -5.847090   -1.861894    1.040298
  H     -4.118503   -2.017063    0.700169
  H     -4.699208   -0.697795    1.727253

 Total Charge           Charge          ....    0
 Multiplicity           Mult            ....    1
 Number of Electrons    NEL             ....  202
 Basis Dimension        Dim             ....  539

ORBITAL ENERGIES
----------------

  NO   OCC          E(Eh)            E(eV)
   0   2.0000     -88.575841     -2410.2712
   1   2.0000     -88.575318     -2410.2569
   2   2.0000     -88.530614     -2409.0405
   3   2.0000     -88.528111     -2408.9724
   4   2.0000     -76.919690     -2093.0912
   5   2.0000     -76.918891     -2093.0694
   6   2.0000     -18.997585      -516.9506
   7   2.0000     -18.997206      -516.9402
   8   2.0000     -18.994776      -516.8741
   9   2.0000     -18.992275      -516.8061
  10   2.0000     -10.104068      -274.9457
  11   2.0000     -10.092136      -274.6210
  12   2.0000     -10.092115      -274.6204
  13   2.0000     -10.091570      -274.6056
  14   2.0000     -10.090349      -274.5724
  15   2.0000     -10.020202      -272.6636
  16   2.0000     -10.018448      -272.6158
  17   2.0000     -10.018153      -272.6078
  18   2.0000     -10.015139      -272.5258
  19   2.0000      -7.869845      -214.1494
  20   2.0000      -7.869378      -214.1367
  21   2.0000      -7.825842      -212.9520
  22   2.0000      -7.823239      -212.8812
  23   2.0000      -6.598175      -179.5455
  24   2.0000      -6.597443      -179.5255
  25   2.0000      -5.816607      -158.2779
  26   2.0000      -5.816201      -158.2669
  27   2.0000      -5.813770      -158.2007
  28   2.0000      -5.813312      -158.1883
  29   2.0000      -5.807080      -158.0187
  30   2.0000      -5.806537      -158.0039
  31   2.0000      -5.773408      -157.1024
  32   2.0000      -5.770903      -157.0343
  33   2.0000      -5.766037      -156.9018
  34   2.0000      -5.765909      -156.8984
  35   2.0000      -5.763525      -156.8335
  36   2.0000      -5.763159      -156.8235
  37   2.0000      -4.744076      -129.0929
  38   2.0000      -4.743235      -129.0700
  39   2.0000      -4.743216      -129.0695
  40   2.0000      -4.742184      -129.0414
  41   2.0000      -4.741477      -129.0221
  42   2.0000      -4.741134      -129.0128
  43   2.0000      -1.055788       -28.7295
  44   2.0000      -1.052650       -28.6441
  45   2.0000      -1.015325       -27.6284
  46   2.0000      -1.010503       -27.4972
  47   2.0000      -0.800406       -21.7802
  48   2.0000      -0.756383       -20.5822
  49   2.0000      -0.746149       -20.3037
  50   2.0000      -0.728402       -19.8208
  51   2.0000      -0.724392       -19.7117
  52   2.0000      -0.707897       -19.2628
  53   2.0000      -0.688461       -18.7340
  54   2.0000      -0.675185       -18.3727
  55   2.0000      -0.624082       -16.9821
  56   2.0000      -0.616258       -16.7692
  57   2.0000      -0.601309       -16.3624
  58   2.0000      -0.597957       -16.2712
  59   2.0000      -0.588590       -16.0164
  60   2.0000      -0.533185       -14.5087
  61   2.0000      -0.521915       -14.2020
  62   2.0000      -0.499443       -13.5905
  63   2.0000      -0.488262       -13.2863
  64   2.0000      -0.475906       -12.9501
  65   2.0000      -0.459975       -12.5165
  66   2.0000      -0.455835       -12.4039
  67   2.0000      -0.452203       -12.3051
  68   2.0000      -0.443858       -12.0780
  69   2.0000      -0.433928       -11.8078
  70   2.0000      -0.419914       -11.4264
  71   2.0000      -0.406940       -11.0734
  72   2.0000      -0.404784       -11.0147
  73   2.0000      -0.393716       -10.7136
  74   2.0000      -0.384661       -10.4672
  75   2.0000      -0.383622       -10.4389
  76   2.0000      -0.382586       -10.4107
  77   2.0000      -0.370102       -10.0710
  78   2.0000      -0.365489        -9.9455
  79   2.0000      -0.362071        -9.8525
  80   2.0000      -0.357971        -9.7409
  81   2.0000      -0.352847        -9.6014
  82   2.0000      -0.350427        -9.5356
  83   2.0000      -0.348299        -9.4777
  84   2.0000      -0.344797        -9.3824
  85   2.0000      -0.328994        -8.9524
  86   2.0000      -0.322752        -8.7825
  87   2.0000      -0.314673        -8.5627
  88   2.0000      -0.310675        -8.4539
  89   2.0000      -0.305114        -8.3026
  90   2.0000      -0.303197        -8.2504
  91   2.0000      -0.288129        -7.8404
  92   2.0000      -0.285490        -7.7686
  93   2.0000      -0.277862        -7.5610
  94   2.0000      -0.274422        -7.4674
  95   2.0000      -0.250735        -6.8229
  96   2.0000      -0.236976        -6.4485
  97   2.0000      -0.234909        -6.3922
  98   2.0000      -0.230170        -6.2632
  99   2.0000      -0.220264        -5.9937
 100   2.0000      -0.216406        -5.8887
 101   0.0000      -0.047735        -1.2989
 102   0.0000      -0.034922        -0.9503
 103   0.0000      -0.005948        -0.1619
 104   0.0000       0.004508         0.1227
 105   0.0000       0.005843         0.1590

MULLIKEN ATOMIC CHARGES
-----------------------
   0 C :   -0.490377
   1 C :   -0.130023
   2 O :   -0.298252
   3 P :    0.664393
   4 S :   -0.476079
   5 O :   -0.312654
   6 C :   -0.098632
   7 C :   -0.499025
   8 S :   -0.187803
   9 C :   -0.247194
  10 S :   -0.124114
  11 P :    0.669628
  12 S :   -0.499706
  13 O :   -0.302047
  14 C :   -0.122332
  15 C :   -0.493288
  16 O :   -0.313654
  17 C :   -0.161471
  18 C :   -0.479077
  19 H :    0.167998
  20 H :    0.166950
  21 H :    0.170026
  22 H :    0.175160
  23 H :    0.172305
  24 H :    0.177542
  25 H :    0.173667
  26 H :    0.169780
  27 H :    0.167309
  28 H :    0.171499
  29 H :    0.225465
  30 H :    0.234448
  31 H :    0.176746
  32 H :    0.172659
  33 H :    0.165634
  34 H :    0.169387
  35 H :    0.178479
  36 H :    0.175326
  37 H :    0.178751
  38 H :    0.171911
  39 H :    0.173236
  40 H :    0.167428
Sum of atomic charges:    0.0000000

LOEWDIN ATOMIC CHARGES
----------------------
   0 C :   -0.388604
   1 C :    0.027043
   2 O :   -0.678711
   3 P :    0.374425
   4 S :   -0.138413
   5 O :   -0.671804
   6 C :    0.031528
   7 C :   -0.395885
   8 S :    0.128720
   9 C :   -0.414125
  10 S :    0.139799
  11 P :    0.380088
  12 S :   -0.141711
  13 O :   -0.674536
  14 C :    0.031628
  15 C :   -0.410041
  16 O :   -0.680492
  17 C :    0.027697
  18 C :   -0.411471
  19 H :    0.163824
  20 H :    0.163757
  21 H :    0.169529
  22 H :    0.180969
  23 H :    0.182810
  24 H :    0.190515
  25 H :    0.182426
  26 H :    0.165961
  27 H :    0.163463
  28 H :    0.169039
  29 H :    0.199239
  30 H :    0.197266
  31 H :    0.189541
  32 H :    0.184010
  33 H :    0.163757
  34 H :    0.167390
  35 H :    0.165626
  36 H :    0.191189
  37 H :    0.181329
  38 H :    0.168041
  39 H :    0.161646
  40 H :    0.163542

  Mayer bond orders larger than 0.100000
B(  0-C ,  1-C ) :   0.9565 B(  0-C , 19-H ) :   0.9701 B(  0-C , 20-H ) :   0.9683
B(  0-C , 21-H ) :   0.9573 B(  1-C ,  2-O ) :   0.7691 B(  1-C , 22-H ) :   0.9298
B(  1-C , 23-H ) :   0.9434 B(  2-O ,  3-P ) :   1.0586 B(  3-P ,  4-S ) :   1.8401
B(  3-P ,  5-O ) :   1.1625 B(  3-P ,  8-S ) :   0.9924 B(  5-O ,  6-C ) :   0.7455
B(  6-C ,  7-C ) :   0.9334 B(  6-C , 24-H ) :   0.9509 B(  6-C , 25-H ) :   0.9574
B(  7-C , 26-H ) :   0.9658 B(  7-C , 27-H ) :   0.9692 B(  7-C , 28-H ) :   0.9589
B(  8-S ,  9-C ) :   0.8765 B(  9-C , 10-S ) :   0.9203 B(  9-C , 29-H ) :   0.9044
B(  9-C , 30-H ) :   0.9086 B( 10-S , 11-P ) :   1.0097 B( 11-P , 12-S ) :   1.8030
B( 11-P , 13-O ) :   1.1607 B( 11-P , 16-O ) :   1.0484 B( 13-O , 14-C ) :   0.7291
B( 14-C , 15-C ) :   0.9438 B( 14-C , 31-H ) :   0.9478 B( 14-C , 32-H ) :   0.9630
B( 15-C , 33-H ) :   0.9642 B( 15-C , 34-H ) :   0.9565 B( 15-C , 35-H ) :   0.9552
B( 16-O , 17-C ) :   0.8105 B( 17-C , 18-C ) :   0.9073 B( 17-C , 36-H ) :   0.9509
B( 17-C , 37-H ) :   0.9681 B( 18-C , 38-H ) :   0.9516 B( 18-C , 39-H ) :   0.9652
B( 18-C , 40-H ) :   0.9642

Dispersion correction           -0.021167473
FINAL SINGLE POINT ENERGY     -2932.473101592547

DIPOLE MOMENT
-------------

Method             : SCF
Type of density    : Electron Density
Multiplicity       :   1
Irrep              :   0
Energy             : -2932.4980765145237456 Eh
Relativity type    :
Basis              : AO
                                X                 Y                 Z
Electronic contribution:    -10.614835530      -6.380072275       0.246594032
Nuclear contribution   :     11.200489693       6.793174765      -0.467402163
                        -----------------------------------------
Total Dipole Moment    :      0.585654163       0.413102490      -0.220808131
                        -----------------------------------------
Magnitude (a.u.)       :      0.749933795
Magnitude (Debye)      :      1.906180219

Rotational constants in cm-1:             0.013411             0.004459             0.004106
Rotational constants in MHz :           402.037187           133.664104           123.090617

                             ****ORCA TERMINATED NORMALLY****
TOTAL RUN TIME: 0 days 0 hours 1 minutes 48 seconds 94 msec
