                         Program Version 6.0.1  -  RELEASE   -
|  1> ! pbe def2-sv(p) def2/J RI DEFGRID1 loosescf d4 GCP(DFT/SV(P)) printgap
|  2> %output
|  3>     printlevel normal
|  4> end
|  5> * xyz 0 1
|  6> C 4.1657601055 -1.3091051315 1.2738757027
|  7> C 2.9525913221 -2.1385565558 0.8864674311
|  8> O 2.4588217785 -1.7481704992 -0.4090963037
|  9> C 1.606165806 -0.760304043 -0.4820625526
| 10> O 1.1993510913 -0.1112651835 0.4678027546
| 11> C 1.18224019 -0.4564944884 -1.9011255596
| 12> C 0.305569903 0.7887264094 -1.8954594782
| 13> H 0.2284118886 1.2001844579 -2.9062053126
| 14> C 0.9371735074 1.8547563877 -1.0051361172
| 15> O 2.1139033926 2.1305233761 -1.0943869791
| 16> O 0.0735169748 2.4706842853 -0.231604987
| 17> C 0.5647787166 3.5190191022 0.6296933584
| 18> C 1.3452639613 2.9627452708 1.8091791122
| 19> S -1.4351716187 0.4674243442 -1.464132286
| 20> P -1.5355602659 -0.7334318849 0.2895713864
| 21> S -0.7010236195 -2.5097105987 0.3212807238
| 22> O -1.2947575527 0.1429822908 1.5825188846
| 23> C -2.1121271357 1.2947194219 1.8735130524
| 24> O -3.1343226157 -0.8533987162 0.3430396561
| 25> C -3.8564326688 -1.6887892451 -0.5661764333
| 26> H 4.5388780857 -1.646841773 2.234849274
| 27> H 4.9455745085 -1.4162747671 0.525179668
| 28> H 3.8912355448 -0.2588486139 1.3493963262
| 29> H 2.143910298 -2.0221890692 1.6143409879
| 30> H 3.203603091 -3.193024137 0.7729126517
| 31> H 0.661035102 -1.3192990347 -2.3189982769
| 32> H 2.0845107568 -0.2794472709 -2.4891011842
| 33> H 1.1944861376 4.1842060182 0.0320124963
| 34> H -0.3380939112 4.0365839558 0.9534747506
| 35> H 0.7868069716 2.1606701233 2.2851068841
| 36> H 2.2954822671 2.5560177501 1.4708422056
| 37> H 1.5315355365 3.7555787946 2.5256627899
| 38> H -2.0708171692 1.9979918372 1.0425663479
| 39> H -1.6806331044 1.7293182271 2.7714580927
| 40> H -3.1391647795 0.9814770848 2.0504053063
| 41> H -3.357447774 -2.65440534 -0.6642914556
| 42> H -3.9251452383 -1.2030891072 -1.5385919854
| 43> H -4.8432306384 -1.815245677 -0.1280645349
| 44> *
| 45>
| 46>                          ****END OF INPUT****

CARTESIAN COORDINATES (ANGSTROEM)
---------------------------------
  C      4.165760   -1.309105    1.273876
  C      2.952591   -2.138557    0.886467
  O      2.458822   -1.748170   -0.409096
  C      1.606166   -0.760304   -0.482063
  O      1.199351   -0.111265    0.467803
  C      1.182240   -0.456494   -1.901126
  C      0.305570    0.788726   -1.895459
  H      0.228412    1.200184   -2.906205
  C      0.937174    1.854756   -1.005136
  O      2.113903    2.130523   -1.094387
  O      0.073517    2.470684   -0.231605
  C      0.564779    3.519019    0.629693
  C      1.345264    2.962745    1.809179
  S     -1.435172    0.467424   -1.464132
  P     -1.535560   -0.733432    0.289571
  S     -0.701024   -2.509711    0.321281
  O     -1.294758    0.142982    1.582519
  C     -2.112127    1.294719    1.873513
  O     -3.134323   -0.853399    0.343040
  C     -3.856433   -1.688789   -0.566176
  H      4.538878   -1.646842    2.234849
  H      4.945575   -1.416275    0.525180
  H      3.891236   -0.258849    1.349396
  H      2.143910   -2.022189    1.614341
  H      3.203603   -3.193024    0.772913
  H      0.661035   -1.319299   -2.318998
  H      2.084511   -0.279447   -2.489101
  H      1.194486    4.184206    0.032012
  H     -0.338094    4.036584    0.953475
  H      0.786807    2.160670    2.285107
  H      2.295482    2.556018    1.470842
  H      1.531536    3.755579    2.525663
  H     -2.070817    1.997992    1.042566
  H     -1.680633    1.729318    2.771458
  H     -3.139165    0.981477    2.050405
  H     -3.357448   -2.654405   -0.664291
  H     -3.925145   -1.203089   -1.538592
  H     -4.843231   -1.815246   -0.128065

 Total Charge           Charge          ....    0
 Multiplicity           Mult            ....    1
 Number of Electrons    NEL             ....  174
 Basis Dimension        Dim             ....  316

ORBITAL ENERGIES
----------------

  NO   OCC          E(Eh)            E(eV)
   0   2.0000     -88.035300     -2395.5623
   1   2.0000     -87.976253     -2393.9556
   2   2.0000     -76.423390     -2079.5862
   3   2.0000     -18.803826      -511.6781
   4   2.0000     -18.803132      -511.6592
   5   2.0000     -18.788319      -511.2562
   6   2.0000     -18.787978      -511.2469
   7   2.0000     -18.741174      -509.9733
   8   2.0000     -18.733986      -509.7777
   9   2.0000     -10.014159      -272.4991
  10   2.0000     -10.013901      -272.4921
  11   2.0000      -9.949395      -270.7368
  12   2.0000      -9.948749      -270.7192
  13   2.0000      -9.943076      -270.5649
  14   2.0000      -9.941674      -270.5267
  15   2.0000      -9.940482      -270.4943
  16   2.0000      -9.910398      -269.6756
  17   2.0000      -9.882461      -268.9154
  18   2.0000      -9.878906      -268.8187
  19   2.0000      -7.680015      -208.9838
  20   2.0000      -7.621497      -207.3915
  21   2.0000      -6.419902      -174.6944
  22   2.0000      -5.708119      -155.3258
  23   2.0000      -5.704348      -155.2232
  24   2.0000      -5.696949      -155.0219
  25   2.0000      -5.650728      -153.7641
  26   2.0000      -5.641799      -153.5211
  27   2.0000      -5.641563      -153.5147
  28   2.0000      -4.643024      -126.3431
  29   2.0000      -4.641826      -126.3105
  30   2.0000      -4.639956      -126.2596
  31   2.0000      -1.014693       -27.6112
  32   2.0000      -1.009770       -27.4772
  33   2.0000      -0.982903       -26.7461
  34   2.0000      -0.937442       -25.5091
  35   2.0000      -0.921334       -25.0708
  36   2.0000      -0.913146       -24.8480
  37   2.0000      -0.761703       -20.7270
  38   2.0000      -0.709698       -19.3119
  39   2.0000      -0.698397       -19.0043
  40   2.0000      -0.690314       -18.7844
  41   2.0000      -0.655348       -17.8329
  42   2.0000      -0.633961       -17.2510
  43   2.0000      -0.620973       -16.8975
  44   2.0000      -0.609917       -16.5967
  45   2.0000      -0.596804       -16.2399
  46   2.0000      -0.566322       -15.4104
  47   2.0000      -0.512883       -13.9563
  48   2.0000      -0.500185       -13.6107
  49   2.0000      -0.491092       -13.3633
  50   2.0000      -0.482826       -13.1384
  51   2.0000      -0.472287       -12.8516
  52   2.0000      -0.450970       -12.2715
  53   2.0000      -0.438707       -11.9378
  54   2.0000      -0.434610       -11.8264
  55   2.0000      -0.432357       -11.7650
  56   2.0000      -0.428552       -11.6615
  57   2.0000      -0.423609       -11.5270
  58   2.0000      -0.412106       -11.2140
  59   2.0000      -0.405978       -11.0472
  60   2.0000      -0.396591       -10.7918
  61   2.0000      -0.395656       -10.7663
  62   2.0000      -0.389343       -10.5946
  63   2.0000      -0.385163       -10.4808
  64   2.0000      -0.374335       -10.1862
  65   2.0000      -0.371987       -10.1223
  66   2.0000      -0.351935        -9.5766
  67   2.0000      -0.350921        -9.5490
  68   2.0000      -0.341744        -9.2993
  69   2.0000      -0.334144        -9.0925
  70   2.0000      -0.328682        -8.9439
  71   2.0000      -0.322010        -8.7623
  72   2.0000      -0.318084        -8.6555
  73   2.0000      -0.313150        -8.5212
  74   2.0000      -0.299850        -8.1593
  75   2.0000      -0.296319        -8.0633
  76   2.0000      -0.292057        -7.9473
  77   2.0000      -0.290327        -7.9002
  78   2.0000      -0.264082        -7.1860
  79   2.0000      -0.261484        -7.1153
  80   2.0000      -0.259051        -7.0491
  81   2.0000      -0.251696        -6.8490
  82   2.0000      -0.242091        -6.5876
  83   2.0000      -0.230181        -6.2636
  84   2.0000      -0.211641        -5.7590
  85   2.0000      -0.193085        -5.2541
  86   2.0000      -0.189020        -5.1435
  87   0.0000      -0.040124        -1.0918
  88   0.0000      -0.022356        -0.6083
  89   0.0000      -0.018262        -0.4969
  90   0.0000      -0.005043        -0.1372
  91   0.0000       0.028326         0.7708

MULLIKEN ATOMIC CHARGES
-----------------------
   0 C :   -0.307520
   1 C :   -0.013528
   2 O :   -0.209921
   3 C :    0.134347
   4 O :   -0.221789
   5 C :   -0.075237
   6 C :   -0.286712
   7 H :    0.145479
   8 C :    0.204093
   9 O :   -0.211057
  10 O :   -0.215126
  11 C :   -0.012450
  12 C :   -0.322119
  13 S :   -0.101641
  14 P :    0.628377
  15 S :   -0.332287
  16 O :   -0.355887
  17 C :   -0.122035
  18 O :   -0.398462
  19 C :   -0.101958
  20 H :    0.112216
  21 H :    0.112869
  22 H :    0.132396
  23 H :    0.120640
  24 H :    0.103836
  25 H :    0.138154
  26 H :    0.128782
  27 H :    0.105297
  28 H :    0.097239
  29 H :    0.135948
  30 H :    0.137669
  31 H :    0.106286
  32 H :    0.133959
  33 H :    0.126948
  34 H :    0.126316
  35 H :    0.118651
  36 H :    0.116452
  37 H :    0.121775
Sum of atomic charges:   -0.0000000

LOEWDIN ATOMIC CHARGES
----------------------
   0 C :   -0.356179
   1 C :   -0.109257
   2 O :   -0.035298
   3 C :    0.029308
   4 O :   -0.167804
   5 C :   -0.251973
   6 C :   -0.262702
   7 H :    0.152505
   8 C :    0.016443
   9 O :   -0.174968
  10 O :   -0.050005
  11 C :   -0.105619
  12 C :   -0.360222
  13 S :    0.094242
  14 P :    0.579481
  15 S :   -0.311246
  16 O :   -0.230523
  17 C :   -0.213555
  18 O :   -0.262183
  19 C :   -0.218261
  20 H :    0.130437
  21 H :    0.124482
  22 H :    0.131045
  23 H :    0.122270
  24 H :    0.119090
  25 H :    0.147632
  26 H :    0.151982
  27 H :    0.118665
  28 H :    0.113100
  29 H :    0.131296
  30 H :    0.132657
  31 H :    0.126656
  32 H :    0.112976
  33 H :    0.120526
  34 H :    0.115378
  35 H :    0.109914
  36 H :    0.108944
  37 H :    0.120767

  Mayer bond orders larger than 0.100000
B(  0-C ,  1-C ) :   1.1695 B(  0-C , 20-H ) :   0.9444 B(  0-C , 21-H ) :   0.9476
B(  0-C , 22-H ) :   0.9437 B(  1-C ,  2-O ) :   0.9055 B(  1-C , 23-H ) :   0.9109
B(  1-C , 24-H ) :   0.9382 B(  2-O ,  3-C ) :   1.2839 B(  3-C ,  4-O ) :   1.8815
B(  3-C ,  5-C ) :   1.0096 B(  5-C ,  6-C ) :   1.0382 B(  5-C , 25-H ) :   0.8862
B(  5-C , 26-H ) :   0.8746 B(  6-C ,  7-H ) :   0.8663 B(  6-C ,  8-C ) :   0.8708
B(  6-C , 13-S ) :   1.0289 B(  8-C ,  9-O ) :   2.0389 B(  8-C , 10-O ) :   1.2733
B( 10-O , 11-C ) :   0.9134 B( 11-C , 12-C ) :   1.1734 B( 11-C , 27-H ) :   0.9223
B( 11-C , 28-H ) :   0.9366 B( 12-C , 29-H ) :   0.9377 B( 12-C , 30-H ) :   0.9374
B( 12-C , 31-H ) :   0.9414 B( 13-S , 14-P ) :   0.9797 B( 13-S , 15-S ) :   0.1159
B( 14-P , 15-S ) :   1.6066 B( 14-P , 16-O ) :   1.1268 B( 14-P , 18-O ) :   1.0396
B( 16-O , 17-C ) :   0.9183 B( 17-C , 32-H ) :   0.9298 B( 17-C , 33-H ) :   0.9527
B( 17-C , 34-H ) :   0.9449 B( 18-O , 19-C ) :   0.9346 B( 19-C , 35-H ) :   0.9300
B( 19-C , 36-H ) :   0.9493 B( 19-C , 37-H ) :   0.9584

Dispersion correction           -0.056343856
FINAL SINGLE POINT ENERGY     -1979.011366429602

DIPOLE MOMENT
-------------

Method             : SCF
Type of density    : Electron Density
Multiplicity       :   1
Irrep              :   0
Energy             : -1979.1413323553138071 Eh
Relativity type    :
Basis              : AO
                                X                 Y                 Z
Electronic contribution:     -9.508073201      -6.409520055      -8.752307444
Nuclear contribution   :      9.101827744       7.117871153       8.774553007
                        -----------------------------------------
Total Dipole Moment    :     -0.406245457       0.708351098       0.022245563
                        -----------------------------------------
Magnitude (a.u.)       :      0.816879130
Magnitude (Debye)      :      2.076341740

Rotational constants in cm-1:             0.012029             0.009542             0.007264
Rotational constants in MHz :           360.631171           286.056245           217.780776

                             ****ORCA TERMINATED NORMALLY****
TOTAL RUN TIME: 0 days 0 hours 0 minutes 44 seconds 407 msec
