                         Program Version 6.0.0  -   RELEASE  -
|  1> ! pbe def2-sv(p) def2/J RI DEFGRID1 loosescf d4 GCP(DFT/SV(P)) printgap
|  2> %output
|  3>     printlevel normal
|  4> end
|  5> * xyz 0 1
|  6> C 5.3564379424 1.418109316 -1.7683451959
|  7> C 4.0486035231 0.6536072402 -1.8195273793
|  8> O 3.7758774299 0.1432163151 -0.5000383029
|  9> P 2.3020723848 -0.0635833561 0.0275196357
| 10> S 1.0766492347 1.4152219803 -0.4025094277
| 11> O 2.7184382914 -0.2959053521 1.5326496008
| 12> C 1.8923252619 -0.8949682023 2.5476233611
| 13> C 0.9438060038 0.1126975351 3.1665849914
| 14> S 1.7336143901 -1.9703162224 -0.7339367143
| 15> C -0.0157235603 -1.6877185474 -1.083953551
| 16> S -1.027803806 -1.5607069409 0.43804186
| 17> P -2.2221276633 0.0977693905 -0.0583757827
| 18> S -2.2009975196 0.74867936 -1.9124096049
| 19> O -1.7774986292 1.0992870814 1.0832239504
| 20> C -2.2665841096 2.4583862846 1.114800681
| 21> C -1.3637036936 3.2569075407 2.0312846984
| 22> O -3.6857246291 -0.2745685987 0.4563723944
| 23> C -4.6596748726 -0.91942315 -0.3804198276
| 24> C -4.2442054087 -2.3262360585 -0.7600258441
| 25> H 6.1504987301 0.7664704584 -1.4160449929
| 26> H 5.5981625872 1.7789940638 -2.7627004876
| 27> H 5.268318913 2.2629393057 -1.0908653812
| 28> H 4.1128338325 -0.1989201566 -2.5005773857
| 29> H 3.2215037193 1.3027836231 -2.1300602937
| 30> H 1.3413163598 -1.7389208807 2.1190050874
| 31> H 2.6108599517 -1.2639441622 3.2819907979
| 32> H 0.2265176399 0.4665292952 2.4285326049
| 33> H 0.402714676 -0.3596697052 3.9801658699
| 34> H 1.4995028825 0.9655725752 3.5473243574
| 35> H -0.342243364 -2.5567870192 -1.6491468533
| 36> H -0.1443834899 -0.7676090389 -1.6598514954
| 37> H -2.2485121788 2.8565330998 0.0941336208
| 38> H -3.297731278 2.438693936 1.4767954978
| 39> H -0.3466953118 3.2421317046 1.6468198595
| 40> H -1.7151019898 4.2825750209 2.0726340357
| 41> H -1.3719669839 2.8281094095 3.0290671087
| 42> H -5.5678024419 -0.9145258762 0.2237264739
| 43> H -4.8025564984 -0.3068262662 -1.2763815744
| 44> H -3.9912161739 -2.89952613 0.128310041
| 45> H -5.0602394332 -2.812395568 -1.2848220219
| 46> H -3.3760133148 -2.2883112443 -1.4172435801
| 47> *
| 48>
| 49>                          ****END OF INPUT****

CARTESIAN COORDINATES (ANGSTROEM)
---------------------------------
  C      5.356438    1.418109   -1.768345
  C      4.048604    0.653607   -1.819527
  O      3.775877    0.143216   -0.500038
  P      2.302072   -0.063583    0.027520
  S      1.076649    1.415222   -0.402509
  O      2.718438   -0.295905    1.532650
  C      1.892325   -0.894968    2.547623
  C      0.943806    0.112698    3.166585
  S      1.733614   -1.970316   -0.733937
  C     -0.015724   -1.687719   -1.083954
  S     -1.027804   -1.560707    0.438042
  P     -2.222128    0.097769   -0.058376
  S     -2.200998    0.748679   -1.912410
  O     -1.777499    1.099287    1.083224
  C     -2.266584    2.458386    1.114801
  C     -1.363704    3.256908    2.031285
  O     -3.685725   -0.274569    0.456372
  C     -4.659675   -0.919423   -0.380420
  C     -4.244205   -2.326236   -0.760026
  H      6.150499    0.766470   -1.416045
  H      5.598163    1.778994   -2.762700
  H      5.268319    2.262939   -1.090865
  H      4.112834   -0.198920   -2.500577
  H      3.221504    1.302784   -2.130060
  H      1.341316   -1.738921    2.119005
  H      2.610860   -1.263944    3.281991
  H      0.226518    0.466529    2.428533
  H      0.402715   -0.359670    3.980166
  H      1.499503    0.965573    3.547324
  H     -0.342243   -2.556787   -1.649147
  H     -0.144383   -0.767609   -1.659851
  H     -2.248512    2.856533    0.094134
  H     -3.297731    2.438694    1.476795
  H     -0.346695    3.242132    1.646820
  H     -1.715102    4.282575    2.072634
  H     -1.371967    2.828109    3.029067
  H     -5.567802   -0.914526    0.223726
  H     -4.802556   -0.306826   -1.276382
  H     -3.991216   -2.899526    0.128310
  H     -5.060239   -2.812396   -1.284822
  H     -3.376013   -2.288311   -1.417244

 Total Charge           Charge          ....    0
 Multiplicity           Mult            ....    1
 Number of Electrons    NEL             ....  202
 Basis Dimension        Dim             ....  334

ORBITAL ENERGIES
----------------

  NO   OCC          E(Eh)            E(eV)
   0   2.0000     -88.046918     -2395.8784
   1   2.0000     -88.046107     -2395.8564
   2   2.0000     -87.987139     -2394.2518
   3   2.0000     -87.984004     -2394.1665
   4   2.0000     -76.425464     -2079.6426
   5   2.0000     -76.424653     -2079.6205
   6   2.0000     -18.789001      -511.2747
   7   2.0000     -18.788089      -511.2499
   8   2.0000     -18.787797      -511.2419
   9   2.0000     -18.787429      -511.2319
  10   2.0000      -9.956396      -270.9273
  11   2.0000      -9.950517      -270.7673
  12   2.0000      -9.949450      -270.7383
  13   2.0000      -9.948446      -270.7110
  14   2.0000      -9.947831      -270.6942
  15   2.0000      -9.884529      -268.9717
  16   2.0000      -9.883759      -268.9508
  17   2.0000      -9.879724      -268.8410
  18   2.0000      -9.873430      -268.6697
  19   2.0000      -7.691924      -209.3079
  20   2.0000      -7.690937      -209.2810
  21   2.0000      -7.632105      -207.6801
  22   2.0000      -7.628540      -207.5831
  23   2.0000      -6.423006      -174.7789
  24   2.0000      -6.421914      -174.7492
  25   2.0000      -5.719865      -155.6454
  26   2.0000      -5.718778      -155.6159
  27   2.0000      -5.716099      -155.5430
  28   2.0000      -5.715588      -155.5290
  29   2.0000      -5.709225      -155.3559
  30   2.0000      -5.707785      -155.3167
  31   2.0000      -5.660991      -154.0434
  32   2.0000      -5.657377      -153.9450
  33   2.0000      -5.652910      -153.8235
  34   2.0000      -5.652105      -153.8016
  35   2.0000      -5.649065      -153.7189
  36   2.0000      -5.648912      -153.7147
  37   2.0000      -4.645305      -126.4052
  38   2.0000      -4.644652      -126.3874
  39   2.0000      -4.644231      -126.3759
  40   2.0000      -4.644112      -126.3727
  41   2.0000      -4.643813      -126.3646
  42   2.0000      -4.642170      -126.3199
  43   2.0000      -0.986764       -26.8512
  44   2.0000      -0.984802       -26.7978
  45   2.0000      -0.941758       -25.6265
  46   2.0000      -0.941453       -25.6182
  47   2.0000      -0.763099       -20.7650
  48   2.0000      -0.721431       -19.6311
  49   2.0000      -0.709929       -19.3182
  50   2.0000      -0.685317       -18.6484
  51   2.0000      -0.680260       -18.5108
  52   2.0000      -0.675217       -18.3736
  53   2.0000      -0.648681       -17.6515
  54   2.0000      -0.635280       -17.2868
  55   2.0000      -0.597927       -16.2704
  56   2.0000      -0.590147       -16.0587
  57   2.0000      -0.570698       -15.5295
  58   2.0000      -0.561740       -15.2857
  59   2.0000      -0.557062       -15.1584
  60   2.0000      -0.503711       -13.7067
  61   2.0000      -0.499942       -13.6041
  62   2.0000      -0.471847       -12.8396
  63   2.0000      -0.470160       -12.7937
  64   2.0000      -0.449726       -12.2377
  65   2.0000      -0.443254       -12.0616
  66   2.0000      -0.436800       -11.8859
  67   2.0000      -0.435776       -11.8581
  68   2.0000      -0.426095       -11.5946
  69   2.0000      -0.422315       -11.4918
  70   2.0000      -0.405175       -11.0254
  71   2.0000      -0.400305       -10.8929
  72   2.0000      -0.392192       -10.6721
  73   2.0000      -0.388159       -10.5623
  74   2.0000      -0.376941       -10.2571
  75   2.0000      -0.371101       -10.0982
  76   2.0000      -0.362325        -9.8594
  77   2.0000      -0.352632        -9.5956
  78   2.0000      -0.351838        -9.5740
  79   2.0000      -0.349978        -9.5234
  80   2.0000      -0.343444        -9.3456
  81   2.0000      -0.341322        -9.2879
  82   2.0000      -0.336194        -9.1483
  83   2.0000      -0.331146        -9.0109
  84   2.0000      -0.329968        -8.9789
  85   2.0000      -0.313992        -8.5441
  86   2.0000      -0.312272        -8.4974
  87   2.0000      -0.295972        -8.0538
  88   2.0000      -0.295280        -8.0350
  89   2.0000      -0.291551        -7.9335
  90   2.0000      -0.284329        -7.7370
  91   2.0000      -0.271460        -7.3868
  92   2.0000      -0.265376        -7.2212
  93   2.0000      -0.263879        -7.1805
  94   2.0000      -0.256799        -6.9879
  95   2.0000      -0.241306        -6.5663
  96   2.0000      -0.221088        -6.0161
  97   2.0000      -0.214901        -5.8478
  98   2.0000      -0.204565        -5.5665
  99   2.0000      -0.198518        -5.4019
 100   2.0000      -0.189605        -5.1594
 101   0.0000      -0.046910        -1.2765
 102   0.0000      -0.037562        -1.0221
 103   0.0000      -0.011791        -0.3209
 104   0.0000       0.010907         0.2968
 105   0.0000       0.016158         0.4397

MULLIKEN ATOMIC CHARGES
-----------------------
   0 C :   -0.280810
   1 C :   -0.009221
   2 O :   -0.360194
   3 P :    0.597782
   4 S :   -0.314563
   5 O :   -0.351395
   6 C :   -0.007621
   7 C :   -0.335703
   8 S :   -0.118231
   9 C :   -0.344126
  10 S :   -0.104184
  11 P :    0.629685
  12 S :   -0.318584
  13 O :   -0.357983
  14 C :   -0.008660
  15 C :   -0.291066
  16 O :   -0.379487
  17 C :   -0.000185
  18 C :   -0.313807
  19 H :    0.116441
  20 H :    0.110394
  21 H :    0.120176
  22 H :    0.099340
  23 H :    0.106436
  24 H :    0.107043
  25 H :    0.104212
  26 H :    0.166042
  27 H :    0.102739
  28 H :    0.111764
  29 H :    0.181971
  30 H :    0.211712
  31 H :    0.107416
  32 H :    0.100103
  33 H :    0.135875
  34 H :    0.109275
  35 H :    0.115913
  36 H :    0.103311
  37 H :    0.109387
  38 H :    0.118849
  39 H :    0.112423
  40 H :    0.117529
Sum of atomic charges:   -0.0000000

LOEWDIN ATOMIC CHARGES
----------------------
   0 C :   -0.350522
   1 C :   -0.121493
   2 O :   -0.237828
   3 P :    0.559992
   4 S :   -0.298339
   5 O :   -0.229810
   6 C :   -0.116165
   7 C :   -0.371693
   8 S :    0.071022
   9 C :   -0.477637
  10 S :    0.087941
  11 P :    0.574394
  12 S :   -0.305294
  13 O :   -0.234904
  14 C :   -0.115138
  15 C :   -0.353710
  16 O :   -0.250770
  17 C :   -0.120152
  18 C :   -0.369179
  19 H :    0.126654
  20 H :    0.129903
  21 H :    0.129059
  22 H :    0.110447
  23 H :    0.106369
  24 H :    0.097200
  25 H :    0.118128
  26 H :    0.125013
  27 H :    0.127442
  28 H :    0.124926
  29 H :    0.134315
  30 H :    0.124979
  31 H :    0.110221
  32 H :    0.110592
  33 H :    0.129503
  34 H :    0.129261
  35 H :    0.125383
  36 H :    0.117829
  37 H :    0.109409
  38 H :    0.124349
  39 H :    0.130301
  40 H :    0.118006

  Mayer bond orders larger than 0.100000
B(  0-C ,  1-C ) :   1.1613 B(  0-C , 19-H ) :   0.9509 B(  0-C , 20-H ) :   0.9421
B(  0-C , 21-H ) :   0.9508 B(  1-C ,  2-O ) :   0.9085 B(  1-C , 22-H ) :   0.9316
B(  1-C , 23-H ) :   0.9022 B(  2-O ,  3-P ) :   1.1272 B(  3-P ,  4-S ) :   1.6422
B(  3-P ,  5-O ) :   1.1402 B(  3-P ,  8-S ) :   0.9251 B(  4-S ,  8-S ) :   0.1193
B(  5-O ,  6-C ) :   0.9142 B(  6-C ,  7-C ) :   1.1638 B(  6-C , 24-H ) :   0.9071
B(  6-C , 25-H ) :   0.9347 B(  7-C , 26-H ) :   0.9186 B(  7-C , 27-H ) :   0.9385
B(  7-C , 28-H ) :   0.9449 B(  8-S ,  9-C ) :   1.0122 B(  9-C , 10-S ) :   0.9857
B(  9-C , 29-H ) :   0.9064 B(  9-C , 30-H ) :   0.8485 B( 10-S , 11-P ) :   0.9596
B( 10-S , 12-S ) :   0.1175 B( 11-P , 12-S ) :   1.6046 B( 11-P , 13-O ) :   1.1299
B( 11-P , 16-O ) :   1.0932 B( 13-O , 14-C ) :   0.9007 B( 14-C , 15-C ) :   1.1635
B( 14-C , 31-H ) :   0.9133 B( 14-C , 32-H ) :   0.9308 B( 15-C , 33-H ) :   0.9410
B( 15-C , 34-H ) :   0.9409 B( 15-C , 35-H ) :   0.9482 B( 16-O , 17-C ) :   0.9172
B( 17-C , 18-C ) :   1.1644 B( 17-C , 36-H ) :   0.9339 B( 17-C , 37-H ) :   0.9151
B( 18-C , 38-H ) :   0.9436 B( 18-C , 39-H ) :   0.9381 B( 18-C , 40-H ) :   0.9369

Dispersion correction           -0.065860471
FINAL SINGLE POINT ENERGY     -2929.523895808040

DIPOLE MOMENT
-------------

Method             : SCF
Type of density    : Electron Density
Multiplicity       :   1
Irrep              :   0
Energy             : -2929.6421872894843546 Eh
Relativity type    :
Basis              : AO
                                X                 Y                 Z
Electronic contribution:      1.421612112      -7.102903577      -6.189235158
Nuclear contribution   :     -1.762994388       6.664893690       6.559097102
                        -----------------------------------------
Total Dipole Moment    :     -0.341382276      -0.438009886       0.369861944
                        -----------------------------------------
Magnitude (a.u.)       :      0.667227380
Magnitude (Debye)      :      1.695957221

Rotational constants in cm-1:             0.011881             0.005113             0.004829
Rotational constants in MHz :           356.187583           153.287845           144.766623

                             ****ORCA TERMINATED NORMALLY****
TOTAL RUN TIME: 0 days 0 hours 0 minutes 20 seconds 925 msec
