                         Program Version 6.0.0  -   RELEASE  -
|  1> ! r2scan-3c def2/J RI DEFGRID2 scfconv6 printgap
|  2> %output
|  3>     printlevel normal
|  4> end
|  5> * xyz 0 1
|  6> C 3.0854421294 1.896306688 2.732377201
|  7> C 1.7753694964 1.1663011771 2.5256420544
|  8> O 1.4867059675 1.0039040705 1.1231972399
|  9> P 2.305455141 0.0047570248 0.2050804279
| 10> S 3.0226690836 -1.5550947394 1.1625751807
| 11> O 3.3391124602 1.0042065148 -0.4677620206
| 12> C 4.0438659203 0.7825000379 -1.7027860803
| 13> C 4.7314035547 -0.5659160386 -1.7586832774
| 14> S 0.9180243922 -0.3972977778 -1.3459451102
| 15> C 0.1071347087 -1.7835307901 -0.514740908
| 16> S -0.9434033253 -1.2637576184 0.8695559589
| 17> P -2.4230649392 -0.3271333596 -0.3299496978
| 18> S -2.8269446668 -1.1516071059 -2.0506625312
| 19> O -1.96090167 1.1817223806 -0.5103436421
| 20> C -1.7586365494 2.0655948116 0.61746161
| 21> C -0.8600634083 3.1975791999 0.1654447105
| 22> O -3.5902107402 -0.3089472123 0.7573166858
| 23> C -4.9756079152 -0.4787727179 0.3962930713
| 24> C -5.5477076918 0.7970406233 -0.1889076
| 25> H 3.0694833611 2.8524978902 2.2165996783
| 26> H 3.248261826 2.0568367008 3.7933858508
| 27> H 3.9029250724 1.2965846469 2.3332664221
| 28> H 0.9275749256 1.7350657491 2.9094302578
| 29> H 1.8017927979 0.1772105757 2.9944745851
| 30> H 3.3286170175 0.8855086912 -2.5237317513
| 31> H 4.7663180238 1.6001243519 -1.7359681677
| 32> H 5.385937828 -0.6958405432 -0.8999446851
| 33> H 3.9916335072 -1.3656408485 -1.7529194734
| 34> H 5.3168944611 -0.6344703269 -2.6699370623
| 35> H 0.8633444066 -2.4510176595 -0.0994768011
| 36> H -0.5035810595 -2.2869367603 -1.26400656
| 37> H -2.7375897042 2.4317487339 0.9347728145
| 38> H -1.3089107737 1.4930799473 1.4351120299
| 39> H -0.7508222731 3.9120922151 0.9750313344
| 40> H 0.1185542376 2.8120359902 -0.1087513395
| 41> H -1.296038944 3.6920583829 -0.6978583484
| 42> H -5.0536505779 -1.2997877971 -0.3225535275
| 43> H -5.4644080742 -0.7549627237 1.3313111729
| 44> H -6.5926324366 0.6422007374 -0.4383310853
| 45> H -5.4663581486 1.6132879118 0.5240463971
| 46> H -5.0026546671 1.0600046929 -1.0954814635
| 47> *
| 48>
| 49>                          ****END OF INPUT****

CARTESIAN COORDINATES (ANGSTROEM)
---------------------------------
  C      3.085442    1.896307    2.732377
  C      1.775369    1.166301    2.525642
  O      1.486706    1.003904    1.123197
  P      2.305455    0.004757    0.205080
  S      3.022669   -1.555095    1.162575
  O      3.339112    1.004207   -0.467762
  C      4.043866    0.782500   -1.702786
  C      4.731404   -0.565916   -1.758683
  S      0.918024   -0.397298   -1.345945
  C      0.107135   -1.783531   -0.514741
  S     -0.943403   -1.263758    0.869556
  P     -2.423065   -0.327133   -0.329950
  S     -2.826945   -1.151607   -2.050663
  O     -1.960902    1.181722   -0.510344
  C     -1.758637    2.065595    0.617462
  C     -0.860063    3.197579    0.165445
  O     -3.590211   -0.308947    0.757317
  C     -4.975608   -0.478773    0.396293
  C     -5.547708    0.797041   -0.188908
  H      3.069483    2.852498    2.216600
  H      3.248262    2.056837    3.793386
  H      3.902925    1.296585    2.333266
  H      0.927575    1.735066    2.909430
  H      1.801793    0.177211    2.994475
  H      3.328617    0.885509   -2.523732
  H      4.766318    1.600124   -1.735968
  H      5.385938   -0.695841   -0.899945
  H      3.991634   -1.365641   -1.752919
  H      5.316894   -0.634470   -2.669937
  H      0.863344   -2.451018   -0.099477
  H     -0.503581   -2.286937   -1.264007
  H     -2.737590    2.431749    0.934773
  H     -1.308911    1.493080    1.435112
  H     -0.750822    3.912092    0.975031
  H      0.118554    2.812036   -0.108751
  H     -1.296039    3.692058   -0.697858
  H     -5.053651   -1.299788   -0.322554
  H     -5.464408   -0.754963    1.331311
  H     -6.592632    0.642201   -0.438331
  H     -5.466358    1.613288    0.524046
  H     -5.002655    1.060005   -1.095481

 Total Charge           Charge          ....    0
 Multiplicity           Mult            ....    1
 Number of Electrons    NEL             ....  202
 Basis Dimension        Dim             ....  539

ORBITAL ENERGIES
----------------

  NO   OCC          E(Eh)            E(eV)
   0   2.0000     -88.576312     -2410.2840
   1   2.0000     -88.572442     -2410.1787
   2   2.0000     -88.521769     -2408.7998
   3   2.0000     -88.521058     -2408.7804
   4   2.0000     -76.916317     -2092.9994
   5   2.0000     -76.912676     -2092.9003
   6   2.0000     -18.995461      -516.8928
   7   2.0000     -18.991736      -516.7914
   8   2.0000     -18.990778      -516.7653
   9   2.0000     -18.988122      -516.6931
  10   2.0000     -10.106172      -275.0029
  11   2.0000     -10.102283      -274.8971
  12   2.0000     -10.099896      -274.8321
  13   2.0000     -10.099298      -274.8159
  14   2.0000     -10.098743      -274.8008
  15   2.0000     -10.031920      -272.9824
  16   2.0000     -10.029914      -272.9278
  17   2.0000     -10.029128      -272.9064
  18   2.0000     -10.028681      -272.8943
  19   2.0000      -7.870532      -214.1681
  20   2.0000      -7.866655      -214.0626
  21   2.0000      -7.816657      -212.7021
  22   2.0000      -7.815880      -212.6809
  23   2.0000      -6.594673      -179.4502
  24   2.0000      -6.591238      -179.3567
  25   2.0000      -5.817370      -158.2987
  26   2.0000      -5.814354      -158.2166
  27   2.0000      -5.813491      -158.1931
  28   2.0000      -5.810628      -158.1152
  29   2.0000      -5.807740      -158.0366
  30   2.0000      -5.803707      -157.9269
  31   2.0000      -5.764386      -156.8569
  32   2.0000      -5.763535      -156.8338
  33   2.0000      -5.757018      -156.6564
  34   2.0000      -5.756462      -156.6413
  35   2.0000      -5.756259      -156.6358
  36   2.0000      -5.755774      -156.6226
  37   2.0000      -4.740219      -128.9879
  38   2.0000      -4.739757      -128.9753
  39   2.0000      -4.738213      -128.9333
  40   2.0000      -4.737094      -128.9029
  41   2.0000      -4.735871      -128.8696
  42   2.0000      -4.734935      -128.8441
  43   2.0000      -1.052540       -28.6411
  44   2.0000      -1.046996       -28.4902
  45   2.0000      -1.013305       -27.5734
  46   2.0000      -1.008260       -27.4362
  47   2.0000      -0.801748       -21.8167
  48   2.0000      -0.759817       -20.6757
  49   2.0000      -0.750027       -20.4093
  50   2.0000      -0.735390       -20.0110
  51   2.0000      -0.733654       -19.9637
  52   2.0000      -0.711124       -19.3507
  53   2.0000      -0.687067       -18.6960
  54   2.0000      -0.670607       -18.2482
  55   2.0000      -0.632034       -17.1985
  56   2.0000      -0.623639       -16.9701
  57   2.0000      -0.608994       -16.5716
  58   2.0000      -0.602913       -16.4061
  59   2.0000      -0.591752       -16.1024
  60   2.0000      -0.530347       -14.4315
  61   2.0000      -0.519083       -14.1250
  62   2.0000      -0.500164       -13.6102
  63   2.0000      -0.491250       -13.3676
  64   2.0000      -0.479639       -13.0516
  65   2.0000      -0.466583       -12.6964
  66   2.0000      -0.459459       -12.5025
  67   2.0000      -0.452609       -12.3161
  68   2.0000      -0.447787       -12.1849
  69   2.0000      -0.437557       -11.9065
  70   2.0000      -0.422387       -11.4937
  71   2.0000      -0.412928       -11.2363
  72   2.0000      -0.409553       -11.1445
  73   2.0000      -0.402094       -10.9415
  74   2.0000      -0.396089       -10.7781
  75   2.0000      -0.393426       -10.7057
  76   2.0000      -0.382943       -10.4204
  77   2.0000      -0.376396       -10.2422
  78   2.0000      -0.366621        -9.9763
  79   2.0000      -0.363611        -9.8943
  80   2.0000      -0.362205        -9.8561
  81   2.0000      -0.361817        -9.8455
  82   2.0000      -0.360550        -9.8111
  83   2.0000      -0.352831        -9.6010
  84   2.0000      -0.349997        -9.5239
  85   2.0000      -0.333558        -9.0766
  86   2.0000      -0.327754        -8.9186
  87   2.0000      -0.323429        -8.8010
  88   2.0000      -0.314338        -8.5536
  89   2.0000      -0.305340        -8.3087
  90   2.0000      -0.300663        -8.1815
  91   2.0000      -0.291974        -7.9450
  92   2.0000      -0.284096        -7.7306
  93   2.0000      -0.281199        -7.6518
  94   2.0000      -0.271697        -7.3932
  95   2.0000      -0.245521        -6.6810
  96   2.0000      -0.229776        -6.2525
  97   2.0000      -0.227301        -6.1852
  98   2.0000      -0.217810        -5.9269
  99   2.0000      -0.215621        -5.8673
 100   2.0000      -0.213899        -5.8205
 101   0.0000      -0.046232        -1.2580
 102   0.0000      -0.025377        -0.6905
 103   0.0000      -0.004408        -0.1200
 104   0.0000       0.004687         0.1276
 105   0.0000       0.014833         0.4036

MULLIKEN ATOMIC CHARGES
-----------------------
   0 C :   -0.450257
   1 C :   -0.144333
   2 O :   -0.257944
   3 P :    0.622069
   4 S :   -0.467559
   5 O :   -0.277779
   6 C :   -0.161381
   7 C :   -0.423026
   8 S :   -0.120672
   9 C :   -0.237543
  10 S :   -0.159058
  11 P :    0.650247
  12 S :   -0.444187
  13 O :   -0.251741
  14 C :   -0.087697
  15 C :   -0.469285
  16 O :   -0.313435
  17 C :   -0.152719
  18 C :   -0.446938
  19 H :    0.154858
  20 H :    0.148246
  21 H :    0.170541
  22 H :    0.146229
  23 H :    0.178487
  24 H :    0.155425
  25 H :    0.150092
  26 H :    0.164981
  27 H :    0.170018
  28 H :    0.147969
  29 H :    0.212047
  30 H :    0.218073
  31 H :    0.146664
  32 H :    0.154296
  33 H :    0.141548
  34 H :    0.180259
  35 H :    0.153212
  36 H :    0.175635
  37 H :    0.150302
  38 H :    0.149389
  39 H :    0.148153
  40 H :    0.176814
Sum of atomic charges:    0.0000000

LOEWDIN ATOMIC CHARGES
----------------------
   0 C :   -0.398390
   1 C :    0.014502
   2 O :   -0.684204
   3 P :    0.382090
   4 S :   -0.131319
   5 O :   -0.659548
   6 C :    0.025330
   7 C :   -0.406915
   8 S :    0.170937
   9 C :   -0.422598
  10 S :    0.162758
  11 P :    0.379335
  12 S :   -0.100604
  13 O :   -0.663509
  14 C :    0.020618
  15 C :   -0.389661
  16 O :   -0.679742
  17 C :    0.021653
  18 C :   -0.399344
  19 H :    0.159438
  20 H :    0.159591
  21 H :    0.166874
  22 H :    0.177039
  23 H :    0.182839
  24 H :    0.172959
  25 H :    0.181698
  26 H :    0.165359
  27 H :    0.166594
  28 H :    0.158747
  29 H :    0.193093
  30 H :    0.191745
  31 H :    0.169854
  32 H :    0.177023
  33 H :    0.158607
  34 H :    0.172176
  35 H :    0.161226
  36 H :    0.181124
  37 H :    0.179020
  38 H :    0.161143
  39 H :    0.155183
  40 H :    0.167276

  Mayer bond orders larger than 0.100000
B(  0-C ,  1-C ) :   0.9161 B(  0-C , 19-H ) :   0.9753 B(  0-C , 20-H ) :   0.9645
B(  0-C , 21-H ) :   0.9594 B(  1-C ,  2-O ) :   0.7696 B(  1-C , 22-H ) :   0.9627
B(  1-C , 23-H ) :   0.9571 B(  2-O ,  3-P ) :   1.1120 B(  3-P ,  4-S ) :   1.7690
B(  3-P ,  5-O ) :   1.0912 B(  3-P ,  8-S ) :   1.0844 B(  5-O ,  6-C ) :   0.8032
B(  6-C ,  7-C ) :   0.9367 B(  6-C , 24-H ) :   0.9645 B(  6-C , 25-H ) :   0.9583
B(  7-C , 26-H ) :   0.9659 B(  7-C , 27-H ) :   0.9534 B(  7-C , 28-H ) :   0.9609
B(  8-S ,  9-C ) :   0.9183 B(  9-C , 10-S ) :   0.9146 B(  9-C , 29-H ) :   0.9028
B(  9-C , 30-H ) :   0.9056 B( 10-S , 11-P ) :   1.0470 B( 11-P , 12-S ) :   1.8403
B( 11-P , 13-O ) :   1.0998 B( 11-P , 16-O ) :   1.0648 B( 13-O , 14-C ) :   0.7444
B( 14-C , 15-C ) :   0.9387 B( 14-C , 31-H ) :   0.9463 B( 14-C , 32-H ) :   0.9536
B( 15-C , 33-H ) :   0.9679 B( 15-C , 34-H ) :   0.9657 B( 15-C , 35-H ) :   0.9690
B( 16-O , 17-C ) :   0.7945 B( 17-C , 18-C ) :   0.9282 B( 17-C , 36-H ) :   0.9653
B( 17-C , 37-H ) :   0.9620 B( 18-C , 38-H ) :   0.9621 B( 18-C , 39-H ) :   0.9726
B( 18-C , 40-H ) :   0.9608

Dispersion correction           -0.021695498
FINAL SINGLE POINT ENERGY     -2932.462181827986

DIPOLE MOMENT
-------------

Method             : SCF
Type of density    : Electron Density
Multiplicity       :   1
Irrep              :   0
Energy             : -2932.4870055667861379 Eh
Relativity type    :
Basis              : AO
                                X                 Y                 Z
Electronic contribution:     -2.526006639     -16.605351165      -5.049351146
Nuclear contribution   :      2.476769323      18.068207250       5.641922191
                        -----------------------------------------
Total Dipole Moment    :     -0.049237316       1.462856085       0.592571045
                        -----------------------------------------
Magnitude (a.u.)       :      1.579086027
Magnitude (Debye)      :      4.013717706

Rotational constants in cm-1:             0.013774             0.004738             0.004375
Rotational constants in MHz :           412.926287           142.044597           131.155241

                             ****ORCA TERMINATED NORMALLY****
TOTAL RUN TIME: 0 days 0 hours 1 minutes 21 seconds 145 msec
