                         Program Version 6.0.0  -   RELEASE  -
|  1> ! r2scan-3c def2/J RI DEFGRID2 scfconv6 printgap
|  2> %output
|  3>     printlevel normal
|  4> end
|  5> %cpcm
|  6>     smd true
|  7>     smdsolvent "water"
|  8> end
|  9> * xyz 0 1
| 10> C 3.0854421294 1.896306688 2.732377201
| 11> C 1.7753694964 1.1663011771 2.5256420544
| 12> O 1.4867059675 1.0039040705 1.1231972399
| 13> P 2.305455141 0.0047570248 0.2050804279
| 14> S 3.0226690836 -1.5550947394 1.1625751807
| 15> O 3.3391124602 1.0042065148 -0.4677620206
| 16> C 4.0438659203 0.7825000379 -1.7027860803
| 17> C 4.7314035547 -0.5659160386 -1.7586832774
| 18> S 0.9180243922 -0.3972977778 -1.3459451102
| 19> C 0.1071347087 -1.7835307901 -0.514740908
| 20> S -0.9434033253 -1.2637576184 0.8695559589
| 21> P -2.4230649392 -0.3271333596 -0.3299496978
| 22> S -2.8269446668 -1.1516071059 -2.0506625312
| 23> O -1.96090167 1.1817223806 -0.5103436421
| 24> C -1.7586365494 2.0655948116 0.61746161
| 25> C -0.8600634083 3.1975791999 0.1654447105
| 26> O -3.5902107402 -0.3089472123 0.7573166858
| 27> C -4.9756079152 -0.4787727179 0.3962930713
| 28> C -5.5477076918 0.7970406233 -0.1889076
| 29> H 3.0694833611 2.8524978902 2.2165996783
| 30> H 3.248261826 2.0568367008 3.7933858508
| 31> H 3.9029250724 1.2965846469 2.3332664221
| 32> H 0.9275749256 1.7350657491 2.9094302578
| 33> H 1.8017927979 0.1772105757 2.9944745851
| 34> H 3.3286170175 0.8855086912 -2.5237317513
| 35> H 4.7663180238 1.6001243519 -1.7359681677
| 36> H 5.385937828 -0.6958405432 -0.8999446851
| 37> H 3.9916335072 -1.3656408485 -1.7529194734
| 38> H 5.3168944611 -0.6344703269 -2.6699370623
| 39> H 0.8633444066 -2.4510176595 -0.0994768011
| 40> H -0.5035810595 -2.2869367603 -1.26400656
| 41> H -2.7375897042 2.4317487339 0.9347728145
| 42> H -1.3089107737 1.4930799473 1.4351120299
| 43> H -0.7508222731 3.9120922151 0.9750313344
| 44> H 0.1185542376 2.8120359902 -0.1087513395
| 45> H -1.296038944 3.6920583829 -0.6978583484
| 46> H -5.0536505779 -1.2997877971 -0.3225535275
| 47> H -5.4644080742 -0.7549627237 1.3313111729
| 48> H -6.5926324366 0.6422007374 -0.4383310853
| 49> H -5.4663581486 1.6132879118 0.5240463971
| 50> H -5.0026546671 1.0600046929 -1.0954814635
| 51> *
| 52>
| 53>                          ****END OF INPUT****

CARTESIAN COORDINATES (ANGSTROEM)
---------------------------------
  C      3.085442    1.896307    2.732377
  C      1.775369    1.166301    2.525642
  O      1.486706    1.003904    1.123197
  P      2.305455    0.004757    0.205080
  S      3.022669   -1.555095    1.162575
  O      3.339112    1.004207   -0.467762
  C      4.043866    0.782500   -1.702786
  C      4.731404   -0.565916   -1.758683
  S      0.918024   -0.397298   -1.345945
  C      0.107135   -1.783531   -0.514741
  S     -0.943403   -1.263758    0.869556
  P     -2.423065   -0.327133   -0.329950
  S     -2.826945   -1.151607   -2.050663
  O     -1.960902    1.181722   -0.510344
  C     -1.758637    2.065595    0.617462
  C     -0.860063    3.197579    0.165445
  O     -3.590211   -0.308947    0.757317
  C     -4.975608   -0.478773    0.396293
  C     -5.547708    0.797041   -0.188908
  H      3.069483    2.852498    2.216600
  H      3.248262    2.056837    3.793386
  H      3.902925    1.296585    2.333266
  H      0.927575    1.735066    2.909430
  H      1.801793    0.177211    2.994475
  H      3.328617    0.885509   -2.523732
  H      4.766318    1.600124   -1.735968
  H      5.385938   -0.695841   -0.899945
  H      3.991634   -1.365641   -1.752919
  H      5.316894   -0.634470   -2.669937
  H      0.863344   -2.451018   -0.099477
  H     -0.503581   -2.286937   -1.264007
  H     -2.737590    2.431749    0.934773
  H     -1.308911    1.493080    1.435112
  H     -0.750822    3.912092    0.975031
  H      0.118554    2.812036   -0.108751
  H     -1.296039    3.692058   -0.697858
  H     -5.053651   -1.299788   -0.322554
  H     -5.464408   -0.754963    1.331311
  H     -6.592632    0.642201   -0.438331
  H     -5.466358    1.613288    0.524046
  H     -5.002655    1.060005   -1.095481

 Total Charge           Charge          ....    0
 Multiplicity           Mult            ....    1
 Number of Electrons    NEL             ....  202
 Basis Dimension        Dim             ....  539

ORBITAL ENERGIES
----------------

  NO   OCC          E(Eh)            E(eV)
   0   2.0000     -88.580939     -2410.4099
   1   2.0000     -88.578734     -2410.3499
   2   2.0000     -88.532432     -2409.0899
   3   2.0000     -88.527207     -2408.9478
   4   2.0000     -76.920159     -2093.1039
   5   2.0000     -76.920023     -2093.1002
   6   2.0000     -18.996000      -516.9074
   7   2.0000     -18.993923      -516.8509
   8   2.0000     -18.992992      -516.8256
   9   2.0000     -18.991124      -516.7748
  10   2.0000     -10.104425      -274.9554
  11   2.0000     -10.093553      -274.6595
  12   2.0000     -10.090525      -274.5771
  13   2.0000     -10.090100      -274.5656
  14   2.0000     -10.088167      -274.5130
  15   2.0000     -10.018860      -272.6270
  16   2.0000     -10.018794      -272.6253
  17   2.0000     -10.018645      -272.6212
  18   2.0000     -10.018307      -272.6120
  19   2.0000      -7.875218      -214.2956
  20   2.0000      -7.872995      -214.2351
  21   2.0000      -7.827634      -213.0008
  22   2.0000      -7.822326      -212.8563
  23   2.0000      -6.598588      -179.5567
  24   2.0000      -6.598546      -179.5556
  25   2.0000      -5.822030      -158.4255
  26   2.0000      -5.819789      -158.3645
  27   2.0000      -5.819045      -158.3443
  28   2.0000      -5.816945      -158.2871
  29   2.0000      -5.812449      -158.1648
  30   2.0000      -5.810113      -158.1012
  31   2.0000      -5.775272      -157.1531
  32   2.0000      -5.769921      -157.0075
  33   2.0000      -5.767889      -156.9522
  34   2.0000      -5.767575      -156.9437
  35   2.0000      -5.762708      -156.8113
  36   2.0000      -5.762221      -156.7980
  37   2.0000      -4.744372      -129.1009
  38   2.0000      -4.744046      -129.0920
  39   2.0000      -4.743617      -129.0804
  40   2.0000      -4.743205      -129.0692
  41   2.0000      -4.742409      -129.0475
  42   2.0000      -4.742179      -129.0412
  43   2.0000      -1.052631       -28.6436
  44   2.0000      -1.049965       -28.5710
  45   2.0000      -1.012548       -27.5528
  46   2.0000      -1.010920       -27.5085
  47   2.0000      -0.805687       -21.9239
  48   2.0000      -0.757127       -20.6025
  49   2.0000      -0.744065       -20.2470
  50   2.0000      -0.726959       -19.7816
  51   2.0000      -0.723962       -19.7000
  52   2.0000      -0.710306       -19.3284
  53   2.0000      -0.690610       -18.7925
  54   2.0000      -0.676988       -18.4218
  55   2.0000      -0.630003       -17.1432
  56   2.0000      -0.619318       -16.8525
  57   2.0000      -0.601156       -16.3583
  58   2.0000      -0.597858       -16.2685
  59   2.0000      -0.590604       -16.0712
  60   2.0000      -0.527531       -14.3549
  61   2.0000      -0.514451       -13.9989
  62   2.0000      -0.496871       -13.5206
  63   2.0000      -0.485533       -13.2120
  64   2.0000      -0.478946       -13.0328
  65   2.0000      -0.462102       -12.5744
  66   2.0000      -0.452475       -12.3125
  67   2.0000      -0.448095       -12.1933
  68   2.0000      -0.443352       -12.0642
  69   2.0000      -0.433548       -11.7974
  70   2.0000      -0.420749       -11.4492
  71   2.0000      -0.409432       -11.1412
  72   2.0000      -0.404671       -11.0116
  73   2.0000      -0.399365       -10.8673
  74   2.0000      -0.394856       -10.7446
  75   2.0000      -0.392061       -10.6685
  76   2.0000      -0.382099       -10.3975
  77   2.0000      -0.372034       -10.1236
  78   2.0000      -0.358970        -9.7681
  79   2.0000      -0.356898        -9.7117
  80   2.0000      -0.354190        -9.6380
  81   2.0000      -0.352652        -9.5961
  82   2.0000      -0.352092        -9.5809
  83   2.0000      -0.349043        -9.4979
  84   2.0000      -0.346111        -9.4182
  85   2.0000      -0.328891        -8.9496
  86   2.0000      -0.323581        -8.8051
  87   2.0000      -0.320284        -8.7154
  88   2.0000      -0.309401        -8.4192
  89   2.0000      -0.299913        -8.1610
  90   2.0000      -0.299047        -8.1375
  91   2.0000      -0.289935        -7.8895
  92   2.0000      -0.283533        -7.7153
  93   2.0000      -0.281462        -7.6590
  94   2.0000      -0.272517        -7.4156
  95   2.0000      -0.250413        -6.8141
  96   2.0000      -0.238483        -6.4894
  97   2.0000      -0.236398        -6.4327
  98   2.0000      -0.226416        -6.1611
  99   2.0000      -0.223086        -6.0705
 100   2.0000      -0.222171        -6.0456
 101   0.0000      -0.052783        -1.4363
 102   0.0000      -0.032714        -0.8902
 103   0.0000      -0.008752        -0.2381
 104   0.0000       0.000100         0.0027
 105   0.0000       0.013410         0.3649

MULLIKEN ATOMIC CHARGES
-----------------------
   0 C :   -0.493285
   1 C :   -0.140018
   2 O :   -0.280389
   3 P :    0.666198
   4 S :   -0.515381
   5 O :   -0.306896
   6 C :   -0.161410
   7 C :   -0.463234
   8 S :   -0.139331
   9 C :   -0.244118
  10 S :   -0.175156
  11 P :    0.661002
  12 S :   -0.491016
  13 O :   -0.280594
  14 C :   -0.092857
  15 C :   -0.505077
  16 O :   -0.330949
  17 C :   -0.146473
  18 C :   -0.476039
  19 H :    0.171060
  20 H :    0.172770
  21 H :    0.166987
  22 H :    0.180779
  23 H :    0.177317
  24 H :    0.174201
  25 H :    0.177200
  26 H :    0.171012
  27 H :    0.166326
  28 H :    0.173848
  29 H :    0.230195
  30 H :    0.236286
  31 H :    0.175122
  32 H :    0.170458
  33 H :    0.172068
  34 H :    0.172149
  35 H :    0.165850
  36 H :    0.176767
  37 H :    0.175820
  38 H :    0.171906
  39 H :    0.168517
  40 H :    0.168388
Sum of atomic charges:    0.0000000

LOEWDIN ATOMIC CHARGES
----------------------
   0 C :   -0.402245
   1 C :    0.019566
   2 O :   -0.691403
   3 P :    0.388278
   4 S :   -0.160936
   5 O :   -0.670315
   6 C :    0.031349
   7 C :   -0.410517
   8 S :    0.162125
   9 C :   -0.418410
  10 S :    0.154102
  11 P :    0.381128
  12 S :   -0.135365
  13 O :   -0.683594
  14 C :    0.026619
  15 C :   -0.393131
  16 O :   -0.686556
  17 C :    0.027025
  18 C :   -0.401309
  19 H :    0.163636
  20 H :    0.168623
  21 H :    0.162762
  22 H :    0.190458
  23 H :    0.182279
  24 H :    0.179996
  25 H :    0.193229
  26 H :    0.164471
  27 H :    0.161977
  28 H :    0.168399
  29 H :    0.198365
  30 H :    0.196750
  31 H :    0.182172
  32 H :    0.182749
  33 H :    0.170778
  34 H :    0.167095
  35 H :    0.164010
  36 H :    0.181412
  37 H :    0.189966
  38 H :    0.169092
  39 H :    0.162723
  40 H :    0.162649

  Mayer bond orders larger than 0.100000
B(  0-C ,  1-C ) :   0.9018 B(  0-C , 19-H ) :   0.9742 B(  0-C , 20-H ) :   0.9584
B(  0-C , 21-H ) :   0.9603 B(  1-C ,  2-O ) :   0.7577 B(  1-C , 22-H ) :   0.9529
B(  1-C , 23-H ) :   0.9546 B(  2-O ,  3-P ) :   1.1237 B(  3-P ,  4-S ) :   1.7263
B(  3-P ,  5-O ) :   1.1019 B(  3-P ,  8-S ) :   1.0876 B(  5-O ,  6-C ) :   0.7936
B(  6-C ,  7-C ) :   0.9182 B(  6-C , 24-H ) :   0.9596 B(  6-C , 25-H ) :   0.9483
B(  7-C , 26-H ) :   0.9666 B(  7-C , 27-H ) :   0.9562 B(  7-C , 28-H ) :   0.9551
B(  8-S ,  9-C ) :   0.9067 B(  9-C , 10-S ) :   0.9030 B(  9-C , 29-H ) :   0.8993
B(  9-C , 30-H ) :   0.9013 B( 10-S , 11-P ) :   1.0572 B( 11-P , 12-S ) :   1.8214
B( 11-P , 13-O ) :   1.1046 B( 11-P , 16-O ) :   1.0779 B( 13-O , 14-C ) :   0.7319
B( 14-C , 15-C ) :   0.9290 B( 14-C , 31-H ) :   0.9358 B( 14-C , 32-H ) :   0.9462
B( 15-C , 33-H ) :   0.9606 B( 15-C , 34-H ) :   0.9670 B( 15-C , 35-H ) :   0.9677
B( 16-O , 17-C ) :   0.7808 B( 17-C , 18-C ) :   0.9238 B( 17-C , 36-H ) :   0.9625
B( 17-C , 37-H ) :   0.9519 B( 18-C , 38-H ) :   0.9576 B( 18-C , 39-H ) :   0.9672
B( 18-C , 40-H ) :   0.9620

Dispersion correction           -0.021695498
FINAL SINGLE POINT ENERGY     -2932.471589328991

DIPOLE MOMENT
-------------

Method             : SCF
Type of density    : Electron Density
Multiplicity       :   1
Irrep              :   0
Energy             : -2932.4964130677908543 Eh
Relativity type    :
Basis              : AO
                                X                 Y                 Z
Electronic contribution:     -2.637818570     -16.114593113      -4.710533762
Nuclear contribution   :      2.476769323      18.068207250       5.641922191
                        -----------------------------------------
Total Dipole Moment    :     -0.161049247       1.953614138       0.931388429
                        -----------------------------------------
Magnitude (a.u.)       :      2.170260230
Magnitude (Debye)      :      5.516363112

Rotational constants in cm-1:             0.013774             0.004738             0.004375
Rotational constants in MHz :           412.926287           142.044597           131.155241

                             ****ORCA TERMINATED NORMALLY****
TOTAL RUN TIME: 0 days 0 hours 1 minutes 50 seconds 612 msec
