                         Program Version 6.0.0  -   RELEASE  -
|  1> ! pbe def2-sv(p) def2/J RI DEFGRID1 loosescf d4 GCP(DFT/SV(P)) printgap
|  2> %output
|  3>     printlevel normal
|  4> end
|  5> * xyz 0 1
|  6> C 4.7360219875 -1.5147602474 0.1054964944
|  7> C 4.5052056018 -0.3136735556 -0.7911520132
|  8> O 3.542939102 0.5908700002 -0.2158681549
|  9> P 2.0136049805 0.6134708934 -0.6600061224
| 10> S 1.7441574429 0.5909340935 -2.5993214155
| 11> O 1.5237185274 1.9412316837 0.0284528591
| 12> C 2.0036869931 2.4655652915 1.2907210086
| 13> C 1.6520579124 1.5624766306 2.4530820441
| 14> S 1.1712791962 -1.0620793155 0.3579623433
| 15> C 0.1017974945 -1.7599506665 -0.9372705336
| 16> S -1.5898907811 -2.0447904153 -0.3684854173
| 17> P -2.0615133198 -0.0521948437 0.2098098386
| 18> S -1.4365408846 1.3890975276 -0.9613852823
| 19> O -1.5275532488 0.0990449723 1.686602371
| 20> C -1.8758851035 -0.8490847447 2.7368930559
| 21> C -1.5793136434 -0.1986777192 4.071543112
| 22> O -3.6342142525 -0.1115320552 0.4435164801
| 23> C -4.5914682567 0.1310003587 -0.6019544481
| 24> C -4.5379885037 -0.9214245892 -1.6902273357
| 25> H 5.0478949496 -1.1866068667 1.0929736576
| 26> H 3.828119312 -2.1043017145 0.2020924798
| 27> H 5.5161807333 -2.1313215403 -0.3290570179
| 28> H 4.1584828955 -0.6113636944 -1.7862130143
| 29> H 5.4147380562 0.2818528675 -0.892342283
| 30> H 3.0824938513 2.613015424 1.2122390603
| 31> H 1.497618733 3.4298241259 1.3627186587
| 32> H 2.188967853 0.6180814594 2.3743690617
| 33> H 1.9258552028 2.0537294876 3.3816239381
| 34> H 0.5829229292 1.3618335435 2.4506488326
| 35> H 0.4879545481 -2.7351329238 -1.2231513839
| 36> H 0.1052460957 -1.0721027757 -1.7878222488
| 37> H -2.9340430734 -1.0970113241 2.6391282747
| 38> H -1.2713038049 -1.7467993248 2.5854066932
| 39> H -2.1281900237 0.7343832144 4.1636716517
| 40> H -1.8851549742 -0.8734728754 4.8645665183
| 41> H -0.5168706982 0.0046977967 4.1663341009
| 42> H -5.5496780182 0.1234863624 -0.080304973
| 43> H -4.4013672224 1.1249051769 -1.0186292868
| 44> H -4.6038430978 -1.9173566604 -1.2593299678
| 45> H -5.3647526632 -0.7683421338 -2.3764404709
| 46> H -3.6035616915 -0.8375735621 -2.2435024111
| 47> *
| 48>
| 49>                          ****END OF INPUT****

CARTESIAN COORDINATES (ANGSTROEM)
---------------------------------
  C      4.736022   -1.514760    0.105496
  C      4.505206   -0.313674   -0.791152
  O      3.542939    0.590870   -0.215868
  P      2.013605    0.613471   -0.660006
  S      1.744157    0.590934   -2.599321
  O      1.523719    1.941232    0.028453
  C      2.003687    2.465565    1.290721
  C      1.652058    1.562477    2.453082
  S      1.171279   -1.062079    0.357962
  C      0.101797   -1.759951   -0.937271
  S     -1.589891   -2.044790   -0.368485
  P     -2.061513   -0.052195    0.209810
  S     -1.436541    1.389098   -0.961385
  O     -1.527553    0.099045    1.686602
  C     -1.875885   -0.849085    2.736893
  C     -1.579314   -0.198678    4.071543
  O     -3.634214   -0.111532    0.443516
  C     -4.591468    0.131000   -0.601954
  C     -4.537989   -0.921425   -1.690227
  H      5.047895   -1.186607    1.092974
  H      3.828119   -2.104302    0.202092
  H      5.516181   -2.131322   -0.329057
  H      4.158483   -0.611364   -1.786213
  H      5.414738    0.281853   -0.892342
  H      3.082494    2.613015    1.212239
  H      1.497619    3.429824    1.362719
  H      2.188968    0.618081    2.374369
  H      1.925855    2.053729    3.381624
  H      0.582923    1.361834    2.450649
  H      0.487955   -2.735133   -1.223151
  H      0.105246   -1.072103   -1.787822
  H     -2.934043   -1.097011    2.639128
  H     -1.271304   -1.746799    2.585407
  H     -2.128190    0.734383    4.163672
  H     -1.885155   -0.873473    4.864567
  H     -0.516871    0.004698    4.166334
  H     -5.549678    0.123486   -0.080305
  H     -4.401367    1.124905   -1.018629
  H     -4.603843   -1.917357   -1.259330
  H     -5.364753   -0.768342   -2.376440
  H     -3.603562   -0.837574   -2.243502

 Total Charge           Charge          ....    0
 Multiplicity           Mult            ....    1
 Number of Electrons    NEL             ....  202
 Basis Dimension        Dim             ....  334

ORBITAL ENERGIES
----------------

  NO   OCC          E(Eh)            E(eV)
   0   2.0000     -88.041021     -2395.7180
   1   2.0000     -88.039610     -2395.6796
   2   2.0000     -87.978850     -2394.0262
   3   2.0000     -87.977414     -2393.9871
   4   2.0000     -76.421937     -2079.5466
   5   2.0000     -76.421502     -2079.5348
   6   2.0000     -18.790672      -511.3202
   7   2.0000     -18.789215      -511.2805
   8   2.0000     -18.789159      -511.2790
   9   2.0000     -18.783299      -511.1195
  10   2.0000      -9.954597      -270.8783
  11   2.0000      -9.951727      -270.8003
  12   2.0000      -9.950500      -270.7669
  13   2.0000      -9.950002      -270.7533
  14   2.0000      -9.949829      -270.7486
  15   2.0000      -9.891347      -269.1572
  16   2.0000      -9.883298      -268.9382
  17   2.0000      -9.883184      -268.9351
  18   2.0000      -9.882205      -268.9085
  19   2.0000      -7.686075      -209.1487
  20   2.0000      -7.683710      -209.0844
  21   2.0000      -7.623679      -207.4509
  22   2.0000      -7.622671      -207.4234
  23   2.0000      -6.419233      -174.6762
  24   2.0000      -6.418652      -174.6604
  25   2.0000      -5.713903      -155.4832
  26   2.0000      -5.711548      -155.4191
  27   2.0000      -5.710491      -155.3904
  28   2.0000      -5.708234      -155.3290
  29   2.0000      -5.703208      -155.1922
  30   2.0000      -5.700809      -155.1269
  31   2.0000      -5.652775      -153.8198
  32   2.0000      -5.651722      -153.7912
  33   2.0000      -5.644130      -153.5846
  34   2.0000      -5.643878      -153.5777
  35   2.0000      -5.643051      -153.5552
  36   2.0000      -5.642866      -153.5502
  37   2.0000      -4.642072      -126.3172
  38   2.0000      -4.641602      -126.3044
  39   2.0000      -4.641019      -126.2885
  40   2.0000      -4.640189      -126.2660
  41   2.0000      -4.639455      -126.2460
  42   2.0000      -4.639040      -126.2347
  43   2.0000      -0.985790       -26.8247
  44   2.0000      -0.983158       -26.7531
  45   2.0000      -0.942203       -25.6387
  46   2.0000      -0.937567       -25.5125
  47   2.0000      -0.758922       -20.6513
  48   2.0000      -0.717735       -19.5306
  49   2.0000      -0.709620       -19.3097
  50   2.0000      -0.689005       -18.7488
  51   2.0000      -0.687532       -18.7087
  52   2.0000      -0.675296       -18.3757
  53   2.0000      -0.646969       -17.6049
  54   2.0000      -0.628819       -17.1110
  55   2.0000      -0.595273       -16.1982
  56   2.0000      -0.587139       -15.9769
  57   2.0000      -0.573254       -15.5990
  58   2.0000      -0.571509       -15.5515
  59   2.0000      -0.557883       -15.1808
  60   2.0000      -0.503833       -13.7100
  61   2.0000      -0.495332       -13.4787
  62   2.0000      -0.472755       -12.8643
  63   2.0000      -0.469373       -12.7723
  64   2.0000      -0.451167       -12.2769
  65   2.0000      -0.446054       -12.1378
  66   2.0000      -0.439323       -11.9546
  67   2.0000      -0.435220       -11.8429
  68   2.0000      -0.427265       -11.6265
  69   2.0000      -0.423097       -11.5131
  70   2.0000      -0.409719       -11.1490
  71   2.0000      -0.393947       -10.7198
  72   2.0000      -0.391749       -10.6600
  73   2.0000      -0.385147       -10.4804
  74   2.0000      -0.377232       -10.2650
  75   2.0000      -0.368301       -10.0220
  76   2.0000      -0.360286        -9.8039
  77   2.0000      -0.358066        -9.7435
  78   2.0000      -0.355394        -9.6708
  79   2.0000      -0.352835        -9.6011
  80   2.0000      -0.348211        -9.4753
  81   2.0000      -0.341190        -9.2843
  82   2.0000      -0.338995        -9.2245
  83   2.0000      -0.334358        -9.0983
  84   2.0000      -0.331797        -9.0287
  85   2.0000      -0.318519        -8.6673
  86   2.0000      -0.310942        -8.4611
  87   2.0000      -0.301613        -8.2073
  88   2.0000      -0.292431        -7.9574
  89   2.0000      -0.290943        -7.9170
  90   2.0000      -0.287578        -7.8254
  91   2.0000      -0.271704        -7.3934
  92   2.0000      -0.265748        -7.2314
  93   2.0000      -0.259935        -7.0732
  94   2.0000      -0.253995        -6.9116
  95   2.0000      -0.231754        -6.3063
  96   2.0000      -0.220146        -5.9905
  97   2.0000      -0.207515        -5.6468
  98   2.0000      -0.195950        -5.3321
  99   2.0000      -0.189325        -5.1518
 100   2.0000      -0.182657        -4.9704
 101   0.0000      -0.040675        -1.1068
 102   0.0000      -0.032656        -0.8886
 103   0.0000      -0.005298        -0.1442
 104   0.0000       0.012073         0.3285
 105   0.0000       0.016520         0.4495

MULLIKEN ATOMIC CHARGES
-----------------------
   0 C :   -0.298547
   1 C :   -0.003048
   2 O :   -0.388042
   3 P :    0.630819
   4 S :   -0.297037
   5 O :   -0.348220
   6 C :    0.015964
   7 C :   -0.366581
   8 S :   -0.137503
   9 C :   -0.334430
  10 S :   -0.114739
  11 P :    0.589096
  12 S :   -0.279059
  13 O :   -0.354855
  14 C :   -0.013752
  15 C :   -0.293032
  16 O :   -0.384364
  17 C :    0.003560
  18 C :   -0.321568
  19 H :    0.110412
  20 H :    0.121538
  21 H :    0.108998
  22 H :    0.101559
  23 H :    0.105581
  24 H :    0.107556
  25 H :    0.111171
  26 H :    0.119494
  27 H :    0.110489
  28 H :    0.160107
  29 H :    0.174657
  30 H :    0.208058
  31 H :    0.108955
  32 H :    0.105614
  33 H :    0.120411
  34 H :    0.112054
  35 H :    0.130379
  36 H :    0.102608
  37 H :    0.112281
  38 H :    0.116081
  39 H :    0.113846
  40 H :    0.133488
Sum of atomic charges:   -0.0000000

LOEWDIN ATOMIC CHARGES
----------------------
   0 C :   -0.365643
   1 C :   -0.118765
   2 O :   -0.251752
   3 P :    0.575242
   4 S :   -0.294612
   5 O :   -0.225496
   6 C :   -0.105495
   7 C :   -0.376941
   8 S :    0.066983
   9 C :   -0.482487
  10 S :    0.069451
  11 P :    0.559355
  12 S :   -0.287349
  13 O :   -0.237399
  14 C :   -0.118257
  15 C :   -0.351048
  16 O :   -0.251156
  17 C :   -0.115960
  18 C :   -0.371863
  19 H :    0.123390
  20 H :    0.117326
  21 H :    0.129318
  22 H :    0.106290
  23 H :    0.118760
  24 H :    0.112511
  25 H :    0.124024
  26 H :    0.114079
  27 H :    0.129549
  28 H :    0.132657
  29 H :    0.133965
  30 H :    0.124825
  31 H :    0.111583
  32 H :    0.107417
  33 H :    0.129356
  34 H :    0.131073
  35 H :    0.128920
  36 H :    0.117469
  37 H :    0.113269
  38 H :    0.122160
  39 H :    0.131469
  40 H :    0.123780

  Mayer bond orders larger than 0.100000
B(  0-C ,  1-C ) :   1.1658 B(  0-C , 19-H ) :   0.9483 B(  0-C , 20-H ) :   0.9336
B(  0-C , 21-H ) :   0.9400 B(  1-C ,  2-O ) :   0.9078 B(  1-C , 22-H ) :   0.9029
B(  1-C , 23-H ) :   0.9359 B(  2-O ,  3-P ) :   1.0662 B(  3-P ,  4-S ) :   1.6389
B(  3-P ,  5-O ) :   1.1439 B(  3-P ,  8-S ) :   0.9290 B(  4-S ,  8-S ) :   0.1189
B(  4-S , 30-H ) :   0.1082 B(  5-O ,  6-C ) :   0.9020 B(  6-C ,  7-C ) :   1.1693
B(  6-C , 24-H ) :   0.9260 B(  6-C , 25-H ) :   0.9315 B(  7-C , 26-H ) :   0.9360
B(  7-C , 27-H ) :   0.9353 B(  7-C , 28-H ) :   0.9205 B(  8-S ,  9-C ) :   1.0011
B(  9-C , 10-S ) :   0.9969 B(  9-C , 29-H ) :   0.9111 B(  9-C , 30-H ) :   0.8432
B( 10-S , 11-P ) :   0.9365 B( 10-S , 12-S ) :   0.1088 B( 11-P , 12-S ) :   1.6730
B( 11-P , 13-O ) :   1.1140 B( 11-P , 16-O ) :   1.0817 B( 13-O , 14-C ) :   0.8938
B( 14-C , 15-C ) :   1.1642 B( 14-C , 31-H ) :   0.9215 B( 14-C , 32-H ) :   0.9189
B( 15-C , 33-H ) :   0.9499 B( 15-C , 34-H ) :   0.9405 B( 15-C , 35-H ) :   0.9463
B( 16-O , 17-C ) :   0.9070 B( 17-C , 18-C ) :   1.1662 B( 17-C , 36-H ) :   0.9346
B( 17-C , 37-H ) :   0.9178 B( 18-C , 38-H ) :   0.9434 B( 18-C , 39-H ) :   0.9370
B( 18-C , 40-H ) :   0.9343

Dispersion correction           -0.067096126
FINAL SINGLE POINT ENERGY     -2929.514675851525

DIPOLE MOMENT
-------------

Method             : SCF
Type of density    : Electron Density
Multiplicity       :   1
Irrep              :   0
Energy             : -2929.6332842613887806 Eh
Relativity type    :
Basis              : AO
                                X                 Y                 Z
Electronic contribution:     -1.567993914       3.994634384     -15.305940279
Nuclear contribution   :      1.524773624      -4.874352060      16.951451254
                        -----------------------------------------
Total Dipole Moment    :     -0.043220289      -0.879717676       1.645510975
                        -----------------------------------------
Magnitude (a.u.)       :      1.866407660
Magnitude (Debye)      :      4.744031257

Rotational constants in cm-1:             0.011995             0.005527             0.004989
Rotational constants in MHz :           359.589293           165.702962           149.554912

                             ****ORCA TERMINATED NORMALLY****
TOTAL RUN TIME: 0 days 0 hours 0 minutes 21 seconds 280 msec
