                         Program Version 6.0.0  -   RELEASE  -
|  1> ! r2scan-3c def2/J RI DEFGRID2 scfconv6 printgap
|  2> %output
|  3>     printlevel normal
|  4> end
|  5> * xyz 0 1
|  6> C 4.0290512037 -0.9969384623 -2.6708295537
|  7> C 4.297927113 -1.5741306407 -1.2962033221
|  8> O 3.0883144986 -1.7389659588 -0.5361802638
|  9> P 2.2478886813 -0.5001157631 0.002723646
| 10> S 3.347261045 1.0017621143 0.6317982504
| 11> O 1.31224942 -1.208441629 1.0661859787
| 12> C 1.7694594588 -1.5134329301 2.4059790443
| 13> C 1.3534818384 -0.4254021527 3.3761261009
| 14> S 0.8254227255 -0.0899935551 -1.5004621483
| 15> C 0.2839859265 1.4986906595 -0.8114151142
| 16> S -0.7263128206 1.3157850484 0.6753912819
| 17> P -2.4057841766 0.4354718605 -0.306892691
| 18> S -2.7999337486 1.1128843061 -2.0966222922
| 19> O -3.5740870058 0.5586763208 0.7662346648
| 20> C -4.4367756299 1.7089478159 0.8485362853
| 21> C -3.6911274691 2.963519135 1.2537255425
| 22> O -2.1358418471 -1.1181267089 -0.3077106091
| 23> C -1.9765366966 -1.8936006919 0.9067516519
| 24> C -1.3548579764 -3.2203634134 0.5248514299
| 25> H 3.2777021198 -1.5875905248 -3.1891862048
| 26> H 3.6666569177 0.0265502783 -2.5803749835
| 27> H 4.9483744897 -0.994946936 -3.247558152
| 28> H 4.974682142 -0.9238669759 -0.7324225867
| 29> H 4.7113199356 -2.5818060213 -1.3544874515
| 30> H 1.2968763313 -2.467320977 2.6458144339
| 31> H 2.8558391835 -1.6345307018 2.3962674994
| 32> H 1.8370511407 0.5144435515 3.1188626355
| 33> H 0.2775300853 -0.2774676963 3.3428234917
| 34> H 1.6469464613 -0.7117932361 4.3808866671
| 35> H -0.3023653475 1.9892561366 -1.5884472665
| 36> H 1.1558733556 2.0908910575 -0.5325273453
| 37> H -4.9193447232 1.8459045116 -0.1237891842
| 38> H -5.1783262507 1.4213325503 1.5952043145
| 39> H -3.117072275 2.7889624852 2.1602687785
| 40> H -3.0106435538 3.2656014869 0.4591044198
| 41> H -4.4047019441 3.7627839446 1.4262449444
| 42> H -1.3361421375 -1.3339877053 1.5944635673
| 43> H -2.9642540631 -2.0213534886 1.3536665527
| 44> H -0.3632807588 -3.061918251 0.1079609551
| 45> H -1.2798132966 -3.8470684461 1.4077799128
| 46> H -1.970566384 -3.7172226763 -0.2194526837
| 47> *
| 48>
| 49>                          ****END OF INPUT****

CARTESIAN COORDINATES (ANGSTROEM)
---------------------------------
  C      4.029051   -0.996938   -2.670830
  C      4.297927   -1.574131   -1.296203
  O      3.088314   -1.738966   -0.536180
  P      2.247889   -0.500116    0.002724
  S      3.347261    1.001762    0.631798
  O      1.312249   -1.208442    1.066186
  C      1.769459   -1.513433    2.405979
  C      1.353482   -0.425402    3.376126
  S      0.825423   -0.089994   -1.500462
  C      0.283986    1.498691   -0.811415
  S     -0.726313    1.315785    0.675391
  P     -2.405784    0.435472   -0.306893
  S     -2.799934    1.112884   -2.096622
  O     -3.574087    0.558676    0.766235
  C     -4.436776    1.708948    0.848536
  C     -3.691127    2.963519    1.253726
  O     -2.135842   -1.118127   -0.307711
  C     -1.976537   -1.893601    0.906752
  C     -1.354858   -3.220363    0.524851
  H      3.277702   -1.587591   -3.189186
  H      3.666657    0.026550   -2.580375
  H      4.948374   -0.994947   -3.247558
  H      4.974682   -0.923867   -0.732423
  H      4.711320   -2.581806   -1.354487
  H      1.296876   -2.467321    2.645814
  H      2.855839   -1.634531    2.396267
  H      1.837051    0.514444    3.118863
  H      0.277530   -0.277468    3.342823
  H      1.646946   -0.711793    4.380887
  H     -0.302365    1.989256   -1.588447
  H      1.155873    2.090891   -0.532527
  H     -4.919345    1.845905   -0.123789
  H     -5.178326    1.421333    1.595204
  H     -3.117072    2.788962    2.160269
  H     -3.010644    3.265601    0.459104
  H     -4.404702    3.762784    1.426245
  H     -1.336142   -1.333988    1.594464
  H     -2.964254   -2.021353    1.353667
  H     -0.363281   -3.061918    0.107961
  H     -1.279813   -3.847068    1.407780
  H     -1.970566   -3.717223   -0.219453

 Total Charge           Charge          ....    0
 Multiplicity           Mult            ....    1
 Number of Electrons    NEL             ....  202
 Basis Dimension        Dim             ....  539

ORBITAL ENERGIES
----------------

  NO   OCC          E(Eh)            E(eV)
   0   2.0000     -88.575618     -2410.2651
   1   2.0000     -88.572336     -2410.1758
   2   2.0000     -88.523453     -2408.8456
   3   2.0000     -88.520096     -2408.7543
   4   2.0000     -76.916196     -2092.9961
   5   2.0000     -76.912799     -2092.9037
   6   2.0000     -18.995785      -516.9016
   7   2.0000     -18.994469      -516.8658
   8   2.0000     -18.992632      -516.8158
   9   2.0000     -18.987527      -516.6769
  10   2.0000     -10.104414      -274.9551
  11   2.0000     -10.102798      -274.9111
  12   2.0000     -10.100715      -274.8544
  13   2.0000     -10.099659      -274.8257
  14   2.0000     -10.098514      -274.7945
  15   2.0000     -10.029273      -272.9104
  16   2.0000     -10.029173      -272.9077
  17   2.0000     -10.028961      -272.9019
  18   2.0000     -10.028958      -272.9018
  19   2.0000      -7.869823      -214.1488
  20   2.0000      -7.866787      -214.0661
  21   2.0000      -7.818295      -212.7466
  22   2.0000      -7.814869      -212.6534
  23   2.0000      -6.594804      -179.4537
  24   2.0000      -6.591295      -179.3583
  25   2.0000      -5.816741      -158.2816
  26   2.0000      -5.813788      -158.2012
  27   2.0000      -5.813599      -158.1961
  28   2.0000      -5.810662      -158.1161
  29   2.0000      -5.806802      -158.0111
  30   2.0000      -5.803921      -157.9327
  31   2.0000      -5.765874      -156.8974
  32   2.0000      -5.762541      -156.8067
  33   2.0000      -5.758686      -156.7018
  34   2.0000      -5.758241      -156.6897
  35   2.0000      -5.755103      -156.6043
  36   2.0000      -5.754891      -156.5986
  37   2.0000      -4.740381      -128.9923
  38   2.0000      -4.739625      -128.9718
  39   2.0000      -4.738546      -128.9424
  40   2.0000      -4.737176      -128.9051
  41   2.0000      -4.736116      -128.8763
  42   2.0000      -4.734805      -128.8406
  43   2.0000      -1.053004       -28.6537
  44   2.0000      -1.050489       -28.5853
  45   2.0000      -1.013310       -27.5736
  46   2.0000      -1.008663       -27.4471
  47   2.0000      -0.802091       -21.8260
  48   2.0000      -0.759510       -20.6673
  49   2.0000      -0.750873       -20.4323
  50   2.0000      -0.733520       -19.9601
  51   2.0000      -0.732601       -19.9351
  52   2.0000      -0.712707       -19.3937
  53   2.0000      -0.686209       -18.6727
  54   2.0000      -0.669311       -18.2129
  55   2.0000      -0.632472       -17.2104
  56   2.0000      -0.622244       -16.9321
  57   2.0000      -0.610537       -16.6136
  58   2.0000      -0.603154       -16.4127
  59   2.0000      -0.588564       -16.0156
  60   2.0000      -0.532118       -14.4797
  61   2.0000      -0.525828       -14.3085
  62   2.0000      -0.494314       -13.4510
  63   2.0000      -0.491806       -13.3827
  64   2.0000      -0.480266       -13.0687
  65   2.0000      -0.465796       -12.6749
  66   2.0000      -0.458912       -12.4876
  67   2.0000      -0.455112       -12.3842
  68   2.0000      -0.446481       -12.1494
  69   2.0000      -0.438584       -11.9345
  70   2.0000      -0.426847       -11.6151
  71   2.0000      -0.417248       -11.3539
  72   2.0000      -0.407812       -11.0971
  73   2.0000      -0.398948       -10.8559
  74   2.0000      -0.393751       -10.7145
  75   2.0000      -0.389858       -10.6086
  76   2.0000      -0.380529       -10.3547
  77   2.0000      -0.378159       -10.2902
  78   2.0000      -0.371074       -10.0974
  79   2.0000      -0.369009       -10.0412
  80   2.0000      -0.364657        -9.9228
  81   2.0000      -0.359412        -9.7801
  82   2.0000      -0.356405        -9.6983
  83   2.0000      -0.353117        -9.6088
  84   2.0000      -0.350102        -9.5268
  85   2.0000      -0.330579        -8.9955
  86   2.0000      -0.324214        -8.8223
  87   2.0000      -0.317143        -8.6299
  88   2.0000      -0.312098        -8.4926
  89   2.0000      -0.310296        -8.4436
  90   2.0000      -0.305626        -8.3165
  91   2.0000      -0.295636        -8.0447
  92   2.0000      -0.283254        -7.7077
  93   2.0000      -0.280054        -7.6207
  94   2.0000      -0.273444        -7.4408
  95   2.0000      -0.246332        -6.7030
  96   2.0000      -0.231019        -6.2864
  97   2.0000      -0.227050        -6.1783
  98   2.0000      -0.218770        -5.9530
  99   2.0000      -0.215964        -5.8767
 100   2.0000      -0.213376        -5.8063
 101   0.0000      -0.046498        -1.2653
 102   0.0000      -0.025715        -0.6997
 103   0.0000      -0.004026        -0.1096
 104   0.0000      -0.001524        -0.0415
 105   0.0000       0.013746         0.3740

MULLIKEN ATOMIC CHARGES
-----------------------
   0 C :   -0.454873
   1 C :   -0.148913
   2 O :   -0.307541
   3 P :    0.661840
   4 S :   -0.482857
   5 O :   -0.259030
   6 C :   -0.146621
   7 C :   -0.438954
   8 S :   -0.093838
   9 C :   -0.251081
  10 S :   -0.159477
  11 P :    0.650363
  12 S :   -0.444911
  13 O :   -0.293890
  14 C :   -0.165055
  15 C :   -0.444618
  16 O :   -0.254097
  17 C :   -0.103788
  18 C :   -0.474486
  19 H :    0.157754
  20 H :    0.177686
  21 H :    0.148224
  22 H :    0.171750
  23 H :    0.147847
  24 H :    0.153306
  25 H :    0.153376
  26 H :    0.183619
  27 H :    0.147383
  28 H :    0.146061
  29 H :    0.221324
  30 H :    0.212791
  31 H :    0.174102
  32 H :    0.147645
  33 H :    0.153348
  34 H :    0.180041
  35 H :    0.147952
  36 H :    0.157480
  37 H :    0.154991
  38 H :    0.177844
  39 H :    0.141458
  40 H :    0.155847
Sum of atomic charges:    0.0000000

LOEWDIN ATOMIC CHARGES
----------------------
   0 C :   -0.405837
   1 C :    0.019138
   2 O :   -0.660559
   3 P :    0.375767
   4 S :   -0.136666
   5 O :   -0.686551
   6 C :    0.023567
   7 C :   -0.404279
   8 S :    0.189768
   9 C :   -0.423922
  10 S :    0.145960
  11 P :    0.379779
  12 S :   -0.102464
  13 O :   -0.667898
  14 C :    0.022628
  15 C :   -0.408855
  16 O :   -0.652612
  17 C :    0.023627
  18 C :   -0.388879
  19 H :    0.160822
  20 H :    0.166142
  21 H :    0.159858
  22 H :    0.179832
  23 H :    0.179352
  24 H :    0.178322
  25 H :    0.177256
  26 H :    0.169943
  27 H :    0.156942
  28 H :    0.157788
  29 H :    0.192579
  30 H :    0.192125
  31 H :    0.180312
  32 H :    0.179344
  33 H :    0.159867
  34 H :    0.166721
  35 H :    0.159465
  36 H :    0.178008
  37 H :    0.173074
  38 H :    0.169838
  39 H :    0.158345
  40 H :    0.162351

  Mayer bond orders larger than 0.100000
B(  0-C ,  1-C ) :   0.9226 B(  0-C , 19-H ) :   0.9688 B(  0-C , 20-H ) :   0.9610
B(  0-C , 21-H ) :   0.9587 B(  1-C ,  2-O ) :   0.8167 B(  1-C , 22-H ) :   0.9648
B(  1-C , 23-H ) :   0.9581 B(  2-O ,  3-P ) :   1.0712 B(  3-P ,  4-S ) :   1.7501
B(  3-P ,  5-O ) :   1.1326 B(  3-P ,  8-S ) :   1.1131 B(  5-O ,  6-C ) :   0.7431
B(  6-C ,  7-C ) :   0.9395 B(  6-C , 24-H ) :   0.9667 B(  6-C , 25-H ) :   0.9596
B(  7-C , 26-H ) :   0.9582 B(  7-C , 27-H ) :   0.9700 B(  7-C , 28-H ) :   0.9662
B(  8-S ,  9-C ) :   0.9076 B(  9-C , 10-S ) :   0.9089 B(  9-C , 29-H ) :   0.9049
B(  9-C , 30-H ) :   0.9044 B( 10-S , 11-P ) :   0.9989 B( 11-P , 12-S ) :   1.8318
B( 11-P , 13-O ) :   1.0349 B( 11-P , 16-O ) :   1.1690 B( 13-O , 14-C ) :   0.8196
B( 14-C , 15-C ) :   0.9183 B( 14-C , 31-H ) :   0.9689 B( 14-C , 32-H ) :   0.9613
B( 15-C , 33-H ) :   0.9675 B( 15-C , 34-H ) :   0.9632 B( 15-C , 35-H ) :   0.9562
B( 16-O , 17-C ) :   0.7332 B( 17-C , 18-C ) :   0.9280 B( 17-C , 36-H ) :   0.9529
B( 17-C , 37-H ) :   0.9423 B( 18-C , 38-H ) :   0.9705 B( 18-C , 39-H ) :   0.9692
B( 18-C , 40-H ) :   0.9682

Dispersion correction           -0.021957456
FINAL SINGLE POINT ENERGY     -2932.464625487584

DIPOLE MOMENT
-------------

Method             : SCF
Type of density    : Electron Density
Multiplicity       :   1
Irrep              :   0
Energy             : -2932.4891406208198532 Eh
Relativity type    :
Basis              : AO
                                X                 Y                 Z
Electronic contribution:     -1.696048367       6.251813455     -10.742142553
Nuclear contribution   :      1.793881843      -7.085083320      12.005831037
                        -----------------------------------------
Total Dipole Moment    :      0.097833477      -0.833269865       1.263688483
                        -----------------------------------------
Magnitude (a.u.)       :      1.516844962
Magnitude (Debye)      :      3.855513491

Rotational constants in cm-1:             0.012562             0.005021             0.004800
Rotational constants in MHz :           376.587497           150.511708           143.912894

                             ****ORCA TERMINATED NORMALLY****
TOTAL RUN TIME: 0 days 0 hours 1 minutes 21 seconds 916 msec
