                         Program Version 6.0.0  -   RELEASE  -
|  1> ! r2scan-3c def2/J RI DEFGRID2 scfconv6 printgap
|  2> %output
|  3>     printlevel normal
|  4> end
|  5> %cpcm
|  6>     smd true
|  7>     smdsolvent "water"
|  8> end
|  9> * xyz 0 1
| 10> C 4.0290512037 -0.9969384623 -2.6708295537
| 11> C 4.297927113 -1.5741306407 -1.2962033221
| 12> O 3.0883144986 -1.7389659588 -0.5361802638
| 13> P 2.2478886813 -0.5001157631 0.002723646
| 14> S 3.347261045 1.0017621143 0.6317982504
| 15> O 1.31224942 -1.208441629 1.0661859787
| 16> C 1.7694594588 -1.5134329301 2.4059790443
| 17> C 1.3534818384 -0.4254021527 3.3761261009
| 18> S 0.8254227255 -0.0899935551 -1.5004621483
| 19> C 0.2839859265 1.4986906595 -0.8114151142
| 20> S -0.7263128206 1.3157850484 0.6753912819
| 21> P -2.4057841766 0.4354718605 -0.306892691
| 22> S -2.7999337486 1.1128843061 -2.0966222922
| 23> O -3.5740870058 0.5586763208 0.7662346648
| 24> C -4.4367756299 1.7089478159 0.8485362853
| 25> C -3.6911274691 2.963519135 1.2537255425
| 26> O -2.1358418471 -1.1181267089 -0.3077106091
| 27> C -1.9765366966 -1.8936006919 0.9067516519
| 28> C -1.3548579764 -3.2203634134 0.5248514299
| 29> H 3.2777021198 -1.5875905248 -3.1891862048
| 30> H 3.6666569177 0.0265502783 -2.5803749835
| 31> H 4.9483744897 -0.994946936 -3.247558152
| 32> H 4.974682142 -0.9238669759 -0.7324225867
| 33> H 4.7113199356 -2.5818060213 -1.3544874515
| 34> H 1.2968763313 -2.467320977 2.6458144339
| 35> H 2.8558391835 -1.6345307018 2.3962674994
| 36> H 1.8370511407 0.5144435515 3.1188626355
| 37> H 0.2775300853 -0.2774676963 3.3428234917
| 38> H 1.6469464613 -0.7117932361 4.3808866671
| 39> H -0.3023653475 1.9892561366 -1.5884472665
| 40> H 1.1558733556 2.0908910575 -0.5325273453
| 41> H -4.9193447232 1.8459045116 -0.1237891842
| 42> H -5.1783262507 1.4213325503 1.5952043145
| 43> H -3.117072275 2.7889624852 2.1602687785
| 44> H -3.0106435538 3.2656014869 0.4591044198
| 45> H -4.4047019441 3.7627839446 1.4262449444
| 46> H -1.3361421375 -1.3339877053 1.5944635673
| 47> H -2.9642540631 -2.0213534886 1.3536665527
| 48> H -0.3632807588 -3.061918251 0.1079609551
| 49> H -1.2798132966 -3.8470684461 1.4077799128
| 50> H -1.970566384 -3.7172226763 -0.2194526837
| 51> *
| 52>
| 53>                          ****END OF INPUT****

CARTESIAN COORDINATES (ANGSTROEM)
---------------------------------
  C      4.029051   -0.996938   -2.670830
  C      4.297927   -1.574131   -1.296203
  O      3.088314   -1.738966   -0.536180
  P      2.247889   -0.500116    0.002724
  S      3.347261    1.001762    0.631798
  O      1.312249   -1.208442    1.066186
  C      1.769459   -1.513433    2.405979
  C      1.353482   -0.425402    3.376126
  S      0.825423   -0.089994   -1.500462
  C      0.283986    1.498691   -0.811415
  S     -0.726313    1.315785    0.675391
  P     -2.405784    0.435472   -0.306893
  S     -2.799934    1.112884   -2.096622
  O     -3.574087    0.558676    0.766235
  C     -4.436776    1.708948    0.848536
  C     -3.691127    2.963519    1.253726
  O     -2.135842   -1.118127   -0.307711
  C     -1.976537   -1.893601    0.906752
  C     -1.354858   -3.220363    0.524851
  H      3.277702   -1.587591   -3.189186
  H      3.666657    0.026550   -2.580375
  H      4.948374   -0.994947   -3.247558
  H      4.974682   -0.923867   -0.732423
  H      4.711320   -2.581806   -1.354487
  H      1.296876   -2.467321    2.645814
  H      2.855839   -1.634531    2.396267
  H      1.837051    0.514444    3.118863
  H      0.277530   -0.277468    3.342823
  H      1.646946   -0.711793    4.380887
  H     -0.302365    1.989256   -1.588447
  H      1.155873    2.090891   -0.532527
  H     -4.919345    1.845905   -0.123789
  H     -5.178326    1.421333    1.595204
  H     -3.117072    2.788962    2.160269
  H     -3.010644    3.265601    0.459104
  H     -4.404702    3.762784    1.426245
  H     -1.336142   -1.333988    1.594464
  H     -2.964254   -2.021353    1.353667
  H     -0.363281   -3.061918    0.107961
  H     -1.279813   -3.847068    1.407780
  H     -1.970566   -3.717223   -0.219453

 Total Charge           Charge          ....    0
 Multiplicity           Mult            ....    1
 Number of Electrons    NEL             ....  202
 Basis Dimension        Dim             ....  539

ORBITAL ENERGIES
----------------

  NO   OCC          E(Eh)            E(eV)
   0   2.0000     -88.579487     -2410.3704
   1   2.0000     -88.575562     -2410.2636
   2   2.0000     -88.530951     -2409.0497
   3   2.0000     -88.527932     -2408.9675
   4   2.0000     -76.919706     -2093.0916
   5   2.0000     -76.918754     -2093.0657
   6   2.0000     -18.996347      -516.9169
   7   2.0000     -18.995940      -516.9058
   8   2.0000     -18.993132      -516.8294
   9   2.0000     -18.990467      -516.7569
  10   2.0000     -10.103325      -274.9254
  11   2.0000     -10.090861      -274.5863
  12   2.0000     -10.090639      -274.5803
  13   2.0000     -10.090253      -274.5697
  14   2.0000     -10.089116      -274.5388
  15   2.0000     -10.019145      -272.6348
  16   2.0000     -10.018606      -272.6201
  17   2.0000     -10.018548      -272.6186
  18   2.0000     -10.015789      -272.5435
  19   2.0000      -7.873813      -214.2574
  20   2.0000      -7.869963      -214.1526
  21   2.0000      -7.826083      -212.9585
  22   2.0000      -7.823056      -212.8762
  23   2.0000      -6.598248      -179.5475
  24   2.0000      -6.597361      -179.5233
  25   2.0000      -5.820687      -158.3889
  26   2.0000      -5.817759      -158.3093
  27   2.0000      -5.816810      -158.2834
  28   2.0000      -5.813862      -158.2032
  29   2.0000      -5.810855      -158.1214
  30   2.0000      -5.807046      -158.0177
  31   2.0000      -5.773639      -157.1087
  32   2.0000      -5.770589      -157.0257
  33   2.0000      -5.766287      -156.9086
  34   2.0000      -5.766181      -156.9058
  35   2.0000      -5.763452      -156.8315
  36   2.0000      -5.762990      -156.8189
  37   2.0000      -4.744076      -129.0929
  38   2.0000      -4.743029      -129.0644
  39   2.0000      -4.742854      -129.0596
  40   2.0000      -4.742189      -129.0415
  41   2.0000      -4.741883      -129.0332
  42   2.0000      -4.741215      -129.0150
  43   2.0000      -1.053863       -28.6771
  44   2.0000      -1.051666       -28.6173
  45   2.0000      -1.011744       -27.5309
  46   2.0000      -1.011000       -27.5107
  47   2.0000      -0.804355       -21.8876
  48   2.0000      -0.756172       -20.5765
  49   2.0000      -0.744527       -20.2596
  50   2.0000      -0.725371       -19.7384
  51   2.0000      -0.722215       -19.6525
  52   2.0000      -0.711043       -19.3485
  53   2.0000      -0.689498       -18.7622
  54   2.0000      -0.674881       -18.3644
  55   2.0000      -0.630096       -17.1458
  56   2.0000      -0.617670       -16.8077
  57   2.0000      -0.601423       -16.3655
  58   2.0000      -0.598722       -16.2921
  59   2.0000      -0.586468       -15.9586
  60   2.0000      -0.527746       -14.3607
  61   2.0000      -0.520145       -14.1539
  62   2.0000      -0.490977       -13.3602
  63   2.0000      -0.485715       -13.2170
  64   2.0000      -0.480722       -13.0811
  65   2.0000      -0.459835       -12.5127
  66   2.0000      -0.453894       -12.3511
  67   2.0000      -0.449937       -12.2434
  68   2.0000      -0.440890       -11.9972
  69   2.0000      -0.434364       -11.8196
  70   2.0000      -0.422697       -11.5022
  71   2.0000      -0.411824       -11.2063
  72   2.0000      -0.406806       -11.0698
  73   2.0000      -0.394236       -10.7277
  74   2.0000      -0.390366       -10.6224
  75   2.0000      -0.388960       -10.5841
  76   2.0000      -0.379059       -10.3147
  77   2.0000      -0.373402       -10.1608
  78   2.0000      -0.363200        -9.8832
  79   2.0000      -0.359786        -9.7903
  80   2.0000      -0.356936        -9.7127
  81   2.0000      -0.350808        -9.5460
  82   2.0000      -0.349526        -9.5111
  83   2.0000      -0.347555        -9.4575
  84   2.0000      -0.345151        -9.3920
  85   2.0000      -0.327153        -8.9023
  86   2.0000      -0.319551        -8.6954
  87   2.0000      -0.315993        -8.5986
  88   2.0000      -0.306586        -8.3426
  89   2.0000      -0.305064        -8.3012
  90   2.0000      -0.300691        -8.1822
  91   2.0000      -0.290488        -7.9046
  92   2.0000      -0.281917        -7.6713
  93   2.0000      -0.279302        -7.6002
  94   2.0000      -0.275606        -7.4996
  95   2.0000      -0.250130        -6.8064
  96   2.0000      -0.238265        -6.4835
  97   2.0000      -0.234832        -6.3901
  98   2.0000      -0.227077        -6.1791
  99   2.0000      -0.223400        -6.0790
 100   2.0000      -0.219338        -5.9685
 101   0.0000      -0.051559        -1.4030
 102   0.0000      -0.031722        -0.8632
 103   0.0000      -0.007351        -0.2000
 104   0.0000      -0.005686        -0.1547
 105   0.0000       0.014112         0.3840

MULLIKEN ATOMIC CHARGES
-----------------------
   0 C :   -0.491083
   1 C :   -0.148266
   2 O :   -0.331693
   3 P :    0.702605
   4 S :   -0.527074
   5 O :   -0.279342
   6 C :   -0.140432
   7 C :   -0.483511
   8 S :   -0.122391
   9 C :   -0.259530
  10 S :   -0.153070
  11 P :    0.663446
  12 S :   -0.499758
  13 O :   -0.313720
  14 C :   -0.158297
  15 C :   -0.481802
  16 O :   -0.286180
  17 C :   -0.109360
  18 C :   -0.506157
  19 H :    0.170468
  20 H :    0.172130
  21 H :    0.172816
  22 H :    0.177058
  23 H :    0.174771
  24 H :    0.180232
  25 H :    0.169110
  26 H :    0.172159
  27 H :    0.165535
  28 H :    0.169475
  29 H :    0.237187
  30 H :    0.231941
  31 H :    0.179312
  32 H :    0.175676
  33 H :    0.168388
  34 H :    0.174144
  35 H :    0.172743
  36 H :    0.177624
  37 H :    0.175180
  38 H :    0.170878
  39 H :    0.172332
  40 H :    0.166456
Sum of atomic charges:    0.0000000

LOEWDIN ATOMIC CHARGES
----------------------
   0 C :   -0.409632
   1 C :    0.024309
   2 O :   -0.670737
   3 P :    0.382364
   4 S :   -0.163445
   5 O :   -0.692271
   6 C :    0.030261
   7 C :   -0.408130
   8 S :    0.172350
   9 C :   -0.419402
  10 S :    0.153277
  11 P :    0.381897
  12 S :   -0.143985
  13 O :   -0.673651
  14 C :    0.028483
  15 C :   -0.411419
  16 O :   -0.676748
  17 C :    0.029216
  18 C :   -0.392001
  19 H :    0.163616
  20 H :    0.161566
  21 H :    0.168663
  22 H :    0.181496
  23 H :    0.190651
  24 H :    0.190403
  25 H :    0.181945
  26 H :    0.162779
  27 H :    0.161561
  28 H :    0.166274
  29 H :    0.197068
  30 H :    0.197640
  31 H :    0.181617
  32 H :    0.191449
  33 H :    0.163706
  34 H :    0.161877
  35 H :    0.168534
  36 H :    0.185284
  37 H :    0.182418
  38 H :    0.165536
  39 H :    0.171057
  40 H :    0.164124

  Mayer bond orders larger than 0.100000
B(  0-C ,  1-C ) :   0.9095 B(  0-C , 19-H ) :   0.9664 B(  0-C , 20-H ) :   0.9626
B(  0-C , 21-H ) :   0.9534 B(  1-C ,  2-O ) :   0.8055 B(  1-C , 22-H ) :   0.9636
B(  1-C , 23-H ) :   0.9487 B(  2-O ,  3-P ) :   1.0787 B(  3-P ,  4-S ) :   1.7126
B(  3-P ,  5-O ) :   1.1473 B(  3-P ,  8-S ) :   1.1127 B(  5-O ,  6-C ) :   0.7311
B(  6-C ,  7-C ) :   0.9230 B(  6-C , 24-H ) :   0.9552 B(  6-C , 25-H ) :   0.9558
B(  7-C , 26-H ) :   0.9636 B(  7-C , 27-H ) :   0.9692 B(  7-C , 28-H ) :   0.9612
B(  8-S ,  9-C ) :   0.8953 B(  9-C , 10-S ) :   0.8991 B(  9-C , 29-H ) :   0.9006
B(  9-C , 30-H ) :   0.9015 B( 10-S , 11-P ) :   1.0131 B( 11-P , 12-S ) :   1.8085
B( 11-P , 13-O ) :   1.0470 B( 11-P , 16-O ) :   1.1745 B( 13-O , 14-C ) :   0.8072
B( 14-C , 15-C ) :   0.9064 B( 14-C , 31-H ) :   0.9675 B( 14-C , 32-H ) :   0.9504
B( 15-C , 33-H ) :   0.9645 B( 15-C , 34-H ) :   0.9651 B( 15-C , 35-H ) :   0.9509
B( 16-O , 17-C ) :   0.7227 B( 17-C , 18-C ) :   0.9223 B( 17-C , 36-H ) :   0.9440
B( 17-C , 37-H ) :   0.9331 B( 18-C , 38-H ) :   0.9699 B( 18-C , 39-H ) :   0.9609
B( 18-C , 40-H ) :   0.9678

Dispersion correction           -0.021957456
FINAL SINGLE POINT ENERGY     -2932.473402720013

DIPOLE MOMENT
-------------

Method             : SCF
Type of density    : Electron Density
Multiplicity       :   1
Irrep              :   0
Energy             : -2932.4979178532489641 Eh
Relativity type    :
Basis              : AO
                                X                 Y                 Z
Electronic contribution:     -1.650668653       6.024824315     -10.061783813
Nuclear contribution   :      1.793881843      -7.085083320      12.005831037
                        -----------------------------------------
Total Dipole Moment    :      0.143213190      -1.060259006       1.944047223
                        -----------------------------------------
Magnitude (a.u.)       :      2.219004007
Magnitude (Debye)      :      5.640259947

Rotational constants in cm-1:             0.012562             0.005021             0.004800
Rotational constants in MHz :           376.587497           150.511708           143.912894

                             ****ORCA TERMINATED NORMALLY****
TOTAL RUN TIME: 0 days 0 hours 1 minutes 58 seconds 579 msec
