                         Program Version 6.0.0  -   RELEASE  -
|  1> ! pbe def2-sv(p) def2/J RI DEFGRID1 loosescf d4 GCP(DFT/SV(P)) printgap
|  2> %output
|  3>     printlevel normal
|  4> end
|  5> * xyz 0 1
|  6> C 3.0100109162 -2.4831241486 1.748532093
|  7> C 1.7469740529 -2.2966993964 0.935138861
|  8> O 1.3501034423 -0.9117245002 0.9016093513
|  9> P 2.1427211845 0.1709610334 0.0665022715
| 10> S 3.2012338037 -0.4760996586 -1.4560280014
| 11> O 2.962195615 0.9011740052 1.2106635085
| 12> C 3.8976966386 1.9587769378 0.9144050504
| 13> C 4.7690357774 2.1623035925 2.1372077695
| 14> S 0.626968656 1.5748822233 -0.4028015207
| 15> C 0.0756728124 0.7617145368 -1.9233295714
| 16> S -0.6136220878 -0.8859931353 -1.6108700698
| 17> P -2.3312836463 -0.2450776386 -0.5568950683
| 18> S -3.1076393527 1.4471356793 -1.18231175
| 19> O -2.0291841404 -0.2877756452 1.0071997333
| 20> C -1.9843109852 0.869364176 1.869759956
| 21> C -0.8668444848 0.7014002954 2.8782141825
| 22> O -3.1275514166 -1.5954866966 -0.7863492449
| 23> C -4.2204767567 -2.0379322369 0.046934422
| 24> C -5.4134945869 -1.1066079046 -0.0267823645
| 25> H 3.8359218724 -1.9640134475 1.2632063532
| 26> H 2.8778298615 -2.0769282317 2.7476198384
| 27> H 3.2464718684 -3.5404821121 1.8132182313
| 28> H 0.8914232117 -2.8054247756 1.3811809908
| 29> H 1.8875322397 -2.6454737984 -0.0932021727
| 30> H 4.4894835108 1.6655470049 0.0408479305
| 31> H 3.3286411456 2.8608237027 0.6736248641
| 32> H 5.3282693895 1.2568613318 2.3544376961
| 33> H 5.4628635844 2.9747300137 1.9480336827
| 34> H 4.1501021889 2.4088676709 2.9947301993
| 35> H 0.9235480173 0.6275671517 -2.5945542631
| 36> H -0.6874664032 1.4032601773 -2.3644854538
| 37> H -1.8472144904 1.7684569961 1.2613392651
| 38> H -2.954561392 0.9257814878 2.3698040257
| 39> H 0.0983520396 0.6665551038 2.37939589
| 40> H -0.8823737235 1.5448831523 3.5606136341
| 41> H -1.0052033955 -0.2191695402 3.4378121018
| 42> H -4.4593627926 -3.0253438099 -0.3517527352
| 43> H -3.8574508738 -2.130068283 1.0734028248
| 44> H -5.15159343 -0.1251723703 0.3670517072
| 45> H -5.7340699797 -0.9854755482 -1.058749943
| 46> H -6.2303386109 -1.5184451572 0.5575852264
| 47> *
| 48>
| 49>                          ****END OF INPUT****

CARTESIAN COORDINATES (ANGSTROEM)
---------------------------------
  C      3.010011   -2.483124    1.748532
  C      1.746974   -2.296699    0.935139
  O      1.350103   -0.911725    0.901609
  P      2.142721    0.170961    0.066502
  S      3.201234   -0.476100   -1.456028
  O      2.962196    0.901174    1.210664
  C      3.897697    1.958777    0.914405
  C      4.769036    2.162304    2.137208
  S      0.626969    1.574882   -0.402802
  C      0.075673    0.761715   -1.923330
  S     -0.613622   -0.885993   -1.610870
  P     -2.331284   -0.245078   -0.556895
  S     -3.107639    1.447136   -1.182312
  O     -2.029184   -0.287776    1.007200
  C     -1.984311    0.869364    1.869760
  C     -0.866844    0.701400    2.878214
  O     -3.127551   -1.595487   -0.786349
  C     -4.220477   -2.037932    0.046934
  C     -5.413495   -1.106608   -0.026782
  H      3.835922   -1.964013    1.263206
  H      2.877830   -2.076928    2.747620
  H      3.246472   -3.540482    1.813218
  H      0.891423   -2.805425    1.381181
  H      1.887532   -2.645474   -0.093202
  H      4.489484    1.665547    0.040848
  H      3.328641    2.860824    0.673625
  H      5.328269    1.256861    2.354438
  H      5.462864    2.974730    1.948034
  H      4.150102    2.408868    2.994730
  H      0.923548    0.627567   -2.594554
  H     -0.687466    1.403260   -2.364485
  H     -1.847214    1.768457    1.261339
  H     -2.954561    0.925781    2.369804
  H      0.098352    0.666555    2.379396
  H     -0.882374    1.544883    3.560614
  H     -1.005203   -0.219170    3.437812
  H     -4.459363   -3.025344   -0.351753
  H     -3.857451   -2.130068    1.073403
  H     -5.151593   -0.125172    0.367052
  H     -5.734070   -0.985476   -1.058750
  H     -6.230339   -1.518445    0.557585

 Total Charge           Charge          ....    0
 Multiplicity           Mult            ....    1
 Number of Electrons    NEL             ....  202
 Basis Dimension        Dim             ....  334

ORBITAL ENERGIES
----------------

  NO   OCC          E(Eh)            E(eV)
   0   2.0000     -88.044010     -2395.7993
   1   2.0000     -88.037561     -2395.6238
   2   2.0000     -87.991127     -2394.3603
   3   2.0000     -87.985340     -2394.2028
   4   2.0000     -76.429671     -2079.7571
   5   2.0000     -76.425357     -2079.6397
   6   2.0000     -18.799696      -511.5657
   7   2.0000     -18.793184      -511.3885
   8   2.0000     -18.792135      -511.3600
   9   2.0000     -18.790935      -511.3274
  10   2.0000      -9.957195      -270.9491
  11   2.0000      -9.957036      -270.9447
  12   2.0000      -9.951592      -270.7966
  13   2.0000      -9.950518      -270.7674
  14   2.0000      -9.947549      -270.6866
  15   2.0000      -9.892116      -269.1782
  16   2.0000      -9.885103      -268.9873
  17   2.0000      -9.884543      -268.9721
  18   2.0000      -9.879210      -268.8270
  19   2.0000      -7.688897      -209.2255
  20   2.0000      -7.682693      -209.0567
  21   2.0000      -7.636020      -207.7867
  22   2.0000      -7.630366      -207.6328
  23   2.0000      -6.427083      -174.8898
  24   2.0000      -6.422645      -174.7691
  25   2.0000      -5.716620      -155.5571
  26   2.0000      -5.713509      -155.4725
  27   2.0000      -5.710619      -155.3938
  28   2.0000      -5.707321      -155.3041
  29   2.0000      -5.705955      -155.2669
  30   2.0000      -5.699477      -155.0906
  31   2.0000      -5.664803      -154.1471
  32   2.0000      -5.659171      -153.9939
  33   2.0000      -5.656630      -153.9247
  34   2.0000      -5.656348      -153.9171
  35   2.0000      -5.651233      -153.7779
  36   2.0000      -5.650391      -153.7550
  37   2.0000      -4.649490      -126.5191
  38   2.0000      -4.648900      -126.5030
  39   2.0000      -4.647613      -126.4680
  40   2.0000      -4.645490      -126.4102
  41   2.0000      -4.644095      -126.3723
  42   2.0000      -4.643216      -126.3483
  43   2.0000      -0.992030       -26.9945
  44   2.0000      -0.985258       -26.8102
  45   2.0000      -0.950626       -25.8679
  46   2.0000      -0.941542       -25.6207
  47   2.0000      -0.764895       -20.8138
  48   2.0000      -0.724770       -19.7220
  49   2.0000      -0.710452       -19.3324
  50   2.0000      -0.690468       -18.7886
  51   2.0000      -0.687840       -18.7171
  52   2.0000      -0.671969       -18.2852
  53   2.0000      -0.650347       -17.6968
  54   2.0000      -0.637957       -17.3597
  55   2.0000      -0.601976       -16.3806
  56   2.0000      -0.592970       -16.1355
  57   2.0000      -0.571697       -15.5567
  58   2.0000      -0.568354       -15.4657
  59   2.0000      -0.559151       -15.2153
  60   2.0000      -0.508267       -13.8306
  61   2.0000      -0.500288       -13.6135
  62   2.0000      -0.480705       -13.0807
  63   2.0000      -0.474130       -12.9017
  64   2.0000      -0.459975       -12.5166
  65   2.0000      -0.448208       -12.1963
  66   2.0000      -0.438639       -11.9360
  67   2.0000      -0.433566       -11.7979
  68   2.0000      -0.425906       -11.5895
  69   2.0000      -0.414352       -11.2751
  70   2.0000      -0.411495       -11.1974
  71   2.0000      -0.396794       -10.7973
  72   2.0000      -0.388408       -10.5691
  73   2.0000      -0.384949       -10.4750
  74   2.0000      -0.379858       -10.3365
  75   2.0000      -0.375413       -10.2155
  76   2.0000      -0.368916       -10.0387
  77   2.0000      -0.360757        -9.8167
  78   2.0000      -0.353488        -9.6189
  79   2.0000      -0.350216        -9.5299
  80   2.0000      -0.349797        -9.5185
  81   2.0000      -0.347061        -9.4440
  82   2.0000      -0.343453        -9.3458
  83   2.0000      -0.338699        -9.2165
  84   2.0000      -0.332205        -9.0397
  85   2.0000      -0.324751        -8.8369
  86   2.0000      -0.311478        -8.4758
  87   2.0000      -0.304994        -8.2993
  88   2.0000      -0.293076        -7.9750
  89   2.0000      -0.292493        -7.9591
  90   2.0000      -0.287894        -7.8340
  91   2.0000      -0.278324        -7.5736
  92   2.0000      -0.273744        -7.4489
  93   2.0000      -0.267754        -7.2860
  94   2.0000      -0.256938        -6.9916
  95   2.0000      -0.233988        -6.3671
  96   2.0000      -0.216140        -5.8815
  97   2.0000      -0.215001        -5.8505
  98   2.0000      -0.207346        -5.6422
  99   2.0000      -0.201030        -5.4703
 100   2.0000      -0.197037        -5.3616
 101   0.0000      -0.046029        -1.2525
 102   0.0000      -0.023300        -0.6340
 103   0.0000       0.000791         0.0215
 104   0.0000       0.003312         0.0901
 105   0.0000       0.011548         0.3142

MULLIKEN ATOMIC CHARGES
-----------------------
   0 C :   -0.303828
   1 C :   -0.001784
   2 O :   -0.359293
   3 P :    0.618014
   4 S :   -0.325149
   5 O :   -0.380089
   6 C :   -0.014664
   7 C :   -0.279720
   8 S :   -0.092932
   9 C :   -0.368803
  10 S :   -0.072132
  11 P :    0.640470
  12 S :   -0.334951
  13 O :   -0.384207
  14 C :   -0.003568
  15 C :   -0.294425
  16 O :   -0.378792
  17 C :   -0.003940
  18 C :   -0.315933
  19 H :    0.121458
  20 H :    0.114687
  21 H :    0.112593
  22 H :    0.105527
  23 H :    0.115402
  24 H :    0.108196
  25 H :    0.105331
  26 H :    0.119799
  27 H :    0.114155
  28 H :    0.117293
  29 H :    0.192760
  30 H :    0.195849
  31 H :    0.113560
  32 H :    0.096621
  33 H :    0.132524
  34 H :    0.103185
  35 H :    0.104811
  36 H :    0.109235
  37 H :    0.107052
  38 H :    0.129467
  39 H :    0.126125
  40 H :    0.110098
Sum of atomic charges:   -0.0000000

LOEWDIN ATOMIC CHARGES
----------------------
   0 C :   -0.364369
   1 C :   -0.117255
   2 O :   -0.227403
   3 P :    0.570861
   4 S :   -0.319584
   5 O :   -0.246143
   6 C :   -0.119691
   7 C :   -0.349817
   8 S :    0.086615
   9 C :   -0.485259
  10 S :    0.096954
  11 P :    0.571172
  12 S :   -0.317140
  13 O :   -0.248440
  14 C :   -0.119457
  15 C :   -0.358169
  16 O :   -0.247347
  17 C :   -0.111054
  18 C :   -0.366243
  19 H :    0.121640
  20 H :    0.125405
  21 H :    0.130670
  22 H :    0.119202
  23 H :    0.111078
  24 H :    0.110077
  25 H :    0.110757
  26 H :    0.128436
  27 H :    0.131957
  28 H :    0.127400
  29 H :    0.130444
  30 H :    0.129722
  31 H :    0.103098
  32 H :    0.109342
  33 H :    0.117675
  34 H :    0.127537
  35 H :    0.122336
  36 H :    0.121469
  37 H :    0.111354
  38 H :    0.121589
  39 H :    0.131404
  40 H :    0.129175

  Mayer bond orders larger than 0.100000
B(  0-C ,  1-C ) :   1.1646 B(  0-C , 19-H ) :   0.9343 B(  0-C , 20-H ) :   0.9469
B(  0-C , 21-H ) :   0.9397 B(  1-C ,  2-O ) :   0.8955 B(  1-C , 22-H ) :   0.9337
B(  1-C , 23-H ) :   0.9143 B(  2-O ,  3-P ) :   1.1141 B(  3-P ,  4-S ) :   1.5991
B(  3-P ,  5-O ) :   1.0982 B(  3-P ,  8-S ) :   0.9590 B(  4-S ,  8-S ) :   0.1051
B(  5-O ,  6-C ) :   0.9022 B(  6-C ,  7-C ) :   1.1607 B(  6-C , 24-H ) :   0.9118
B(  6-C , 25-H ) :   0.9284 B(  7-C , 26-H ) :   0.9514 B(  7-C , 27-H ) :   0.9416
B(  7-C , 28-H ) :   0.9504 B(  8-S ,  9-C ) :   0.9938 B(  9-C , 10-S ) :   1.0125
B(  9-C , 29-H ) :   0.8812 B(  9-C , 30-H ) :   0.8750 B( 10-S , 11-P ) :   0.9519
B( 10-S , 12-S ) :   0.1104 B( 11-P , 12-S ) :   1.6150 B( 11-P , 13-O ) :   1.0916
B( 11-P , 16-O ) :   1.1224 B( 13-O , 14-C ) :   0.8937 B( 14-C , 15-C ) :   1.1648
B( 14-C , 31-H ) :   0.9022 B( 14-C , 32-H ) :   0.9342 B( 15-C , 33-H ) :   0.9325
B( 15-C , 34-H ) :   0.9391 B( 15-C , 35-H ) :   0.9482 B( 16-O , 17-C ) :   0.9120
B( 17-C , 18-C ) :   1.1643 B( 17-C , 36-H ) :   0.9352 B( 17-C , 37-H ) :   0.9281
B( 18-C , 38-H ) :   0.9356 B( 18-C , 39-H ) :   0.9454 B( 18-C , 40-H ) :   0.9365

Dispersion correction           -0.065713174
FINAL SINGLE POINT ENERGY     -2929.525643654100

DIPOLE MOMENT
-------------

Method             : SCF
Type of density    : Electron Density
Multiplicity       :   1
Irrep              :   0
Energy             : -2929.6451290594227430 Eh
Relativity type    :
Basis              : AO
                                X                 Y                 Z
Electronic contribution:     -3.511514988       2.427924034     -21.266205564
Nuclear contribution   :      3.634251118      -2.761216396      22.899435560
                        -----------------------------------------
Total Dipole Moment    :      0.122736130      -0.333292363       1.633229996
                        -----------------------------------------
Magnitude (a.u.)       :      1.671403056
Magnitude (Debye)      :      4.248368946

Rotational constants in cm-1:             0.013561             0.004718             0.004683
Rotational constants in MHz :           406.555100           141.447002           140.386635

                             ****ORCA TERMINATED NORMALLY****
TOTAL RUN TIME: 0 days 0 hours 0 minutes 21 seconds 283 msec
