                         Program Version 6.0.0  -   RELEASE  -
|  1> ! pbe def2-sv(p) def2/J RI DEFGRID1 loosescf d4 GCP(DFT/SV(P)) printgap
|  2> %output
|  3>     printlevel normal
|  4> end
|  5> * xyz 0 1
|  6> C 1.7291764408 2.3559496228 -2.4660843731
|  7> C 2.2383760654 1.1843417835 -1.6550808081
|  8> O 1.6122511831 1.2473672709 -0.3461457073
|  9> P 1.850169766 0.1577895895 0.7643786178
| 10> S 1.1702604273 0.6874099005 2.5184811199
| 11> O 3.4310127432 -0.0153500064 0.648718658
| 12> C 4.1922469316 -0.9711426354 1.4113738631
| 13> C 4.6298387633 -0.3987796747 2.7457264094
| 14> S 1.1910934942 -1.7474216166 0.0482488981
| 15> C -0.1807020578 -2.074600713 1.1854044241
| 16> S -1.8116739627 -2.1067771353 0.3876767727
| 17> P -1.7333900247 -0.2492702821 -0.65904783
| 18> S -0.9037200446 -0.290113489 -2.4356192459
| 19> O -1.0826724057 0.7232080225 0.4055218525
| 20> C -1.6964478956 1.9458114277 0.8818284462
| 21> C -1.5665040042 3.0471078155 -0.1471192571
| 22> O -3.2530209713 0.1999379553 -0.6785299325
| 23> C -4.1872487106 -0.3633994501 -1.6227156962
| 24> C -5.381994314 0.5643331115 -1.7058433287
| 25> H 1.92581912 3.28795521 -1.9436693552
| 26> H 2.2355899904 2.3645939131 -3.4257139333
| 27> H 0.6600522493 2.2547050948 -2.6335960584
| 28> H 3.319590635 1.2282647365 -1.5154671568
| 29> H 1.9667985087 0.2338302575 -2.1232940959
| 30> H 3.595321382 -1.8777021244 1.5460117966
| 31> H 5.0519430825 -1.1948473891 0.7765102546
| 32> H 3.7656680776 -0.1785046012 3.3682109761
| 33> H 5.2581164955 -1.1230669063 3.25390093
| 34> H 5.1906815649 0.5191203667 2.5924546228
| 35> H -0.1656324557 -1.3142053826 1.9721362382
| 36> H -0.0425540452 -3.0714027407 1.597316883
| 37> H -2.7399031655 1.7417269907 1.1237381089
| 38> H -1.137616548 2.1728712521 1.7921150888
| 39> H -2.0772481055 2.7604094563 -1.0653730956
| 40> H -2.009687409 3.958088821 0.2423013916
| 41> H -0.5167908265 3.2216144361 -0.3706538894
| 42> H -3.685589059 -0.4638349735 -2.5912013157
| 43> H -4.4730955193 -1.3554408036 -1.2637345319
| 44> H -6.1072946454 0.1444643259 -2.3948575003
| 45> H -5.8380557167 0.6724246823 -0.726087187
| 46> H -5.0747400156 1.5431242705 -2.063233867
| 47> *
| 48>
| 49>                          ****END OF INPUT****

CARTESIAN COORDINATES (ANGSTROEM)
---------------------------------
  C      1.729176    2.355950   -2.466084
  C      2.238376    1.184342   -1.655081
  O      1.612251    1.247367   -0.346146
  P      1.850170    0.157790    0.764379
  S      1.170260    0.687410    2.518481
  O      3.431013   -0.015350    0.648719
  C      4.192247   -0.971143    1.411374
  C      4.629839   -0.398780    2.745726
  S      1.191093   -1.747422    0.048249
  C     -0.180702   -2.074601    1.185404
  S     -1.811674   -2.106777    0.387677
  P     -1.733390   -0.249270   -0.659048
  S     -0.903720   -0.290113   -2.435619
  O     -1.082672    0.723208    0.405522
  C     -1.696448    1.945811    0.881828
  C     -1.566504    3.047108   -0.147119
  O     -3.253021    0.199938   -0.678530
  C     -4.187249   -0.363399   -1.622716
  C     -5.381994    0.564333   -1.705843
  H      1.925819    3.287955   -1.943669
  H      2.235590    2.364594   -3.425714
  H      0.660052    2.254705   -2.633596
  H      3.319591    1.228265   -1.515467
  H      1.966799    0.233830   -2.123294
  H      3.595321   -1.877702    1.546012
  H      5.051943   -1.194847    0.776510
  H      3.765668   -0.178505    3.368211
  H      5.258116   -1.123067    3.253901
  H      5.190682    0.519120    2.592455
  H     -0.165632   -1.314205    1.972136
  H     -0.042554   -3.071403    1.597317
  H     -2.739903    1.741727    1.123738
  H     -1.137617    2.172871    1.792115
  H     -2.077248    2.760409   -1.065373
  H     -2.009687    3.958089    0.242301
  H     -0.516791    3.221614   -0.370654
  H     -3.685589   -0.463835   -2.591201
  H     -4.473096   -1.355441   -1.263735
  H     -6.107295    0.144464   -2.394858
  H     -5.838056    0.672425   -0.726087
  H     -5.074740    1.543124   -2.063234

 Total Charge           Charge          ....    0
 Multiplicity           Mult            ....    1
 Number of Electrons    NEL             ....  202
 Basis Dimension        Dim             ....  334

ORBITAL ENERGIES
----------------

  NO   OCC          E(Eh)            E(eV)
   0   2.0000     -88.041439     -2395.7293
   1   2.0000     -88.033479     -2395.5128
   2   2.0000     -87.985421     -2394.2050
   3   2.0000     -87.982018     -2394.1124
   4   2.0000     -76.425913     -2079.6548
   5   2.0000     -76.425002     -2079.6300
   6   2.0000     -18.796663      -511.4832
   7   2.0000     -18.790645      -511.3194
   8   2.0000     -18.786817      -511.2153
   9   2.0000     -18.786660      -511.2110
  10   2.0000      -9.956566      -270.9319
  11   2.0000      -9.952391      -270.8183
  12   2.0000      -9.951928      -270.8057
  13   2.0000      -9.946309      -270.6528
  14   2.0000      -9.945540      -270.6319
  15   2.0000      -9.891788      -269.1692
  16   2.0000      -9.878792      -268.8156
  17   2.0000      -9.878442      -268.8061
  18   2.0000      -9.877584      -268.7827
  19   2.0000      -7.685874      -209.1433
  20   2.0000      -7.679241      -208.9628
  21   2.0000      -7.630485      -207.6361
  22   2.0000      -7.627053      -207.5427
  23   2.0000      -6.423193      -174.7840
  24   2.0000      -6.422060      -174.7531
  25   2.0000      -5.713623      -155.4756
  26   2.0000      -5.710311      -155.3855
  27   2.0000      -5.707286      -155.3032
  28   2.0000      -5.703863      -155.2100
  29   2.0000      -5.703103      -155.1893
  30   2.0000      -5.695868      -154.9925
  31   2.0000      -5.659453      -154.0015
  32   2.0000      -5.655821      -153.9027
  33   2.0000      -5.651116      -153.7747
  34   2.0000      -5.650467      -153.7570
  35   2.0000      -5.647820      -153.6850
  36   2.0000      -5.647191      -153.6679
  37   2.0000      -4.646657      -126.4420
  38   2.0000      -4.644868      -126.3933
  39   2.0000      -4.644811      -126.3917
  40   2.0000      -4.643795      -126.3641
  41   2.0000      -4.642950      -126.3411
  42   2.0000      -4.642500      -126.3288
  43   2.0000      -0.989433       -26.9239
  44   2.0000      -0.985158       -26.8075
  45   2.0000      -0.944422       -25.6990
  46   2.0000      -0.938755       -25.5448
  47   2.0000      -0.758097       -20.6289
  48   2.0000      -0.719602       -19.5814
  49   2.0000      -0.708365       -19.2756
  50   2.0000      -0.690365       -18.7858
  51   2.0000      -0.684960       -18.6387
  52   2.0000      -0.668930       -18.2025
  53   2.0000      -0.647727       -17.6255
  54   2.0000      -0.636604       -17.3229
  55   2.0000      -0.589201       -16.0330
  56   2.0000      -0.582556       -15.8522
  57   2.0000      -0.572665       -15.5830
  58   2.0000      -0.565241       -15.3810
  59   2.0000      -0.562520       -15.3069
  60   2.0000      -0.509605       -13.8671
  61   2.0000      -0.502668       -13.6783
  62   2.0000      -0.477260       -12.9869
  63   2.0000      -0.474539       -12.9129
  64   2.0000      -0.448888       -12.2149
  65   2.0000      -0.447490       -12.1768
  66   2.0000      -0.441567       -12.0156
  67   2.0000      -0.431942       -11.7537
  68   2.0000      -0.423198       -11.5158
  69   2.0000      -0.408739       -11.1223
  70   2.0000      -0.402520       -10.9531
  71   2.0000      -0.400081       -10.8867
  72   2.0000      -0.395427       -10.7601
  73   2.0000      -0.383257       -10.4290
  74   2.0000      -0.380689       -10.3591
  75   2.0000      -0.365105        -9.9350
  76   2.0000      -0.358436        -9.7535
  77   2.0000      -0.353014        -9.6060
  78   2.0000      -0.351635        -9.5685
  79   2.0000      -0.348435        -9.4814
  80   2.0000      -0.343568        -9.3490
  81   2.0000      -0.341869        -9.3027
  82   2.0000      -0.335565        -9.1312
  83   2.0000      -0.332348        -9.0437
  84   2.0000      -0.328796        -8.9470
  85   2.0000      -0.321182        -8.7398
  86   2.0000      -0.313619        -8.5340
  87   2.0000      -0.305720        -8.3191
  88   2.0000      -0.299713        -8.1556
  89   2.0000      -0.292141        -7.9496
  90   2.0000      -0.284982        -7.7548
  91   2.0000      -0.273933        -7.4541
  92   2.0000      -0.265028        -7.2118
  93   2.0000      -0.258832        -7.0432
  94   2.0000      -0.253530        -6.8989
  95   2.0000      -0.236525        -6.4362
  96   2.0000      -0.222220        -6.0469
  97   2.0000      -0.207238        -5.6392
  98   2.0000      -0.200590        -5.4583
  99   2.0000      -0.191281        -5.2050
 100   2.0000      -0.187681        -5.1071
 101   0.0000      -0.048410        -1.3173
 102   0.0000      -0.031897        -0.8680
 103   0.0000      -0.012871        -0.3502
 104   0.0000       0.008848         0.2408
 105   0.0000       0.016922         0.4605

MULLIKEN ATOMIC CHARGES
-----------------------
   0 C :   -0.292973
   1 C :   -0.020553
   2 O :   -0.360195
   3 P :    0.636405
   4 S :   -0.311295
   5 O :   -0.384758
   6 C :   -0.004880
   7 C :   -0.293793
   8 S :   -0.107538
   9 C :   -0.338231
  10 S :   -0.120887
  11 P :    0.643027
  12 S :   -0.316274
  13 O :   -0.376292
  14 C :    0.001121
  15 C :   -0.320402
  16 O :   -0.388262
  17 C :   -0.014935
  18 C :   -0.284892
  19 H :    0.115655
  20 H :    0.106937
  21 H :    0.133968
  22 H :    0.105994
  23 H :    0.117156
  24 H :    0.095954
  25 H :    0.103527
  26 H :    0.129471
  27 H :    0.105463
  28 H :    0.112783
  29 H :    0.197181
  30 H :    0.178678
  31 H :    0.106455
  32 H :    0.116726
  33 H :    0.116540
  34 H :    0.107443
  35 H :    0.135939
  36 H :    0.109712
  37 H :    0.105834
  38 H :    0.114262
  39 H :    0.118199
  40 H :    0.121731
Sum of atomic charges:    0.0000000

LOEWDIN ATOMIC CHARGES
----------------------
   0 C :   -0.355285
   1 C :   -0.117769
   2 O :   -0.229410
   3 P :    0.578838
   4 S :   -0.289690
   5 O :   -0.248230
   6 C :   -0.117947
   7 C :   -0.364940
   8 S :    0.079586
   9 C :   -0.480504
  10 S :    0.046735
  11 P :    0.571354
  12 S :   -0.306868
  13 O :   -0.239877
  14 C :   -0.112377
  15 C :   -0.362845
  16 O :   -0.245800
  17 C :   -0.121137
  18 C :   -0.350833
  19 H :    0.124689
  20 H :    0.129704
  21 H :    0.125220
  22 H :    0.110378
  23 H :    0.108546
  24 H :    0.101369
  25 H :    0.117284
  26 H :    0.123187
  27 H :    0.127787
  28 H :    0.125871
  29 H :    0.120867
  30 H :    0.136826
  31 H :    0.111232
  32 H :    0.115669
  33 H :    0.119619
  34 H :    0.128352
  35 H :    0.131390
  36 H :    0.108983
  37 H :    0.112077
  38 H :    0.132330
  39 H :    0.127169
  40 H :    0.128450

  Mayer bond orders larger than 0.100000
B(  0-C ,  1-C ) :   1.1715 B(  0-C , 19-H ) :   0.9463 B(  0-C , 20-H ) :   0.9395
B(  0-C , 21-H ) :   0.9338 B(  1-C ,  2-O ) :   0.8873 B(  1-C , 22-H ) :   0.9255
B(  1-C , 23-H ) :   0.9104 B(  2-O ,  3-P ) :   1.1415 B(  3-P ,  4-S ) :   1.6123
B(  3-P ,  5-O ) :   1.0728 B(  3-P ,  8-S ) :   0.9533 B(  4-S ,  8-S ) :   0.1183
B(  4-S , 29-H ) :   0.1206 B(  5-O ,  6-C ) :   0.9125 B(  6-C ,  7-C ) :   1.1656
B(  6-C , 24-H ) :   0.9110 B(  6-C , 25-H ) :   0.9366 B(  7-C , 26-H ) :   0.9309
B(  7-C , 27-H ) :   0.9391 B(  7-C , 28-H ) :   0.9475 B(  8-S ,  9-C ) :   1.0112
B(  9-C , 10-S ) :   0.9929 B(  9-C , 29-H ) :   0.8490 B(  9-C , 30-H ) :   0.9128
B( 10-S , 11-P ) :   0.9518 B( 10-S , 12-S ) :   0.1174 B( 11-P , 12-S ) :   1.6520
B( 11-P , 13-O ) :   1.1136 B( 11-P , 16-O ) :   1.0680 B( 13-O , 14-C ) :   0.8854
B( 14-C , 15-C ) :   1.1743 B( 14-C , 31-H ) :   0.9244 B( 14-C , 32-H ) :   0.9118
B( 15-C , 33-H ) :   0.9390 B( 15-C , 34-H ) :   0.9382 B( 15-C , 35-H ) :   0.9374
B( 16-O , 17-C ) :   0.9034 B( 17-C , 18-C ) :   1.1606 B( 17-C , 36-H ) :   0.9051
B( 17-C , 37-H ) :   0.9296 B( 18-C , 38-H ) :   0.9413 B( 18-C , 39-H ) :   0.9506
B( 18-C , 40-H ) :   0.9515

Dispersion correction           -0.067785497
FINAL SINGLE POINT ENERGY     -2929.513639552802

DIPOLE MOMENT
-------------

Method             : SCF
Type of density    : Electron Density
Multiplicity       :   1
Irrep              :   0
Energy             : -2929.6332544954384502 Eh
Relativity type    :
Basis              : AO
                                X                 Y                 Z
Electronic contribution:      0.753308876     -14.711457291       3.626722644
Nuclear contribution   :     -0.926681550      14.778080789      -3.722705281
                        -----------------------------------------
Total Dipole Moment    :     -0.173372674       0.066623499      -0.095982637
                        -----------------------------------------
Magnitude (a.u.)       :      0.209068030
Magnitude (Debye)      :      0.531408702

Rotational constants in cm-1:             0.013002             0.005463             0.005065
Rotational constants in MHz :           389.792081           163.790150           151.843141

                             ****ORCA TERMINATED NORMALLY****
TOTAL RUN TIME: 0 days 0 hours 0 minutes 21 seconds 479 msec
