                         Program Version 6.0.0  -   RELEASE  -
|  1> ! r2scan-3c def2/J RI DEFGRID2 scfconv6 printgap
|  2> %output
|  3>     printlevel normal
|  4> end
|  5> * xyz 0 1
|  6> C 2.9594984383 -1.070935721 -2.8648224299
|  7> C 1.6562792551 -0.9743753374 -2.100235963
|  8> O 1.6956175479 0.1308753434 -1.1618256753
|  9> P 1.9993196963 -0.0589303279 0.3695540806
| 10> S 2.2555106175 1.6078210488 1.3575350037
| 11> O 3.2734430936 -1.0102242266 0.3300700116
| 12> C 3.9483362637 -1.3954821047 1.5450534406
| 13> C 5.2975837328 -1.970790416 1.1654266061
| 14> S 0.539078617 -1.3811454941 1.18439616
| 15> C -0.5092798056 -0.2062367491 2.0949813998
| 16> S -2.2257858653 -0.1979079782 1.5343544486
| 17> P -1.8987812501 0.6044319522 -0.4092034373
| 18> S -0.739427502 2.1768529258 -0.5306485753
| 19> O -3.3700313061 0.7900010259 -0.9788801065
| 20> C -4.1392859157 1.9880863907 -0.7716989475
| 21> C -4.4939531565 2.2011279526 0.6853479632
| 22> O -1.3524542086 -0.6058702477 -1.2629636417
| 23> C -2.0570463194 -1.8707903194 -1.3894324621
| 24> C -2.8255597962 -1.9255160744 -2.6928753649
| 25> H 3.1661228817 -0.1286760501 -3.3651178462
| 26> H 3.7778655927 -1.2939360059 -2.1855312393
| 27> H 2.8781126177 -1.8613244887 -3.6044607279
| 28> H 1.4473894755 -1.8960606796 -1.5500186065
| 29> H 0.8182900475 -0.7388562952 -2.7590318145
| 30> H 4.0511716744 -0.509332667 2.1799150384
| 31> H 3.328199827 -2.1348566575 2.0591136529
| 32> H 5.88977779 -1.2225621196 0.6459474559
| 33> H 5.8187421316 -2.276061863 2.0666631601
| 34> H 5.166114946 -2.8318492619 0.5166221251
| 35> H -0.0738865858 0.792234035 1.9926888384
| 36> H -0.534038102 -0.5167967761 3.1363784116
| 37> H -3.564062123 2.8361384524 -1.1555578245
| 38> H -5.0288075185 1.8337336455 -1.3841432974
| 39> H -3.5961029949 2.4315712349 1.2570682891
| 40> H -5.1838734225 3.034893492 0.7671929668
| 41> H -4.9546802916 1.3074724338 1.0988519474
| 42> H -1.2716079327 -2.6282282724 -1.352592171
| 43> H -2.7232905325 -1.9922130915 -0.5312071459
| 44> H -2.1552993877 -1.763420158 -3.5324615944
| 45> H -3.2881649937 -2.9028767739 -2.7875738982
| 46> H -3.5968775015 -1.1603182225 -2.7069191624
| 47> *
| 48>
| 49>                          ****END OF INPUT****

CARTESIAN COORDINATES (ANGSTROEM)
---------------------------------
  C      2.959498   -1.070936   -2.864822
  C      1.656279   -0.974375   -2.100236
  O      1.695618    0.130875   -1.161826
  P      1.999320   -0.058930    0.369554
  S      2.255511    1.607821    1.357535
  O      3.273443   -1.010224    0.330070
  C      3.948336   -1.395482    1.545053
  C      5.297584   -1.970790    1.165427
  S      0.539079   -1.381145    1.184396
  C     -0.509280   -0.206237    2.094981
  S     -2.225786   -0.197908    1.534354
  P     -1.898781    0.604432   -0.409203
  S     -0.739428    2.176853   -0.530649
  O     -3.370031    0.790001   -0.978880
  C     -4.139286    1.988086   -0.771699
  C     -4.493953    2.201128    0.685348
  O     -1.352454   -0.605870   -1.262964
  C     -2.057046   -1.870790   -1.389432
  C     -2.825560   -1.925516   -2.692875
  H      3.166123   -0.128676   -3.365118
  H      3.777866   -1.293936   -2.185531
  H      2.878113   -1.861324   -3.604461
  H      1.447389   -1.896061   -1.550019
  H      0.818290   -0.738856   -2.759032
  H      4.051172   -0.509333    2.179915
  H      3.328200   -2.134857    2.059114
  H      5.889778   -1.222562    0.645947
  H      5.818742   -2.276062    2.066663
  H      5.166115   -2.831849    0.516622
  H     -0.073887    0.792234    1.992689
  H     -0.534038   -0.516797    3.136378
  H     -3.564062    2.836138   -1.155558
  H     -5.028808    1.833734   -1.384143
  H     -3.596103    2.431571    1.257068
  H     -5.183873    3.034893    0.767193
  H     -4.954680    1.307472    1.098852
  H     -1.271608   -2.628228   -1.352592
  H     -2.723291   -1.992213   -0.531207
  H     -2.155299   -1.763420   -3.532462
  H     -3.288165   -2.902877   -2.787574
  H     -3.596878   -1.160318   -2.706919

 Total Charge           Charge          ....    0
 Multiplicity           Mult            ....    1
 Number of Electrons    NEL             ....  202
 Basis Dimension        Dim             ....  539

ORBITAL ENERGIES
----------------

  NO   OCC          E(Eh)            E(eV)
   0   2.0000     -88.573183     -2410.1988
   1   2.0000     -88.570229     -2410.1185
   2   2.0000     -88.511616     -2408.5235
   3   2.0000     -88.510708     -2408.4988
   4   2.0000     -76.910027     -2092.8282
   5   2.0000     -76.907332     -2092.7549
   6   2.0000     -18.992765      -516.8194
   7   2.0000     -18.990006      -516.7443
   8   2.0000     -18.988366      -516.6997
   9   2.0000     -18.983681      -516.5722
  10   2.0000     -10.102858      -274.9128
  11   2.0000     -10.102304      -274.8977
  12   2.0000     -10.099071      -274.8097
  13   2.0000     -10.097551      -274.7683
  14   2.0000     -10.094890      -274.6959
  15   2.0000     -10.033597      -273.0281
  16   2.0000     -10.032070      -272.9865
  17   2.0000     -10.028337      -272.8849
  18   2.0000     -10.027098      -272.8512
  19   2.0000      -7.867794      -214.0935
  20   2.0000      -7.864768      -214.0112
  21   2.0000      -7.806093      -212.4146
  22   2.0000      -7.805525      -212.3991
  23   2.0000      -6.588409      -179.2797
  24   2.0000      -6.585802      -179.2088
  25   2.0000      -5.814656      -158.2248
  26   2.0000      -5.811558      -158.1405
  27   2.0000      -5.811466      -158.1380
  28   2.0000      -5.808564      -158.0591
  29   2.0000      -5.805044      -157.9633
  30   2.0000      -5.801987      -157.8801
  31   2.0000      -5.753924      -156.5722
  32   2.0000      -5.753305      -156.5554
  33   2.0000      -5.746241      -156.3632
  34   2.0000      -5.746109      -156.3596
  35   2.0000      -5.745798      -156.3511
  36   2.0000      -5.745379      -156.3397
  37   2.0000      -4.734334      -128.8278
  38   2.0000      -4.733395      -128.8022
  39   2.0000      -4.731677      -128.7555
  40   2.0000      -4.731577      -128.7528
  41   2.0000      -4.730788      -128.7313
  42   2.0000      -4.729223      -128.6887
  43   2.0000      -1.050516       -28.5860
  44   2.0000      -1.046556       -28.4782
  45   2.0000      -1.010030       -27.4843
  46   2.0000      -1.004233       -27.3266
  47   2.0000      -0.796621       -21.6772
  48   2.0000      -0.756379       -20.5821
  49   2.0000      -0.750263       -20.4157
  50   2.0000      -0.735090       -20.0028
  51   2.0000      -0.733313       -19.9545
  52   2.0000      -0.708733       -19.2856
  53   2.0000      -0.681535       -18.5455
  54   2.0000      -0.661110       -17.9897
  55   2.0000      -0.624522       -16.9941
  56   2.0000      -0.615476       -16.7479
  57   2.0000      -0.609502       -16.5854
  58   2.0000      -0.599884       -16.3237
  59   2.0000      -0.593036       -16.1373
  60   2.0000      -0.532466       -14.4891
  61   2.0000      -0.522001       -14.2044
  62   2.0000      -0.496353       -13.5065
  63   2.0000      -0.493510       -13.4291
  64   2.0000      -0.468750       -12.7553
  65   2.0000      -0.461959       -12.5706
  66   2.0000      -0.458374       -12.4730
  67   2.0000      -0.455890       -12.4054
  68   2.0000      -0.445648       -12.1267
  69   2.0000      -0.439794       -11.9674
  70   2.0000      -0.426012       -11.5924
  71   2.0000      -0.411401       -11.1948
  72   2.0000      -0.403484       -10.9794
  73   2.0000      -0.399680       -10.8758
  74   2.0000      -0.392610       -10.6834
  75   2.0000      -0.381926       -10.3927
  76   2.0000      -0.378287       -10.2937
  77   2.0000      -0.375363       -10.2141
  78   2.0000      -0.369097       -10.0437
  79   2.0000      -0.368506       -10.0276
  80   2.0000      -0.364105        -9.9078
  81   2.0000      -0.362172        -9.8552
  82   2.0000      -0.354702        -9.6519
  83   2.0000      -0.350400        -9.5349
  84   2.0000      -0.348723        -9.4892
  85   2.0000      -0.329552        -8.9676
  86   2.0000      -0.326329        -8.8799
  87   2.0000      -0.313548        -8.5321
  88   2.0000      -0.311036        -8.4637
  89   2.0000      -0.306424        -8.3382
  90   2.0000      -0.303257        -8.2521
  91   2.0000      -0.287033        -7.8106
  92   2.0000      -0.281471        -7.6592
  93   2.0000      -0.276244        -7.5170
  94   2.0000      -0.268454        -7.3050
  95   2.0000      -0.245560        -6.6820
  96   2.0000      -0.231910        -6.3106
  97   2.0000      -0.224693        -6.1142
  98   2.0000      -0.211853        -5.7648
  99   2.0000      -0.200592        -5.4584
 100   2.0000      -0.193677        -5.2702
 101   0.0000      -0.038836        -1.0568
 102   0.0000      -0.029021        -0.7897
 103   0.0000      -0.007315        -0.1991
 104   0.0000       0.011385         0.3098
 105   0.0000       0.020771         0.5652

MULLIKEN ATOMIC CHARGES
-----------------------
   0 C :   -0.492110
   1 C :   -0.105642
   2 O :   -0.258844
   3 P :    0.667576
   4 S :   -0.433402
   5 O :   -0.280882
   6 C :   -0.154368
   7 C :   -0.445353
   8 S :   -0.201839
   9 C :   -0.228297
  10 S :   -0.152220
  11 P :    0.615758
  12 S :   -0.382464
  13 O :   -0.302888
  14 C :   -0.161948
  15 C :   -0.458823
  16 O :   -0.251737
  17 C :   -0.100253
  18 C :   -0.465850
  19 H :    0.161772
  20 H :    0.168011
  21 H :    0.143357
  22 H :    0.149781
  23 H :    0.170940
  24 H :    0.171483
  25 H :    0.152684
  26 H :    0.159850
  27 H :    0.146620
  28 H :    0.149560
  29 H :    0.222412
  30 H :    0.195075
  31 H :    0.176831
  32 H :    0.146138
  33 H :    0.186083
  34 H :    0.148921
  35 H :    0.152931
  36 H :    0.158933
  37 H :    0.164321
  38 H :    0.151963
  39 H :    0.148061
  40 H :    0.167863
Sum of atomic charges:    0.0000000

LOEWDIN ATOMIC CHARGES
----------------------
   0 C :   -0.392449
   1 C :    0.021799
   2 O :   -0.644766
   3 P :    0.375038
   4 S :   -0.100037
   5 O :   -0.683913
   6 C :    0.015034
   7 C :   -0.387652
   8 S :    0.132642
   9 C :   -0.417997
  10 S :    0.122236
  11 P :    0.374378
  12 S :   -0.052121
  13 O :   -0.674254
  14 C :    0.021227
  15 C :   -0.409159
  16 O :   -0.673077
  17 C :    0.011935
  18 C :   -0.393039
  19 H :    0.163514
  20 H :    0.166824
  21 H :    0.157460
  22 H :    0.172810
  23 H :    0.187786
  24 H :    0.181604
  25 H :    0.172055
  26 H :    0.161636
  27 H :    0.159988
  28 H :    0.157561
  29 H :    0.202661
  30 H :    0.180778
  31 H :    0.181685
  32 H :    0.178507
  33 H :    0.168302
  34 H :    0.159872
  35 H :    0.159039
  36 H :    0.179076
  37 H :    0.178877
  38 H :    0.158898
  39 H :    0.158698
  40 H :    0.166544

  Mayer bond orders larger than 0.100000
B(  0-C ,  1-C ) :   0.9358 B(  0-C , 19-H ) :   0.9744 B(  0-C , 20-H ) :   0.9697
B(  0-C , 21-H ) :   0.9664 B(  1-C ,  2-O ) :   0.7206 B(  1-C , 22-H ) :   0.9709
B(  1-C , 23-H ) :   0.9540 B(  2-O ,  3-P ) :   1.1690 B(  3-P ,  4-S ) :   1.8381
B(  3-P ,  5-O ) :   1.0457 B(  3-P ,  8-S ) :   0.9889 B(  5-O ,  6-C ) :   0.7938
B(  6-C ,  7-C ) :   0.9526 B(  6-C , 24-H ) :   0.9487 B(  6-C , 25-H ) :   0.9419
B(  7-C , 26-H ) :   0.9718 B(  7-C , 27-H ) :   0.9641 B(  7-C , 28-H ) :   0.9724
B(  8-S ,  9-C ) :   0.9027 B(  9-C , 10-S ) :   0.9176 B(  9-C , 29-H ) :   0.9053
B(  9-C , 30-H ) :   0.9155 B( 10-S , 11-P ) :   1.0174 B( 11-P , 12-S ) :   1.9045
B( 11-P , 13-O ) :   1.0452 B( 11-P , 16-O ) :   1.0853 B( 13-O , 14-C ) :   0.8220
B( 14-C , 15-C ) :   0.9125 B( 14-C , 31-H ) :   0.9675 B( 14-C , 32-H ) :   0.9614
B( 15-C , 33-H ) :   0.9623 B( 15-C , 34-H ) :   0.9566 B( 15-C , 35-H ) :   0.9677
B( 16-O , 17-C ) :   0.7096 B( 17-C , 18-C ) :   0.9285 B( 17-C , 36-H ) :   0.9640
B( 17-C , 37-H ) :   0.9582 B( 18-C , 38-H ) :   0.9748 B( 18-C , 39-H ) :   0.9682
B( 18-C , 40-H ) :   0.9687

Dispersion correction           -0.021992673
FINAL SINGLE POINT ENERGY     -2932.455685433080

DIPOLE MOMENT
-------------

Method             : SCF
Type of density    : Electron Density
Multiplicity       :   1
Irrep              :   0
Energy             : -2932.4803479678134863 Eh
Relativity type    :
Basis              : AO
                                X                 Y                 Z
Electronic contribution:     -1.046673804      11.421231316      10.206084476
Nuclear contribution   :      0.266910598     -13.340695526     -10.614787941
                        -----------------------------------------
Total Dipole Moment    :     -0.779763205      -1.919464209      -0.408703465
                        -----------------------------------------
Magnitude (a.u.)       :      2.111731997
Magnitude (Debye)      :      5.367596168

Rotational constants in cm-1:             0.013043             0.005228             0.004775
Rotational constants in MHz :           391.005998           156.735122           143.141863

                             ****ORCA TERMINATED NORMALLY****
TOTAL RUN TIME: 0 days 0 hours 1 minutes 21 seconds 447 msec
