                         Program Version 6.0.0  -   RELEASE  -
|  1> ! r2scan-3c def2/J RI DEFGRID2 scfconv6 printgap
|  2> %output
|  3>     printlevel normal
|  4> end
|  5> %cpcm
|  6>     smd true
|  7>     smdsolvent "water"
|  8> end
|  9> * xyz 0 1
| 10> C 2.9594984383 -1.070935721 -2.8648224299
| 11> C 1.6562792551 -0.9743753374 -2.100235963
| 12> O 1.6956175479 0.1308753434 -1.1618256753
| 13> P 1.9993196963 -0.0589303279 0.3695540806
| 14> S 2.2555106175 1.6078210488 1.3575350037
| 15> O 3.2734430936 -1.0102242266 0.3300700116
| 16> C 3.9483362637 -1.3954821047 1.5450534406
| 17> C 5.2975837328 -1.970790416 1.1654266061
| 18> S 0.539078617 -1.3811454941 1.18439616
| 19> C -0.5092798056 -0.2062367491 2.0949813998
| 20> S -2.2257858653 -0.1979079782 1.5343544486
| 21> P -1.8987812501 0.6044319522 -0.4092034373
| 22> S -0.739427502 2.1768529258 -0.5306485753
| 23> O -3.3700313061 0.7900010259 -0.9788801065
| 24> C -4.1392859157 1.9880863907 -0.7716989475
| 25> C -4.4939531565 2.2011279526 0.6853479632
| 26> O -1.3524542086 -0.6058702477 -1.2629636417
| 27> C -2.0570463194 -1.8707903194 -1.3894324621
| 28> C -2.8255597962 -1.9255160744 -2.6928753649
| 29> H 3.1661228817 -0.1286760501 -3.3651178462
| 30> H 3.7778655927 -1.2939360059 -2.1855312393
| 31> H 2.8781126177 -1.8613244887 -3.6044607279
| 32> H 1.4473894755 -1.8960606796 -1.5500186065
| 33> H 0.8182900475 -0.7388562952 -2.7590318145
| 34> H 4.0511716744 -0.509332667 2.1799150384
| 35> H 3.328199827 -2.1348566575 2.0591136529
| 36> H 5.88977779 -1.2225621196 0.6459474559
| 37> H 5.8187421316 -2.276061863 2.0666631601
| 38> H 5.166114946 -2.8318492619 0.5166221251
| 39> H -0.0738865858 0.792234035 1.9926888384
| 40> H -0.534038102 -0.5167967761 3.1363784116
| 41> H -3.564062123 2.8361384524 -1.1555578245
| 42> H -5.0288075185 1.8337336455 -1.3841432974
| 43> H -3.5961029949 2.4315712349 1.2570682891
| 44> H -5.1838734225 3.034893492 0.7671929668
| 45> H -4.9546802916 1.3074724338 1.0988519474
| 46> H -1.2716079327 -2.6282282724 -1.352592171
| 47> H -2.7232905325 -1.9922130915 -0.5312071459
| 48> H -2.1552993877 -1.763420158 -3.5324615944
| 49> H -3.2881649937 -2.9028767739 -2.7875738982
| 50> H -3.5968775015 -1.1603182225 -2.7069191624
| 51> *
| 52>
| 53>                          ****END OF INPUT****

CARTESIAN COORDINATES (ANGSTROEM)
---------------------------------
  C      2.959498   -1.070936   -2.864822
  C      1.656279   -0.974375   -2.100236
  O      1.695618    0.130875   -1.161826
  P      1.999320   -0.058930    0.369554
  S      2.255511    1.607821    1.357535
  O      3.273443   -1.010224    0.330070
  C      3.948336   -1.395482    1.545053
  C      5.297584   -1.970790    1.165427
  S      0.539079   -1.381145    1.184396
  C     -0.509280   -0.206237    2.094981
  S     -2.225786   -0.197908    1.534354
  P     -1.898781    0.604432   -0.409203
  S     -0.739428    2.176853   -0.530649
  O     -3.370031    0.790001   -0.978880
  C     -4.139286    1.988086   -0.771699
  C     -4.493953    2.201128    0.685348
  O     -1.352454   -0.605870   -1.262964
  C     -2.057046   -1.870790   -1.389432
  C     -2.825560   -1.925516   -2.692875
  H      3.166123   -0.128676   -3.365118
  H      3.777866   -1.293936   -2.185531
  H      2.878113   -1.861324   -3.604461
  H      1.447389   -1.896061   -1.550019
  H      0.818290   -0.738856   -2.759032
  H      4.051172   -0.509333    2.179915
  H      3.328200   -2.134857    2.059114
  H      5.889778   -1.222562    0.645947
  H      5.818742   -2.276062    2.066663
  H      5.166115   -2.831849    0.516622
  H     -0.073887    0.792234    1.992689
  H     -0.534038   -0.516797    3.136378
  H     -3.564062    2.836138   -1.155558
  H     -5.028808    1.833734   -1.384143
  H     -3.596103    2.431571    1.257068
  H     -5.183873    3.034893    0.767193
  H     -4.954680    1.307472    1.098852
  H     -1.271608   -2.628228   -1.352592
  H     -2.723291   -1.992213   -0.531207
  H     -2.155299   -1.763420   -3.532462
  H     -3.288165   -2.902877   -2.787574
  H     -3.596878   -1.160318   -2.706919

 Total Charge           Charge          ....    0
 Multiplicity           Mult            ....    1
 Number of Electrons    NEL             ....  202
 Basis Dimension        Dim             ....  539

ORBITAL ENERGIES
----------------

  NO   OCC          E(Eh)            E(eV)
   0   2.0000     -88.576282     -2410.2832
   1   2.0000     -88.574412     -2410.2323
   2   2.0000     -88.525205     -2408.8933
   3   2.0000     -88.523544     -2408.8481
   4   2.0000     -76.917094     -2093.0205
   5   2.0000     -76.916430     -2093.0025
   6   2.0000     -18.994187      -516.8581
   7   2.0000     -18.992563      -516.8139
   8   2.0000     -18.991532      -516.7859
   9   2.0000     -18.991114      -516.7745
  10   2.0000     -10.102431      -274.9011
  11   2.0000     -10.091513      -274.6040
  12   2.0000     -10.090305      -274.5712
  13   2.0000     -10.089886      -274.5598
  14   2.0000     -10.088335      -274.5175
  15   2.0000     -10.019210      -272.6366
  16   2.0000     -10.018597      -272.6199
  17   2.0000     -10.018180      -272.6085
  18   2.0000     -10.018049      -272.6050
  19   2.0000      -7.870819      -214.1759
  20   2.0000      -7.868847      -214.1222
  21   2.0000      -7.820449      -212.8052
  22   2.0000      -7.818523      -212.7528
  23   2.0000      -6.595588      -179.4751
  24   2.0000      -6.594843      -179.4548
  25   2.0000      -5.817706      -158.3078
  26   2.0000      -5.815669      -158.2524
  27   2.0000      -5.814516      -158.2210
  28   2.0000      -5.812693      -158.1714
  29   2.0000      -5.808035      -158.0447
  30   2.0000      -5.806000      -157.9893
  31   2.0000      -5.768081      -156.9575
  32   2.0000      -5.766210      -156.9065
  33   2.0000      -5.760786      -156.7590
  34   2.0000      -5.760303      -156.7458
  35   2.0000      -5.758700      -156.7022
  36   2.0000      -5.758560      -156.6984
  37   2.0000      -4.741313      -129.0177
  38   2.0000      -4.740703      -129.0011
  39   2.0000      -4.740499      -128.9955
  40   2.0000      -4.739800      -128.9765
  41   2.0000      -4.739179      -128.9596
  42   2.0000      -4.738271      -128.9349
  43   2.0000      -1.052750       -28.6468
  44   2.0000      -1.051217       -28.6051
  45   2.0000      -1.010620       -27.5004
  46   2.0000      -1.009223       -27.4624
  47   2.0000      -0.798674       -21.7330
  48   2.0000      -0.753901       -20.5147
  49   2.0000      -0.745162       -20.2769
  50   2.0000      -0.726230       -19.7617
  51   2.0000      -0.725523       -19.7425
  52   2.0000      -0.708898       -19.2901
  53   2.0000      -0.687226       -18.7004
  54   2.0000      -0.669198       -18.2098
  55   2.0000      -0.624397       -16.9907
  56   2.0000      -0.614068       -16.7096
  57   2.0000      -0.601852       -16.3772
  58   2.0000      -0.595411       -16.2019
  59   2.0000      -0.590770       -16.0757
  60   2.0000      -0.531224       -14.4554
  61   2.0000      -0.518007       -14.0957
  62   2.0000      -0.495872       -13.4934
  63   2.0000      -0.488966       -13.3054
  64   2.0000      -0.466672       -12.6988
  65   2.0000      -0.461388       -12.5550
  66   2.0000      -0.457029       -12.4364
  67   2.0000      -0.454119       -12.3572
  68   2.0000      -0.437839       -11.9142
  69   2.0000      -0.435318       -11.8456
  70   2.0000      -0.422734       -11.5032
  71   2.0000      -0.406304       -11.0561
  72   2.0000      -0.401779       -10.9330
  73   2.0000      -0.396057       -10.7773
  74   2.0000      -0.389693       -10.6041
  75   2.0000      -0.381599       -10.3838
  76   2.0000      -0.376565       -10.2469
  77   2.0000      -0.369559       -10.0562
  78   2.0000      -0.362785        -9.8719
  79   2.0000      -0.360410        -9.8073
  80   2.0000      -0.358144        -9.7456
  81   2.0000      -0.352705        -9.5976
  82   2.0000      -0.348266        -9.4768
  83   2.0000      -0.345432        -9.3997
  84   2.0000      -0.344955        -9.3867
  85   2.0000      -0.326502        -8.8846
  86   2.0000      -0.325222        -8.8497
  87   2.0000      -0.312239        -8.4965
  88   2.0000      -0.306848        -8.3497
  89   2.0000      -0.302717        -8.2374
  90   2.0000      -0.300498        -8.1770
  91   2.0000      -0.286723        -7.8021
  92   2.0000      -0.282424        -7.6851
  93   2.0000      -0.276961        -7.5365
  94   2.0000      -0.271813        -7.3964
  95   2.0000      -0.249217        -6.7816
  96   2.0000      -0.242885        -6.6092
  97   2.0000      -0.236232        -6.4282
  98   2.0000      -0.225248        -6.1293
  99   2.0000      -0.212044        -5.7700
 100   2.0000      -0.207811        -5.6548
 101   0.0000      -0.043560        -1.1853
 102   0.0000      -0.036367        -0.9896
 103   0.0000      -0.011675        -0.3177
 104   0.0000       0.005549         0.1510
 105   0.0000       0.016375         0.4456

MULLIKEN ATOMIC CHARGES
-----------------------
   0 C :   -0.532052
   1 C :   -0.094562
   2 O :   -0.293531
   3 P :    0.676274
   4 S :   -0.499475
   5 O :   -0.300171
   6 C :   -0.143399
   7 C :   -0.483277
   8 S :   -0.188672
   9 C :   -0.230307
  10 S :   -0.150772
  11 P :    0.649534
  12 S :   -0.462410
  13 O :   -0.320929
  14 C :   -0.157525
  15 C :   -0.493394
  16 O :   -0.278459
  17 C :   -0.084639
  18 C :   -0.512449
  19 H :    0.168849
  20 H :    0.170968
  21 H :    0.171675
  22 H :    0.175390
  23 H :    0.182556
  24 H :    0.171609
  25 H :    0.169662
  26 H :    0.166263
  27 H :    0.168982
  28 H :    0.165486
  29 H :    0.213664
  30 H :    0.235976
  31 H :    0.179219
  32 H :    0.175077
  33 H :    0.176432
  34 H :    0.173502
  35 H :    0.169588
  36 H :    0.182089
  37 H :    0.174240
  38 H :    0.167733
  39 H :    0.171768
  40 H :    0.169485
Sum of atomic charges:   -0.0000000

LOEWDIN ATOMIC CHARGES
----------------------
   0 C :   -0.394969
   1 C :    0.028537
   2 O :   -0.670978
   3 P :    0.376155
   4 S :   -0.151614
   5 O :   -0.690548
   6 C :    0.019969
   7 C :   -0.390250
   8 S :    0.147149
   9 C :   -0.414062
  10 S :    0.131471
  11 P :    0.380948
  12 S :   -0.109622
  13 O :   -0.678264
  14 C :    0.026278
  15 C :   -0.411816
  16 O :   -0.684088
  17 C :    0.020449
  18 C :   -0.395974
  19 H :    0.164230
  20 H :    0.166150
  21 H :    0.169069
  22 H :    0.183033
  23 H :    0.192915
  24 H :    0.181224
  25 H :    0.179267
  26 H :    0.162787
  27 H :    0.168678
  28 H :    0.162841
  29 H :    0.198880
  30 H :    0.196718
  31 H :    0.181581
  32 H :    0.190826
  33 H :    0.162187
  34 H :    0.168693
  35 H :    0.163679
  36 H :    0.188969
  37 H :    0.183032
  38 H :    0.162982
  39 H :    0.168543
  40 H :    0.164945

  Mayer bond orders larger than 0.100000
B(  0-C ,  1-C ) :   0.9272 B(  0-C , 19-H ) :   0.9729 B(  0-C , 20-H ) :   0.9686
B(  0-C , 21-H ) :   0.9593 B(  1-C ,  2-O ) :   0.7104 B(  1-C , 22-H ) :   0.9569
B(  1-C , 23-H ) :   0.9464 B(  2-O ,  3-P ) :   1.1735 B(  3-P ,  4-S ) :   1.7992
B(  3-P ,  5-O ) :   1.0571 B(  3-P ,  8-S ) :   1.0186 B(  5-O ,  6-C ) :   0.7847
B(  6-C ,  7-C ) :   0.9530 B(  6-C , 24-H ) :   0.9467 B(  6-C , 25-H ) :   0.9332
B(  7-C , 26-H ) :   0.9695 B(  7-C , 27-H ) :   0.9583 B(  7-C , 28-H ) :   0.9684
B(  8-S ,  9-C ) :   0.8938 B(  9-C , 10-S ) :   0.9111 B(  9-C , 29-H ) :   0.9103
B(  9-C , 30-H ) :   0.8992 B( 10-S , 11-P ) :   1.0360 B( 11-P , 12-S ) :   1.8485
B( 11-P , 13-O ) :   1.0578 B( 11-P , 16-O ) :   1.1001 B( 13-O , 14-C ) :   0.8107
B( 14-C , 15-C ) :   0.9002 B( 14-C , 31-H ) :   0.9671 B( 14-C , 32-H ) :   0.9509
B( 15-C , 33-H ) :   0.9651 B( 15-C , 34-H ) :   0.9514 B( 15-C , 35-H ) :   0.9644
B( 16-O , 17-C ) :   0.6985 B( 17-C , 18-C ) :   0.9182 B( 17-C , 36-H ) :   0.9534
B( 17-C , 37-H ) :   0.9516 B( 18-C , 38-H ) :   0.9732 B( 18-C , 39-H ) :   0.9608
B( 18-C , 40-H ) :   0.9689

Dispersion correction           -0.021992673
FINAL SINGLE POINT ENERGY     -2932.467461291850

DIPOLE MOMENT
-------------

Method             : SCF
Type of density    : Electron Density
Multiplicity       :   1
Irrep              :   0
Energy             : -2932.4921238265833381 Eh
Relativity type    :
Basis              : AO
                                X                 Y                 Z
Electronic contribution:     -1.553086471      10.307596683      10.271321012
Nuclear contribution   :      0.266910598     -13.340695526     -10.614787941
                        -----------------------------------------
Total Dipole Moment    :     -1.286175873      -3.033098842      -0.343466929
                        -----------------------------------------
Magnitude (a.u.)       :      3.312386827
Magnitude (Debye)      :      8.419418212

Rotational constants in cm-1:             0.013043             0.005228             0.004775
Rotational constants in MHz :           391.005998           156.735122           143.141863

                             ****ORCA TERMINATED NORMALLY****
TOTAL RUN TIME: 0 days 0 hours 1 minutes 43 seconds 279 msec
