                         Program Version 6.0.1  -  RELEASE   -
|  1> ! pbe def2-sv(p) def2/J RI DEFGRID1 loosescf d4 GCP(DFT/SV(P)) printgap
|  2> %output
|  3>     printlevel normal
|  4> end
|  5> * xyz 0 1
|  6> C 5.0636403746 -0.4578631914 -2.3442793426
|  7> C 4.6088037128 -0.8538441171 -0.9533469636
|  8> O 3.2022847503 -1.1610133182 -1.0128930808
|  9> C 2.5422155682 -1.2515846693 0.1235180758
| 10> O 3.0464659347 -1.1286141258 1.2165772339
| 11> C 1.069522274 -1.5424030225 -0.1083073688
| 12> C 0.452311244 -0.4865964112 -1.0284557343
| 13> H 0.9765938126 -0.480222804 -1.9875398127
| 14> C 0.5248826034 0.8879890328 -0.3969486201
| 15> O -0.4690879155 1.5315680209 -0.1224001911
| 16> O 1.753680053 1.2730089894 -0.1928780875
| 17> C 1.9765116733 2.484834228 0.5638159828
| 18> C 1.9279572925 2.187062521 2.0530910579
| 19> S -1.2853075783 -0.8408384984 -1.4185223459
| 20> P -2.3001506752 -0.154503602 0.3381635805
| 21> S -1.4617214008 -0.0844088321 2.1102546835
| 22> O -3.2437201717 1.0618315013 -0.093930571
| 23> C -3.0369714218 2.4562835258 0.1222152301
| 24> O -3.4108694601 -1.2955679113 0.4312776012
| 25> C -4.3149819193 -1.6182620914 -0.6379055144
| 26> H 6.127010174 -0.2439030957 -2.3259853361
| 27> H 4.873396598 -1.2681032919 -3.0414866458
| 28> H 4.5266855242 0.4255366017 -2.6767116791
| 29> H 4.7540591865 -0.0480322977 -0.2277215403
| 30> H 5.1367009308 -1.7420161486 -0.5932441333
| 31> H 0.5644802284 -1.5600579383 0.8603263327
| 32> H 0.973977576 -2.519565194 -0.5838881405
| 33> H 2.9665898813 2.8179355266 0.253632896
| 34> H 1.2163095323 3.2180032799 0.2830190359
| 35> H 0.9320037645 1.8546842376 2.3426071856
| 36> H 2.6326332708 1.3959496948 2.2996834856
| 37> H 2.178712912 3.0825295324 2.6111742532
| 38> H -2.4917896309 2.6192318056 1.0516896886
| 39> H -4.0323005468 2.8917036355 0.1819094128
| 40> H -2.4774260269 2.8783917854 -0.7102675925
| 41> H -4.9615293284 -0.7682005256 -0.847569394
| 42> H -4.893704713 -2.4635780538 -0.2742438741
| 43> H -3.753975103 -1.8925551293 -1.5316817415
| 44> *
| 45>
| 46>                          ****END OF INPUT****

CARTESIAN COORDINATES (ANGSTROEM)
---------------------------------
  C      5.063640   -0.457863   -2.344279
  C      4.608804   -0.853844   -0.953347
  O      3.202285   -1.161013   -1.012893
  C      2.542216   -1.251585    0.123518
  O      3.046466   -1.128614    1.216577
  C      1.069522   -1.542403   -0.108307
  C      0.452311   -0.486596   -1.028456
  H      0.976594   -0.480223   -1.987540
  C      0.524883    0.887989   -0.396949
  O     -0.469088    1.531568   -0.122400
  O      1.753680    1.273009   -0.192878
  C      1.976512    2.484834    0.563816
  C      1.927957    2.187063    2.053091
  S     -1.285308   -0.840838   -1.418522
  P     -2.300151   -0.154504    0.338164
  S     -1.461721   -0.084409    2.110255
  O     -3.243720    1.061832   -0.093931
  C     -3.036971    2.456284    0.122215
  O     -3.410869   -1.295568    0.431278
  C     -4.314982   -1.618262   -0.637906
  H      6.127010   -0.243903   -2.325985
  H      4.873397   -1.268103   -3.041487
  H      4.526686    0.425537   -2.676712
  H      4.754059   -0.048032   -0.227722
  H      5.136701   -1.742016   -0.593244
  H      0.564480   -1.560058    0.860326
  H      0.973978   -2.519565   -0.583888
  H      2.966590    2.817936    0.253633
  H      1.216310    3.218003    0.283019
  H      0.932004    1.854684    2.342607
  H      2.632633    1.395950    2.299683
  H      2.178713    3.082530    2.611174
  H     -2.491790    2.619232    1.051690
  H     -4.032301    2.891704    0.181909
  H     -2.477426    2.878392   -0.710268
  H     -4.961529   -0.768201   -0.847569
  H     -4.893705   -2.463578   -0.274244
  H     -3.753975   -1.892555   -1.531682

 Total Charge           Charge          ....    0
 Multiplicity           Mult            ....    1
 Number of Electrons    NEL             ....  174
 Basis Dimension        Dim             ....  316

ORBITAL ENERGIES
----------------

  NO   OCC          E(Eh)            E(eV)
   0   2.0000     -88.034187     -2395.5320
   1   2.0000     -87.971035     -2393.8136
   2   2.0000     -76.420118     -2079.4971
   3   2.0000     -18.827556      -512.3239
   4   2.0000     -18.805462      -511.7226
   5   2.0000     -18.782337      -511.0934
   6   2.0000     -18.773339      -510.8485
   7   2.0000     -18.762717      -510.5595
   8   2.0000     -18.738571      -509.9024
   9   2.0000     -10.032561      -272.9999
  10   2.0000     -10.010438      -272.3979
  11   2.0000      -9.958590      -270.9870
  12   2.0000      -9.954912      -270.8869
  13   2.0000      -9.953307      -270.8433
  14   2.0000      -9.939059      -270.4555
  15   2.0000      -9.935158      -270.3494
  16   2.0000      -9.907214      -269.5890
  17   2.0000      -9.895069      -269.2585
  18   2.0000      -9.881233      -268.8820
  19   2.0000      -7.679332      -208.9652
  20   2.0000      -7.616183      -207.2469
  21   2.0000      -6.415653      -174.5788
  22   2.0000      -5.707400      -155.3063
  23   2.0000      -5.703929      -155.2118
  24   2.0000      -5.695960      -154.9950
  25   2.0000      -5.645580      -153.6240
  26   2.0000      -5.636989      -153.3903
  27   2.0000      -5.635617      -153.3529
  28   2.0000      -4.638591      -126.2225
  29   2.0000      -4.637550      -126.1942
  30   2.0000      -4.636149      -126.1560
  31   2.0000      -1.037168       -28.2228
  32   2.0000      -1.013218       -27.5711
  33   2.0000      -0.972086       -26.4518
  34   2.0000      -0.942632       -25.6503
  35   2.0000      -0.926528       -25.2121
  36   2.0000      -0.915429       -24.9101
  37   2.0000      -0.769807       -20.9475
  38   2.0000      -0.716104       -19.4862
  39   2.0000      -0.712008       -19.3747
  40   2.0000      -0.689004       -18.7487
  41   2.0000      -0.657780       -17.8991
  42   2.0000      -0.629730       -17.1358
  43   2.0000      -0.623004       -16.9528
  44   2.0000      -0.608026       -16.5452
  45   2.0000      -0.590142       -16.0586
  46   2.0000      -0.569425       -15.4948
  47   2.0000      -0.516416       -14.0524
  48   2.0000      -0.511144       -13.9089
  49   2.0000      -0.506249       -13.7757
  50   2.0000      -0.489026       -13.3071
  51   2.0000      -0.469202       -12.7676
  52   2.0000      -0.461027       -12.5452
  53   2.0000      -0.456118       -12.4116
  54   2.0000      -0.441463       -12.0128
  55   2.0000      -0.440162       -11.9774
  56   2.0000      -0.421650       -11.4737
  57   2.0000      -0.421362       -11.4658
  58   2.0000      -0.413802       -11.2601
  59   2.0000      -0.406252       -11.0547
  60   2.0000      -0.402479       -10.9520
  61   2.0000      -0.397901       -10.8274
  62   2.0000      -0.388551       -10.5730
  63   2.0000      -0.381227       -10.3737
  64   2.0000      -0.371716       -10.1149
  65   2.0000      -0.367673       -10.0049
  66   2.0000      -0.362951        -9.8764
  67   2.0000      -0.358333        -9.7507
  68   2.0000      -0.348084        -9.4719
  69   2.0000      -0.344757        -9.3813
  70   2.0000      -0.336004        -9.1431
  71   2.0000      -0.332165        -9.0387
  72   2.0000      -0.320545        -8.7225
  73   2.0000      -0.314582        -8.5602
  74   2.0000      -0.303514        -8.2590
  75   2.0000      -0.302871        -8.2416
  76   2.0000      -0.292655        -7.9635
  77   2.0000      -0.288209        -7.8426
  78   2.0000      -0.282092        -7.6761
  79   2.0000      -0.263632        -7.1738
  80   2.0000      -0.260808        -7.0970
  81   2.0000      -0.252105        -6.8601
  82   2.0000      -0.247818        -6.7435
  83   2.0000      -0.225903        -6.1471
  84   2.0000      -0.208988        -5.6869
  85   2.0000      -0.191170        -5.2020
  86   2.0000      -0.182508        -4.9663
  87   0.0000      -0.048903        -1.3307
  88   0.0000      -0.040644        -1.1060
  89   0.0000      -0.022419        -0.6101
  90   0.0000       0.002172         0.0591
  91   0.0000       0.023409         0.6370

MULLIKEN ATOMIC CHARGES
-----------------------
   0 C :   -0.277043
   1 C :   -0.027862
   2 O :   -0.243602
   3 C :    0.105826
   4 O :   -0.195532
   5 C :   -0.041268
   6 C :   -0.316123
   7 H :    0.156174
   8 C :    0.220840
   9 O :   -0.192137
  10 O :   -0.219130
  11 C :   -0.012359
  12 C :   -0.328227
  13 S :   -0.111413
  14 P :    0.635433
  15 S :   -0.316233
  16 O :   -0.399210
  17 C :   -0.078308
  18 O :   -0.370740
  19 C :   -0.112964
  20 H :    0.113096
  21 H :    0.116163
  22 H :    0.113963
  23 H :    0.107347
  24 H :    0.107910
  25 H :    0.124971
  26 H :    0.121503
  27 H :    0.105225
  28 H :    0.109841
  29 H :    0.144842
  30 H :    0.138191
  31 H :    0.110230
  32 H :    0.115782
  33 H :    0.115879
  34 H :    0.111786
  35 H :    0.118496
  36 H :    0.128496
  37 H :    0.120161
Sum of atomic charges:   -0.0000000

LOEWDIN ATOMIC CHARGES
----------------------
   0 C :   -0.351182
   1 C :   -0.106230
   2 O :   -0.066612
   3 C :    0.021016
   4 O :   -0.158188
   5 C :   -0.248526
   6 C :   -0.266992
   7 H :    0.149896
   8 C :    0.030458
   9 O :   -0.150884
  10 O :   -0.027935
  11 C :   -0.104571
  12 C :   -0.363502
  13 S :    0.088785
  14 P :    0.586674
  15 S :   -0.315775
  16 O :   -0.254594
  17 C :   -0.206296
  18 O :   -0.255423
  19 C :   -0.214511
  20 H :    0.131317
  21 H :    0.127151
  22 H :    0.125612
  23 H :    0.116663
  24 H :    0.118164
  25 H :    0.137155
  26 H :    0.144340
  27 H :    0.118583
  28 H :    0.120224
  29 H :    0.131552
  30 H :    0.134183
  31 H :    0.129817
  32 H :    0.111652
  33 H :    0.115753
  34 H :    0.111137
  35 H :    0.112741
  36 H :    0.124463
  37 H :    0.103884

  Mayer bond orders larger than 0.100000
B(  0-C ,  1-C ) :   1.1532 B(  0-C , 20-H ) :   0.9441 B(  0-C , 21-H ) :   0.9485
B(  0-C , 22-H ) :   0.9512 B(  1-C ,  2-O ) :   0.9079 B(  1-C , 23-H ) :   0.9242
B(  1-C , 24-H ) :   0.9359 B(  2-O ,  3-C ) :   1.1927 B(  3-C ,  4-O ) :   2.0519
B(  3-C ,  5-C ) :   1.0234 B(  5-C ,  6-C ) :   1.0249 B(  5-C , 25-H ) :   0.8764
B(  5-C , 26-H ) :   0.8861 B(  6-C ,  7-H ) :   0.8651 B(  6-C ,  8-C ) :   0.9040
B(  6-C , 13-S ) :   1.0470 B(  8-C ,  9-O ) :   1.9332 B(  8-C , 10-O ) :   1.2741
B(  9-O , 14-P ) :   0.1132 B( 10-O , 11-C ) :   0.8867 B( 11-C , 12-C ) :   1.1784
B( 11-C , 27-H ) :   0.9358 B( 11-C , 28-H ) :   0.9161 B( 12-C , 29-H ) :   0.9290
B( 12-C , 30-H ) :   0.9383 B( 12-C , 31-H ) :   0.9395 B( 13-S , 14-P ) :   0.9156
B( 13-S , 15-S ) :   0.1105 B( 14-P , 15-S ) :   1.5806 B( 14-P , 16-O ) :   1.0853
B( 14-P , 18-O ) :   1.0999 B( 16-O , 17-C ) :   0.9300 B( 17-C , 32-H ) :   0.9419
B( 17-C , 33-H ) :   0.9538 B( 17-C , 34-H ) :   0.9533 B( 18-O , 19-C ) :   0.9349
B( 19-C , 35-H ) :   0.9458 B( 19-C , 36-H ) :   0.9605 B( 19-C , 37-H ) :   0.9365

Dispersion correction           -0.052724619
FINAL SINGLE POINT ENERGY     -1979.008802299219

DIPOLE MOMENT
-------------

Method             : SCF
Type of density    : Electron Density
Multiplicity       :   1
Irrep              :   0
Energy             : -1979.1407839329976923 Eh
Relativity type    :
Basis              : AO
                                X                 Y                 Z
Electronic contribution:    -15.631765268      -6.992398334       3.205553309
Nuclear contribution   :     16.453374781       7.859876254      -4.931162247
                        -----------------------------------------
Total Dipole Moment    :      0.821609512       0.867477920      -1.725608938
                        -----------------------------------------
Magnitude (a.u.)       :      2.098877400
Magnitude (Debye)      :      5.334922377

Rotational constants in cm-1:             0.016996             0.006231             0.005582
Rotational constants in MHz :           509.520084           186.786135           167.354796

                             ****ORCA TERMINATED NORMALLY****
TOTAL RUN TIME: 0 days 0 hours 0 minutes 38 seconds 828 msec
