                         Program Version 6.0.0  -   RELEASE  -
|  1> ! pbe def2-sv(p) def2/J RI DEFGRID1 loosescf d4 GCP(DFT/SV(P)) printgap
|  2> %output
|  3>     printlevel normal
|  4> end
|  5> * xyz 0 1
|  6> C 4.1810715635 2.4831710328 0.566603752
|  7> C 4.2577252461 1.5328297653 -0.6116794519
|  8> O 3.5943456913 0.2866302466 -0.3271052504
|  9> P 2.0034025385 0.1630380259 -0.3013651353
| 10> S 1.0347293108 1.4351532778 -1.4240502156
| 11> O 1.5646094527 0.2781258351 1.2222837753
| 12> C 2.2783492749 -0.3944126034 2.2900476362
| 13> C 1.4784337247 -1.5651394385 2.8246309099
| 14> S 1.9407932343 -1.8799501847 -0.8337841563
| 15> C 0.1746052917 -2.013227866 -1.2109253801
| 16> S -0.896999861 -1.9285590652 0.2638746443
| 17> P -1.9823456315 -0.1838420864 -0.1439943978
| 18> S -2.2785584139 0.2563020428 -2.0379196414
| 19> O -1.2716304829 0.8855473925 0.7756675891
| 20> C -1.6605114632 2.2776649486 0.7313645642
| 21> C -0.7237947279 3.0429729946 1.6403250408
| 22> O -3.3351018282 -0.4043317789 0.6659996012
| 23> C -4.4170024234 -1.2039288485 0.1481506999
| 24> C -5.7009163314 -0.7453265489 0.8100749407
| 25> H 3.1394458114 2.7329911855 0.7674604
| 26> H 4.6142365104 2.0262381688 1.4524794184
| 27> H 4.7218878377 3.394098871 0.3302478497
| 28> H 5.2849733243 1.242003425 -0.8349377479
| 29> H 3.796514533 1.9796709005 -1.4980329503
| 30> H 3.2535110293 -0.7190587805 1.9174397476
| 31> H 2.410835699 0.3724119013 3.0555686742
| 32> H 1.4027462012 -2.3562466157 2.0825959656
| 33> H 1.9737898137 -1.9543257182 3.7085001871
| 34> H 0.4746491422 -1.2422186287 3.088025624
| 35> H 0.0412664567 -2.9937932853 -1.6603956591
| 36> H -0.125556861 -1.2213532991 -1.9029105433
| 37> H -1.5825673231 2.621723291 -0.3059457413
| 38> H -2.699823166 2.3548100983 1.0603570843
| 39> H 0.2979778758 2.924784282 1.288784405
| 40> H -0.9901377309 4.0946487034 1.6236260519
| 41> H -0.7951702599 2.6615662675 2.6544060774
| 42> H -4.4565699512 -1.0743132895 -0.9387992623
| 43> H -4.2004613625 -2.2499356682 0.3786004515
| 44> H -5.6125256952 -0.8328648672 1.8890439068
| 45> H -5.9056840615 0.2908064003 0.5550893896
| 46> H -6.5200413636 -1.3666472703 0.4635118877
| 47> *
| 48>
| 49>                          ****END OF INPUT****

CARTESIAN COORDINATES (ANGSTROEM)
---------------------------------
  C      4.181072    2.483171    0.566604
  C      4.257725    1.532830   -0.611679
  O      3.594346    0.286630   -0.327105
  P      2.003403    0.163038   -0.301365
  S      1.034729    1.435153   -1.424050
  O      1.564609    0.278126    1.222284
  C      2.278349   -0.394413    2.290048
  C      1.478434   -1.565139    2.824631
  S      1.940793   -1.879950   -0.833784
  C      0.174605   -2.013228   -1.210925
  S     -0.897000   -1.928559    0.263875
  P     -1.982346   -0.183842   -0.143994
  S     -2.278558    0.256302   -2.037920
  O     -1.271630    0.885547    0.775668
  C     -1.660511    2.277665    0.731365
  C     -0.723795    3.042973    1.640325
  O     -3.335102   -0.404332    0.666000
  C     -4.417002   -1.203929    0.148151
  C     -5.700916   -0.745327    0.810075
  H      3.139446    2.732991    0.767460
  H      4.614237    2.026238    1.452479
  H      4.721888    3.394099    0.330248
  H      5.284973    1.242003   -0.834938
  H      3.796515    1.979671   -1.498033
  H      3.253511   -0.719059    1.917440
  H      2.410836    0.372412    3.055569
  H      1.402746   -2.356247    2.082596
  H      1.973790   -1.954326    3.708500
  H      0.474649   -1.242219    3.088026
  H      0.041266   -2.993793   -1.660396
  H     -0.125557   -1.221353   -1.902911
  H     -1.582567    2.621723   -0.305946
  H     -2.699823    2.354810    1.060357
  H      0.297978    2.924784    1.288784
  H     -0.990138    4.094649    1.623626
  H     -0.795170    2.661566    2.654406
  H     -4.456570   -1.074313   -0.938799
  H     -4.200461   -2.249936    0.378600
  H     -5.612526   -0.832865    1.889044
  H     -5.905684    0.290806    0.555089
  H     -6.520041   -1.366647    0.463512

 Total Charge           Charge          ....    0
 Multiplicity           Mult            ....    1
 Number of Electrons    NEL             ....  202
 Basis Dimension        Dim             ....  334

ORBITAL ENERGIES
----------------

  NO   OCC          E(Eh)            E(eV)
   0   2.0000     -88.042811     -2395.7667
   1   2.0000     -88.041043     -2395.7186
   2   2.0000     -87.984274     -2394.1738
   3   2.0000     -87.977482     -2393.9890
   4   2.0000     -76.423739     -2079.5957
   5   2.0000     -76.418506     -2079.4533
   6   2.0000     -18.793472      -511.3964
   7   2.0000     -18.789192      -511.2799
   8   2.0000     -18.786760      -511.2137
   9   2.0000     -18.780156      -511.0340
  10   2.0000      -9.954619      -270.8789
  11   2.0000      -9.954349      -270.8716
  12   2.0000      -9.954054      -270.8636
  13   2.0000      -9.946550      -270.6594
  14   2.0000      -9.941444      -270.5204
  15   2.0000      -9.888991      -269.0931
  16   2.0000      -9.884870      -268.9810
  17   2.0000      -9.881045      -268.8769
  18   2.0000      -9.875996      -268.7395
  19   2.0000      -7.688245      -209.2078
  20   2.0000      -7.686369      -209.1567
  21   2.0000      -7.629231      -207.6019
  22   2.0000      -7.622479      -207.4182
  23   2.0000      -6.421718      -174.7438
  24   2.0000      -6.416361      -174.5981
  25   2.0000      -5.716103      -155.5431
  26   2.0000      -5.714188      -155.4910
  27   2.0000      -5.712760      -155.4521
  28   2.0000      -5.710811      -155.3991
  29   2.0000      -5.705151      -155.2451
  30   2.0000      -5.703348      -155.1960
  31   2.0000      -5.658233      -153.9684
  32   2.0000      -5.651362      -153.7814
  33   2.0000      -5.650036      -153.7453
  34   2.0000      -5.649071      -153.7190
  35   2.0000      -5.643246      -153.5605
  36   2.0000      -5.642525      -153.5409
  37   2.0000      -4.644694      -126.3886
  38   2.0000      -4.643129      -126.3460
  39   2.0000      -4.642120      -126.3185
  40   2.0000      -4.638745      -126.2267
  41   2.0000      -4.637998      -126.2063
  42   2.0000      -4.637032      -126.1801
  43   2.0000      -0.984804       -26.7979
  44   2.0000      -0.979640       -26.6573
  45   2.0000      -0.943166       -25.6649
  46   2.0000      -0.936122       -25.4732
  47   2.0000      -0.761858       -20.7312
  48   2.0000      -0.721172       -19.6241
  49   2.0000      -0.707015       -19.2388
  50   2.0000      -0.691784       -18.8244
  51   2.0000      -0.682727       -18.5780
  52   2.0000      -0.671664       -18.2769
  53   2.0000      -0.648305       -17.6413
  54   2.0000      -0.629161       -17.1203
  55   2.0000      -0.597179       -16.2501
  56   2.0000      -0.583272       -15.8716
  57   2.0000      -0.574119       -15.6226
  58   2.0000      -0.563393       -15.3307
  59   2.0000      -0.553852       -15.0711
  60   2.0000      -0.502897       -13.6845
  61   2.0000      -0.498622       -13.5682
  62   2.0000      -0.479011       -13.0346
  63   2.0000      -0.474106       -12.9011
  64   2.0000      -0.450980       -12.2718
  65   2.0000      -0.445095       -12.1117
  66   2.0000      -0.435841       -11.8598
  67   2.0000      -0.430608       -11.7174
  68   2.0000      -0.429243       -11.6803
  69   2.0000      -0.416354       -11.3296
  70   2.0000      -0.404231       -10.9997
  71   2.0000      -0.393109       -10.6971
  72   2.0000      -0.388473       -10.5709
  73   2.0000      -0.380374       -10.3505
  74   2.0000      -0.376318       -10.2401
  75   2.0000      -0.371242       -10.1020
  76   2.0000      -0.361841        -9.8462
  77   2.0000      -0.355422        -9.6715
  78   2.0000      -0.352972        -9.6049
  79   2.0000      -0.348410        -9.4807
  80   2.0000      -0.346095        -9.4177
  81   2.0000      -0.343681        -9.3520
  82   2.0000      -0.336970        -9.1694
  83   2.0000      -0.334441        -9.1006
  84   2.0000      -0.327031        -8.8990
  85   2.0000      -0.318500        -8.6668
  86   2.0000      -0.308961        -8.4073
  87   2.0000      -0.307709        -8.3732
  88   2.0000      -0.294938        -8.0257
  89   2.0000      -0.285067        -7.7571
  90   2.0000      -0.280473        -7.6321
  91   2.0000      -0.268601        -7.3090
  92   2.0000      -0.267974        -7.2919
  93   2.0000      -0.261025        -7.1028
  94   2.0000      -0.257166        -6.9978
  95   2.0000      -0.232920        -6.3381
  96   2.0000      -0.221284        -6.0214
  97   2.0000      -0.214689        -5.8420
  98   2.0000      -0.201702        -5.4886
  99   2.0000      -0.191741        -5.2175
 100   2.0000      -0.183266        -4.9869
 101   0.0000      -0.040610        -1.1051
 102   0.0000      -0.029588        -0.8051
 103   0.0000      -0.004079        -0.1110
 104   0.0000       0.012212         0.3323
 105   0.0000       0.022699         0.6177

MULLIKEN ATOMIC CHARGES
-----------------------
   0 C :   -0.324932
   1 C :   -0.004829
   2 O :   -0.395125
   3 P :    0.619692
   4 S :   -0.292433
   5 O :   -0.354989
   6 C :   -0.034098
   7 C :   -0.274557
   8 S :   -0.092712
   9 C :   -0.357842
  10 S :   -0.099915
  11 P :    0.613694
  12 S :   -0.322468
  13 O :   -0.354440
  14 C :   -0.002505
  15 C :   -0.290829
  16 O :   -0.385658
  17 C :   -0.007019
  18 C :   -0.281797
  19 H :    0.139820
  20 H :    0.113383
  21 H :    0.115017
  22 H :    0.106370
  23 H :    0.115338
  24 H :    0.106913
  25 H :    0.107010
  26 H :    0.120803
  27 H :    0.104216
  28 H :    0.121586
  29 H :    0.183585
  30 H :    0.209509
  31 H :    0.112456
  32 H :    0.096940
  33 H :    0.136859
  34 H :    0.103691
  35 H :    0.105610
  36 H :    0.103758
  37 H :    0.097348
  38 H :    0.114580
  39 H :    0.117346
  40 H :    0.110626
Sum of atomic charges:   -0.0000000

LOEWDIN ATOMIC CHARGES
----------------------
   0 C :   -0.365371
   1 C :   -0.117149
   2 O :   -0.258310
   3 P :    0.565149
   4 S :   -0.280129
   5 O :   -0.237358
   6 C :   -0.117821
   7 C :   -0.362443
   8 S :    0.083684
   9 C :   -0.478044
  10 S :    0.086612
  11 P :    0.563910
  12 S :   -0.314951
  13 O :   -0.233575
  14 C :   -0.115813
  15 C :   -0.353583
  16 O :   -0.253827
  17 C :   -0.122702
  18 C :   -0.351030
  19 H :    0.125693
  20 H :    0.123179
  21 H :    0.132309
  22 H :    0.119064
  23 H :    0.111431
  24 H :    0.107868
  25 H :    0.118273
  26 H :    0.114801
  27 H :    0.126752
  28 H :    0.126868
  29 H :    0.138537
  30 H :    0.127464
  31 H :    0.110789
  32 H :    0.107544
  33 H :    0.124950
  34 H :    0.127342
  35 H :    0.122363
  36 H :    0.105797
  37 H :    0.108760
  38 H :    0.125660
  39 H :    0.127186
  40 H :    0.130122

  Mayer bond orders larger than 0.100000
B(  0-C ,  1-C ) :   1.1601 B(  0-C , 19-H ) :   0.9338 B(  0-C , 20-H ) :   0.9460
B(  0-C , 21-H ) :   0.9384 B(  1-C ,  2-O ) :   0.9075 B(  1-C , 22-H ) :   0.9346
B(  1-C , 23-H ) :   0.9120 B(  2-O ,  3-P ) :   1.0720 B(  3-P ,  4-S ) :   1.6451
B(  3-P ,  5-O ) :   1.1123 B(  3-P ,  8-S ) :   0.9482 B(  4-S ,  8-S ) :   0.1010
B(  5-O ,  6-C ) :   0.9023 B(  6-C ,  7-C ) :   1.1712 B(  6-C , 24-H ) :   0.9138
B(  6-C , 25-H ) :   0.9333 B(  7-C , 26-H ) :   0.9319 B(  7-C , 27-H ) :   0.9371
B(  7-C , 28-H ) :   0.9433 B(  8-S ,  9-C ) :   1.0073 B(  9-C , 10-S ) :   0.9937
B(  9-C , 29-H ) :   0.9126 B(  9-C , 30-H ) :   0.8489 B( 10-S , 11-P ) :   0.9751
B( 10-S , 12-S ) :   0.1174 B( 11-P , 12-S ) :   1.6161 B( 11-P , 13-O ) :   1.1500
B( 11-P , 16-O ) :   1.0923 B( 13-O , 14-C ) :   0.8935 B( 14-C , 15-C ) :   1.1652
B( 14-C , 31-H ) :   0.9133 B( 14-C , 32-H ) :   0.9279 B( 15-C , 33-H ) :   0.9379
B( 15-C , 34-H ) :   0.9402 B( 15-C , 35-H ) :   0.9490 B( 16-O , 17-C ) :   0.9090
B( 17-C , 18-C ) :   1.1608 B( 17-C , 36-H ) :   0.9033 B( 17-C , 37-H ) :   0.9303
B( 18-C , 38-H ) :   0.9510 B( 18-C , 39-H ) :   0.9512 B( 18-C , 40-H ) :   0.9424

Dispersion correction           -0.067277103
FINAL SINGLE POINT ENERGY     -2929.521335561179

DIPOLE MOMENT
-------------

Method             : SCF
Type of density    : Electron Density
Multiplicity       :   1
Irrep              :   0
Energy             : -2929.6396364083475419 Eh
Relativity type    :
Basis              : AO
                                X                 Y                 Z
Electronic contribution:      1.855694031     -10.221756079     -17.127812481
Nuclear contribution   :     -1.390247006      10.119724423      18.538429040
                        -----------------------------------------
Total Dipole Moment    :      0.465447025      -0.102031655       1.410616559
                        -----------------------------------------
Magnitude (a.u.)       :      1.488922587
Magnitude (Debye)      :      3.784540453

Rotational constants in cm-1:             0.012630             0.005413             0.005096
Rotational constants in MHz :           378.634314           162.281147           152.762665

                             ****ORCA TERMINATED NORMALLY****
TOTAL RUN TIME: 0 days 0 hours 0 minutes 21 seconds 867 msec
