                         Program Version 6.0.1  -  RELEASE   -
|  1> ! r2scan-3c def2/J RI DEFGRID2 scfconv6 printgap
|  2> %output
|  3>     printlevel normal
|  4> end
|  5> * xyz 0 1
|  6> C 5.0442337671 -0.3475128271 -0.6227149377
|  7> C 4.4666359708 -1.5463536135 -1.3575426659
|  8> O 3.0399363584 -1.407342482 -1.4999018786
|  9> C 2.2531946013 -2.0367268822 -0.6423032629
| 10> O 2.637025324 -2.801923842 0.2118909168
| 11> C 0.7871627078 -1.7554543485 -0.9233003514
| 12> C 0.546396895 -0.2615127095 -1.1065290135
| 13> H 1.1194300873 0.09711796 -1.9690044803
| 14> C 1.0305165846 0.522400528 0.0987980945
| 15> O 1.9879111059 0.1724229143 0.7508729216
| 16> O 0.3637392414 1.6432276106 0.2860732422
| 17> C 0.7924705316 2.4980267326 1.3663607451
| 18> C 0.2000030618 3.8757472664 1.153908397
| 19> S -1.1825968227 0.1132435444 -1.5253847645
| 20> P -2.0772843947 0.1892324764 0.4017458038
| 21> S -1.1540148217 -0.6856329738 1.8977797906
| 22> O -2.4501752191 1.6910381316 0.7082121516
| 23> C -3.1954241276 2.4956528356 -0.2311651909
| 24> O -3.5322473846 -0.4063531957 0.0973344744
| 25> C -3.7234293568 -1.7922388833 -0.2047508356
| 26> H 6.1095794848 -0.4910122089 -0.4767338224
| 27> H 4.877181932 0.561694732 -1.1933436707
| 28> H 4.5596340157 -0.245501125 0.3464056189
| 29> H 4.6708938909 -2.4722656981 -0.8127807692
| 30> H 4.847511619 -1.6120929265 -2.3776592848
| 31> H 0.2101494033 -2.1466648508 -0.0829116911
| 32> H 0.5047506364 -2.282960963 -1.8356852238
| 33> H 0.4490398266 2.0456787231 2.3026856193
| 34> H 1.8864994498 2.5119217304 1.3688071909
| 35> H 0.5607108305 4.537698355 1.9340272371
| 36> H 0.4971552952 4.2656586144 0.1849857866
| 37> H -0.8827729588 3.8228280156 1.2024311331
| 38> H -3.3509928442 3.4482419117 0.2683748035
| 39> H -4.147905933 2.020518233 -0.4552429742
| 40> H -2.6157077155 2.625992745 -1.144369917
| 41> H -4.7960807083 -1.9590320972 -0.1485308945
| 42> H -3.2047276308 -2.4127742982 0.5277676442
| 43> H -3.353156577 -2.0071961121 -1.2069465983
| 44> *
| 45>
| 46>                          ****END OF INPUT****

CARTESIAN COORDINATES (ANGSTROEM)
---------------------------------
  C      5.044234   -0.347513   -0.622715
  C      4.466636   -1.546354   -1.357543
  O      3.039936   -1.407342   -1.499902
  C      2.253195   -2.036727   -0.642303
  O      2.637025   -2.801924    0.211891
  C      0.787163   -1.755454   -0.923300
  C      0.546397   -0.261513   -1.106529
  H      1.119430    0.097118   -1.969004
  C      1.030517    0.522401    0.098798
  O      1.987911    0.172423    0.750873
  O      0.363739    1.643228    0.286073
  C      0.792471    2.498027    1.366361
  C      0.200003    3.875747    1.153908
  S     -1.182597    0.113244   -1.525385
  P     -2.077284    0.189232    0.401746
  S     -1.154015   -0.685633    1.897780
  O     -2.450175    1.691038    0.708212
  C     -3.195424    2.495653   -0.231165
  O     -3.532247   -0.406353    0.097334
  C     -3.723429   -1.792239   -0.204751
  H      6.109579   -0.491012   -0.476734
  H      4.877182    0.561695   -1.193344
  H      4.559634   -0.245501    0.346406
  H      4.670894   -2.472266   -0.812781
  H      4.847512   -1.612093   -2.377659
  H      0.210149   -2.146665   -0.082912
  H      0.504751   -2.282961   -1.835685
  H      0.449040    2.045679    2.302686
  H      1.886499    2.511922    1.368807
  H      0.560711    4.537698    1.934027
  H      0.497155    4.265659    0.184986
  H     -0.882773    3.822828    1.202431
  H     -3.350993    3.448242    0.268375
  H     -4.147906    2.020518   -0.455243
  H     -2.615708    2.625993   -1.144370
  H     -4.796081   -1.959032   -0.148531
  H     -3.204728   -2.412774    0.527768
  H     -3.353157   -2.007196   -1.206947

 Total Charge           Charge          ....    0
 Multiplicity           Mult            ....    1
 Number of Electrons    NEL             ....  174
 Basis Dimension        Dim             ....  510

ORBITAL ENERGIES
----------------

  NO   OCC          E(Eh)            E(eV)
   0   2.0000     -88.580505     -2410.3981
   1   2.0000     -88.523556     -2408.8484
   2   2.0000     -76.919686     -2093.0911
   3   2.0000     -19.006216      -517.1854
   4   2.0000     -19.000686      -517.0350
   5   2.0000     -18.996557      -516.9226
   6   2.0000     -18.990188      -516.7493
   7   2.0000     -18.939449      -515.3686
   8   2.0000     -18.917339      -514.7670
   9   2.0000     -10.167744      -276.6784
  10   2.0000     -10.148057      -276.1427
  11   2.0000     -10.103571      -274.9321
  12   2.0000     -10.101852      -274.8854
  13   2.0000     -10.096018      -274.7266
  14   2.0000     -10.093027      -274.6452
  15   2.0000     -10.083581      -274.3882
  16   2.0000     -10.049968      -273.4735
  17   2.0000     -10.033782      -273.0331
  18   2.0000     -10.019058      -272.6324
  19   2.0000      -7.874958      -214.2885
  20   2.0000      -7.818009      -212.7388
  21   2.0000      -6.597864      -179.5370
  22   2.0000      -5.821920      -158.4225
  23   2.0000      -5.818690      -158.3346
  24   2.0000      -5.812082      -158.1548
  25   2.0000      -5.765991      -156.9006
  26   2.0000      -5.758131      -156.6867
  27   2.0000      -5.757903      -156.6805
  28   2.0000      -4.743612      -129.0802
  29   2.0000      -4.742926      -129.0616
  30   2.0000      -4.741318      -129.0178
  31   2.0000      -1.085312       -29.5328
  32   2.0000      -1.065051       -28.9815
  33   2.0000      -1.057067       -28.7643
  34   2.0000      -1.014708       -27.6116
  35   2.0000      -0.989540       -26.9268
  36   2.0000      -0.968109       -26.3436
  37   2.0000      -0.813640       -22.1403
  38   2.0000      -0.752248       -20.4697
  39   2.0000      -0.744357       -20.2550
  40   2.0000      -0.731222       -19.8976
  41   2.0000      -0.696830       -18.9617
  42   2.0000      -0.681807       -18.5529
  43   2.0000      -0.663525       -18.0554
  44   2.0000      -0.649755       -17.6807
  45   2.0000      -0.618641       -16.8341
  46   2.0000      -0.598200       -16.2778
  47   2.0000      -0.547928       -14.9099
  48   2.0000      -0.537574       -14.6281
  49   2.0000      -0.520011       -14.1502
  50   2.0000      -0.505899       -13.7662
  51   2.0000      -0.500345       -13.6151
  52   2.0000      -0.478284       -13.0148
  53   2.0000      -0.462937       -12.5972
  54   2.0000      -0.460197       -12.5226
  55   2.0000      -0.455222       -12.3872
  56   2.0000      -0.448420       -12.2021
  57   2.0000      -0.439394       -11.9565
  58   2.0000      -0.435396       -11.8477
  59   2.0000      -0.430144       -11.7048
  60   2.0000      -0.424188       -11.5428
  61   2.0000      -0.418559       -11.3896
  62   2.0000      -0.406893       -11.0721
  63   2.0000      -0.394578       -10.7370
  64   2.0000      -0.388062       -10.5597
  65   2.0000      -0.380207       -10.3460
  66   2.0000      -0.371614       -10.1121
  67   2.0000      -0.367188        -9.9917
  68   2.0000      -0.362867        -9.8741
  69   2.0000      -0.351833        -9.5739
  70   2.0000      -0.350775        -9.5451
  71   2.0000      -0.335751        -9.1363
  72   2.0000      -0.332610        -9.0508
  73   2.0000      -0.331948        -9.0328
  74   2.0000      -0.328554        -8.9404
  75   2.0000      -0.321422        -8.7463
  76   2.0000      -0.319405        -8.6915
  77   2.0000      -0.300853        -8.1866
  78   2.0000      -0.294193        -8.0054
  79   2.0000      -0.284332        -7.7371
  80   2.0000      -0.278899        -7.5892
  81   2.0000      -0.261733        -7.1221
  82   2.0000      -0.258343        -7.0299
  83   2.0000      -0.237756        -6.4697
  84   2.0000      -0.226080        -6.1520
  85   2.0000      -0.220579        -6.0023
  86   2.0000      -0.217257        -5.9119
  87   0.0000      -0.046719        -1.2713
  88   0.0000      -0.031750        -0.8640
  89   0.0000      -0.003270        -0.0890
  90   0.0000       0.003348         0.0911
  91   0.0000       0.008883         0.2417

MULLIKEN ATOMIC CHARGES
-----------------------
   0 C :   -0.470677
   1 C :   -0.152007
   2 O :   -0.143707
   3 C :    0.353489
   4 O :   -0.388852
   5 C :   -0.477600
   6 C :    0.064471
   7 H :    0.204549
   8 C :    0.248449
   9 O :   -0.377926
  10 O :   -0.139471
  11 C :   -0.130426
  12 C :   -0.471952
  13 S :   -0.189273
  14 P :    0.747112
  15 S :   -0.412529
  16 O :   -0.304546
  17 C :   -0.297423
  18 O :   -0.355044
  19 C :   -0.297971
  20 H :    0.142981
  21 H :    0.143109
  22 H :    0.189513
  23 H :    0.181478
  24 H :    0.142793
  25 H :    0.214293
  26 H :    0.184371
  27 H :    0.176204
  28 H :    0.164480
  29 H :    0.150273
  30 H :    0.153459
  31 H :    0.157519
  32 H :    0.157025
  33 H :    0.171504
  34 H :    0.173991
  35 H :    0.153473
  36 H :    0.176408
  37 H :    0.158460
Sum of atomic charges:    0.0000000

LOEWDIN ATOMIC CHARGES
----------------------
   0 C :   -0.390592
   1 C :    0.030571
   2 O :   -0.602749
   3 C :    0.358630
   4 O :   -0.413354
   5 C :   -0.211229
   6 C :   -0.199513
   7 H :    0.213083
   8 C :    0.342687
   9 O :   -0.406719
  10 O :   -0.626399
  11 C :    0.036912
  12 C :   -0.383995
  13 S :    0.196071
  14 P :    0.402731
  15 S :   -0.044762
  16 O :   -0.653582
  17 C :   -0.056539
  18 O :   -0.686608
  19 C :   -0.059169
  20 H :    0.156609
  21 H :    0.153932
  22 H :    0.175575
  23 H :    0.193730
  24 H :    0.174653
  25 H :    0.200023
  26 H :    0.184455
  27 H :    0.188867
  28 H :    0.187635
  29 H :    0.160848
  30 H :    0.159325
  31 H :    0.163463
  32 H :    0.179668
  33 H :    0.176655
  34 H :    0.174652
  35 H :    0.178166
  36 H :    0.177160
  37 H :    0.169111

  Mayer bond orders larger than 0.100000
B(  0-C ,  1-C ) :   0.9345 B(  0-C , 20-H ) :   0.9666 B(  0-C , 21-H ) :   0.9723
B(  0-C , 22-H ) :   0.9669 B(  1-C ,  2-O ) :   0.7935 B(  1-C , 23-H ) :   0.9719
B(  1-C , 24-H ) :   0.9615 B(  2-O ,  3-C ) :   1.0767 B(  2-O ,  6-C ) :   0.1254
B(  3-C ,  4-O ) :   1.9100 B(  3-C ,  5-C ) :   0.8857 B(  5-C ,  6-C ) :   0.8623
B(  5-C , 25-H ) :   0.9863 B(  5-C , 26-H ) :   0.9523 B(  6-C ,  7-H ) :   0.8851
B(  6-C ,  8-C ) :   0.9784 B(  6-C , 13-S ) :   0.8278 B(  8-C ,  9-O ) :   1.7524
B(  8-C , 10-O ) :   1.1396 B( 10-O , 11-C ) :   0.7575 B( 11-C , 12-C ) :   0.9310
B( 11-C , 27-H ) :   0.9390 B( 11-C , 28-H ) :   0.9557 B( 12-C , 29-H ) :   0.9685
B( 12-C , 30-H ) :   0.9781 B( 12-C , 31-H ) :   0.9666 B( 13-S , 14-P ) :   1.0138
B( 14-P , 15-S ) :   1.7917 B( 14-P , 16-O ) :   1.1483 B( 14-P , 18-O ) :   1.0252
B( 16-O , 17-C ) :   0.7914 B( 17-C , 32-H ) :   0.9635 B( 17-C , 33-H ) :   0.9591
B( 17-C , 34-H ) :   0.9551 B( 18-O , 19-C ) :   0.8316 B( 19-C , 35-H ) :   0.9671
B( 19-C , 36-H ) :   0.9589 B( 19-C , 37-H ) :   0.9557

Dispersion correction           -0.018128832
FINAL SINGLE POINT ENERGY     -1981.452968032348

DIPOLE MOMENT
-------------

Method             : SCF
Type of density    : Electron Density
Multiplicity       :   1
Irrep              :   0
Energy             : -1981.4723211706746042 Eh
Relativity type    :
Basis              : AO
                                X                 Y                 Z
Electronic contribution:    -10.277745138      -8.015526117       2.141903534
Nuclear contribution   :      9.404211737       9.501596319      -3.708667607
                        -----------------------------------------
Total Dipole Moment    :     -0.873533401       1.486070202      -1.566764074
                        -----------------------------------------
Magnitude (a.u.)       :      2.329423729
Magnitude (Debye)      :      5.920924576

Rotational constants in cm-1:             0.015430             0.006885             0.005742
Rotational constants in MHz :           462.565201           206.420422           172.155041

                             ****ORCA TERMINATED NORMALLY****
TOTAL RUN TIME: 0 days 0 hours 1 minutes 38 seconds 433 msec
