                         Program Version 6.0.1  -  RELEASE   -
|  1> ! r2scan-3c def2/J RI DEFGRID2 scfconv6 printgap
|  2> %output
|  3>     printlevel normal
|  4> end
|  5> %cpcm
|  6>     smd true
|  7>     smdsolvent "water"
|  8> end
|  9> * xyz 0 1
| 10> C 5.0442337671 -0.3475128271 -0.6227149377
| 11> C 4.4666359708 -1.5463536135 -1.3575426659
| 12> O 3.0399363584 -1.407342482 -1.4999018786
| 13> C 2.2531946013 -2.0367268822 -0.6423032629
| 14> O 2.637025324 -2.801923842 0.2118909168
| 15> C 0.7871627078 -1.7554543485 -0.9233003514
| 16> C 0.546396895 -0.2615127095 -1.1065290135
| 17> H 1.1194300873 0.09711796 -1.9690044803
| 18> C 1.0305165846 0.522400528 0.0987980945
| 19> O 1.9879111059 0.1724229143 0.7508729216
| 20> O 0.3637392414 1.6432276106 0.2860732422
| 21> C 0.7924705316 2.4980267326 1.3663607451
| 22> C 0.2000030618 3.8757472664 1.153908397
| 23> S -1.1825968227 0.1132435444 -1.5253847645
| 24> P -2.0772843947 0.1892324764 0.4017458038
| 25> S -1.1540148217 -0.6856329738 1.8977797906
| 26> O -2.4501752191 1.6910381316 0.7082121516
| 27> C -3.1954241276 2.4956528356 -0.2311651909
| 28> O -3.5322473846 -0.4063531957 0.0973344744
| 29> C -3.7234293568 -1.7922388833 -0.2047508356
| 30> H 6.1095794848 -0.4910122089 -0.4767338224
| 31> H 4.877181932 0.561694732 -1.1933436707
| 32> H 4.5596340157 -0.245501125 0.3464056189
| 33> H 4.6708938909 -2.4722656981 -0.8127807692
| 34> H 4.847511619 -1.6120929265 -2.3776592848
| 35> H 0.2101494033 -2.1466648508 -0.0829116911
| 36> H 0.5047506364 -2.282960963 -1.8356852238
| 37> H 0.4490398266 2.0456787231 2.3026856193
| 38> H 1.8864994498 2.5119217304 1.3688071909
| 39> H 0.5607108305 4.537698355 1.9340272371
| 40> H 0.4971552952 4.2656586144 0.1849857866
| 41> H -0.8827729588 3.8228280156 1.2024311331
| 42> H -3.3509928442 3.4482419117 0.2683748035
| 43> H -4.147905933 2.020518233 -0.4552429742
| 44> H -2.6157077155 2.625992745 -1.144369917
| 45> H -4.7960807083 -1.9590320972 -0.1485308945
| 46> H -3.2047276308 -2.4127742982 0.5277676442
| 47> H -3.353156577 -2.0071961121 -1.2069465983
| 48> *
| 49>
| 50>                          ****END OF INPUT****

CARTESIAN COORDINATES (ANGSTROEM)
---------------------------------
  C      5.044234   -0.347513   -0.622715
  C      4.466636   -1.546354   -1.357543
  O      3.039936   -1.407342   -1.499902
  C      2.253195   -2.036727   -0.642303
  O      2.637025   -2.801924    0.211891
  C      0.787163   -1.755454   -0.923300
  C      0.546397   -0.261513   -1.106529
  H      1.119430    0.097118   -1.969004
  C      1.030517    0.522401    0.098798
  O      1.987911    0.172423    0.750873
  O      0.363739    1.643228    0.286073
  C      0.792471    2.498027    1.366361
  C      0.200003    3.875747    1.153908
  S     -1.182597    0.113244   -1.525385
  P     -2.077284    0.189232    0.401746
  S     -1.154015   -0.685633    1.897780
  O     -2.450175    1.691038    0.708212
  C     -3.195424    2.495653   -0.231165
  O     -3.532247   -0.406353    0.097334
  C     -3.723429   -1.792239   -0.204751
  H      6.109579   -0.491012   -0.476734
  H      4.877182    0.561695   -1.193344
  H      4.559634   -0.245501    0.346406
  H      4.670894   -2.472266   -0.812781
  H      4.847512   -1.612093   -2.377659
  H      0.210149   -2.146665   -0.082912
  H      0.504751   -2.282961   -1.835685
  H      0.449040    2.045679    2.302686
  H      1.886499    2.511922    1.368807
  H      0.560711    4.537698    1.934027
  H      0.497155    4.265659    0.184986
  H     -0.882773    3.822828    1.202431
  H     -3.350993    3.448242    0.268375
  H     -4.147906    2.020518   -0.455243
  H     -2.615708    2.625993   -1.144370
  H     -4.796081   -1.959032   -0.148531
  H     -3.204728   -2.412774    0.527768
  H     -3.353157   -2.007196   -1.206947

 Total Charge           Charge          ....    0
 Multiplicity           Mult            ....    1
 Number of Electrons    NEL             ....  174
 Basis Dimension        Dim             ....  510

ORBITAL ENERGIES
----------------

  NO   OCC          E(Eh)            E(eV)
   0   2.0000     -88.581741     -2410.4317
   1   2.0000     -88.532687     -2409.0969
   2   2.0000     -76.923534     -2093.1958
   3   2.0000     -19.011911      -517.3404
   4   2.0000     -19.003359      -517.1077
   5   2.0000     -18.999534      -517.0036
   6   2.0000     -18.995836      -516.9030
   7   2.0000     -18.954477      -515.7775
   8   2.0000     -18.944388      -515.5030
   9   2.0000     -10.179167      -276.9892
  10   2.0000     -10.169101      -276.7153
  11   2.0000     -10.101826      -274.8846
  12   2.0000     -10.087478      -274.4942
  13   2.0000     -10.085471      -274.4396
  14   2.0000     -10.083488      -274.3857
  15   2.0000     -10.082449      -274.3574
  16   2.0000     -10.053135      -273.5597
  17   2.0000     -10.019769      -272.6518
  18   2.0000     -10.017807      -272.5984
  19   2.0000      -7.876063      -214.3186
  20   2.0000      -7.827588      -212.9995
  21   2.0000      -6.601774      -179.6434
  22   2.0000      -5.823112      -158.4549
  23   2.0000      -5.819856      -158.3663
  24   2.0000      -5.813053      -158.1812
  25   2.0000      -5.775413      -157.1570
  26   2.0000      -5.767794      -156.9496
  27   2.0000      -5.767470      -156.9408
  28   2.0000      -4.747445      -129.1845
  29   2.0000      -4.746789      -129.1667
  30   2.0000      -4.745400      -129.1289
  31   2.0000      -1.093167       -29.7466
  32   2.0000      -1.081104       -29.4183
  33   2.0000      -1.055867       -28.7316
  34   2.0000      -1.012756       -27.5585
  35   2.0000      -1.002626       -27.2828
  36   2.0000      -0.992574       -27.0093
  37   2.0000      -0.815669       -22.1955
  38   2.0000      -0.752396       -20.4737
  39   2.0000      -0.741365       -20.1736
  40   2.0000      -0.730150       -19.8684
  41   2.0000      -0.697021       -18.9669
  42   2.0000      -0.671845       -18.2818
  43   2.0000      -0.662554       -18.0290
  44   2.0000      -0.649652       -17.6779
  45   2.0000      -0.620415       -16.8824
  46   2.0000      -0.596774       -16.2391
  47   2.0000      -0.544717       -14.8225
  48   2.0000      -0.536275       -14.5928
  49   2.0000      -0.525313       -14.2945
  50   2.0000      -0.507857       -13.8195
  51   2.0000      -0.494089       -13.4448
  52   2.0000      -0.484384       -13.1808
  53   2.0000      -0.467569       -12.7232
  54   2.0000      -0.463715       -12.6183
  55   2.0000      -0.457276       -12.4431
  56   2.0000      -0.451303       -12.2806
  57   2.0000      -0.444044       -12.0830
  58   2.0000      -0.441588       -12.0162
  59   2.0000      -0.428760       -11.6672
  60   2.0000      -0.423965       -11.5367
  61   2.0000      -0.411361       -11.1937
  62   2.0000      -0.407228       -11.0812
  63   2.0000      -0.398756       -10.8507
  64   2.0000      -0.388264       -10.5652
  65   2.0000      -0.377653       -10.2765
  66   2.0000      -0.372272       -10.1300
  67   2.0000      -0.362872        -9.8742
  68   2.0000      -0.361427        -9.8349
  69   2.0000      -0.355514        -9.6740
  70   2.0000      -0.349862        -9.5202
  71   2.0000      -0.340255        -9.2588
  72   2.0000      -0.334984        -9.1154
  73   2.0000      -0.332923        -9.0593
  74   2.0000      -0.325103        -8.8465
  75   2.0000      -0.319838        -8.7032
  76   2.0000      -0.318325        -8.6621
  77   2.0000      -0.305019        -8.3000
  78   2.0000      -0.292292        -7.9537
  79   2.0000      -0.285506        -7.7690
  80   2.0000      -0.282644        -7.6911
  81   2.0000      -0.276892        -7.5346
  82   2.0000      -0.268420        -7.3041
  83   2.0000      -0.255965        -6.9652
  84   2.0000      -0.240657        -6.5486
  85   2.0000      -0.231193        -6.2911
  86   2.0000      -0.226964        -6.1760
  87   0.0000      -0.051456        -1.4002
  88   0.0000      -0.039548        -1.0761
  89   0.0000      -0.018298        -0.4979
  90   0.0000       0.000383         0.0104
  91   0.0000       0.006732         0.1832

MULLIKEN ATOMIC CHARGES
-----------------------
   0 C :   -0.505144
   1 C :   -0.139636
   2 O :   -0.159788
   3 C :    0.372617
   4 O :   -0.479895
   5 C :   -0.493995
   6 C :    0.080428
   7 H :    0.247756
   8 C :    0.271512
   9 O :   -0.446478
  10 O :   -0.146498
  11 C :   -0.140017
  12 C :   -0.511558
  13 S :   -0.179413
  14 P :    0.779783
  15 S :   -0.484399
  16 O :   -0.339715
  17 C :   -0.302243
  18 O :   -0.380727
  19 C :   -0.306947
  20 H :    0.169460
  21 H :    0.168839
  22 H :    0.171667
  23 H :    0.180238
  24 H :    0.173351
  25 H :    0.213095
  26 H :    0.224955
  27 H :    0.183473
  28 H :    0.176554
  29 H :    0.172341
  30 H :    0.170882
  31 H :    0.169631
  32 H :    0.186146
  33 H :    0.186923
  34 H :    0.183324
  35 H :    0.180714
  36 H :    0.177185
  37 H :    0.175578
Sum of atomic charges:    0.0000000

LOEWDIN ATOMIC CHARGES
----------------------
   0 C :   -0.392944
   1 C :    0.037251
   2 O :   -0.596387
   3 C :    0.364254
   4 O :   -0.482124
   5 C :   -0.207643
   6 C :   -0.194580
   7 H :    0.229942
   8 C :    0.349259
   9 O :   -0.457568
  10 O :   -0.624858
  11 C :    0.038536
  12 C :   -0.385168
  13 S :    0.216949
  14 P :    0.407535
  15 S :   -0.096805
  16 O :   -0.670178
  17 C :   -0.046820
  18 O :   -0.694533
  19 C :   -0.054011
  20 H :    0.166936
  21 H :    0.161759
  22 H :    0.166641
  23 H :    0.193101
  24 H :    0.188602
  25 H :    0.197251
  26 H :    0.202986
  27 H :    0.188651
  28 H :    0.192596
  29 H :    0.169433
  30 H :    0.165188
  31 H :    0.166864
  32 H :    0.192264
  33 H :    0.183543
  34 H :    0.180254
  35 H :    0.189568
  36 H :    0.177683
  37 H :    0.176571

  Mayer bond orders larger than 0.100000
B(  0-C ,  1-C ) :   0.9212 B(  0-C , 20-H ) :   0.9604 B(  0-C , 21-H ) :   0.9689
B(  0-C , 22-H ) :   0.9697 B(  1-C ,  2-O ) :   0.7795 B(  1-C , 23-H ) :   0.9685
B(  1-C , 24-H ) :   0.9506 B(  2-O ,  3-C ) :   1.0995 B(  2-O ,  6-C ) :   0.1090
B(  3-C ,  4-O ) :   1.8395 B(  3-C ,  5-C ) :   0.8982 B(  5-C ,  6-C ) :   0.8323
B(  5-C , 25-H ) :   0.9928 B(  5-C , 26-H ) :   0.9248 B(  6-C ,  7-H ) :   0.8766
B(  6-C ,  8-C ) :   0.9799 B(  6-C , 13-S ) :   0.8153 B(  8-C ,  9-O ) :   1.7042
B(  8-C , 10-O ) :   1.1597 B( 10-O , 11-C ) :   0.7443 B( 11-C , 12-C ) :   0.9322
B( 11-C , 27-H ) :   0.9340 B( 11-C , 28-H ) :   0.9491 B( 12-C , 29-H ) :   0.9621
B( 12-C , 30-H ) :   0.9752 B( 12-C , 31-H ) :   0.9617 B( 13-S , 14-P ) :   1.0306
B( 14-P , 15-S ) :   1.7482 B( 14-P , 16-O ) :   1.1568 B( 14-P , 18-O ) :   1.0365
B( 16-O , 17-C ) :   0.7827 B( 17-C , 32-H ) :   0.9525 B( 17-C , 33-H ) :   0.9509
B( 17-C , 34-H ) :   0.9470 B( 18-O , 19-C ) :   0.8240 B( 19-C , 35-H ) :   0.9572
B( 19-C , 36-H ) :   0.9551 B( 19-C , 37-H ) :   0.9493

Dispersion correction           -0.018128832
FINAL SINGLE POINT ENERGY     -1981.469831633052

DIPOLE MOMENT
-------------

Method             : SCF
Type of density    : Electron Density
Multiplicity       :   1
Irrep              :   0
Energy             : -1981.4891847713788593 Eh
Relativity type    :
Basis              : AO
                                X                 Y                 Z
Electronic contribution:    -10.608558863      -7.431077426       1.011325840
Nuclear contribution   :      9.404211737       9.501596319      -3.708667607
                        -----------------------------------------
Total Dipole Moment    :     -1.204347126       2.070518894      -2.697341767
                        -----------------------------------------
Magnitude (a.u.)       :      3.607374821
Magnitude (Debye)      :      9.169218105

Rotational constants in cm-1:             0.015430             0.006885             0.005742
Rotational constants in MHz :           462.565201           206.420422           172.155041

                             ****ORCA TERMINATED NORMALLY****
TOTAL RUN TIME: 0 days 0 hours 2 minutes 4 seconds 398 msec
