                         Program Version 6.0.1  -  RELEASE   -
|  1> ! r2scan-3c def2/J RI DEFGRID2 scfconv6 printgap
|  2> %output
|  3>     printlevel normal
|  4> end
|  5> * xyz 0 1
|  6> C 2.1067153791 -3.1404535344 -2.8681213768
|  7> C 3.0758567089 -3.0439776655 -1.7004264643
|  8> O 2.9024079712 -1.7925127709 -1.0078934624
|  9> C 2.040950385 -1.7383916991 -0.0138602078
| 10> O 1.426781274 -2.6854224477 0.4244596122
| 11> C 1.8799067933 -0.31832182 0.4980151534
| 12> C 1.0761870138 0.4764693071 -0.5334764904
| 13> H 1.6794471452 0.6343118893 -1.4325692472
| 14> C 0.6134116046 1.8274168921 -0.0130380535
| 15> O -0.518534893 2.2349393751 -0.1778783669
| 16> O 1.5714784761 2.4640186649 0.6008851761
| 17> C 1.2795617782 3.7621627769 1.1618683661
| 18> C 1.4001280815 4.8509788558 0.1088556389
| 19> S -0.3940555431 -0.4249943588 -1.1292263646
| 20> P -1.7594080975 -0.0695155589 0.4606422784
| 21> S -1.1180248687 0.4312924451 2.2422007586
| 22> O -2.9222455894 0.8603032083 -0.0617173158
| 23> C -3.5775315004 0.6576529846 -1.3286066813
| 24> O -2.5317439527 -1.4805596233 0.4681111344
| 25> C -1.9373076921 -2.6459703305 1.0456129685
| 26> H 2.2612140049 -4.0805286448 -3.3869579806
| 27> H 1.081250905 -3.0967199258 -2.507509586
| 28> H 2.2671238154 -2.3179554432 -3.5590593803
| 29> H 4.1114310623 -3.0324028875 -2.0404640491
| 30> H 2.9155278439 -3.8606877054 -0.9912226247
| 31> H 2.8553042322 0.1501615306 0.6228931327
| 32> H 1.3547777123 -0.3476025246 1.4544882085
| 33> H 0.2727249141 3.7348126625 1.5883127759
| 34> H 2.0214336094 3.8815882205 1.9510387785
| 35> H 1.2455969956 5.8170924117 0.5775783413
| 36> H 2.3871887541 4.8258095139 -0.3442732899
| 37> H 0.6477491922 4.7109063678 -0.6639630491
| 38> H -4.3030998777 1.4635956396 -1.4002602958
| 39> H -4.0690205807 -0.3136759227 -1.3414685928
| 40> H -2.8488197347 0.7232483816 -2.1365805595
| 41> H -0.9790984266 -2.8701113946 0.5741614603
| 42> H -2.6462915498 -3.4511840813 0.8744582714
| 43> H -1.7810129169 -2.4909010507 2.1138705547
| 44> *
| 45>
| 46>                          ****END OF INPUT****

CARTESIAN COORDINATES (ANGSTROEM)
---------------------------------
  C      2.106715   -3.140454   -2.868121
  C      3.075857   -3.043978   -1.700426
  O      2.902408   -1.792513   -1.007893
  C      2.040950   -1.738392   -0.013860
  O      1.426781   -2.685422    0.424460
  C      1.879907   -0.318322    0.498015
  C      1.076187    0.476469   -0.533476
  H      1.679447    0.634312   -1.432569
  C      0.613412    1.827417   -0.013038
  O     -0.518535    2.234939   -0.177878
  O      1.571478    2.464019    0.600885
  C      1.279562    3.762163    1.161868
  C      1.400128    4.850979    0.108856
  S     -0.394056   -0.424994   -1.129226
  P     -1.759408   -0.069516    0.460642
  S     -1.118025    0.431292    2.242201
  O     -2.922246    0.860303   -0.061717
  C     -3.577532    0.657653   -1.328607
  O     -2.531744   -1.480560    0.468111
  C     -1.937308   -2.645970    1.045613
  H      2.261214   -4.080529   -3.386958
  H      1.081251   -3.096720   -2.507510
  H      2.267124   -2.317955   -3.559059
  H      4.111431   -3.032403   -2.040464
  H      2.915528   -3.860688   -0.991223
  H      2.855304    0.150162    0.622893
  H      1.354778   -0.347603    1.454488
  H      0.272725    3.734813    1.588313
  H      2.021434    3.881588    1.951039
  H      1.245597    5.817092    0.577578
  H      2.387189    4.825810   -0.344273
  H      0.647749    4.710906   -0.663963
  H     -4.303100    1.463596   -1.400260
  H     -4.069021   -0.313676   -1.341469
  H     -2.848820    0.723248   -2.136581
  H     -0.979098   -2.870111    0.574161
  H     -2.646292   -3.451184    0.874458
  H     -1.781013   -2.490901    2.113871

 Total Charge           Charge          ....    0
 Multiplicity           Mult            ....    1
 Number of Electrons    NEL             ....  174
 Basis Dimension        Dim             ....  510

ORBITAL ENERGIES
----------------

  NO   OCC          E(Eh)            E(eV)
   0   2.0000     -88.570360     -2410.1220
   1   2.0000     -88.508520     -2408.4393
   2   2.0000     -76.906369     -2092.7287
   3   2.0000     -19.014112      -517.4003
   4   2.0000     -19.006610      -517.1961
   5   2.0000     -18.981403      -516.5102
   6   2.0000     -18.975569      -516.3515
   7   2.0000     -18.939652      -515.3741
   8   2.0000     -18.934453      -515.2327
   9   2.0000     -10.169700      -276.7316
  10   2.0000     -10.160581      -276.4835
  11   2.0000     -10.103124      -274.9200
  12   2.0000     -10.099357      -274.8175
  13   2.0000     -10.097607      -274.7699
  14   2.0000     -10.088053      -274.5099
  15   2.0000     -10.070833      -274.0413
  16   2.0000     -10.052779      -273.5500
  17   2.0000     -10.034682      -273.0576
  18   2.0000     -10.034000      -273.0390
  19   2.0000      -7.865004      -214.0176
  20   2.0000      -7.803577      -212.3461
  21   2.0000      -6.584172      -179.1644
  22   2.0000      -5.812063      -158.1543
  23   2.0000      -5.808863      -158.0672
  24   2.0000      -5.801843      -157.8762
  25   2.0000      -5.751542      -156.5074
  26   2.0000      -5.743978      -156.3016
  27   2.0000      -5.743092      -156.2775
  28   2.0000      -4.729807      -128.7046
  29   2.0000      -4.729350      -128.6921
  30   2.0000      -4.727714      -128.6476
  31   2.0000      -1.092027       -29.7156
  32   2.0000      -1.082549       -29.4577
  33   2.0000      -1.037431       -28.2299
  34   2.0000      -0.995092       -27.0778
  35   2.0000      -0.992098       -26.9963
  36   2.0000      -0.984497       -26.7895
  37   2.0000      -0.812613       -22.1123
  38   2.0000      -0.756277       -20.5793
  39   2.0000      -0.749388       -20.3919
  40   2.0000      -0.723233       -19.6802
  41   2.0000      -0.693357       -18.8672
  42   2.0000      -0.664776       -18.0895
  43   2.0000      -0.657938       -17.9034
  44   2.0000      -0.647908       -17.6305
  45   2.0000      -0.630324       -17.1520
  46   2.0000      -0.602223       -16.3873
  47   2.0000      -0.538500       -14.6533
  48   2.0000      -0.531899       -14.4737
  49   2.0000      -0.523934       -14.2570
  50   2.0000      -0.504060       -13.7162
  51   2.0000      -0.481421       -13.1001
  52   2.0000      -0.478142       -13.0109
  53   2.0000      -0.469387       -12.7727
  54   2.0000      -0.459211       -12.4958
  55   2.0000      -0.452159       -12.3039
  56   2.0000      -0.444979       -12.1085
  57   2.0000      -0.439631       -11.9630
  58   2.0000      -0.433251       -11.7894
  59   2.0000      -0.421694       -11.4749
  60   2.0000      -0.416310       -11.3284
  61   2.0000      -0.414310       -11.2740
  62   2.0000      -0.409629       -11.1466
  63   2.0000      -0.405653       -11.0384
  64   2.0000      -0.396471       -10.7885
  65   2.0000      -0.381660       -10.3855
  66   2.0000      -0.377434       -10.2705
  67   2.0000      -0.371279       -10.1030
  68   2.0000      -0.363792        -9.8993
  69   2.0000      -0.351427        -9.5628
  70   2.0000      -0.348450        -9.4818
  71   2.0000      -0.345772        -9.4089
  72   2.0000      -0.341768        -9.3000
  73   2.0000      -0.326518        -8.8850
  74   2.0000      -0.318544        -8.6680
  75   2.0000      -0.314453        -8.5567
  76   2.0000      -0.308776        -8.4022
  77   2.0000      -0.302072        -8.2198
  78   2.0000      -0.285349        -7.7647
  79   2.0000      -0.281191        -7.6516
  80   2.0000      -0.278427        -7.5764
  81   2.0000      -0.263810        -7.1786
  82   2.0000      -0.256703        -6.9852
  83   2.0000      -0.238076        -6.4784
  84   2.0000      -0.229974        -6.2579
  85   2.0000      -0.208700        -5.6790
  86   2.0000      -0.203102        -5.5267
  87   0.0000      -0.044049        -1.1986
  88   0.0000      -0.033125        -0.9014
  89   0.0000      -0.013598        -0.3700
  90   0.0000       0.004467         0.1215
  91   0.0000       0.023943         0.6515

MULLIKEN ATOMIC CHARGES
-----------------------
   0 C :   -0.477034
   1 C :   -0.128453
   2 O :   -0.165820
   3 C :    0.393945
   4 O :   -0.393796
   5 C :   -0.475222
   6 C :    0.053897
   7 H :    0.196840
   8 C :    0.277614
   9 O :   -0.390697
  10 O :   -0.155074
  11 C :   -0.137716
  12 C :   -0.475073
  13 S :   -0.191569
  14 P :    0.796201
  15 S :   -0.459522
  16 O :   -0.301345
  17 C :   -0.301158
  18 O :   -0.363237
  19 C :   -0.300950
  20 H :    0.149250
  21 H :    0.176396
  22 H :    0.152807
  23 H :    0.149331
  24 H :    0.173749
  25 H :    0.175620
  26 H :    0.220709
  27 H :    0.183209
  28 H :    0.152817
  29 H :    0.151678
  30 H :    0.151175
  31 H :    0.177601
  32 H :    0.155105
  33 H :    0.168062
  34 H :    0.166499
  35 H :    0.182920
  36 H :    0.142007
  37 H :    0.169230
Sum of atomic charges:   -0.0000000

LOEWDIN ATOMIC CHARGES
----------------------
   0 C :   -0.390478
   1 C :    0.030409
   2 O :   -0.590792
   3 C :    0.339331
   4 O :   -0.440920
   5 C :   -0.208563
   6 C :   -0.189794
   7 H :    0.204354
   8 C :    0.341633
   9 O :   -0.456409
  10 O :   -0.570271
  11 C :    0.035841
  12 C :   -0.388618
  13 S :    0.222058
  14 P :    0.418323
  15 S :   -0.074828
  16 O :   -0.640262
  17 C :   -0.051661
  18 O :   -0.691911
  19 C :   -0.062912
  20 H :    0.159946
  21 H :    0.166696
  22 H :    0.156734
  23 H :    0.178249
  24 H :    0.190771
  25 H :    0.189599
  26 H :    0.200779
  27 H :    0.194990
  28 H :    0.180854
  29 H :    0.161634
  30 H :    0.157132
  31 H :    0.166929
  32 H :    0.180360
  33 H :    0.172114
  34 H :    0.173017
  35 H :    0.188067
  36 H :    0.172046
  37 H :    0.175551

  Mayer bond orders larger than 0.100000
B(  0-C ,  1-C ) :   0.9293 B(  0-C , 20-H ) :   0.9649 B(  0-C , 21-H ) :   0.9685
B(  0-C , 22-H ) :   0.9729 B(  1-C ,  2-O ) :   0.8030 B(  1-C , 23-H ) :   0.9627
B(  1-C , 24-H ) :   0.9681 B(  2-O ,  3-C ) :   1.0332 B(  3-C ,  4-O ) :   1.8233
B(  3-C ,  5-C ) :   0.9165 B(  5-C ,  6-C ) :   0.8967 B(  5-C , 25-H ) :   0.9393
B(  5-C , 26-H ) :   0.9715 B(  6-C ,  7-H ) :   0.8787 B(  6-C ,  8-C ) :   0.9564
B(  6-C , 13-S ) :   0.8255 B(  8-C ,  9-O ) :   1.7917 B(  8-C , 10-O ) :   1.1349
B( 10-O , 11-C ) :   0.7990 B( 11-C , 12-C ) :   0.9310 B( 11-C , 27-H ) :   0.9693
B( 11-C , 28-H ) :   0.9609 B( 12-C , 29-H ) :   0.9632 B( 12-C , 30-H ) :   0.9720
B( 12-C , 31-H ) :   0.9712 B( 13-S , 14-P ) :   0.9842 B( 14-P , 15-S ) :   1.7542
B( 14-P , 16-O ) :   1.1902 B( 14-P , 18-O ) :   1.0201 B( 16-O , 17-C ) :   0.7996
B( 17-C , 32-H ) :   0.9651 B( 17-C , 33-H ) :   0.9634 B( 17-C , 34-H ) :   0.9575
B( 18-O , 19-C ) :   0.8365 B( 19-C , 35-H ) :   0.9426 B( 19-C , 36-H ) :   0.9693
B( 19-C , 37-H ) :   0.9579

Dispersion correction           -0.017736720
FINAL SINGLE POINT ENERGY     -1981.446712191906

DIPOLE MOMENT
-------------

Method             : SCF
Type of density    : Electron Density
Multiplicity       :   1
Irrep              :   0
Energy             : -1981.4666424492452279 Eh
Relativity type    :
Basis              : AO
                                X                 Y                 Z
Electronic contribution:     -8.441901560       0.105501360       8.398961932
Nuclear contribution   :      9.564277399       0.130843434      -9.866465190
                        -----------------------------------------
Total Dipole Moment    :      1.122375840       0.236344794      -1.467503258
                        -----------------------------------------
Magnitude (a.u.)       :      1.862566025
Magnitude (Debye)      :      4.734266598

Rotational constants in cm-1:             0.010917             0.008430             0.006039
Rotational constants in MHz :           327.274812           252.724296           181.036799

                             ****ORCA TERMINATED NORMALLY****
TOTAL RUN TIME: 0 days 0 hours 1 minutes 15 seconds 706 msec
