                         Program Version 6.0.1  -  RELEASE   -
|  1> ! r2scan-3c def2/J RI DEFGRID2 scfconv6 printgap
|  2> %output
|  3>     printlevel normal
|  4> end
|  5> %cpcm
|  6>     smd true
|  7>     smdsolvent "water"
|  8> end
|  9> * xyz 0 1
| 10> C 2.1067153791 -3.1404535344 -2.8681213768
| 11> C 3.0758567089 -3.0439776655 -1.7004264643
| 12> O 2.9024079712 -1.7925127709 -1.0078934624
| 13> C 2.040950385 -1.7383916991 -0.0138602078
| 14> O 1.426781274 -2.6854224477 0.4244596122
| 15> C 1.8799067933 -0.31832182 0.4980151534
| 16> C 1.0761870138 0.4764693071 -0.5334764904
| 17> H 1.6794471452 0.6343118893 -1.4325692472
| 18> C 0.6134116046 1.8274168921 -0.0130380535
| 19> O -0.518534893 2.2349393751 -0.1778783669
| 20> O 1.5714784761 2.4640186649 0.6008851761
| 21> C 1.2795617782 3.7621627769 1.1618683661
| 22> C 1.4001280815 4.8509788558 0.1088556389
| 23> S -0.3940555431 -0.4249943588 -1.1292263646
| 24> P -1.7594080975 -0.0695155589 0.4606422784
| 25> S -1.1180248687 0.4312924451 2.2422007586
| 26> O -2.9222455894 0.8603032083 -0.0617173158
| 27> C -3.5775315004 0.6576529846 -1.3286066813
| 28> O -2.5317439527 -1.4805596233 0.4681111344
| 29> C -1.9373076921 -2.6459703305 1.0456129685
| 30> H 2.2612140049 -4.0805286448 -3.3869579806
| 31> H 1.081250905 -3.0967199258 -2.507509586
| 32> H 2.2671238154 -2.3179554432 -3.5590593803
| 33> H 4.1114310623 -3.0324028875 -2.0404640491
| 34> H 2.9155278439 -3.8606877054 -0.9912226247
| 35> H 2.8553042322 0.1501615306 0.6228931327
| 36> H 1.3547777123 -0.3476025246 1.4544882085
| 37> H 0.2727249141 3.7348126625 1.5883127759
| 38> H 2.0214336094 3.8815882205 1.9510387785
| 39> H 1.2455969956 5.8170924117 0.5775783413
| 40> H 2.3871887541 4.8258095139 -0.3442732899
| 41> H 0.6477491922 4.7109063678 -0.6639630491
| 42> H -4.3030998777 1.4635956396 -1.4002602958
| 43> H -4.0690205807 -0.3136759227 -1.3414685928
| 44> H -2.8488197347 0.7232483816 -2.1365805595
| 45> H -0.9790984266 -2.8701113946 0.5741614603
| 46> H -2.6462915498 -3.4511840813 0.8744582714
| 47> H -1.7810129169 -2.4909010507 2.1138705547
| 48> *
| 49>
| 50>                          ****END OF INPUT****

CARTESIAN COORDINATES (ANGSTROEM)
---------------------------------
  C      2.106715   -3.140454   -2.868121
  C      3.075857   -3.043978   -1.700426
  O      2.902408   -1.792513   -1.007893
  C      2.040950   -1.738392   -0.013860
  O      1.426781   -2.685422    0.424460
  C      1.879907   -0.318322    0.498015
  C      1.076187    0.476469   -0.533476
  H      1.679447    0.634312   -1.432569
  C      0.613412    1.827417   -0.013038
  O     -0.518535    2.234939   -0.177878
  O      1.571478    2.464019    0.600885
  C      1.279562    3.762163    1.161868
  C      1.400128    4.850979    0.108856
  S     -0.394056   -0.424994   -1.129226
  P     -1.759408   -0.069516    0.460642
  S     -1.118025    0.431292    2.242201
  O     -2.922246    0.860303   -0.061717
  C     -3.577532    0.657653   -1.328607
  O     -2.531744   -1.480560    0.468111
  C     -1.937308   -2.645970    1.045613
  H      2.261214   -4.080529   -3.386958
  H      1.081251   -3.096720   -2.507510
  H      2.267124   -2.317955   -3.559059
  H      4.111431   -3.032403   -2.040464
  H      2.915528   -3.860688   -0.991223
  H      2.855304    0.150162    0.622893
  H      1.354778   -0.347603    1.454488
  H      0.272725    3.734813    1.588313
  H      2.021434    3.881588    1.951039
  H      1.245597    5.817092    0.577578
  H      2.387189    4.825810   -0.344273
  H      0.647749    4.710906   -0.663963
  H     -4.303100    1.463596   -1.400260
  H     -4.069021   -0.313676   -1.341469
  H     -2.848820    0.723248   -2.136581
  H     -0.979098   -2.870111    0.574161
  H     -2.646292   -3.451184    0.874458
  H     -1.781013   -2.490901    2.113871

 Total Charge           Charge          ....    0
 Multiplicity           Mult            ....    1
 Number of Electrons    NEL             ....  174
 Basis Dimension        Dim             ....  510

ORBITAL ENERGIES
----------------

  NO   OCC          E(Eh)            E(eV)
   0   2.0000     -88.578462     -2410.3425
   1   2.0000     -88.526689     -2408.9337
   2   2.0000     -76.920961     -2093.1258
   3   2.0000     -19.016585      -517.4676
   4   2.0000     -19.008476      -517.2469
   5   2.0000     -18.995582      -516.8961
   6   2.0000     -18.989374      -516.7271
   7   2.0000     -18.951756      -515.7035
   8   2.0000     -18.947388      -515.5846
   9   2.0000     -10.178596      -276.9737
  10   2.0000     -10.169633      -276.7298
  11   2.0000     -10.102944      -274.9151
  12   2.0000     -10.089619      -274.5525
  13   2.0000     -10.085807      -274.4488
  14   2.0000     -10.084429      -274.4113
  15   2.0000     -10.077153      -274.2133
  16   2.0000     -10.053091      -273.5585
  17   2.0000     -10.020443      -272.6701
  18   2.0000     -10.019754      -272.6514
  19   2.0000      -7.872999      -214.2352
  20   2.0000      -7.822050      -212.8488
  21   2.0000      -6.598924      -179.5659
  22   2.0000      -5.820055      -158.3717
  23   2.0000      -5.816855      -158.2847
  24   2.0000      -5.809861      -158.0944
  25   2.0000      -5.769886      -157.0066
  26   2.0000      -5.762465      -156.8046
  27   2.0000      -5.761612      -156.7814
  28   2.0000      -4.744574      -129.1064
  29   2.0000      -4.744020      -129.0914
  30   2.0000      -4.742535      -129.0509
  31   2.0000      -1.096240       -29.8302
  32   2.0000      -1.086433       -29.5633
  33   2.0000      -1.051312       -28.6076
  34   2.0000      -1.008030       -27.4299
  35   2.0000      -1.002881       -27.2898
  36   2.0000      -0.995193       -27.0806
  37   2.0000      -0.814678       -22.1685
  38   2.0000      -0.749058       -20.3829
  39   2.0000      -0.746031       -20.3005
  40   2.0000      -0.727803       -19.8045
  41   2.0000      -0.695346       -18.9213
  42   2.0000      -0.667163       -18.1544
  43   2.0000      -0.662042       -18.0151
  44   2.0000      -0.656233       -17.8570
  45   2.0000      -0.623447       -16.9649
  46   2.0000      -0.600391       -16.3375
  47   2.0000      -0.540675       -14.7125
  48   2.0000      -0.527451       -14.3527
  49   2.0000      -0.525087       -14.2883
  50   2.0000      -0.506568       -13.7844
  51   2.0000      -0.490588       -13.3496
  52   2.0000      -0.481682       -13.1072
  53   2.0000      -0.473551       -12.8860
  54   2.0000      -0.462729       -12.5915
  55   2.0000      -0.455136       -12.3849
  56   2.0000      -0.450278       -12.2527
  57   2.0000      -0.446600       -12.1526
  58   2.0000      -0.437139       -11.8952
  59   2.0000      -0.424316       -11.5462
  60   2.0000      -0.421570       -11.4715
  61   2.0000      -0.412066       -11.2129
  62   2.0000      -0.410579       -11.1724
  63   2.0000      -0.406389       -11.0584
  64   2.0000      -0.399767       -10.8782
  65   2.0000      -0.376979       -10.2581
  66   2.0000      -0.373706       -10.1690
  67   2.0000      -0.366813        -9.9815
  68   2.0000      -0.359616        -9.7856
  69   2.0000      -0.354448        -9.6450
  70   2.0000      -0.347607        -9.4589
  71   2.0000      -0.342198        -9.3117
  72   2.0000      -0.339232        -9.2310
  73   2.0000      -0.330949        -9.0056
  74   2.0000      -0.319137        -8.6842
  75   2.0000      -0.312578        -8.5057
  76   2.0000      -0.310872        -8.4592
  77   2.0000      -0.307403        -8.3648
  78   2.0000      -0.290786        -7.9127
  79   2.0000      -0.288967        -7.8632
  80   2.0000      -0.283480        -7.7139
  81   2.0000      -0.275691        -7.5019
  82   2.0000      -0.268641        -7.3101
  83   2.0000      -0.251411        -6.8412
  84   2.0000      -0.241452        -6.5702
  85   2.0000      -0.225716        -6.1421
  86   2.0000      -0.222449        -6.0531
  87   0.0000      -0.052852        -1.4382
  88   0.0000      -0.041951        -1.1416
  89   0.0000      -0.020805        -0.5661
  90   0.0000      -0.002172        -0.0591
  91   0.0000       0.012145         0.3305

MULLIKEN ATOMIC CHARGES
-----------------------
   0 C :   -0.504969
   1 C :   -0.129019
   2 O :   -0.175318
   3 C :    0.416676
   4 O :   -0.461604
   5 C :   -0.489261
   6 C :    0.073854
   7 H :    0.245343
   8 C :    0.292931
   9 O :   -0.446655
  10 O :   -0.165053
  11 C :   -0.133050
  12 C :   -0.500304
  13 S :   -0.192138
  14 P :    0.796115
  15 S :   -0.503480
  16 O :   -0.351578
  17 C :   -0.304989
  18 O :   -0.386106
  19 C :   -0.319359
  20 H :    0.172517
  21 H :    0.169563
  22 H :    0.170697
  23 H :    0.176257
  24 H :    0.176449
  25 H :    0.206248
  26 H :    0.213861
  27 H :    0.176186
  28 H :    0.180372
  29 H :    0.173944
  30 H :    0.167752
  31 H :    0.173810
  32 H :    0.182059
  33 H :    0.185981
  34 H :    0.179014
  35 H :    0.179337
  36 H :    0.175511
  37 H :    0.178403
Sum of atomic charges:   -0.0000000

LOEWDIN ATOMIC CHARGES
----------------------
   0 C :   -0.392547
   1 C :    0.036968
   2 O :   -0.585784
   3 C :    0.346603
   4 O :   -0.490530
   5 C :   -0.204226
   6 C :   -0.180880
   7 H :    0.224547
   8 C :    0.350927
   9 O :   -0.500271
  10 O :   -0.566486
  11 C :    0.040750
  12 C :   -0.389659
  13 S :    0.231889
  14 P :    0.412423
  15 S :   -0.110660
  16 O :   -0.672051
  17 C :   -0.044107
  18 O :   -0.703885
  19 C :   -0.062071
  20 H :    0.168659
  21 H :    0.162526
  22 H :    0.162632
  23 H :    0.190283
  24 H :    0.191674
  25 H :    0.203699
  26 H :    0.196625
  27 H :    0.192355
  28 H :    0.192602
  29 H :    0.169784
  30 H :    0.163621
  31 H :    0.164371
  32 H :    0.191699
  33 H :    0.181036
  34 H :    0.179344
  35 H :    0.185345
  36 H :    0.186142
  37 H :    0.176656

  Mayer bond orders larger than 0.100000
B(  0-C ,  1-C ) :   0.9238 B(  0-C , 20-H ) :   0.9595 B(  0-C , 21-H ) :   0.9678
B(  0-C , 22-H ) :   0.9690 B(  1-C ,  2-O ) :   0.7865 B(  1-C , 23-H ) :   0.9527
B(  1-C , 24-H ) :   0.9648 B(  2-O ,  3-C ) :   1.0662 B(  3-C ,  4-O ) :   1.7658
B(  3-C ,  5-C ) :   0.9228 B(  5-C ,  6-C ) :   0.8863 B(  5-C , 25-H ) :   0.9216
B(  5-C , 26-H ) :   0.9802 B(  6-C ,  7-H ) :   0.8521 B(  6-C ,  8-C ) :   0.9737
B(  6-C , 13-S ) :   0.7997 B(  8-C ,  9-O ) :   1.7541 B(  8-C , 10-O ) :   1.1529
B( 10-O , 11-C ) :   0.7805 B( 11-C , 12-C ) :   0.9351 B( 11-C , 27-H ) :   0.9631
B( 11-C , 28-H ) :   0.9501 B( 12-C , 29-H ) :   0.9580 B( 12-C , 30-H ) :   0.9678
B( 12-C , 31-H ) :   0.9690 B( 13-S , 14-P ) :   1.0104 B( 14-P , 15-S ) :   1.7523
B( 14-P , 16-O ) :   1.1778 B( 14-P , 18-O ) :   1.0119 B( 16-O , 17-C ) :   0.7927
B( 17-C , 32-H ) :   0.9542 B( 17-C , 33-H ) :   0.9535 B( 17-C , 34-H ) :   0.9477
B( 18-O , 19-C ) :   0.8278 B( 19-C , 35-H ) :   0.9423 B( 19-C , 36-H ) :   0.9584
B( 19-C , 37-H ) :   0.9549

Dispersion correction           -0.017736720
FINAL SINGLE POINT ENERGY     -1981.460802794772

DIPOLE MOMENT
-------------

Method             : SCF
Type of density    : Electron Density
Multiplicity       :   1
Irrep              :   0
Energy             : -1981.4807330521111908 Eh
Relativity type    :
Basis              : AO
                                X                 Y                 Z
Electronic contribution:     -7.711828226       0.113067472       7.702996634
Nuclear contribution   :      9.564277399       0.130843434      -9.866465190
                        -----------------------------------------
Total Dipole Moment    :      1.852449173       0.243910906      -2.163468556
                        -----------------------------------------
Magnitude (a.u.)       :      2.858610967
Magnitude (Debye)      :      7.266011639

Rotational constants in cm-1:             0.010917             0.008430             0.006039
Rotational constants in MHz :           327.274812           252.724296           181.036799

                             ****ORCA TERMINATED NORMALLY****
TOTAL RUN TIME: 0 days 0 hours 1 minutes 43 seconds 425 msec
