                         Program Version 6.0.0  -   RELEASE  -
|  1> ! pbe def2-sv(p) def2/J RI DEFGRID1 loosescf d4 GCP(DFT/SV(P)) printgap
|  2> %output
|  3>     printlevel normal
|  4> end
|  5> * xyz 0 1
|  6> C 5.3226190702 0.3999762679 -0.6908661152
|  7> C 4.2864120684 -0.6081625445 -1.1496913794
|  8> O 3.3098720537 -0.8481752181 -0.1175141505
|  9> P 1.8965270517 -0.1046100606 -0.0846115476
| 10> S 2.0109145316 1.854773112 -0.1749054049
| 11> O 1.3033572709 -0.7429012329 1.2317183771
| 12> C 1.5486176055 -0.1808750532 2.5382824733
| 13> C 0.4544736974 -0.6580134056 3.47012659
| 14> S 0.8603088412 -1.0690563138 -1.6409672728
| 15> C -0.1399777604 0.3103864521 -2.2753226842
| 16> S -1.9352996323 0.1407865434 -2.0293027693
| 17> P -2.0472950111 0.0617289895 0.0892618141
| 18> S -3.8370230325 0.359101019 0.8232929453
| 19> O -0.9073851195 1.0273769347 0.6284001554
| 20> C -1.2368510982 2.3637404793 1.0556959035
| 21> C -1.4968739729 3.2853442709 -0.1184698723
| 22> O -1.3362589526 -1.3038019368 0.4757461312
| 23> C -1.8986015753 -2.5723818774 0.087211372
| 24> C -2.7483809726 -3.1516954088 1.2007814851
| 25> H 6.0766931088 0.5127311462 -1.4630292215
| 26> H 4.8560025337 1.36535557 -0.5077791118
| 27> H 5.7950257462 0.0590758431 0.2261486546
| 28> H 4.7374921373 -1.5843744939 -1.3369290164
| 29> H 3.7784087091 -0.2636590277 -2.0550658337
| 30> H 2.5331025446 -0.520191624 2.8708360755
| 31> H 1.556649918 0.9113438617 2.4535491849
| 32> H 0.6117271467 -0.2323061694 4.4559453761
| 33> H -0.5177720319 -0.3474464187 3.0941142652
| 34> H 0.4707203401 -1.7419739431 3.53607608
| 35> H -0.0161943723 0.3372427524 -3.3550535391
| 36> H 0.2176335845 1.2344755328 -1.8148463422
| 37> H -2.1143664666 2.3107989447 1.7077672487
| 38> H -0.3650506272 2.6873138188 1.6263160758
| 39> H -2.3367324096 2.9137292001 -0.7051859785
| 40> H -1.7385899297 4.2751984902 0.2549218252
| 41> H -0.6139795944 3.3526610644 -0.750012507
| 42> H -2.4870448458 -2.4438874641 -0.8284274344
| 43> H -1.0332017638 -3.2042389412 -0.1263945983
| 44> H -3.5946653935 -2.4996676777 1.4065099212
| 45> H -3.1164222765 -4.1267324411 0.8982548286
| 46> H -2.1578138249 -3.2536945992 2.1068679002
| 47> *
| 48>
| 49>                          ****END OF INPUT****

CARTESIAN COORDINATES (ANGSTROEM)
---------------------------------
  C      5.322619    0.399976   -0.690866
  C      4.286412   -0.608163   -1.149691
  O      3.309872   -0.848175   -0.117514
  P      1.896527   -0.104610   -0.084612
  S      2.010915    1.854773   -0.174905
  O      1.303357   -0.742901    1.231718
  C      1.548618   -0.180875    2.538282
  C      0.454474   -0.658013    3.470127
  S      0.860309   -1.069056   -1.640967
  C     -0.139978    0.310386   -2.275323
  S     -1.935300    0.140787   -2.029303
  P     -2.047295    0.061729    0.089262
  S     -3.837023    0.359101    0.823293
  O     -0.907385    1.027377    0.628400
  C     -1.236851    2.363740    1.055696
  C     -1.496874    3.285344   -0.118470
  O     -1.336259   -1.303802    0.475746
  C     -1.898602   -2.572382    0.087211
  C     -2.748381   -3.151695    1.200781
  H      6.076693    0.512731   -1.463029
  H      4.856003    1.365356   -0.507779
  H      5.795026    0.059076    0.226149
  H      4.737492   -1.584374   -1.336929
  H      3.778409   -0.263659   -2.055066
  H      2.533103   -0.520192    2.870836
  H      1.556650    0.911344    2.453549
  H      0.611727   -0.232306    4.455945
  H     -0.517772   -0.347446    3.094114
  H      0.470720   -1.741974    3.536076
  H     -0.016194    0.337243   -3.355054
  H      0.217634    1.234476   -1.814846
  H     -2.114366    2.310799    1.707767
  H     -0.365051    2.687314    1.626316
  H     -2.336732    2.913729   -0.705186
  H     -1.738590    4.275198    0.254922
  H     -0.613980    3.352661   -0.750013
  H     -2.487045   -2.443887   -0.828427
  H     -1.033202   -3.204239   -0.126395
  H     -3.594665   -2.499668    1.406510
  H     -3.116422   -4.126732    0.898255
  H     -2.157814   -3.253695    2.106868

 Total Charge           Charge          ....    0
 Multiplicity           Mult            ....    1
 Number of Electrons    NEL             ....  202
 Basis Dimension        Dim             ....  334

ORBITAL ENERGIES
----------------

  NO   OCC          E(Eh)            E(eV)
   0   2.0000     -88.051226     -2395.9957
   1   2.0000     -88.045273     -2395.8337
   2   2.0000     -87.992622     -2394.4010
   3   2.0000     -87.986735     -2394.2408
   4   2.0000     -76.430003     -2079.7661
   5   2.0000     -76.425696     -2079.6489
   6   2.0000     -18.793598      -511.3998
   7   2.0000     -18.793472      -511.3964
   8   2.0000     -18.789011      -511.2750
   9   2.0000     -18.786673      -511.2114
  10   2.0000      -9.960302      -271.0336
  11   2.0000      -9.954789      -270.8836
  12   2.0000      -9.951859      -270.8038
  13   2.0000      -9.949635      -270.7433
  14   2.0000      -9.946891      -270.6687
  15   2.0000      -9.882671      -268.9211
  16   2.0000      -9.882492      -268.9163
  17   2.0000      -9.878056      -268.7956
  18   2.0000      -9.877910      -268.7916
  19   2.0000      -7.696225      -209.4249
  20   2.0000      -7.690280      -209.2631
  21   2.0000      -7.637478      -207.8263
  22   2.0000      -7.631923      -207.6752
  23   2.0000      -6.427511      -174.9015
  24   2.0000      -6.423274      -174.7862
  25   2.0000      -5.724069      -155.7598
  26   2.0000      -5.720713      -155.6685
  27   2.0000      -5.718442      -155.6067
  28   2.0000      -5.714371      -155.4959
  29   2.0000      -5.713190      -155.4638
  30   2.0000      -5.707420      -155.3068
  31   2.0000      -5.666196      -154.1850
  32   2.0000      -5.660832      -154.0391
  33   2.0000      -5.658407      -153.9731
  34   2.0000      -5.657453      -153.9471
  35   2.0000      -5.652619      -153.8156
  36   2.0000      -5.652005      -153.7989
  37   2.0000      -4.649824      -126.5281
  38   2.0000      -4.649170      -126.5103
  39   2.0000      -4.648320      -126.4872
  40   2.0000      -4.645711      -126.4162
  41   2.0000      -4.645453      -126.4092
  42   2.0000      -4.643436      -126.3543
  43   2.0000      -0.989362       -26.9219
  44   2.0000      -0.985477       -26.8162
  45   2.0000      -0.944484       -25.7007
  46   2.0000      -0.943624       -25.6773
  47   2.0000      -0.765189       -20.8218
  48   2.0000      -0.722368       -19.6566
  49   2.0000      -0.708679       -19.2841
  50   2.0000      -0.686190       -18.6722
  51   2.0000      -0.680111       -18.5067
  52   2.0000      -0.678889       -18.4735
  53   2.0000      -0.654460       -17.8088
  54   2.0000      -0.641331       -17.4515
  55   2.0000      -0.596446       -16.2301
  56   2.0000      -0.591061       -16.0836
  57   2.0000      -0.573341       -15.6014
  58   2.0000      -0.565537       -15.3890
  59   2.0000      -0.560079       -15.2405
  60   2.0000      -0.508282       -13.8311
  61   2.0000      -0.496293       -13.5048
  62   2.0000      -0.481335       -13.0978
  63   2.0000      -0.469266       -12.7694
  64   2.0000      -0.451274       -12.2798
  65   2.0000      -0.449681       -12.2365
  66   2.0000      -0.440039       -11.9741
  67   2.0000      -0.431474       -11.7410
  68   2.0000      -0.427960       -11.6454
  69   2.0000      -0.419186       -11.4066
  70   2.0000      -0.409461       -11.1420
  71   2.0000      -0.401072       -10.9137
  72   2.0000      -0.395003       -10.7486
  73   2.0000      -0.387773       -10.5518
  74   2.0000      -0.382226       -10.4009
  75   2.0000      -0.372358       -10.1324
  76   2.0000      -0.362604        -9.8670
  77   2.0000      -0.356138        -9.6910
  78   2.0000      -0.354197        -9.6382
  79   2.0000      -0.350583        -9.5399
  80   2.0000      -0.344642        -9.3782
  81   2.0000      -0.336684        -9.1616
  82   2.0000      -0.335649        -9.1335
  83   2.0000      -0.332059        -9.0358
  84   2.0000      -0.330090        -8.9822
  85   2.0000      -0.323575        -8.8049
  86   2.0000      -0.317008        -8.6262
  87   2.0000      -0.301174        -8.1954
  88   2.0000      -0.296062        -8.0563
  89   2.0000      -0.294832        -8.0228
  90   2.0000      -0.286354        -7.7921
  91   2.0000      -0.272559        -7.4167
  92   2.0000      -0.267073        -7.2674
  93   2.0000      -0.263536        -7.1712
  94   2.0000      -0.258471        -7.0334
  95   2.0000      -0.237476        -6.4620
  96   2.0000      -0.227091        -6.1795
  97   2.0000      -0.212265        -5.7760
  98   2.0000      -0.210762        -5.7351
  99   2.0000      -0.202207        -5.5023
 100   2.0000      -0.198744        -5.4081
 101   0.0000      -0.041734        -1.1356
 102   0.0000      -0.029088        -0.7915
 103   0.0000      -0.021739        -0.5916
 104   0.0000      -0.002034        -0.0553
 105   0.0000       0.011191         0.3045

MULLIKEN ATOMIC CHARGES
-----------------------
   0 C :   -0.290056
   1 C :   -0.003897
   2 O :   -0.378664
   3 P :    0.630684
   4 S :   -0.340661
   5 O :   -0.354543
   6 C :   -0.010217
   7 C :   -0.290323
   8 S :   -0.082335
   9 C :   -0.364334
  10 S :   -0.088375
  11 P :    0.596145
  12 S :   -0.319766
  13 O :   -0.371892
  14 C :   -0.007412
  15 C :   -0.323038
  16 O :   -0.347856
  17 C :   -0.012924
  18 C :   -0.287459
  19 H :    0.106901
  20 H :    0.127250
  21 H :    0.111123
  22 H :    0.105878
  23 H :    0.094078
  24 H :    0.101416
  25 H :    0.108603
  26 H :    0.106748
  27 H :    0.134531
  28 H :    0.114197
  29 H :    0.182557
  30 H :    0.212952
  31 H :    0.115108
  32 H :    0.109756
  33 H :    0.124252
  34 H :    0.110413
  35 H :    0.131320
  36 H :    0.098687
  37 H :    0.104671
  38 H :    0.127048
  39 H :    0.105615
  40 H :    0.113821
Sum of atomic charges:   -0.0000000

LOEWDIN ATOMIC CHARGES
----------------------
   0 C :   -0.362859
   1 C :   -0.117794
   2 O :   -0.253101
   3 P :    0.578114
   4 S :   -0.304129
   5 O :   -0.228545
   6 C :   -0.112978
   7 C :   -0.352908
   8 S :    0.100754
   9 C :   -0.482322
  10 S :    0.076887
  11 P :    0.561476
  12 S :   -0.314628
  13 O :   -0.233804
  14 C :   -0.126664
  15 C :   -0.368686
  16 O :   -0.229685
  17 C :   -0.121683
  18 C :   -0.362514
  19 H :    0.128416
  20 H :    0.123738
  21 H :    0.124681
  22 H :    0.118029
  23 H :    0.103794
  24 H :    0.111968
  25 H :    0.106656
  26 H :    0.128537
  27 H :    0.128098
  28 H :    0.125463
  29 H :    0.139716
  30 H :    0.123515
  31 H :    0.108562
  32 H :    0.114698
  33 H :    0.120771
  34 H :    0.131326
  35 H :    0.122527
  36 H :    0.103227
  37 H :    0.114273
  38 H :    0.124238
  39 H :    0.127871
  40 H :    0.124968

  Mayer bond orders larger than 0.100000
B(  0-C ,  1-C ) :   1.1659 B(  0-C , 19-H ) :   0.9401 B(  0-C , 20-H ) :   0.9331
B(  0-C , 21-H ) :   0.9477 B(  1-C ,  2-O ) :   0.9069 B(  1-C , 22-H ) :   0.9365
B(  1-C , 23-H ) :   0.9129 B(  2-O ,  3-P ) :   1.1009 B(  3-P ,  4-S ) :   1.5783
B(  3-P ,  5-O ) :   1.1560 B(  3-P ,  8-S ) :   0.9774 B(  4-S ,  8-S ) :   0.1180
B(  5-O ,  6-C ) :   0.8971 B(  6-C ,  7-C ) :   1.1631 B(  6-C , 24-H ) :   0.9307
B(  6-C , 25-H ) :   0.9096 B(  7-C , 26-H ) :   0.9396 B(  7-C , 27-H ) :   0.9420
B(  7-C , 28-H ) :   0.9485 B(  8-S ,  9-C ) :   1.0053 B(  9-C , 10-S ) :   0.9803
B(  9-C , 29-H ) :   0.9099 B(  9-C , 30-H ) :   0.8467 B( 10-S , 11-P ) :   0.9625
B( 11-P , 12-S ) :   1.6499 B( 11-P , 13-O ) :   1.0860 B( 11-P , 16-O ) :   1.1088
B( 13-O , 14-C ) :   0.8927 B( 14-C , 15-C ) :   1.1731 B( 14-C , 31-H ) :   0.9109
B( 14-C , 32-H ) :   0.9186 B( 15-C , 33-H ) :   0.9354 B( 15-C , 34-H ) :   0.9384
B( 15-C , 35-H ) :   0.9341 B( 16-O , 17-C ) :   0.9045 B( 17-C , 18-C ) :   1.1667
B( 17-C , 36-H ) :   0.9113 B( 17-C , 37-H ) :   0.9305 B( 18-C , 38-H ) :   0.9327
B( 18-C , 39-H ) :   0.9400 B( 18-C , 40-H ) :   0.9474

Dispersion correction           -0.069430761
FINAL SINGLE POINT ENERGY     -2929.522088030787

DIPOLE MOMENT
-------------

Method             : SCF
Type of density    : Electron Density
Multiplicity       :   1
Irrep              :   0
Energy             : -2929.6409736015107228 Eh
Relativity type    :
Basis              : AO
                                X                 Y                 Z
Electronic contribution:     -8.873931507      -0.189825448     -11.161914750
Nuclear contribution   :     10.143637376      -0.268837964      11.087703058
                        -----------------------------------------
Total Dipole Moment    :      1.269705869      -0.458663411      -0.074211692
                        -----------------------------------------
Magnitude (a.u.)       :      1.352047519
Magnitude (Debye)      :      3.436631679

Rotational constants in cm-1:             0.011816             0.005850             0.005683
Rotational constants in MHz :           354.226104           175.369734           170.361211

                             ****ORCA TERMINATED NORMALLY****
TOTAL RUN TIME: 0 days 0 hours 0 minutes 22 seconds 599 msec
