                         Program Version 6.0.0  -   RELEASE  -
|  1> ! pbe def2-sv(p) def2/J RI DEFGRID1 loosescf d4 GCP(DFT/SV(P)) printgap
|  2> %output
|  3>     printlevel normal
|  4> end
|  5> * xyz 0 1
|  6> C 3.3195934643 -1.131956102 -3.0515903064
|  7> C 1.9663863567 -0.9127056606 -2.4067405026
|  8> O 2.0088918658 0.1964146454 -1.4764185634
|  9> P 2.1966915181 0.0322920395 0.0771105925
| 10> S 2.2521717504 1.7742309152 0.9612569036
| 11> O 3.5207592424 -0.853109221 0.1273637839
| 12> C 3.9940764101 -1.586492946 1.2707701295
| 13> C 4.2419017299 -0.7046839502 2.4769446252
| 14> S 0.7135409611 -1.3562060598 0.7654881754
| 15> C -0.1213443029 -0.3221111597 2.0051138683
| 16> S -1.9285984244 -0.3856572298 1.8937157805
| 17> P -2.1747102848 0.2139529546 -0.1065775995
| 18> S -0.9245657131 1.5236787403 -0.8840099011
| 19> O -3.7053573165 0.6333237367 -0.192516936
| 20> C -4.1567180194 1.9779307714 0.0399222278
| 21> C -3.9625151002 2.4054823886 1.4804167915
| 22> O -2.1863338759 -1.2136495005 -0.7912174234
| 23> C -2.0086638307 -1.3997855448 -2.2086746999
| 24> C -3.2407696415 -0.9917762868 -2.9891528563
| 25> H 4.0546289025 -1.4135467029 -2.3029507878
| 26> H 3.2346153549 -1.9227948278 -3.7902849169
| 27> H 3.6489193979 -0.2180358593 -3.5382977028
| 28> H 1.6245398841 -1.8076709467 -1.8780961818
| 29> H 1.2219682491 -0.6144766803 -3.148470048
| 30> H 3.2635103448 -2.3666613782 1.5033863507
| 31> H 4.9207999629 -2.041545245 0.9165025523
| 32> H 4.6806128184 -1.2987377936 3.2721450479
| 33> H 4.9162874691 0.1083544962 2.2193218373
| 34> H 3.3071536507 -0.2710767108 2.8285059099
| 35> H 0.2310466018 0.706791992 1.8803328234
| 36> H 0.1198009414 -0.7006629277 2.9955915337
| 37> H -3.6125046185 2.6465637045 -0.635146919
| 38> H -5.2122541581 1.9502606151 -0.2338855798
| 39> H -2.8992392885 2.489257681 1.703826248
| 40> H -4.4295833241 3.3728986099 1.6350934359
| 41> H -4.4055223995 1.6763808434 2.1542431197
| 42> H -1.1390129302 -0.8146361359 -2.5266591427
| 43> H -1.7977987965 -2.4654081674 -2.3086573912
| 44> H -4.1173667171 -1.49694282 -2.5929606191
| 45> H -3.3903846074 0.0840740925 -2.9122120803
| 46> H -3.1094327525 -1.2575973257 -4.0334552858
| 47> *
| 48>
| 49>                          ****END OF INPUT****

CARTESIAN COORDINATES (ANGSTROEM)
---------------------------------
  C      3.319593   -1.131956   -3.051590
  C      1.966386   -0.912706   -2.406741
  O      2.008892    0.196415   -1.476419
  P      2.196692    0.032292    0.077111
  S      2.252172    1.774231    0.961257
  O      3.520759   -0.853109    0.127364
  C      3.994076   -1.586493    1.270770
  C      4.241902   -0.704684    2.476945
  S      0.713541   -1.356206    0.765488
  C     -0.121344   -0.322111    2.005114
  S     -1.928598   -0.385657    1.893716
  P     -2.174710    0.213953   -0.106578
  S     -0.924566    1.523679   -0.884010
  O     -3.705357    0.633324   -0.192517
  C     -4.156718    1.977931    0.039922
  C     -3.962515    2.405482    1.480417
  O     -2.186334   -1.213650   -0.791217
  C     -2.008664   -1.399786   -2.208675
  C     -3.240770   -0.991776   -2.989153
  H      4.054629   -1.413547   -2.302951
  H      3.234615   -1.922795   -3.790285
  H      3.648919   -0.218036   -3.538298
  H      1.624540   -1.807671   -1.878096
  H      1.221968   -0.614477   -3.148470
  H      3.263510   -2.366661    1.503386
  H      4.920800   -2.041545    0.916503
  H      4.680613   -1.298738    3.272145
  H      4.916287    0.108354    2.219322
  H      3.307154   -0.271077    2.828506
  H      0.231047    0.706792    1.880333
  H      0.119801   -0.700663    2.995592
  H     -3.612505    2.646564   -0.635147
  H     -5.212254    1.950261   -0.233886
  H     -2.899239    2.489258    1.703826
  H     -4.429583    3.372899    1.635093
  H     -4.405522    1.676381    2.154243
  H     -1.139013   -0.814636   -2.526659
  H     -1.797799   -2.465408   -2.308657
  H     -4.117367   -1.496943   -2.592961
  H     -3.390385    0.084074   -2.912212
  H     -3.109433   -1.257597   -4.033455

 Total Charge           Charge          ....    0
 Multiplicity           Mult            ....    1
 Number of Electrons    NEL             ....  202
 Basis Dimension        Dim             ....  334

ORBITAL ENERGIES
----------------

  NO   OCC          E(Eh)            E(eV)
   0   2.0000     -88.042227     -2395.7508
   1   2.0000     -88.041832     -2395.7400
   2   2.0000     -87.982043     -2394.1131
   3   2.0000     -87.980080     -2394.0597
   4   2.0000     -76.423643     -2079.5931
   5   2.0000     -76.422346     -2079.5578
   6   2.0000     -18.790785      -511.3233
   7   2.0000     -18.789690      -511.2935
   8   2.0000     -18.787682      -511.2388
   9   2.0000     -18.784886      -511.1627
  10   2.0000      -9.956953      -270.9425
  11   2.0000      -9.954698      -270.8811
  12   2.0000      -9.952879      -270.8316
  13   2.0000      -9.950708      -270.7725
  14   2.0000      -9.950344      -270.7626
  15   2.0000      -9.885909      -269.0093
  16   2.0000      -9.883813      -268.9522
  17   2.0000      -9.882121      -268.9062
  18   2.0000      -9.881800      -268.8974
  19   2.0000      -7.687416      -209.1852
  20   2.0000      -7.686378      -209.1570
  21   2.0000      -7.626508      -207.5278
  22   2.0000      -7.625404      -207.4978
  23   2.0000      -6.420638      -174.7145
  24   2.0000      -6.419805      -174.6918
  25   2.0000      -5.715387      -155.5236
  26   2.0000      -5.714193      -155.4911
  27   2.0000      -5.711869      -155.4279
  28   2.0000      -5.710908      -155.4017
  29   2.0000      -5.704248      -155.2205
  30   2.0000      -5.703537      -155.2011
  31   2.0000      -5.655364      -153.8903
  32   2.0000      -5.654507      -153.8670
  33   2.0000      -5.647216      -153.6686
  34   2.0000      -5.646757      -153.6561
  35   2.0000      -5.646075      -153.6375
  36   2.0000      -5.645244      -153.6149
  37   2.0000      -4.643349      -126.3519
  38   2.0000      -4.642595      -126.3314
  39   2.0000      -4.642192      -126.3205
  40   2.0000      -4.641591      -126.3041
  41   2.0000      -4.640867      -126.2844
  42   2.0000      -4.640400      -126.2717
  43   2.0000      -0.985816       -26.8254
  44   2.0000      -0.983523       -26.7630
  45   2.0000      -0.942781       -25.6544
  46   2.0000      -0.941448       -25.6181
  47   2.0000      -0.760933       -20.7061
  48   2.0000      -0.719476       -19.5779
  49   2.0000      -0.708497       -19.2792
  50   2.0000      -0.689668       -18.7668
  51   2.0000      -0.685639       -18.6572
  52   2.0000      -0.674214       -18.3463
  53   2.0000      -0.648967       -17.6593
  54   2.0000      -0.634567       -17.2674
  55   2.0000      -0.598722       -16.2921
  56   2.0000      -0.587061       -15.9747
  57   2.0000      -0.574691       -15.6381
  58   2.0000      -0.570799       -15.5322
  59   2.0000      -0.563074       -15.3220
  60   2.0000      -0.502935       -13.6856
  61   2.0000      -0.490384       -13.3440
  62   2.0000      -0.473727       -12.8908
  63   2.0000      -0.469334       -12.7712
  64   2.0000      -0.450142       -12.2490
  65   2.0000      -0.446798       -12.1580
  66   2.0000      -0.439412       -11.9570
  67   2.0000      -0.436472       -11.8770
  68   2.0000      -0.429866       -11.6973
  69   2.0000      -0.415658       -11.3106
  70   2.0000      -0.407668       -11.0932
  71   2.0000      -0.406202       -11.0533
  72   2.0000      -0.391093       -10.6422
  73   2.0000      -0.386055       -10.5051
  74   2.0000      -0.381228       -10.3737
  75   2.0000      -0.374087       -10.1794
  76   2.0000      -0.357796        -9.7361
  77   2.0000      -0.356716        -9.7067
  78   2.0000      -0.352513        -9.5924
  79   2.0000      -0.349790        -9.5183
  80   2.0000      -0.346171        -9.4198
  81   2.0000      -0.344717        -9.3802
  82   2.0000      -0.340155        -9.2561
  83   2.0000      -0.338465        -9.2101
  84   2.0000      -0.333547        -9.0763
  85   2.0000      -0.317662        -8.6440
  86   2.0000      -0.311960        -8.4889
  87   2.0000      -0.294869        -8.0238
  88   2.0000      -0.293676        -7.9913
  89   2.0000      -0.286770        -7.8034
  90   2.0000      -0.279647        -7.6096
  91   2.0000      -0.277220        -7.5435
  92   2.0000      -0.270177        -7.3519
  93   2.0000      -0.261958        -7.1282
  94   2.0000      -0.256689        -6.9849
  95   2.0000      -0.232355        -6.3227
  96   2.0000      -0.221622        -6.0306
  97   2.0000      -0.210522        -5.7286
  98   2.0000      -0.196862        -5.3569
  99   2.0000      -0.195706        -5.3254
 100   2.0000      -0.183914        -5.0046
 101   0.0000      -0.042498        -1.1564
 102   0.0000      -0.033088        -0.9004
 103   0.0000      -0.008177        -0.2225
 104   0.0000       0.008788         0.2391
 105   0.0000       0.018068         0.4917

MULLIKEN ATOMIC CHARGES
-----------------------
   0 C :   -0.275967
   1 C :   -0.038369
   2 O :   -0.344868
   3 P :    0.610272
   4 S :   -0.286276
   5 O :   -0.380944
   6 C :   -0.005416
   7 C :   -0.306224
   8 S :   -0.129635
   9 C :   -0.341988
  10 S :   -0.087783
  11 P :    0.602252
  12 S :   -0.311708
  13 O :   -0.371796
  14 C :   -0.002158
  15 C :   -0.319002
  16 O :   -0.360701
  17 C :   -0.027246
  18 C :   -0.299501
  19 H :    0.122197
  20 H :    0.106065
  21 H :    0.121524
  22 H :    0.102223
  23 H :    0.125540
  24 H :    0.106085
  25 H :    0.104387
  26 H :    0.108595
  27 H :    0.125414
  28 H :    0.120125
  29 H :    0.204680
  30 H :    0.177999
  31 H :    0.110636
  32 H :    0.104030
  33 H :    0.131834
  34 H :    0.113371
  35 H :    0.117853
  36 H :    0.123750
  37 H :    0.102607
  38 H :    0.118003
  39 H :    0.121849
  40 H :    0.108293
Sum of atomic charges:    0.0000000

LOEWDIN ATOMIC CHARGES
----------------------
   0 C :   -0.358522
   1 C :   -0.113618
   2 O :   -0.226028
   3 P :    0.571408
   4 S :   -0.281696
   5 O :   -0.248225
   6 C :   -0.119825
   7 C :   -0.368099
   8 S :    0.057852
   9 C :   -0.480336
  10 S :    0.092673
  11 P :    0.561121
  12 S :   -0.306583
  13 O :   -0.245117
  14 C :   -0.119513
  15 C :   -0.370022
  16 O :   -0.240096
  17 C :   -0.119646
  18 C :   -0.362046
  19 H :    0.126806
  20 H :    0.127911
  21 H :    0.130412
  22 H :    0.103377
  23 H :    0.119952
  24 H :    0.103686
  25 H :    0.118318
  26 H :    0.128498
  27 H :    0.130392
  28 H :    0.118653
  29 H :    0.122936
  30 H :    0.133531
  31 H :    0.110588
  32 H :    0.118119
  33 H :    0.123151
  34 H :    0.131235
  35 H :    0.123791
  36 H :    0.107809
  37 H :    0.117250
  38 H :    0.127289
  39 H :    0.124190
  40 H :    0.128422

  Mayer bond orders larger than 0.100000
B(  0-C ,  1-C ) :   1.1617 B(  0-C , 19-H ) :   0.9400 B(  0-C , 20-H ) :   0.9398
B(  0-C , 21-H ) :   0.9460 B(  1-C ,  2-O ) :   0.8995 B(  1-C , 22-H ) :   0.9176
B(  1-C , 23-H ) :   0.9225 B(  2-O ,  3-P ) :   1.1379 B(  3-P ,  4-S ) :   1.6448
B(  3-P ,  5-O ) :   1.0681 B(  3-P ,  8-S ) :   0.9307 B(  4-S ,  8-S ) :   0.1204
B(  4-S , 29-H ) :   0.1143 B(  5-O ,  6-C ) :   0.9184 B(  6-C ,  7-C ) :   1.1663
B(  6-C , 24-H ) :   0.9190 B(  6-C , 25-H ) :   0.9329 B(  7-C , 26-H ) :   0.9355
B(  7-C , 27-H ) :   0.9444 B(  7-C , 28-H ) :   0.9338 B(  8-S ,  9-C ) :   0.9978
B(  9-C , 10-S ) :   1.0007 B(  9-C , 29-H ) :   0.8461 B(  9-C , 30-H ) :   0.9103
B( 10-S , 11-P ) :   0.9574 B( 10-S , 12-S ) :   0.1140 B( 11-P , 12-S ) :   1.6196
B( 11-P , 13-O ) :   1.1021 B( 11-P , 16-O ) :   1.1186 B( 13-O , 14-C ) :   0.9084
B( 14-C , 15-C ) :   1.1666 B( 14-C , 31-H ) :   0.9153 B( 14-C , 32-H ) :   0.9340
B( 15-C , 33-H ) :   0.9353 B( 15-C , 34-H ) :   0.9377 B( 15-C , 35-H ) :   0.9442
B( 16-O , 17-C ) :   0.9125 B( 17-C , 18-C ) :   1.1622 B( 17-C , 36-H ) :   0.9028
B( 17-C , 37-H ) :   0.9353 B( 18-C , 38-H ) :   0.9463 B( 18-C , 39-H ) :   0.9400
B( 18-C , 40-H ) :   0.9396

Dispersion correction           -0.066650604
FINAL SINGLE POINT ENERGY     -2929.516054623697

DIPOLE MOMENT
-------------

Method             : SCF
Type of density    : Electron Density
Multiplicity       :   1
Irrep              :   0
Energy             : -2929.6339639817106217 Eh
Relativity type    :
Basis              : AO
                                X                 Y                 Z
Electronic contribution:     -1.219498319       4.241865448       7.975369355
Nuclear contribution   :      1.013845956      -5.588944927      -8.335959202
                        -----------------------------------------
Total Dipole Moment    :     -0.205652363      -1.347079479      -0.360589847
                        -----------------------------------------
Magnitude (a.u.)       :      1.409588966
Magnitude (Debye)      :      3.582890416

Rotational constants in cm-1:             0.012216             0.005394             0.004669
Rotational constants in MHz :           366.220211           161.696456           139.974443

                             ****ORCA TERMINATED NORMALLY****
TOTAL RUN TIME: 0 days 0 hours 0 minutes 21 seconds 404 msec
