                         Program Version 6.0.0  -   RELEASE  -
|  1> ! r2scan-3c def2/J RI DEFGRID2 scfconv6 printgap
|  2> %output
|  3>     printlevel normal
|  4> end
|  5> * xyz 0 1
|  6> C -0.7249381556 -0.0138210415 -1.21736e-05
|  7> O 0.6847608682 0.0650737059 -2.2376e-06
|  8> H -1.095709952 -0.5250173701 -0.8924947502
|  9> H -1.0923976361 1.0106129278 -7.36292e-05
| 10> H -1.0959033192 -0.5247381851 0.8926140554
| 11> H 1.053001125 -0.8291025456 0.0001349044
| 12> *
| 13>
| 14>                          ****END OF INPUT****

CARTESIAN COORDINATES (ANGSTROEM)
---------------------------------
  C     -0.724938   -0.013821   -0.000012
  O      0.684761    0.065074   -0.000002
  H     -1.095710   -0.525017   -0.892495
  H     -1.092398    1.010613   -0.000074
  H     -1.095903   -0.524738    0.892614
  H      1.053001   -0.829103    0.000135

 Total Charge           Charge          ....    0
 Multiplicity           Mult            ....    1
 Number of Electrons    NEL             ....   18
 Basis Dimension        Dim             ....   63

ORBITAL ENERGIES
----------------

  NO   OCC          E(Eh)            E(eV)
   0   2.0000     -18.947381      -515.5845
   1   2.0000     -10.070081      -274.0208
   2   2.0000      -0.982078       -26.7237
   3   2.0000      -0.648112       -17.6360
   4   2.0000      -0.474710       -12.9175
   5   2.0000      -0.406292       -11.0558
   6   2.0000      -0.393881       -10.7180
   7   2.0000      -0.301126        -8.1941
   8   2.0000      -0.237331        -6.4581
   9   0.0000       0.057055         1.5525
  10   0.0000       0.117773         3.2048
  11   0.0000       0.153760         4.1840
  12   0.0000       0.191907         5.2221
  13   0.0000       0.193235         5.2582

MULLIKEN ATOMIC CHARGES
-----------------------
   0 C :   -0.245922
   1 O :   -0.440643
   2 H :    0.124889
   3 H :    0.141101
   4 H :    0.124875
   5 H :    0.295699
Sum of atomic charges:   -0.0000000

LOEWDIN ATOMIC CHARGES
----------------------
   0 C :   -0.083422
   1 O :   -0.639880
   2 H :    0.146402
   3 H :    0.168971
   4 H :    0.146390
   5 H :    0.261539

  Mayer bond orders larger than 0.100000
B(  0-C ,  1-O ) :   0.9015 B(  0-C ,  2-H ) :   0.9702 B(  0-C ,  3-H ) :   0.9787
B(  0-C ,  4-H ) :   0.9701 B(  1-O ,  5-H ) :   0.9011

Dispersion correction           -0.000505368
FINAL SINGLE POINT ENERGY      -115.694896773875

DIPOLE MOMENT
-------------

Method             : SCF
Type of density    : Electron Density
Multiplicity       :   1
Irrep              :   0
Energy             :  -115.6990924898760937 Eh
Relativity type    :
Basis              : AO
                                X                 Y                 Z
Electronic contribution:      1.762552667       0.268424265      -0.000091685
Nuclear contribution   :     -2.082882974      -0.813595174       0.000169382
                        -----------------------------------------
Total Dipole Moment    :     -0.320330307      -0.545170910       0.000077697
                        -----------------------------------------
Magnitude (a.u.)       :      0.632315453
Magnitude (Debye)      :      1.607218155

Rotational constants in cm-1:             4.263530             0.836130             0.806458
Rotational constants in MHz :        127817.403344         25066.553462         24176.998526

                             ****ORCA TERMINATED NORMALLY****
TOTAL RUN TIME: 0 days 0 hours 0 minutes 7 seconds 433 msec
