                         Program Version 6.0.0  -   RELEASE  -
|  1> ! r2scan-3c def2/J RI DEFGRID2 scfconv6 printgap
|  2> %output
|  3>     printlevel normal
|  4> end
|  5> %cpcm
|  6>     smd true
|  7>     smdsolvent "water"
|  8> end
|  9> * xyz 0 1
| 10> C -0.7249381556 -0.0138210415 -1.21736e-05
| 11> O 0.6847608682 0.0650737059 -2.2376e-06
| 12> H -1.095709952 -0.5250173701 -0.8924947502
| 13> H -1.0923976361 1.0106129278 -7.36292e-05
| 14> H -1.0959033192 -0.5247381851 0.8926140554
| 15> H 1.053001125 -0.8291025456 0.0001349044
| 16> *
| 17>
| 18>                          ****END OF INPUT****

CARTESIAN COORDINATES (ANGSTROEM)
---------------------------------
  C     -0.724938   -0.013821   -0.000012
  O      0.684761    0.065074   -0.000002
  H     -1.095710   -0.525017   -0.892495
  H     -1.092398    1.010613   -0.000074
  H     -1.095903   -0.524738    0.892614
  H      1.053001   -0.829103    0.000135

 Total Charge           Charge          ....    0
 Multiplicity           Mult            ....    1
 Number of Electrons    NEL             ....   18
 Basis Dimension        Dim             ....   63

ORBITAL ENERGIES
----------------

  NO   OCC          E(Eh)            E(eV)
   0   2.0000     -18.950138      -515.6595
   1   2.0000     -10.061798      -273.7955
   2   2.0000      -0.983561       -26.7640
   3   2.0000      -0.641863       -17.4660
   4   2.0000      -0.471003       -12.8166
   5   2.0000      -0.401202       -10.9173
   6   2.0000      -0.391914       -10.6645
   7   2.0000      -0.302759        -8.2385
   8   2.0000      -0.241529        -6.5723
   9   0.0000       0.071415         1.9433
  10   0.0000       0.129493         3.5237
  11   0.0000       0.166813         4.5392
  12   0.0000       0.201055         5.4710
  13   0.0000       0.204023         5.5517

MULLIKEN ATOMIC CHARGES
-----------------------
   0 C :   -0.260767
   1 O :   -0.528160
   2 H :    0.142799
   3 H :    0.152301
   4 H :    0.142784
   5 H :    0.351042
Sum of atomic charges:   -0.0000000

LOEWDIN ATOMIC CHARGES
----------------------
   0 C :   -0.084392
   1 O :   -0.678697
   2 H :    0.155307
   3 H :    0.171647
   4 H :    0.155297
   5 H :    0.280838

  Mayer bond orders larger than 0.100000
B(  0-C ,  1-O ) :   0.8914 B(  0-C ,  2-H ) :   0.9672 B(  0-C ,  3-H ) :   0.9728
B(  0-C ,  4-H ) :   0.9672 B(  1-O ,  5-H ) :   0.8725

Dispersion correction           -0.000505368
FINAL SINGLE POINT ENERGY      -115.701603711783

DIPOLE MOMENT
-------------

Method             : SCF
Type of density    : Electron Density
Multiplicity       :   1
Irrep              :   0
Energy             :  -115.7057994277842567 Eh
Relativity type    :
Basis              : AO
                                X                 Y                 Z
Electronic contribution:      1.650508606       0.075050167      -0.000061078
Nuclear contribution   :     -2.082882974      -0.813595174       0.000169382
                        -----------------------------------------
Total Dipole Moment    :     -0.432374368      -0.738545007       0.000108304
                        -----------------------------------------
Magnitude (a.u.)       :      0.855801574
Magnitude (Debye)      :      2.175274728

Rotational constants in cm-1:             4.263530             0.836130             0.806458
Rotational constants in MHz :        127817.403344         25066.553462         24176.998526

                             ****ORCA TERMINATED NORMALLY****
TOTAL RUN TIME: 0 days 0 hours 0 minutes 9 seconds 811 msec
