                         Program Version 6.0.1  -  RELEASE   -
|  1> ! pbe def2-sv(p) def2/J RI DEFGRID1 loosescf d4 GCP(DFT/SV(P)) printgap
|  2> %output
|  3>     printlevel normal
|  4> end
|  5> * xyz 0 1
|  6> C 3.1830593956 -4.0299205203 -0.9809191795
|  7> C 3.9741173382 -2.7368101258 -1.0960039202
|  8> O 3.1908297592 -1.7221498667 -1.7557523831
|  9> C 2.4112056024 -0.9547848967 -1.0314005078
| 10> O 2.3186918227 -1.0014056382 0.1799361911
| 11> C 1.6405193189 0.0360696599 -1.8784254374
| 12> C 0.4408374091 0.5374509678 -1.0892266875
| 13> H -0.0380988413 1.3851797914 -1.5882479952
| 14> C 0.8327147 0.9783253618 0.309356844
| 15> O 0.1907126519 0.6621687546 1.2928565579
| 16> O 1.8532785103 1.7936305021 0.2999577622
| 17> C 2.2647780508 2.3761822356 1.5545226429
| 18> C 1.4480931871 3.6210431215 1.8597880599
| 19> S -0.8075905228 -0.7828242748 -0.9110309552
| 20> P -2.1630570173 0.2094212221 0.3868082682
| 21> S -2.2575743096 2.1616894046 0.2827839681
| 22> O -3.5347724243 -0.4729449512 -0.1206193649
| 23> C -4.0872608105 -0.1774355697 -1.4052972476
| 24> O -2.1663269872 -0.3895278134 1.8504052841
| 25> C -1.8848633737 -1.7729907615 2.1234795634
| 26> H 2.305664927 -3.8770508496 -0.3561644298
| 27> H 2.8615501853 -4.3602704634 -1.9644766924
| 28> H 3.8073020211 -4.7948501142 -0.531121858
| 29> H 4.8514539105 -2.8612830945 -1.7306783389
| 30> H 4.2649114068 -2.3685910437 -0.1081314988
| 31> H 1.3316572363 -0.4373826102 -2.8093611221
| 32> H 2.3006846642 0.875286369 -2.1074723462
| 33> H 2.146414188 1.6245392502 2.3396016822
| 34> H 3.3185208354 2.6130633047 1.4079220889
| 35> H 1.5592268846 4.3488666256 1.0610193827
| 36> H 0.3936421404 3.3659113623 1.9527954099
| 37> H 1.7886480814 4.0550842133 2.7938105625
| 38> H -4.1122394688 0.9026902491 -1.5607205938
| 39> H -5.0958872663 -0.5821790578 -1.390879753
| 40> H -3.4908571165 -0.6530115958 -2.1839576012
| 41> H -2.1615730276 -1.9183707504 3.1644534675
| 42> H -0.8192303715 -1.9577325835 1.9827419062
| 43> H -2.4735955764 -2.4163478171 1.470797562
| 44> *
| 45>
| 46>                          ****END OF INPUT****

CARTESIAN COORDINATES (ANGSTROEM)
---------------------------------
  C      3.183059   -4.029921   -0.980919
  C      3.974117   -2.736810   -1.096004
  O      3.190830   -1.722150   -1.755752
  C      2.411206   -0.954785   -1.031401
  O      2.318692   -1.001406    0.179936
  C      1.640519    0.036070   -1.878425
  C      0.440837    0.537451   -1.089227
  H     -0.038099    1.385180   -1.588248
  C      0.832715    0.978325    0.309357
  O      0.190713    0.662169    1.292857
  O      1.853279    1.793631    0.299958
  C      2.264778    2.376182    1.554523
  C      1.448093    3.621043    1.859788
  S     -0.807591   -0.782824   -0.911031
  P     -2.163057    0.209421    0.386808
  S     -2.257574    2.161689    0.282784
  O     -3.534772   -0.472945   -0.120619
  C     -4.087261   -0.177436   -1.405297
  O     -2.166327   -0.389528    1.850405
  C     -1.884863   -1.772991    2.123480
  H      2.305665   -3.877051   -0.356164
  H      2.861550   -4.360270   -1.964477
  H      3.807302   -4.794850   -0.531122
  H      4.851454   -2.861283   -1.730678
  H      4.264911   -2.368591   -0.108131
  H      1.331657   -0.437383   -2.809361
  H      2.300685    0.875286   -2.107472
  H      2.146414    1.624539    2.339602
  H      3.318521    2.613063    1.407922
  H      1.559227    4.348867    1.061019
  H      0.393642    3.365911    1.952795
  H      1.788648    4.055084    2.793811
  H     -4.112239    0.902690   -1.560721
  H     -5.095887   -0.582179   -1.390880
  H     -3.490857   -0.653012   -2.183958
  H     -2.161573   -1.918371    3.164453
  H     -0.819230   -1.957733    1.982742
  H     -2.473596   -2.416348    1.470798

 Total Charge           Charge          ....    0
 Multiplicity           Mult            ....    1
 Number of Electrons    NEL             ....  174
 Basis Dimension        Dim             ....  316

ORBITAL ENERGIES
----------------

  NO   OCC          E(Eh)            E(eV)
   0   2.0000     -88.033194     -2395.5050
   1   2.0000     -87.966812     -2393.6987
   2   2.0000     -76.414593     -2079.3468
   3   2.0000     -18.816538      -512.0240
   4   2.0000     -18.805781      -511.7313
   5   2.0000     -18.774896      -510.8909
   6   2.0000     -18.772127      -510.8156
   7   2.0000     -18.753849      -510.3182
   8   2.0000     -18.735602      -509.8217
   9   2.0000     -10.023790      -272.7612
  10   2.0000     -10.013695      -272.4865
  11   2.0000      -9.958747      -270.9913
  12   2.0000      -9.945348      -270.6267
  13   2.0000      -9.944892      -270.6143
  14   2.0000      -9.935994      -270.3721
  15   2.0000      -9.929324      -270.1906
  16   2.0000      -9.923053      -270.0200
  17   2.0000      -9.895755      -269.2772
  18   2.0000      -9.877657      -268.7847
  19   2.0000      -7.677938      -208.9273
  20   2.0000      -7.612173      -207.1378
  21   2.0000      -6.410274      -174.4324
  22   2.0000      -5.705752      -155.2614
  23   2.0000      -5.702598      -155.1756
  24   2.0000      -5.694887      -154.9658
  25   2.0000      -5.641368      -153.5094
  26   2.0000      -5.632899      -153.2790
  27   2.0000      -5.631849      -153.2504
  28   2.0000      -4.632903      -126.0677
  29   2.0000      -4.632517      -126.0572
  30   2.0000      -4.630639      -126.0061
  31   2.0000      -1.025830       -27.9143
  32   2.0000      -1.014151       -27.5965
  33   2.0000      -0.968610       -26.3572
  34   2.0000      -0.930677       -25.3250
  35   2.0000      -0.923858       -25.1395
  36   2.0000      -0.916305       -24.9339
  37   2.0000      -0.765750       -20.8371
  38   2.0000      -0.719844       -19.5879
  39   2.0000      -0.701660       -19.0932
  40   2.0000      -0.686409       -18.6781
  41   2.0000      -0.658093       -17.9076
  42   2.0000      -0.622737       -16.9455
  43   2.0000      -0.617781       -16.8107
  44   2.0000      -0.606871       -16.5138
  45   2.0000      -0.599804       -16.3215
  46   2.0000      -0.562343       -15.3021
  47   2.0000      -0.510639       -13.8952
  48   2.0000      -0.505346       -13.7512
  49   2.0000      -0.496214       -13.5027
  50   2.0000      -0.484315       -13.1789
  51   2.0000      -0.465040       -12.6544
  52   2.0000      -0.458167       -12.4674
  53   2.0000      -0.448254       -12.1976
  54   2.0000      -0.436330       -11.8732
  55   2.0000      -0.431849       -11.7512
  56   2.0000      -0.424047       -11.5389
  57   2.0000      -0.415182       -11.2977
  58   2.0000      -0.414235       -11.2719
  59   2.0000      -0.400874       -10.9083
  60   2.0000      -0.399131       -10.8609
  61   2.0000      -0.394994       -10.7483
  62   2.0000      -0.387222       -10.5368
  63   2.0000      -0.383742       -10.4422
  64   2.0000      -0.380151       -10.3444
  65   2.0000      -0.373389       -10.1604
  66   2.0000      -0.365047        -9.9334
  67   2.0000      -0.349239        -9.5033
  68   2.0000      -0.347365        -9.4523
  69   2.0000      -0.336273        -9.1505
  70   2.0000      -0.333119        -9.0646
  71   2.0000      -0.329022        -8.9531
  72   2.0000      -0.324638        -8.8338
  73   2.0000      -0.308696        -8.4001
  74   2.0000      -0.304713        -8.2916
  75   2.0000      -0.294774        -8.0212
  76   2.0000      -0.284520        -7.7422
  77   2.0000      -0.281924        -7.6715
  78   2.0000      -0.274932        -7.4813
  79   2.0000      -0.262688        -7.1481
  80   2.0000      -0.254243        -6.9183
  81   2.0000      -0.244702        -6.6587
  82   2.0000      -0.238781        -6.4976
  83   2.0000      -0.226622        -6.1667
  84   2.0000      -0.214416        -5.8346
  85   2.0000      -0.189153        -5.1471
  86   2.0000      -0.180563        -4.9134
  87   0.0000      -0.041232        -1.1220
  88   0.0000      -0.028864        -0.7854
  89   0.0000      -0.018630        -0.5070
  90   0.0000       0.011430         0.3110
  91   0.0000       0.033036         0.8990

MULLIKEN ATOMIC CHARGES
-----------------------
   0 C :   -0.304657
   1 C :   -0.015774
   2 O :   -0.221392
   3 C :    0.115757
   4 O :   -0.195302
   5 C :   -0.095960
   6 C :   -0.289108
   7 H :    0.146720
   8 C :    0.238584
   9 O :   -0.194943
  10 O :   -0.234760
  11 C :   -0.006802
  12 C :   -0.309362
  13 S :   -0.106603
  14 P :    0.616573
  15 S :   -0.336212
  16 O :   -0.392189
  17 C :   -0.097176
  18 O :   -0.352911
  19 C :   -0.098643
  20 H :    0.130091
  21 H :    0.117492
  22 H :    0.116950
  23 H :    0.107522
  24 H :    0.113023
  25 H :    0.127627
  26 H :    0.141184
  27 H :    0.116009
  28 H :    0.098049
  29 H :    0.109492
  30 H :    0.145270
  31 H :    0.109481
  32 H :    0.111729
  33 H :    0.118331
  34 H :    0.104693
  35 H :    0.126165
  36 H :    0.130078
  37 H :    0.110974
Sum of atomic charges:   -0.0000000

LOEWDIN ATOMIC CHARGES
----------------------
   0 C :   -0.354531
   1 C :   -0.109331
   2 O :   -0.050820
   3 C :    0.036314
   4 O :   -0.148953
   5 C :   -0.251441
   6 C :   -0.263156
   7 H :    0.143459
   8 C :    0.015275
   9 O :   -0.161181
  10 O :   -0.047537
  11 C :   -0.104335
  12 C :   -0.358378
  13 S :    0.088508
  14 P :    0.592500
  15 S :   -0.331902
  16 O :   -0.271340
  17 C :   -0.221887
  18 O :   -0.232063
  19 C :   -0.207773
  20 H :    0.132182
  21 H :    0.126615
  22 H :    0.132588
  23 H :    0.120049
  24 H :    0.121728
  25 H :    0.142460
  26 H :    0.156862
  27 H :    0.124430
  28 H :    0.115694
  29 H :    0.123527
  30 H :    0.135702
  31 H :    0.129286
  32 H :    0.107287
  33 H :    0.118731
  34 H :    0.102097
  35 H :    0.124201
  36 H :    0.116833
  37 H :    0.108298

  Mayer bond orders larger than 0.100000
B(  0-C ,  1-C ) :   1.1755 B(  0-C , 20-H ) :   0.9460 B(  0-C , 21-H ) :   0.9487
B(  0-C , 22-H ) :   0.9437 B(  1-C ,  2-O ) :   0.9066 B(  1-C , 23-H ) :   0.9365
B(  1-C , 24-H ) :   0.9135 B(  2-O ,  3-C ) :   1.2578 B(  3-C ,  4-O ) :   1.9906
B(  3-C ,  5-C ) :   0.9897 B(  4-O ,  8-C ) :   0.1004 B(  5-C ,  6-C ) :   1.0584
B(  5-C , 25-H ) :   0.9023 B(  5-C , 26-H ) :   0.8736 B(  6-C ,  7-H ) :   0.8574
B(  6-C ,  8-C ) :   0.8773 B(  6-C , 13-S ) :   1.0342 B(  8-C ,  9-O ) :   1.9579
B(  8-C , 10-O ) :   1.2517 B(  9-O , 14-P ) :   0.1117 B( 10-O , 11-C ) :   0.9032
B( 11-C , 12-C ) :   1.1777 B( 11-C , 27-H ) :   0.9151 B( 11-C , 28-H ) :   0.9378
B( 12-C , 29-H ) :   0.9484 B( 12-C , 30-H ) :   0.9346 B( 12-C , 31-H ) :   0.9427
B( 13-S , 14-P ) :   0.9364 B( 13-S , 15-S ) :   0.1092 B( 14-P , 15-S ) :   1.6067
B( 14-P , 16-O ) :   1.0500 B( 14-P , 18-O ) :   1.1324 B( 16-O , 17-C ) :   0.9444
B( 17-C , 32-H ) :   0.9325 B( 17-C , 33-H ) :   0.9591 B( 17-C , 34-H ) :   0.9453
B( 18-O , 19-C ) :   0.9239 B( 19-C , 35-H ) :   0.9594 B( 19-C , 36-H ) :   0.9434
B( 19-C , 37-H ) :   0.9450

Dispersion correction           -0.051961007
FINAL SINGLE POINT ENERGY     -1979.014574490683

DIPOLE MOMENT
-------------

Method             : SCF
Type of density    : Electron Density
Multiplicity       :   1
Irrep              :   0
Energy             : -1979.1451300795001771 Eh
Relativity type    :
Basis              : AO
                                X                 Y                 Z
Electronic contribution:    -12.323702792       5.670477114      -0.429135407
Nuclear contribution   :     13.999481570      -6.863932422      -0.449855595
                        -----------------------------------------
Total Dipole Moment    :      1.675778778      -1.193455307      -0.878991002
                        -----------------------------------------
Magnitude (a.u.)       :      2.237229373
Magnitude (Debye)      :      5.686585145

Rotational constants in cm-1:             0.012742             0.007198             0.005636
Rotational constants in MHz :           381.987832           215.793286           168.951581

                             ****ORCA TERMINATED NORMALLY****
TOTAL RUN TIME: 0 days 0 hours 0 minutes 36 seconds 480 msec
