                         Program Version 6.0.0  -   RELEASE  -
|  1> ! pbe def2-sv(p) def2/J RI DEFGRID1 loosescf d4 GCP(DFT/SV(P)) printgap
|  2> %output
|  3>     printlevel normal
|  4> end
|  5> * xyz 0 1
|  6> C 4.5281415836 -1.8632215895 -0.3191600139
|  7> C 3.9355878391 -1.4104895597 -1.6370722602
|  8> O 3.2226476484 -0.1561632343 -1.532531653
|  9> P 1.9312138274 0.1682146038 -0.6684015618
| 10> S 1.2477849564 1.8844248995 -1.3122088657
| 11> O 2.3095363729 0.0984792049 0.8828742168
| 12> C 2.664415616 1.2766975732 1.624759216
| 13> C 4.0602662626 1.7470019622 1.2754731577
| 14> S 0.8384649351 -1.6340629212 -0.8568783568
| 15> C -0.0399140149 -1.8487496471 0.7328179189
| 16> S -1.8373681005 -1.7826597745 0.562503753
| 17> P -1.9924003525 0.3278851799 0.4044997737
| 18> S -0.8104366563 1.3274747997 1.6024204222
| 19> O -3.5362662132 0.6433048884 0.5903805036
| 20> C -4.1354749828 0.857892867 1.8809061616
| 21> C -4.1367001236 -0.3953421692 2.7321788768
| 22> O -1.7338496105 0.6780858355 -1.1095166479
| 23> C -2.1787580136 -0.0654645632 -2.2701488312
| 24> C -3.6767039813 -0.2719734084 -2.2998620894
| 25> H 5.1958766083 -1.101957488 0.0754748634
| 26> H 3.7402298648 -2.0533019048 0.4061985141
| 27> H 5.0883968225 -2.778810317 -0.4816912045
| 28> H 3.2522154489 -2.1625576474 -2.0382047193
| 29> H 4.7125208487 -1.1917313696 -2.3716438625
| 30> H 1.926778075 2.0588288902 1.4171778139
| 31> H 2.5796999935 0.9722487379 2.6689997102
| 32> H 4.2937059438 2.6351117712 1.8540208879
| 33> H 4.7881866255 0.9709315331 1.4958443173
| 34> H 4.1062577369 1.9924724287 0.2144199087
| 35> H 0.2875196082 -1.0759521232 1.4290147851
| 36> H 0.199473317 -2.8457291117 1.0919226831
| 37> H -3.5930433346 1.664546535 2.3840661948
| 38> H -5.1483513696 1.1855255405 1.6426191221
| 39> H -4.7195381773 -0.2148321708 3.6296815326
| 40> H -4.5685815779 -1.2275575219 2.1823716728
| 41> H -3.118621762 -0.6520827711 3.0196223082
| 42> H -1.8336512891 0.5531725164 -3.1006239689
| 43> H -1.6501325974 -1.0237992157 -2.2862185924
| 44> H -4.1896547795 0.6813675455 -2.2030578347
| 45> H -3.9475971466 -0.7326843579 -3.2448657085
| 46> H -3.9845441822 -0.9240763574 -1.4850296952
| 47> *
| 48>
| 49>                          ****END OF INPUT****

CARTESIAN COORDINATES (ANGSTROEM)
---------------------------------
  C      4.528142   -1.863222   -0.319160
  C      3.935588   -1.410490   -1.637072
  O      3.222648   -0.156163   -1.532532
  P      1.931214    0.168215   -0.668402
  S      1.247785    1.884425   -1.312209
  O      2.309536    0.098479    0.882874
  C      2.664416    1.276698    1.624759
  C      4.060266    1.747002    1.275473
  S      0.838465   -1.634063   -0.856878
  C     -0.039914   -1.848750    0.732818
  S     -1.837368   -1.782660    0.562504
  P     -1.992400    0.327885    0.404500
  S     -0.810437    1.327475    1.602420
  O     -3.536266    0.643305    0.590381
  C     -4.135475    0.857893    1.880906
  C     -4.136700   -0.395342    2.732179
  O     -1.733850    0.678086   -1.109517
  C     -2.178758   -0.065465   -2.270149
  C     -3.676704   -0.271973   -2.299862
  H      5.195877   -1.101957    0.075475
  H      3.740230   -2.053302    0.406199
  H      5.088397   -2.778810   -0.481691
  H      3.252215   -2.162558   -2.038205
  H      4.712521   -1.191731   -2.371644
  H      1.926778    2.058829    1.417178
  H      2.579700    0.972249    2.669000
  H      4.293706    2.635112    1.854021
  H      4.788187    0.970932    1.495844
  H      4.106258    1.992472    0.214420
  H      0.287520   -1.075952    1.429015
  H      0.199473   -2.845729    1.091923
  H     -3.593043    1.664547    2.384066
  H     -5.148351    1.185526    1.642619
  H     -4.719538   -0.214832    3.629682
  H     -4.568582   -1.227558    2.182372
  H     -3.118622   -0.652083    3.019622
  H     -1.833651    0.553173   -3.100624
  H     -1.650133   -1.023799   -2.286219
  H     -4.189655    0.681368   -2.203058
  H     -3.947597   -0.732684   -3.244866
  H     -3.984544   -0.924076   -1.485030

 Total Charge           Charge          ....    0
 Multiplicity           Mult            ....    1
 Number of Electrons    NEL             ....  202
 Basis Dimension        Dim             ....  334

ORBITAL ENERGIES
----------------

  NO   OCC          E(Eh)            E(eV)
   0   2.0000     -88.047055     -2395.8822
   1   2.0000     -88.042628     -2395.7617
   2   2.0000     -87.982110     -2394.1149
   3   2.0000     -87.966409     -2393.6877
   4   2.0000     -76.424898     -2079.6272
   5   2.0000     -76.416810     -2079.4071
   6   2.0000     -18.793006      -511.3837
   7   2.0000     -18.786007      -511.1932
   8   2.0000     -18.783529      -511.1258
   9   2.0000     -18.783083      -511.1137
  10   2.0000      -9.960592      -271.0415
  11   2.0000      -9.953443      -270.8469
  12   2.0000      -9.952940      -270.8333
  13   2.0000      -9.947253      -270.6785
  14   2.0000      -9.941070      -270.5103
  15   2.0000      -9.887055      -269.0404
  16   2.0000      -9.885950      -269.0104
  17   2.0000      -9.883331      -268.9391
  18   2.0000      -9.878004      -268.7942
  19   2.0000      -7.692076      -209.3120
  20   2.0000      -7.687620      -209.1908
  21   2.0000      -7.627059      -207.5428
  22   2.0000      -7.611707      -207.1251
  23   2.0000      -6.422240      -174.7580
  24   2.0000      -6.414247      -174.5405
  25   2.0000      -5.719805      -155.6438
  26   2.0000      -5.716490      -155.5536
  27   2.0000      -5.715783      -155.5344
  28   2.0000      -5.711680      -155.4227
  29   2.0000      -5.709281      -155.3574
  30   2.0000      -5.704704      -155.2329
  31   2.0000      -5.655920      -153.9054
  32   2.0000      -5.647755      -153.6832
  33   2.0000      -5.647147      -153.6667
  34   2.0000      -5.640995      -153.4993
  35   2.0000      -5.632371      -153.2646
  36   2.0000      -5.631411      -153.2385
  37   2.0000      -4.644955      -126.3956
  38   2.0000      -4.644126      -126.3731
  39   2.0000      -4.642489      -126.3286
  40   2.0000      -4.637145      -126.1831
  41   2.0000      -4.636182      -126.1569
  42   2.0000      -4.634270      -126.1049
  43   2.0000      -0.984458       -26.7885
  44   2.0000      -0.975749       -26.5515
  45   2.0000      -0.941936       -25.6314
  46   2.0000      -0.938691       -25.5431
  47   2.0000      -0.763525       -20.7766
  48   2.0000      -0.717693       -19.5294
  49   2.0000      -0.708146       -19.2696
  50   2.0000      -0.689025       -18.7493
  51   2.0000      -0.687892       -18.7185
  52   2.0000      -0.672808       -18.3080
  53   2.0000      -0.647759       -17.6264
  54   2.0000      -0.631275       -17.1779
  55   2.0000      -0.598308       -16.2808
  56   2.0000      -0.583689       -15.8830
  57   2.0000      -0.574702       -15.6384
  58   2.0000      -0.571209       -15.5434
  59   2.0000      -0.564295       -15.3553
  60   2.0000      -0.494387       -13.4529
  61   2.0000      -0.487199       -13.2574
  62   2.0000      -0.471174       -12.8213
  63   2.0000      -0.468074       -12.7369
  64   2.0000      -0.453269       -12.3341
  65   2.0000      -0.445934       -12.1345
  66   2.0000      -0.441852       -12.0234
  67   2.0000      -0.433217       -11.7884
  68   2.0000      -0.425584       -11.5807
  69   2.0000      -0.417640       -11.3645
  70   2.0000      -0.408299       -11.1104
  71   2.0000      -0.404845       -11.0164
  72   2.0000      -0.392625       -10.6839
  73   2.0000      -0.384290       -10.4571
  74   2.0000      -0.381148       -10.3716
  75   2.0000      -0.368551       -10.0288
  76   2.0000      -0.364411        -9.9161
  77   2.0000      -0.357813        -9.7366
  78   2.0000      -0.351146        -9.5552
  79   2.0000      -0.349158        -9.5011
  80   2.0000      -0.344991        -9.3877
  81   2.0000      -0.343622        -9.3504
  82   2.0000      -0.340824        -9.2743
  83   2.0000      -0.334384        -9.0991
  84   2.0000      -0.330145        -8.9837
  85   2.0000      -0.313135        -8.5208
  86   2.0000      -0.308033        -8.3820
  87   2.0000      -0.301667        -8.2088
  88   2.0000      -0.292795        -7.9674
  89   2.0000      -0.288075        -7.8389
  90   2.0000      -0.273943        -7.4544
  91   2.0000      -0.269138        -7.3236
  92   2.0000      -0.262876        -7.1532
  93   2.0000      -0.261789        -7.1236
  94   2.0000      -0.256247        -6.9728
  95   2.0000      -0.241131        -6.5615
  96   2.0000      -0.220587        -6.0025
  97   2.0000      -0.207672        -5.6510
  98   2.0000      -0.201440        -5.4815
  99   2.0000      -0.184997        -5.0340
 100   2.0000      -0.171423        -4.6646
 101   0.0000      -0.043009        -1.1703
 102   0.0000      -0.024772        -0.6741
 103   0.0000      -0.020712        -0.5636
 104   0.0000       0.003595         0.0978
 105   0.0000       0.023678         0.6443

MULLIKEN ATOMIC CHARGES
-----------------------
   0 C :   -0.314826
   1 C :   -0.012839
   2 O :   -0.372530
   3 P :    0.622951
   4 S :   -0.292235
   5 O :   -0.389401
   6 C :   -0.018113
   7 C :   -0.310025
   8 S :   -0.125985
   9 C :   -0.344948
  10 S :   -0.108060
  11 P :    0.605887
  12 S :   -0.311044
  13 O :   -0.371828
  14 C :   -0.001475
  15 C :   -0.318855
  16 O :   -0.337631
  17 C :   -0.003336
  18 C :   -0.305835
  19 H :    0.124607
  20 H :    0.120229
  21 H :    0.109988
  22 H :    0.114199
  23 H :    0.109681
  24 H :    0.133669
  25 H :    0.099359
  26 H :    0.110903
  27 H :    0.114027
  28 H :    0.129506
  29 H :    0.209269
  30 H :    0.182232
  31 H :    0.115219
  32 H :    0.105700
  33 H :    0.114450
  34 H :    0.115890
  35 H :    0.126652
  36 H :    0.114002
  37 H :    0.113925
  38 H :    0.121675
  39 H :    0.112099
  40 H :    0.112848
Sum of atomic charges:   -0.0000000

LOEWDIN ATOMIC CHARGES
----------------------
   0 C :   -0.367153
   1 C :   -0.118402
   2 O :   -0.245399
   3 P :    0.560199
   4 S :   -0.297864
   5 O :   -0.247993
   6 C :   -0.125914
   7 C :   -0.365053
   8 S :    0.074049
   9 C :   -0.474901
  10 S :    0.074312
  11 P :    0.574260
  12 S :   -0.296199
  13 O :   -0.239337
  14 C :   -0.117484
  15 C :   -0.371723
  16 O :   -0.220645
  17 C :   -0.115205
  18 C :   -0.366365
  19 H :    0.125993
  20 H :    0.121085
  21 H :    0.129835
  22 H :    0.106598
  23 H :    0.121741
  24 H :    0.110930
  25 H :    0.115305
  26 H :    0.130861
  27 H :    0.119642
  28 H :    0.126368
  29 H :    0.130271
  30 H :    0.137211
  31 H :    0.113499
  32 H :    0.119122
  33 H :    0.131915
  34 H :    0.122749
  35 H :    0.120840
  36 H :    0.125068
  37 H :    0.102855
  38 H :    0.128349
  39 H :    0.130652
  40 H :    0.115928

  Mayer bond orders larger than 0.100000
B(  0-C ,  1-C ) :   1.1639 B(  0-C , 19-H ) :   0.9402 B(  0-C , 20-H ) :   0.9371
B(  0-C , 21-H ) :   0.9364 B(  1-C ,  2-O ) :   0.9101 B(  1-C , 22-H ) :   0.9210
B(  1-C , 23-H ) :   0.9341 B(  2-O ,  3-P ) :   1.1027 B(  3-P ,  4-S ) :   1.6777
B(  3-P ,  5-O ) :   1.0674 B(  3-P ,  8-S ) :   0.9369 B(  4-S ,  8-S ) :   0.1005
B(  5-O ,  6-C ) :   0.8947 B(  6-C ,  7-C ) :   1.1617 B(  6-C , 24-H ) :   0.9036
B(  6-C , 25-H ) :   0.9348 B(  7-C , 26-H ) :   0.9393 B(  7-C , 27-H ) :   0.9396
B(  7-C , 28-H ) :   0.9350 B(  8-S ,  9-C ) :   0.9903 B(  9-C , 10-S ) :   1.0129
B(  9-C , 29-H ) :   0.8562 B(  9-C , 30-H ) :   0.9108 B( 10-S , 11-P ) :   0.9292
B( 10-S , 12-S ) :   0.1045 B( 11-P , 12-S ) :   1.6155 B( 11-P , 13-O ) :   1.0983
B( 11-P , 16-O ) :   1.1693 B( 13-O , 14-C ) :   0.9041 B( 14-C , 15-C ) :   1.1656
B( 14-C , 31-H ) :   0.9157 B( 14-C , 32-H ) :   0.9338 B( 15-C , 33-H ) :   0.9375
B( 15-C , 34-H ) :   0.9450 B( 15-C , 35-H ) :   0.9338 B( 16-O , 17-C ) :   0.8969
B( 17-C , 18-C ) :   1.1675 B( 17-C , 36-H ) :   0.9322 B( 17-C , 37-H ) :   0.9107
B( 18-C , 38-H ) :   0.9437 B( 18-C , 39-H ) :   0.9368 B( 18-C , 40-H ) :   0.9390

Dispersion correction           -0.068830982
FINAL SINGLE POINT ENERGY     -2929.509932936765

DIPOLE MOMENT
-------------

Method             : SCF
Type of density    : Electron Density
Multiplicity       :   1
Irrep              :   0
Energy             : -2929.6279171800265431 Eh
Relativity type    :
Basis              : AO
                                X                 Y                 Z
Electronic contribution:     -3.444939932       3.896209959      -5.632872322
Nuclear contribution   :      3.280675873      -5.363601618       6.129182993
                        -----------------------------------------
Total Dipole Moment    :     -0.164264059      -1.467391659       0.496310671
                        -----------------------------------------
Magnitude (a.u.)       :      1.557737220
Magnitude (Debye)      :      3.959453349

Rotational constants in cm-1:             0.013344             0.005291             0.004967
Rotational constants in MHz :           400.033296           158.616067           148.919046

                             ****ORCA TERMINATED NORMALLY****
TOTAL RUN TIME: 0 days 0 hours 0 minutes 21 seconds 452 msec
