                         Program Version 6.0.0  -   RELEASE  -
|  1> ! pbe def2-sv(p) def2/J RI DEFGRID1 loosescf d4 GCP(DFT/SV(P)) printgap
|  2> %output
|  3>     printlevel normal
|  4> end
|  5> * xyz 0 1
|  6> C 5.1860995316 -1.3423624368 -0.8217238206
|  7> C 3.7926000953 -1.665313917 -0.3173661437
|  8> O 3.2138938384 -0.480148136 0.2571177095
|  9> P 1.7774587395 0.1192949352 -0.0882199291
| 10> S 1.1475433429 -0.4294993185 -1.8631670378
| 11> O 1.98092995 1.6526472213 0.2167112489
| 12> C 2.1941103649 2.6365395471 -0.8142735526
| 13> C 3.5273804981 2.4458684887 -1.506248462
| 14> S 0.6798519554 -0.309285311 1.6749709472
| 15> C 0.0229518216 -1.9425489161 1.247164803
| 16> S -1.2810122316 -1.9378477157 -0.0415852097
| 17> P -2.1288120053 -0.0244036421 0.1829478835
| 18> S -1.2631123312 1.6648549087 -0.3519180274
| 19> O -2.5628090158 -0.1221313216 1.697673978
| 20> C -2.7983294317 1.0126185751 2.5603842929
| 21> C -2.1924568383 0.7189008033 3.9179025262
| 22> O -3.5181943583 -0.2162797332 -0.5698125265
| 23> C -3.697783182 0.0822625389 -1.9640595568
| 24> C -2.9043080496 -0.8560588011 -2.8506513184
| 25> H 5.1367935529 -0.6219320463 -1.6338918751
| 26> H 5.7845819484 -0.9255166881 -0.0168187562
| 27> H 5.6520394426 -2.2534220124 -1.1828700854
| 28> H 3.8272489152 -2.4173729407 0.4741945072
| 29> H 3.1513586541 -2.0141483187 -1.1342874255
| 30> H 1.3645138917 2.5753203947 -1.5264951366
| 31> H 2.1416307456 3.5862363938 -0.2800079805
| 32> H 3.6875843283 3.2585889799 -2.2076240196
| 33> H 4.3302094458 2.4325178581 -0.7735994047
| 34> H 3.5262522118 1.502613056 -2.051574183
| 35> H -0.4031678574 -2.3419061911 2.1645702017
| 36> H 0.8153663211 -2.5866509438 0.8698397096
| 37> H -2.3492444817 1.9022955397 2.1051464149
| 38> H -3.8803035349 1.1462557087 2.6224130563
| 39> H -1.1165698126 0.5883563268 3.8265895725
| 40> H -2.3979249621 1.5498748582 4.5846936536
| 41> H -2.6255405161 -0.1885425596 4.3280800775
| 42> H -4.7720066831 -0.0257792712 -2.1190293827
| 43> H -3.3972658539 1.1211359279 -2.1365542473
| 44> H -3.1426202063 -0.6601774119 -3.89106615
| 45> H -1.835011813 -0.6983063576 -2.7018602086
| 46> H -3.1379644347 -1.8907689153 -2.6122321624
| 47> *
| 48>
| 49>                          ****END OF INPUT****

CARTESIAN COORDINATES (ANGSTROEM)
---------------------------------
  C      5.186100   -1.342362   -0.821724
  C      3.792600   -1.665314   -0.317366
  O      3.213894   -0.480148    0.257118
  P      1.777459    0.119295   -0.088220
  S      1.147543   -0.429499   -1.863167
  O      1.980930    1.652647    0.216711
  C      2.194110    2.636540   -0.814274
  C      3.527380    2.445868   -1.506248
  S      0.679852   -0.309285    1.674971
  C      0.022952   -1.942549    1.247165
  S     -1.281012   -1.937848   -0.041585
  P     -2.128812   -0.024404    0.182948
  S     -1.263112    1.664855   -0.351918
  O     -2.562809   -0.122131    1.697674
  C     -2.798329    1.012619    2.560384
  C     -2.192457    0.718901    3.917903
  O     -3.518194   -0.216280   -0.569813
  C     -3.697783    0.082263   -1.964060
  C     -2.904308   -0.856059   -2.850651
  H      5.136794   -0.621932   -1.633892
  H      5.784582   -0.925517   -0.016819
  H      5.652039   -2.253422   -1.182870
  H      3.827249   -2.417373    0.474195
  H      3.151359   -2.014148   -1.134287
  H      1.364514    2.575320   -1.526495
  H      2.141631    3.586236   -0.280008
  H      3.687584    3.258589   -2.207624
  H      4.330209    2.432518   -0.773599
  H      3.526252    1.502613   -2.051574
  H     -0.403168   -2.341906    2.164570
  H      0.815366   -2.586651    0.869840
  H     -2.349244    1.902296    2.105146
  H     -3.880304    1.146256    2.622413
  H     -1.116570    0.588356    3.826590
  H     -2.397925    1.549875    4.584694
  H     -2.625541   -0.188543    4.328080
  H     -4.772007   -0.025779   -2.119029
  H     -3.397266    1.121136   -2.136554
  H     -3.142620   -0.660177   -3.891066
  H     -1.835012   -0.698306   -2.701860
  H     -3.137964   -1.890769   -2.612232

 Total Charge           Charge          ....    0
 Multiplicity           Mult            ....    1
 Number of Electrons    NEL             ....  202
 Basis Dimension        Dim             ....  334

ORBITAL ENERGIES
----------------

  NO   OCC          E(Eh)            E(eV)
   0   2.0000     -88.041617     -2395.7342
   1   2.0000     -88.033783     -2395.5210
   2   2.0000     -87.985738     -2394.2136
   3   2.0000     -87.975854     -2393.9447
   4   2.0000     -76.424634     -2079.6200
   5   2.0000     -76.419273     -2079.4741
   6   2.0000     -18.787791      -511.2418
   7   2.0000     -18.783678      -511.1299
   8   2.0000     -18.783130      -511.1149
   9   2.0000     -18.780382      -511.0402
  10   2.0000      -9.960880      -271.0493
  11   2.0000      -9.950193      -270.7585
  12   2.0000      -9.948578      -270.7146
  13   2.0000      -9.944748      -270.6104
  14   2.0000      -9.942199      -270.5410
  15   2.0000      -9.885680      -269.0030
  16   2.0000      -9.881594      -268.8919
  17   2.0000      -9.881329      -268.8846
  18   2.0000      -9.874636      -268.7025
  19   2.0000      -7.686310      -209.1551
  20   2.0000      -7.679045      -208.9574
  21   2.0000      -7.630296      -207.6309
  22   2.0000      -7.620495      -207.3642
  23   2.0000      -6.421508      -174.7381
  24   2.0000      -6.416277      -174.5958
  25   2.0000      -5.714327      -155.4947
  26   2.0000      -5.711033      -155.4051
  27   2.0000      -5.707331      -155.3044
  28   2.0000      -5.703542      -155.2013
  29   2.0000      -5.702869      -155.1830
  30   2.0000      -5.695561      -154.9841
  31   2.0000      -5.659220      -153.9952
  32   2.0000      -5.651315      -153.7801
  33   2.0000      -5.650088      -153.7467
  34   2.0000      -5.649388      -153.7277
  35   2.0000      -5.641147      -153.5034
  36   2.0000      -5.640679      -153.4907
  37   2.0000      -4.643811      -126.3645
  38   2.0000      -4.643347      -126.3519
  39   2.0000      -4.642228      -126.3214
  40   2.0000      -4.638911      -126.2312
  41   2.0000      -4.638172      -126.2111
  42   2.0000      -4.636650      -126.1697
  43   2.0000      -0.981456       -26.7068
  44   2.0000      -0.977127       -26.5890
  45   2.0000      -0.940198       -25.5841
  46   2.0000      -0.936912       -25.4947
  47   2.0000      -0.761082       -20.7101
  48   2.0000      -0.717887       -19.5347
  49   2.0000      -0.705803       -19.2059
  50   2.0000      -0.685317       -18.6484
  51   2.0000      -0.678507       -18.4631
  52   2.0000      -0.665172       -18.1003
  53   2.0000      -0.650431       -17.6991
  54   2.0000      -0.633714       -17.2442
  55   2.0000      -0.600156       -16.3311
  56   2.0000      -0.586971       -15.9723
  57   2.0000      -0.565778       -15.3956
  58   2.0000      -0.564811       -15.3693
  59   2.0000      -0.559019       -15.2117
  60   2.0000      -0.499944       -13.6042
  61   2.0000      -0.494467       -13.4551
  62   2.0000      -0.473830       -12.8936
  63   2.0000      -0.463865       -12.6224
  64   2.0000      -0.452340       -12.3088
  65   2.0000      -0.436267       -11.8714
  66   2.0000      -0.432382       -11.7657
  67   2.0000      -0.430456       -11.7133
  68   2.0000      -0.424624       -11.5546
  69   2.0000      -0.414841       -11.2884
  70   2.0000      -0.403872       -10.9899
  71   2.0000      -0.393519       -10.7082
  72   2.0000      -0.387138       -10.5346
  73   2.0000      -0.384350       -10.4587
  74   2.0000      -0.376005       -10.2316
  75   2.0000      -0.372670       -10.1409
  76   2.0000      -0.366704        -9.9785
  77   2.0000      -0.356182        -9.6922
  78   2.0000      -0.351505        -9.5649
  79   2.0000      -0.348729        -9.4894
  80   2.0000      -0.345147        -9.3919
  81   2.0000      -0.340642        -9.2693
  82   2.0000      -0.337881        -9.1942
  83   2.0000      -0.333950        -9.0872
  84   2.0000      -0.328093        -8.9279
  85   2.0000      -0.320295        -8.7157
  86   2.0000      -0.305738        -8.3196
  87   2.0000      -0.290909        -7.9160
  88   2.0000      -0.289138        -7.8679
  89   2.0000      -0.281031        -7.6472
  90   2.0000      -0.276127        -7.5138
  91   2.0000      -0.271796        -7.3959
  92   2.0000      -0.265900        -7.2355
  93   2.0000      -0.258743        -7.0407
  94   2.0000      -0.253063        -6.8862
  95   2.0000      -0.240968        -6.5571
  96   2.0000      -0.217458        -5.9173
  97   2.0000      -0.214909        -5.8480
  98   2.0000      -0.188424        -5.1273
  99   2.0000      -0.183536        -4.9943
 100   2.0000      -0.179679        -4.8893
 101   0.0000      -0.051360        -1.3976
 102   0.0000      -0.033732        -0.9179
 103   0.0000      -0.011159        -0.3036
 104   0.0000       0.012194         0.3318
 105   0.0000       0.021173         0.5761

MULLIKEN ATOMIC CHARGES
-----------------------
   0 C :   -0.286184
   1 C :   -0.016652
   2 O :   -0.375735
   3 P :    0.630505
   4 S :   -0.301221
   5 O :   -0.370748
   6 C :    0.001578
   7 C :   -0.317886
   8 S :   -0.099331
   9 C :   -0.315628
  10 S :   -0.096400
  11 P :    0.615575
  12 S :   -0.331620
  13 O :   -0.373585
  14 C :    0.000285
  15 C :   -0.297006
  16 O :   -0.370968
  17 C :    0.003590
  18 C :   -0.341441
  19 H :    0.122171
  20 H :    0.116261
  21 H :    0.108074
  22 H :    0.096488
  23 H :    0.104524
  24 H :    0.122869
  25 H :    0.105928
  26 H :    0.111871
  27 H :    0.116098
  28 H :    0.128803
  29 H :    0.185592
  30 H :    0.178329
  31 H :    0.108236
  32 H :    0.102886
  33 H :    0.126164
  34 H :    0.109032
  35 H :    0.111698
  36 H :    0.100685
  37 H :    0.107860
  38 H :    0.110704
  39 H :    0.150862
  40 H :    0.117738
Sum of atomic charges:    0.0000000

LOEWDIN ATOMIC CHARGES
----------------------
   0 C :   -0.352626
   1 C :   -0.123635
   2 O :   -0.254495
   3 P :    0.570452
   4 S :   -0.295746
   5 O :   -0.235364
   6 C :   -0.111676
   7 C :   -0.367748
   8 S :    0.100851
   9 C :   -0.467641
  10 S :    0.083030
  11 P :    0.563915
  12 S :   -0.316218
  13 O :   -0.245863
  14 C :   -0.116454
  15 C :   -0.356411
  16 O :   -0.247906
  17 C :   -0.120856
  18 C :   -0.374480
  19 H :    0.126717
  20 H :    0.126239
  21 H :    0.129027
  22 H :    0.109631
  23 H :    0.102246
  24 H :    0.113631
  25 H :    0.120397
  26 H :    0.130747
  27 H :    0.125579
  28 H :    0.119738
  29 H :    0.136619
  30 H :    0.129538
  31 H :    0.106867
  32 H :    0.114708
  33 H :    0.120965
  34 H :    0.129595
  35 H :    0.123802
  36 H :    0.116578
  37 H :    0.108206
  38 H :    0.130372
  39 H :    0.124726
  40 H :    0.122946

  Mayer bond orders larger than 0.100000
B(  0-C ,  1-C ) :   1.1643 B(  0-C , 19-H ) :   0.9461 B(  0-C , 20-H ) :   0.9500
B(  0-C , 21-H ) :   0.9407 B(  1-C ,  2-O ) :   0.9160 B(  1-C , 22-H ) :   0.9308
B(  1-C , 23-H ) :   0.8957 B(  2-O ,  3-P ) :   1.0935 B(  3-P ,  4-S ) :   1.6112
B(  3-P ,  5-O ) :   1.1402 B(  3-P ,  8-S ) :   0.9165 B(  4-S ,  8-S ) :   0.1126
B(  5-O ,  6-C ) :   0.8983 B(  6-C ,  7-C ) :   1.1627 B(  6-C , 24-H ) :   0.9165
B(  6-C , 25-H ) :   0.9358 B(  7-C , 26-H ) :   0.9377 B(  7-C , 27-H ) :   0.9453
B(  7-C , 28-H ) :   0.9283 B(  8-S ,  9-C ) :   1.0267 B(  9-C , 10-S ) :   0.9720
B(  9-C , 29-H ) :   0.9112 B(  9-C , 30-H ) :   0.9057 B( 10-S , 11-P ) :   0.9859
B( 10-S , 12-S ) :   0.1191 B( 11-P , 12-S ) :   1.5762 B( 11-P , 13-O ) :   1.1218
B( 11-P , 16-O ) :   1.1118 B( 13-O , 14-C ) :   0.8958 B( 14-C , 15-C ) :   1.1619
B( 14-C , 31-H ) :   0.9011 B( 14-C , 32-H ) :   0.9344 B( 15-C , 33-H ) :   0.9438
B( 15-C , 34-H ) :   0.9414 B( 15-C , 35-H ) :   0.9505 B( 16-O , 17-C ) :   0.9120
B( 17-C , 18-C ) :   1.1637 B( 17-C , 36-H ) :   0.9331 B( 17-C , 37-H ) :   0.9125
B( 18-C , 38-H ) :   0.9377 B( 18-C , 39-H ) :   0.9271 B( 18-C , 40-H ) :   0.9432

Dispersion correction           -0.068510673
FINAL SINGLE POINT ENERGY     -2929.509858587169

DIPOLE MOMENT
-------------

Method             : SCF
Type of density    : Electron Density
Multiplicity       :   1
Irrep              :   0
Energy             : -2929.6241333364323509 Eh
Relativity type    :
Basis              : AO
                                X                 Y                 Z
Electronic contribution:     -9.575504527      -3.044398288       3.495834819
Nuclear contribution   :     10.040980429       2.807651175      -3.132901751
                        -----------------------------------------
Total Dipole Moment    :      0.465475902      -0.236747113       0.362933068
                        -----------------------------------------
Magnitude (a.u.)       :      0.635953947
Magnitude (Debye)      :      1.616466469

Rotational constants in cm-1:             0.011628             0.005653             0.005314
Rotational constants in MHz :           348.607050           169.487213           159.307679

                             ****ORCA TERMINATED NORMALLY****
TOTAL RUN TIME: 0 days 0 hours 0 minutes 21 seconds 720 msec
