                         Program Version 6.0.0  -   RELEASE  -
|  1> ! r2scan-3c def2/J RI DEFGRID2 scfconv6 printgap
|  2> %output
|  3>     printlevel normal
|  4> end
|  5> * xyz 0 1
|  6> C -0.2022433141 0.0019932662 -0.0065776833
|  7> N 1.3199575194 -0.0161186812 -0.2396288914
|  8> O 1.8266485668 -1.094356103 -0.2943887669
|  9> O 1.8517745486 1.0500824499 -0.2931200853
| 10> Cl -0.8634787436 1.4649246483 -0.7110562451
| 11> Cl -0.8964890046 -1.4535854584 -0.693674232
| 12> Cl -0.3530233943 0.0143337488 1.7667655149
| 13> *
| 14>
| 15>                          ****END OF INPUT****

CARTESIAN COORDINATES (ANGSTROEM)
---------------------------------
  C     -0.202243    0.001993   -0.006578
  N      1.319958   -0.016119   -0.239629
  O      1.826649   -1.094356   -0.294389
  O      1.851775    1.050082   -0.293120
  Cl    -0.863479    1.464925   -0.711056
  Cl    -0.896489   -1.453585   -0.693674
  Cl    -0.353023    0.014334    1.766766

 Total Charge           Charge          ....    0
 Multiplicity           Mult            ....    1
 Number of Electrons    NEL             ....   80
 Basis Dimension        Dim             ....  172

ORBITAL ENERGIES
----------------

  NO   OCC          E(Eh)            E(eV)
   0   2.0000    -101.267556     -2755.6303
   1   2.0000    -101.266621     -2755.6049
   2   2.0000    -101.266563     -2755.6033
   3   2.0000     -19.025904      -517.7212
   4   2.0000     -19.025474      -517.7095
   5   2.0000     -14.431988      -392.7144
   6   2.0000     -10.281054      -279.7617
   7   2.0000      -9.423042      -256.4140
   8   2.0000      -9.422360      -256.3954
   9   2.0000      -9.422307      -256.3940
  10   2.0000      -7.170407      -195.1167
  11   2.0000      -7.169753      -195.0989
  12   2.0000      -7.169700      -195.0975
  13   2.0000      -7.158700      -194.7981
  14   2.0000      -7.158425      -194.7906
  15   2.0000      -7.157952      -194.7778
  16   2.0000      -7.157897      -194.7763
  17   2.0000      -7.157685      -194.7705
  18   2.0000      -7.157634      -194.7691
  19   2.0000      -1.258906       -34.2566
  20   2.0000      -1.085521       -29.5385
  21   2.0000      -0.952065       -25.9070
  22   2.0000      -0.835858       -22.7449
  23   2.0000      -0.835804       -22.7434
  24   2.0000      -0.742775       -20.2119
  25   2.0000      -0.589660       -16.0455
  26   2.0000      -0.560685       -15.2570
  27   2.0000      -0.555241       -15.1089
  28   2.0000      -0.524992       -14.2858
  29   2.0000      -0.482065       -13.1177
  30   2.0000      -0.474596       -12.9144
  31   2.0000      -0.368315       -10.0223
  32   2.0000      -0.360847        -9.8192
  33   2.0000      -0.351299        -9.5593
  34   2.0000      -0.337474        -9.1831
  35   2.0000      -0.328391        -8.9360
  36   2.0000      -0.324947        -8.8423
  37   2.0000      -0.307467        -8.3666
  38   2.0000      -0.305935        -8.3249
  39   2.0000      -0.286126        -7.7859
  40   0.0000      -0.137315        -3.7365
  41   0.0000      -0.087586        -2.3833
  42   0.0000      -0.036159        -0.9839
  43   0.0000      -0.024404        -0.6641
  44   0.0000       0.015221         0.4142

MULLIKEN ATOMIC CHARGES
-----------------------
   0 C :    0.059947
   1 N :    0.199515
   2 O :   -0.130142
   3 O :   -0.130901
   4 Cl:    0.009193
   5 Cl:    0.009443
   6 Cl:   -0.017055
Sum of atomic charges:    0.0000000

LOEWDIN ATOMIC CHARGES
----------------------
   0 C :   -0.177400
   1 N :   -0.583501
   2 O :    0.025380
   3 O :    0.025201
   4 Cl:    0.244906
   5 Cl:    0.245308
   6 Cl:    0.220108

  Mayer bond orders larger than 0.100000
B(  0-C ,  1-N ) :   0.7364 B(  0-C ,  4-Cl) :   1.1387 B(  0-C ,  5-Cl) :   1.1394
B(  0-C ,  6-Cl) :   1.0620 B(  1-N ,  2-O ) :   1.9066 B(  1-N ,  3-O ) :   1.9064
B(  2-O ,  3-O ) :   0.3075

Dispersion correction           -0.002909915
FINAL SINGLE POINT ENERGY     -1623.682662627496

DIPOLE MOMENT
-------------

Method             : SCF
Type of density    : Electron Density
Multiplicity       :   1
Irrep              :   0
Energy             : -1623.6942480332863852 Eh
Relativity type    :
Basis              : AO
                                X                 Y                 Z
Electronic contribution:     -3.546737498       0.041639504       0.543695343
Nuclear contribution   :      2.897711135      -0.035201575      -0.495929964
                        -----------------------------------------
Total Dipole Moment    :     -0.649026363       0.006437929       0.047765378
                        -----------------------------------------
Magnitude (a.u.)       :      0.650813490
Magnitude (Debye)      :      1.654236427

Rotational constants in cm-1:             0.050020             0.049334             0.044328
Rotational constants in MHz :          1499.552400          1479.010637          1328.931757

                             ****ORCA TERMINATED NORMALLY****
TOTAL RUN TIME: 0 days 0 hours 0 minutes 14 seconds 777 msec
