                         Program Version 6.0.0  -   RELEASE  -
|  1> ! r2scan-3c def2/J RI DEFGRID2 scfconv6 printgap
|  2> %output
|  3>     printlevel normal
|  4> end
|  5> %cpcm
|  6>     smd true
|  7>     smdsolvent "water"
|  8> end
|  9> * xyz 0 1
| 10> C -0.2022433141 0.0019932662 -0.0065776833
| 11> N 1.3199575194 -0.0161186812 -0.2396288914
| 12> O 1.8266485668 -1.094356103 -0.2943887669
| 13> O 1.8517745486 1.0500824499 -0.2931200853
| 14> Cl -0.8634787436 1.4649246483 -0.7110562451
| 15> Cl -0.8964890046 -1.4535854584 -0.693674232
| 16> Cl -0.3530233943 0.0143337488 1.7667655149
| 17> *
| 18>
| 19>                          ****END OF INPUT****

CARTESIAN COORDINATES (ANGSTROEM)
---------------------------------
  C     -0.202243    0.001993   -0.006578
  N      1.319958   -0.016119   -0.239629
  O      1.826649   -1.094356   -0.294389
  O      1.851775    1.050082   -0.293120
  Cl    -0.863479    1.464925   -0.711056
  Cl    -0.896489   -1.453585   -0.693674
  Cl    -0.353023    0.014334    1.766766

 Total Charge           Charge          ....    0
 Multiplicity           Mult            ....    1
 Number of Electrons    NEL             ....   80
 Basis Dimension        Dim             ....  172

ORBITAL ENERGIES
----------------

  NO   OCC          E(Eh)            E(eV)
   0   2.0000    -101.265319     -2755.5694
   1   2.0000    -101.264530     -2755.5480
   2   2.0000    -101.264519     -2755.5477
   3   2.0000     -19.030708      -517.8519
   4   2.0000     -19.030589      -517.8487
   5   2.0000     -14.437167      -392.8553
   6   2.0000     -10.280932      -279.7584
   7   2.0000      -9.420735      -256.3512
   8   2.0000      -9.420210      -256.3369
   9   2.0000      -9.420202      -256.3367
  10   2.0000      -7.168133      -195.0548
  11   2.0000      -7.167632      -195.0412
  12   2.0000      -7.167624      -195.0410
  13   2.0000      -7.156379      -194.7350
  14   2.0000      -7.156112      -194.7277
  15   2.0000      -7.155761      -194.7182
  16   2.0000      -7.155751      -194.7179
  17   2.0000      -7.155557      -194.7126
  18   2.0000      -7.155551      -194.7124
  19   2.0000      -1.263359       -34.3777
  20   2.0000      -1.090446       -29.6726
  21   2.0000      -0.950874       -25.8746
  22   2.0000      -0.833769       -22.6880
  23   2.0000      -0.833585       -22.6830
  24   2.0000      -0.744612       -20.2619
  25   2.0000      -0.592988       -16.1360
  26   2.0000      -0.562771       -15.3138
  27   2.0000      -0.557134       -15.1604
  28   2.0000      -0.531603       -14.4657
  29   2.0000      -0.481361       -13.0985
  30   2.0000      -0.473081       -12.8732
  31   2.0000      -0.368266       -10.0210
  32   2.0000      -0.360035        -9.7971
  33   2.0000      -0.349467        -9.5095
  34   2.0000      -0.337946        -9.1960
  35   2.0000      -0.332558        -9.0494
  36   2.0000      -0.322283        -8.7698
  37   2.0000      -0.309635        -8.4256
  38   2.0000      -0.305182        -8.3044
  39   2.0000      -0.289534        -7.8786
  40   0.0000      -0.140993        -3.8366
  41   0.0000      -0.084767        -2.3066
  42   0.0000      -0.034117        -0.9284
  43   0.0000      -0.022838        -0.6215
  44   0.0000       0.014614         0.3977

MULLIKEN ATOMIC CHARGES
-----------------------
   0 C :    0.056940
   1 N :    0.234523
   2 O :   -0.154765
   3 O :   -0.155444
   4 Cl:    0.013346
   5 Cl:    0.013539
   6 Cl:   -0.008138
Sum of atomic charges:   -0.0000000

LOEWDIN ATOMIC CHARGES
----------------------
   0 C :   -0.176413
   1 N :   -0.575555
   2 O :    0.012822
   3 O :    0.012823
   4 Cl:    0.249780
   5 Cl:    0.250162
   6 Cl:    0.226381

  Mayer bond orders larger than 0.100000
B(  0-C ,  1-N ) :   0.7388 B(  0-C ,  4-Cl) :   1.1392 B(  0-C ,  5-Cl) :   1.1398
B(  0-C ,  6-Cl) :   1.0666 B(  1-N ,  2-O ) :   1.8934 B(  1-N ,  3-O ) :   1.8933
B(  2-O ,  3-O ) :   0.3109

Dispersion correction           -0.002909915
FINAL SINGLE POINT ENERGY     -1623.679192545876

DIPOLE MOMENT
-------------

Method             : SCF
Type of density    : Electron Density
Multiplicity       :   1
Irrep              :   0
Energy             : -1623.6907779516668597 Eh
Relativity type    :
Basis              : AO
                                X                 Y                 Z
Electronic contribution:     -3.703844645       0.043409855       0.543021838
Nuclear contribution   :      2.897711135      -0.035201575      -0.495929964
                        -----------------------------------------
Total Dipole Moment    :     -0.806133509       0.008208280       0.047091874
                        -----------------------------------------
Magnitude (a.u.)       :      0.807549538
Magnitude (Debye)      :      2.052627799

Rotational constants in cm-1:             0.050020             0.049334             0.044328
Rotational constants in MHz :          1499.552400          1479.010637          1328.931757

                             ****ORCA TERMINATED NORMALLY****
TOTAL RUN TIME: 0 days 0 hours 0 minutes 18 seconds 533 msec
