                         Program Version 6.0.0  -   RELEASE  -
|  1> ! pbe def2-sv(p) def2/J RI DEFGRID1 loosescf d4 GCP(DFT/SV(P)) printgap
|  2> %output
|  3>     printlevel normal
|  4> end
|  5> * xyz 0 1
|  6> C 3.7794802955 -1.4440865793 -2.5542115965
|  7> C 4.0702561441 -1.7353087239 -1.0960779893
|  8> O 2.8799294531 -1.7051798721 -0.2894507264
|  9> P 2.0779901071 -0.3655560967 0.0029212504
| 10> S 3.1802581562 1.2331510713 0.2947423725
| 11> O 1.1509431974 -0.8150507316 1.2052138828
| 12> C 1.4734231977 -0.532880772 2.5796305392
| 13> C 2.6541377811 -1.3539027649 3.0532883583
| 14> S 0.6469574332 -0.2704535101 -1.5518452327
| 15> C 0.1329342971 1.4389470539 -1.2414420694
| 16> S -0.6188482356 1.6623053611 0.3904795092
| 17> P -2.3094818084 0.4223799699 0.0450350145
| 18> S -3.0478270746 0.4820740383 -1.7744299459
| 19> O -3.2654905323 0.8013764114 1.2510629531
| 20> C -3.6164948773 2.139314795 1.6508927073
| 21> C -4.2004120978 2.9572683015 0.51729534
| 22> O -1.9113900362 -1.0279897678 0.5406518264
| 23> C -2.0374453416 -2.2250593531 -0.2577182036
| 24> C -0.9536334223 -3.2023899387 0.1476485101
| 25> H 4.6819250384 -1.5950176255 -3.1379052494
| 26> H 2.9959531393 -2.101309817 -2.9230783248
| 27> H 3.4528874783 -0.4114197588 -2.6707378001
| 28> H 4.7792434536 -1.0050255791 -0.6930696361
| 29> H 4.4559915133 -2.7458628581 -0.9554727219
| 30> H 1.6794253909 0.5384714419 2.6758540322
| 31> H 0.5581629084 -0.7807645366 3.1193615211
| 32> H 2.47084893 -2.4112276926 2.8814591673
| 33> H 3.5498631961 -1.058319092 2.5078389935
| 34> H 2.8128768438 -1.1799765404 4.1128827581
| 35> H -0.5923772206 1.6887254237 -2.015767404
| 36> H 1.0005352786 2.097135008 -1.2760011656
| 37> H -4.3461886528 1.9835975765 2.4475966275
| 38> H -2.7226884301 2.6216461284 2.0569388563
| 39> H -5.0418937932 2.4351141113 0.0680541331
| 40> H -4.5347766009 3.9161201194 0.9001136174
| 41> H -3.4484448973 3.125397162 -0.2523981153
| 42> H -3.0307325771 -2.6374197826 -0.0641591664
| 43> H -1.9638769656 -1.9600275436 -1.317824402
| 44> H -1.026374779 -3.4165109782 1.2099372757
| 45> H -1.0806136569 -4.1205633409 -0.4166081939
| 46> H 0.0306886856 -2.7896536387 -0.0596729476
| 47> *
| 48>
| 49>                          ****END OF INPUT****

CARTESIAN COORDINATES (ANGSTROEM)
---------------------------------
  C      3.779480   -1.444087   -2.554212
  C      4.070256   -1.735309   -1.096078
  O      2.879929   -1.705180   -0.289451
  P      2.077990   -0.365556    0.002921
  S      3.180258    1.233151    0.294742
  O      1.150943   -0.815051    1.205214
  C      1.473423   -0.532881    2.579631
  C      2.654138   -1.353903    3.053288
  S      0.646957   -0.270454   -1.551845
  C      0.132934    1.438947   -1.241442
  S     -0.618848    1.662305    0.390480
  P     -2.309482    0.422380    0.045035
  S     -3.047827    0.482074   -1.774430
  O     -3.265491    0.801376    1.251063
  C     -3.616495    2.139315    1.650893
  C     -4.200412    2.957268    0.517295
  O     -1.911390   -1.027990    0.540652
  C     -2.037445   -2.225059   -0.257718
  C     -0.953633   -3.202390    0.147649
  H      4.681925   -1.595018   -3.137905
  H      2.995953   -2.101310   -2.923078
  H      3.452887   -0.411420   -2.670738
  H      4.779243   -1.005026   -0.693070
  H      4.455992   -2.745863   -0.955473
  H      1.679425    0.538471    2.675854
  H      0.558163   -0.780765    3.119362
  H      2.470849   -2.411228    2.881459
  H      3.549863   -1.058319    2.507839
  H      2.812877   -1.179977    4.112883
  H     -0.592377    1.688725   -2.015767
  H      1.000535    2.097135   -1.276001
  H     -4.346189    1.983598    2.447597
  H     -2.722688    2.621646    2.056939
  H     -5.041894    2.435114    0.068054
  H     -4.534777    3.916120    0.900114
  H     -3.448445    3.125397   -0.252398
  H     -3.030733   -2.637420   -0.064159
  H     -1.963877   -1.960028   -1.317824
  H     -1.026375   -3.416511    1.209937
  H     -1.080614   -4.120563   -0.416608
  H      0.030689   -2.789654   -0.059673

 Total Charge           Charge          ....    0
 Multiplicity           Mult            ....    1
 Number of Electrons    NEL             ....  202
 Basis Dimension        Dim             ....  334

ORBITAL ENERGIES
----------------

  NO   OCC          E(Eh)            E(eV)
   0   2.0000     -88.046152     -2395.8576
   1   2.0000     -88.042956     -2395.7706
   2   2.0000     -87.993424     -2394.4228
   3   2.0000     -87.984700     -2394.1854
   4   2.0000     -76.430275     -2079.7735
   5   2.0000     -76.425240     -2079.6365
   6   2.0000     -18.799904      -511.5714
   7   2.0000     -18.791208      -511.3348
   8   2.0000     -18.790009      -511.3021
   9   2.0000     -18.782980      -511.1109
  10   2.0000      -9.956960      -270.9427
  11   2.0000      -9.956794      -270.9381
  12   2.0000      -9.955582      -270.9052
  13   2.0000      -9.950160      -270.7576
  14   2.0000      -9.942973      -270.5620
  15   2.0000      -9.887317      -269.0476
  16   2.0000      -9.884102      -268.9601
  17   2.0000      -9.882145      -268.9068
  18   2.0000      -9.876211      -268.7454
  19   2.0000      -7.690871      -209.2792
  20   2.0000      -7.687761      -209.1946
  21   2.0000      -7.638248      -207.8473
  22   2.0000      -7.629718      -207.6152
  23   2.0000      -6.427567      -174.9030
  24   2.0000      -6.422256      -174.7585
  25   2.0000      -5.718671      -155.6129
  26   2.0000      -5.715541      -155.5278
  27   2.0000      -5.715512      -155.5270
  28   2.0000      -5.712308      -155.4398
  29   2.0000      -5.707779      -155.3166
  30   2.0000      -5.704845      -155.2367
  31   2.0000      -5.667069      -154.2088
  32   2.0000      -5.658867      -153.9856
  33   2.0000      -5.658584      -153.9779
  34   2.0000      -5.658553      -153.9771
  35   2.0000      -5.650340      -153.7536
  36   2.0000      -5.649942      -153.7427
  37   2.0000      -4.649944      -126.5314
  38   2.0000      -4.649338      -126.5149
  39   2.0000      -4.648217      -126.4844
  40   2.0000      -4.644567      -126.3851
  41   2.0000      -4.644263      -126.3768
  42   2.0000      -4.642787      -126.3367
  43   2.0000      -0.990675       -26.9576
  44   2.0000      -0.983288       -26.7566
  45   2.0000      -0.949195       -25.8289
  46   2.0000      -0.939285       -25.5592
  47   2.0000      -0.767308       -20.8795
  48   2.0000      -0.721704       -19.6386
  49   2.0000      -0.709360       -19.3027
  50   2.0000      -0.689020       -18.7492
  51   2.0000      -0.682825       -18.5806
  52   2.0000      -0.674626       -18.3575
  53   2.0000      -0.652034       -17.7427
  54   2.0000      -0.639946       -17.4138
  55   2.0000      -0.604809       -16.4577
  56   2.0000      -0.593102       -16.1391
  57   2.0000      -0.574141       -15.6232
  58   2.0000      -0.569614       -15.5000
  59   2.0000      -0.557285       -15.1645
  60   2.0000      -0.500224       -13.6118
  61   2.0000      -0.494307       -13.4508
  62   2.0000      -0.476496       -12.9661
  63   2.0000      -0.468323       -12.7437
  64   2.0000      -0.459794       -12.5116
  65   2.0000      -0.443355       -12.0643
  66   2.0000      -0.442010       -12.0277
  67   2.0000      -0.431920       -11.7531
  68   2.0000      -0.422948       -11.5090
  69   2.0000      -0.417146       -11.3511
  70   2.0000      -0.412965       -11.2374
  71   2.0000      -0.397703       -10.8220
  72   2.0000      -0.394460       -10.7338
  73   2.0000      -0.389499       -10.5988
  74   2.0000      -0.381321       -10.3763
  75   2.0000      -0.379311       -10.3216
  76   2.0000      -0.368353       -10.0234
  77   2.0000      -0.357853        -9.7377
  78   2.0000      -0.350702        -9.5431
  79   2.0000      -0.348068        -9.4714
  80   2.0000      -0.347105        -9.4452
  81   2.0000      -0.345558        -9.4031
  82   2.0000      -0.341953        -9.3050
  83   2.0000      -0.337665        -9.1883
  84   2.0000      -0.327562        -8.9134
  85   2.0000      -0.323224        -8.7954
  86   2.0000      -0.311712        -8.4821
  87   2.0000      -0.299544        -8.1510
  88   2.0000      -0.295265        -8.0346
  89   2.0000      -0.286776        -7.8036
  90   2.0000      -0.282198        -7.6790
  91   2.0000      -0.276984        -7.5371
  92   2.0000      -0.270229        -7.3533
  93   2.0000      -0.268702        -7.3118
  94   2.0000      -0.253799        -6.9062
  95   2.0000      -0.233099        -6.3430
  96   2.0000      -0.219474        -5.9722
  97   2.0000      -0.216006        -5.8778
  98   2.0000      -0.210208        -5.7201
  99   2.0000      -0.200249        -5.4491
 100   2.0000      -0.198606        -5.4043
 101   0.0000      -0.048477        -1.3191
 102   0.0000      -0.025437        -0.6922
 103   0.0000      -0.003592        -0.0977
 104   0.0000      -0.000660        -0.0180
 105   0.0000       0.006890         0.1875

MULLIKEN ATOMIC CHARGES
-----------------------
   0 C :   -0.316840
   1 C :   -0.005938
   2 O :   -0.376070
   3 P :    0.617475
   4 S :   -0.328327
   5 O :   -0.356240
   6 C :   -0.001208
   7 C :   -0.305396
   8 S :   -0.075873
   9 C :   -0.354899
  10 S :   -0.100453
  11 P :    0.610930
  12 S :   -0.337437
  13 O :   -0.364131
  14 C :   -0.013285
  15 C :   -0.308052
  16 O :   -0.358432
  17 C :   -0.004657
  18 C :   -0.287988
  19 H :    0.115232
  20 H :    0.119439
  21 H :    0.128255
  22 H :    0.112236
  23 H :    0.107463
  24 H :    0.111172
  25 H :    0.107519
  26 H :    0.116455
  27 H :    0.120016
  28 H :    0.112022
  29 H :    0.193595
  30 H :    0.189706
  31 H :    0.109616
  32 H :    0.114525
  33 H :    0.126285
  34 H :    0.110596
  35 H :    0.124574
  36 H :    0.100921
  37 H :    0.112387
  38 H :    0.107255
  39 H :    0.102751
  40 H :    0.124802
Sum of atomic charges:    0.0000000

LOEWDIN ATOMIC CHARGES
----------------------
   0 C :   -0.369354
   1 C :   -0.118655
   2 O :   -0.242325
   3 P :    0.573637
   4 S :   -0.322772
   5 O :   -0.227948
   6 C :   -0.117874
   7 C :   -0.364322
   8 S :    0.104838
   9 C :   -0.481692
  10 S :    0.080303
  11 P :    0.572005
  12 S :   -0.319429
  13 O :   -0.240679
  14 C :   -0.115222
  15 C :   -0.369070
  16 O :   -0.237714
  17 C :   -0.117888
  18 C :   -0.355640
  19 H :    0.132195
  20 H :    0.125054
  21 H :    0.121829
  22 H :    0.111393
  23 H :    0.119838
  24 H :    0.109416
  25 H :    0.119880
  26 H :    0.126141
  27 H :    0.121353
  28 H :    0.130278
  29 H :    0.130344
  30 H :    0.130300
  31 H :    0.121587
  32 H :    0.108104
  33 H :    0.130083
  34 H :    0.129587
  35 H :    0.120775
  36 H :    0.112139
  37 H :    0.103208
  38 H :    0.123181
  39 H :    0.126814
  40 H :    0.116301

  Mayer bond orders larger than 0.100000
B(  0-C ,  1-C ) :   1.1662 B(  0-C , 19-H ) :   0.9376 B(  0-C , 20-H ) :   0.9447
B(  0-C , 21-H ) :   0.9353 B(  1-C ,  2-O ) :   0.9071 B(  1-C , 22-H ) :   0.9167
B(  1-C , 23-H ) :   0.9336 B(  2-O ,  3-P ) :   1.0937 B(  3-P ,  4-S ) :   1.5852
B(  3-P ,  5-O ) :   1.1171 B(  3-P ,  8-S ) :   0.9564 B(  4-S ,  8-S ) :   0.1052
B(  5-O ,  6-C ) :   0.9012 B(  6-C ,  7-C ) :   1.1639 B(  6-C , 24-H ) :   0.9159
B(  6-C , 25-H ) :   0.9329 B(  7-C , 26-H ) :   0.9469 B(  7-C , 27-H ) :   0.9361
B(  7-C , 28-H ) :   0.9399 B(  8-S ,  9-C ) :   1.0008 B(  9-C , 10-S ) :   1.0126
B(  9-C , 29-H ) :   0.8784 B(  9-C , 30-H ) :   0.8831 B( 10-S , 11-P ) :   0.9326
B( 10-S , 12-S ) :   0.1099 B( 11-P , 12-S ) :   1.6003 B( 11-P , 13-O ) :   1.1298
B( 11-P , 16-O ) :   1.1407 B( 13-O , 14-C ) :   0.9165 B( 14-C , 15-C ) :   1.1636
B( 14-C , 31-H ) :   0.9339 B( 14-C , 32-H ) :   0.9255 B( 15-C , 33-H ) :   0.9433
B( 15-C , 34-H ) :   0.9355 B( 15-C , 35-H ) :   0.9335 B( 16-O , 17-C ) :   0.8963
B( 17-C , 18-C ) :   1.1632 B( 17-C , 36-H ) :   0.9348 B( 17-C , 37-H ) :   0.9042
B( 18-C , 38-H ) :   0.9485 B( 18-C , 39-H ) :   0.9400 B( 18-C , 40-H ) :   0.9376

Dispersion correction           -0.067859558
FINAL SINGLE POINT ENERGY     -2929.524570306507

DIPOLE MOMENT
-------------

Method             : SCF
Type of density    : Electron Density
Multiplicity       :   1
Irrep              :   0
Energy             : -2929.6423099009080033 Eh
Relativity type    :
Basis              : AO
                                X                 Y                 Z
Electronic contribution:     -4.203475866       8.864251076      -5.215384017
Nuclear contribution   :      4.576270722      -9.381944320       5.887871677
                        -----------------------------------------
Total Dipole Moment    :      0.372794856      -0.517693245       0.672487660
                        -----------------------------------------
Magnitude (a.u.)       :      0.926942260
Magnitude (Debye)      :      2.356099983

Rotational constants in cm-1:             0.012736             0.005200             0.005047
Rotational constants in MHz :           381.822830           155.884653           151.307360

                             ****ORCA TERMINATED NORMALLY****
TOTAL RUN TIME: 0 days 0 hours 0 minutes 21 seconds 757 msec
