                         Program Version 6.0.0  -   RELEASE  -
|  1> ! pbe def2-sv(p) def2/J RI DEFGRID1 loosescf d4 GCP(DFT/SV(P)) printgap
|  2> %output
|  3>     printlevel normal
|  4> end
|  5> * xyz 0 1
|  6> C 5.388701893 -1.4171377426 -1.2710501146
|  7> C 3.9741282912 -1.7004533674 -1.7384315839
|  8> O 3.0575937495 -1.7206756607 -0.6242155562
|  9> P 2.2221938855 -0.4408333605 -0.1804708331
| 10> S 3.2585164605 1.1874880052 0.1757909745
| 11> O 1.4154001376 -1.0492058967 1.03343316
| 12> C 1.8050143811 -0.8739654167 2.4158827324
| 13> C 0.914755966 0.1486609226 3.0933506945
| 14> S 0.7540259875 -0.3168869697 -1.6946150359
| 15> C 0.297171767 1.4206425825 -1.4432497775
| 16> S -0.4457199965 1.7311533753 0.1801309879
| 17> P -2.076055659 0.4023766351 -0.026655206
| 18> S -2.8995136516 0.3144256228 -1.8072608
| 19> O -3.0444412711 0.8480005819 1.1488020643
| 20> C -3.8666261552 2.028457712 1.0416312066
| 21> C -4.9321681792 1.9518880081 2.1162251732
| 22> O -1.4892645761 -0.9412869621 0.56333488
| 23> C -1.9302079105 -2.2372215685 0.114834697
| 24> C -3.3092359254 -2.5600891834 0.6495513932
| 25> H 5.4498091978 -0.4233354524 -0.8332000246
| 26> H 5.6883734456 -2.148071589 -0.5253189521
| 27> H 6.0625677144 -1.4719448635 -2.1198864346
| 28> H 3.8920737406 -2.6959581406 -2.1786525315
| 29> H 3.6424748956 -0.9535098612 -2.4653470771
| 30> H 1.6919367729 -1.8626436127 2.8633727823
| 31> H 2.8537455215 -0.5667274029 2.4587403767
| 32> H 1.097259388 1.139452612 2.6822557827
| 33> H -0.1309163853 -0.105481986 2.9362597536
| 34> H 1.1288314553 0.1595599286 4.1572174887
| 35> H -0.4172462887 1.6648528879 -2.2285851829
| 36> H 1.1865285782 2.0475766011 -1.4996872381
| 37> H -3.2260882795 2.9045236256 1.1752095183
| 38> H -4.3063118051 2.0562414098 0.0389173257
| 39> H -4.4657928248 1.8826497604 3.0945595304
| 40> H -5.5461741008 2.8453491381 2.072140481
| 41> H -5.5589023131 1.078266638 1.9617016051
| 42> H -1.9232665882 -2.2501484578 -0.9803815039
| 43> H -1.1692446004 -2.9207501979 0.4943133427
| 44> H -3.586333309 -3.5665488001 0.3522413835
| 45> H -3.3202237206 -2.4838558524 1.7334260477
| 46> H -4.0328633212 -1.8563992056 0.2392720471
| 47> *
| 48>
| 49>                          ****END OF INPUT****

CARTESIAN COORDINATES (ANGSTROEM)
---------------------------------
  C      5.388702   -1.417138   -1.271050
  C      3.974128   -1.700453   -1.738432
  O      3.057594   -1.720676   -0.624216
  P      2.222194   -0.440833   -0.180471
  S      3.258516    1.187488    0.175791
  O      1.415400   -1.049206    1.033433
  C      1.805014   -0.873965    2.415883
  C      0.914756    0.148661    3.093351
  S      0.754026   -0.316887   -1.694615
  C      0.297172    1.420643   -1.443250
  S     -0.445720    1.731153    0.180131
  P     -2.076056    0.402377   -0.026655
  S     -2.899514    0.314426   -1.807261
  O     -3.044441    0.848001    1.148802
  C     -3.866626    2.028458    1.041631
  C     -4.932168    1.951888    2.116225
  O     -1.489265   -0.941287    0.563335
  C     -1.930208   -2.237222    0.114835
  C     -3.309236   -2.560089    0.649551
  H      5.449809   -0.423335   -0.833200
  H      5.688373   -2.148072   -0.525319
  H      6.062568   -1.471945   -2.119886
  H      3.892074   -2.695958   -2.178653
  H      3.642475   -0.953510   -2.465347
  H      1.691937   -1.862644    2.863373
  H      2.853746   -0.566727    2.458740
  H      1.097259    1.139453    2.682256
  H     -0.130916   -0.105482    2.936260
  H      1.128831    0.159560    4.157217
  H     -0.417246    1.664853   -2.228585
  H      1.186529    2.047577   -1.499687
  H     -3.226088    2.904524    1.175210
  H     -4.306312    2.056241    0.038917
  H     -4.465793    1.882650    3.094560
  H     -5.546174    2.845349    2.072140
  H     -5.558902    1.078267    1.961702
  H     -1.923267   -2.250148   -0.980382
  H     -1.169245   -2.920750    0.494313
  H     -3.586333   -3.566549    0.352241
  H     -3.320224   -2.483856    1.733426
  H     -4.032863   -1.856399    0.239272

 Total Charge           Charge          ....    0
 Multiplicity           Mult            ....    1
 Number of Electrons    NEL             ....  202
 Basis Dimension        Dim             ....  334

ORBITAL ENERGIES
----------------

  NO   OCC          E(Eh)            E(eV)
   0   2.0000     -88.043623     -2395.7888
   1   2.0000     -88.041671     -2395.7357
   2   2.0000     -87.988577     -2394.2909
   3   2.0000     -87.988187     -2394.2803
   4   2.0000     -76.426281     -2079.6648
   5   2.0000     -76.425893     -2079.6543
   6   2.0000     -18.795941      -511.4636
   7   2.0000     -18.791001      -511.3291
   8   2.0000     -18.788982      -511.2742
   9   2.0000     -18.786313      -511.2016
  10   2.0000      -9.954574      -270.8777
  11   2.0000      -9.954346      -270.8715
  12   2.0000      -9.953465      -270.8476
  13   2.0000      -9.949446      -270.7382
  14   2.0000      -9.948069      -270.7007
  15   2.0000      -9.889902      -269.1179
  16   2.0000      -9.882127      -268.9064
  17   2.0000      -9.880246      -268.8552
  18   2.0000      -9.874860      -268.7086
  19   2.0000      -7.688559      -209.2163
  20   2.0000      -7.686640      -209.1641
  21   2.0000      -7.633505      -207.7182
  22   2.0000      -7.633167      -207.7090
  23   2.0000      -6.423877      -174.8026
  24   2.0000      -6.423418      -174.7901
  25   2.0000      -5.716414      -155.5515
  26   2.0000      -5.714479      -155.4989
  27   2.0000      -5.713057      -155.4602
  28   2.0000      -5.711215      -155.4101
  29   2.0000      -5.705551      -155.2559
  30   2.0000      -5.703558      -155.2017
  31   2.0000      -5.662301      -154.0790
  32   2.0000      -5.661975      -154.0702
  33   2.0000      -5.654119      -153.8564
  34   2.0000      -5.653890      -153.8502
  35   2.0000      -5.653821      -153.8483
  36   2.0000      -5.653345      -153.8353
  37   2.0000      -4.646207      -126.4297
  38   2.0000      -4.645797      -126.4186
  39   2.0000      -4.645691      -126.4157
  40   2.0000      -4.645211      -126.4026
  41   2.0000      -4.644471      -126.3825
  42   2.0000      -4.644048      -126.3710
  43   2.0000      -0.988203       -26.8904
  44   2.0000      -0.983932       -26.7741
  45   2.0000      -0.946686       -25.7606
  46   2.0000      -0.941587       -25.6219
  47   2.0000      -0.765607       -20.8332
  48   2.0000      -0.721867       -19.6430
  49   2.0000      -0.708565       -19.2810
  50   2.0000      -0.687699       -18.7133
  51   2.0000      -0.682290       -18.5661
  52   2.0000      -0.672072       -18.2880
  53   2.0000      -0.649976       -17.6867
  54   2.0000      -0.639626       -17.4051
  55   2.0000      -0.599346       -16.3090
  56   2.0000      -0.590438       -16.0666
  57   2.0000      -0.571831       -15.5603
  58   2.0000      -0.565051       -15.3758
  59   2.0000      -0.558931       -15.2093
  60   2.0000      -0.506228       -13.7752
  61   2.0000      -0.500678       -13.6241
  62   2.0000      -0.477438       -12.9917
  63   2.0000      -0.473329       -12.8799
  64   2.0000      -0.455353       -12.3908
  65   2.0000      -0.441541       -12.0149
  66   2.0000      -0.438284       -11.9263
  67   2.0000      -0.434078       -11.8119
  68   2.0000      -0.426870       -11.6157
  69   2.0000      -0.412123       -11.2144
  70   2.0000      -0.403020       -10.9667
  71   2.0000      -0.398053       -10.8316
  72   2.0000      -0.393346       -10.7035
  73   2.0000      -0.384463       -10.4618
  74   2.0000      -0.377236       -10.2651
  75   2.0000      -0.373424       -10.1614
  76   2.0000      -0.369425       -10.0526
  77   2.0000      -0.358472        -9.7545
  78   2.0000      -0.352122        -9.5817
  79   2.0000      -0.347659        -9.4603
  80   2.0000      -0.347354        -9.4520
  81   2.0000      -0.344493        -9.3741
  82   2.0000      -0.342421        -9.3177
  83   2.0000      -0.336017        -9.1435
  84   2.0000      -0.330767        -9.0006
  85   2.0000      -0.320169        -8.7123
  86   2.0000      -0.305308        -8.3079
  87   2.0000      -0.301751        -8.2111
  88   2.0000      -0.297382        -8.0922
  89   2.0000      -0.288918        -7.8619
  90   2.0000      -0.282208        -7.6793
  91   2.0000      -0.279322        -7.6007
  92   2.0000      -0.267153        -7.2696
  93   2.0000      -0.264285        -7.1916
  94   2.0000      -0.258551        -7.0355
  95   2.0000      -0.233164        -6.3447
  96   2.0000      -0.219303        -5.9675
  97   2.0000      -0.214461        -5.8358
  98   2.0000      -0.207251        -5.6396
  99   2.0000      -0.201515        -5.4835
 100   2.0000      -0.198583        -5.4037
 101   0.0000      -0.045117        -1.2277
 102   0.0000      -0.023858        -0.6492
 103   0.0000      -0.000070        -0.0019
 104   0.0000       0.004359         0.1186
 105   0.0000       0.009038         0.2459

MULLIKEN ATOMIC CHARGES
-----------------------
   0 C :   -0.290544
   1 C :   -0.008209
   2 O :   -0.372155
   3 P :    0.611335
   4 S :   -0.339996
   5 O :   -0.356314
   6 C :   -0.001423
   7 C :   -0.296161
   8 S :   -0.079885
   9 C :   -0.356951
  10 S :   -0.082583
  11 P :    0.621799
  12 S :   -0.337484
  13 O :   -0.377278
  14 C :   -0.013772
  15 C :   -0.279888
  16 O :   -0.353306
  17 C :   -0.003632
  18 C :   -0.302218
  19 H :    0.128575
  20 H :    0.111431
  21 H :    0.106932
  22 H :    0.106661
  23 H :    0.100561
  24 H :    0.102016
  25 H :    0.104274
  26 H :    0.128694
  27 H :    0.119717
  28 H :    0.102500
  29 H :    0.191247
  30 H :    0.191374
  31 H :    0.104299
  32 H :    0.106709
  33 H :    0.117384
  34 H :    0.113107
  35 H :    0.119218
  36 H :    0.113547
  37 H :    0.105329
  38 H :    0.111132
  39 H :    0.113471
  40 H :    0.120485
Sum of atomic charges:   -0.0000000

LOEWDIN ATOMIC CHARGES
----------------------
   0 C :   -0.363048
   1 C :   -0.116413
   2 O :   -0.250234
   3 P :    0.567700
   4 S :   -0.324583
   5 O :   -0.234417
   6 C :   -0.110055
   7 C :   -0.363705
   8 S :    0.093163
   9 C :   -0.479717
  10 S :    0.095017
  11 P :    0.569330
  12 S :   -0.326675
  13 O :   -0.247438
  14 C :   -0.120569
  15 C :   -0.349977
  16 O :   -0.226966
  17 C :   -0.117877
  18 C :   -0.363852
  19 H :    0.124340
  20 H :    0.124940
  21 H :    0.128423
  22 H :    0.118476
  23 H :    0.106308
  24 H :    0.116511
  25 H :    0.108031
  26 H :    0.122183
  27 H :    0.123134
  28 H :    0.125478
  29 H :    0.131286
  30 H :    0.130714
  31 H :    0.110168
  32 H :    0.109042
  33 H :    0.127380
  34 H :    0.131439
  35 H :    0.128127
  36 H :    0.109612
  37 H :    0.118462
  38 H :    0.129924
  39 H :    0.124761
  40 H :    0.121581

  Mayer bond orders larger than 0.100000
B(  0-C ,  1-C ) :   1.1668 B(  0-C , 19-H ) :   0.9322 B(  0-C , 20-H ) :   0.9477
B(  0-C , 21-H ) :   0.9397 B(  1-C ,  2-O ) :   0.9043 B(  1-C , 22-H ) :   0.9362
B(  1-C , 23-H ) :   0.9145 B(  2-O ,  3-P ) :   1.1154 B(  3-P ,  4-S ) :   1.5889
B(  3-P ,  5-O ) :   1.1481 B(  3-P ,  8-S ) :   0.9583 B(  4-S ,  8-S ) :   0.1102
B(  5-O ,  6-C ) :   0.8928 B(  6-C ,  7-C ) :   1.1726 B(  6-C , 24-H ) :   0.9340
B(  6-C , 25-H ) :   0.9124 B(  7-C , 26-H ) :   0.9382 B(  7-C , 27-H ) :   0.9418
B(  7-C , 28-H ) :   0.9385 B(  8-S ,  9-C ) :   1.0049 B(  9-C , 10-S ) :   1.0041
B(  9-C , 29-H ) :   0.8856 B(  9-C , 30-H ) :   0.8838 B( 10-S , 11-P ) :   0.9609
B( 10-S , 12-S ) :   0.1075 B( 11-P , 12-S ) :   1.5930 B( 11-P , 13-O ) :   1.1081
B( 11-P , 16-O ) :   1.1267 B( 13-O , 14-C ) :   0.9037 B( 14-C , 15-C ) :   1.1609
B( 14-C , 31-H ) :   0.9282 B( 14-C , 32-H ) :   0.9111 B( 15-C , 33-H ) :   0.9505
B( 15-C , 34-H ) :   0.9418 B( 15-C , 35-H ) :   0.9514 B( 16-O , 17-C ) :   0.8992
B( 17-C , 18-C ) :   1.1634 B( 17-C , 36-H ) :   0.9140 B( 17-C , 37-H ) :   0.9326
B( 18-C , 38-H ) :   0.9403 B( 18-C , 39-H ) :   0.9470 B( 18-C , 40-H ) :   0.9359

Dispersion correction           -0.065978259
FINAL SINGLE POINT ENERGY     -2929.528857995701

DIPOLE MOMENT
-------------

Method             : SCF
Type of density    : Electron Density
Multiplicity       :   1
Irrep              :   0
Energy             : -2929.6467166376983187 Eh
Relativity type    :
Basis              : AO
                                X                 Y                 Z
Electronic contribution:      4.626571645       6.578504370     -12.305453854
Nuclear contribution   :     -4.832045908      -7.153986117      12.905856791
                        -----------------------------------------
Total Dipole Moment    :     -0.205474263      -0.575481747       0.600402938
                        -----------------------------------------
Magnitude (a.u.)       :      0.856669482
Magnitude (Debye)      :      2.177480776

Rotational constants in cm-1:             0.013727             0.004812             0.004668
Rotational constants in MHz :           411.535311           144.274744           139.942664

                             ****ORCA TERMINATED NORMALLY****
TOTAL RUN TIME: 0 days 0 hours 0 minutes 21 seconds 148 msec
