                         Program Version 6.0.0  -   RELEASE  -
|  1> ! pbe def2-sv(p) def2/J RI DEFGRID1 loosescf d4 GCP(DFT/SV(P)) printgap
|  2> %output
|  3>     printlevel normal
|  4> end
|  5> * xyz 0 1
|  6> C 4.5394497137 -1.724170373 -0.8225479445
|  7> C 4.6553580814 -0.3043632231 -0.306422074
|  8> O 3.5110042577 0.0891658091 0.4697483442
|  9> P 2.0705217434 0.3049832281 -0.1708426474
| 10> S 2.0921864004 1.1073006449 -1.9629413787
| 11> O 1.340527643 1.0976131331 0.9911316767
| 12> C 1.3747405798 2.533127201 1.0914982012
| 13> C 2.7640753119 3.0529021196 1.39190218
| 14> S 1.1794248701 -1.5848955269 0.0501580654
| 15> C -0.0482718396 -1.5583729659 -1.3053002989
| 16> S -1.7364252012 -1.8046936289 -0.7193263794
| 17> P -2.0127272901 0.0918009286 0.1982739333
| 18> S -1.3440861055 1.6146194563 -0.8389483104
| 19> O -1.3625989259 0.0239223931 1.630124246
| 20> C -1.3779798469 -1.1050829556 2.5419878065
| 21> C -2.7664505932 -1.6509548415 2.7905091485
| 22> O -3.5641591809 0.1697296838 0.5240622798
| 23> C -4.5518913758 0.5381026041 -0.4540776459
| 24> C -5.0605671065 -0.6694396956 -1.2166071406
| 25> H 4.3108251824 -2.405845503 -0.0072317021
| 26> H 3.7462713524 -1.7851708314 -1.566447334
| 27> H 5.4774188581 -2.0141959808 -1.2849840127
| 28> H 4.7647209541 0.397694779 -1.1393715672
| 29> H 5.4903642156 -0.1939644983 0.3867118818
| 30> H 0.9911992327 2.9538491874 0.1554188104
| 31> H 0.671264357 2.7514586677 1.8968722473
| 32> H 3.4201505159 2.8710313404 0.5415037831
| 33> H 2.7128556314 4.1216409702 1.5752043917
| 34> H 3.1705275203 2.5512491392 2.2662890813
| 35> H 0.165458276 -2.3920882065 -1.9687804226
| 36> H 0.0308344891 -0.6027082336 -1.83100735
| 37> H -0.7188305628 -1.8779445946 2.1357519904
| 38> H -0.9365553991 -0.6903807223 3.4494655816
| 39> H -2.7096836194 -2.4116787917 3.5631081438
| 40> H -3.4327870616 -0.8560536035 3.114975548
| 41> H -3.165315947 -2.0982573532 1.8823931544
| 42> H -5.348410451 1.0009511816 0.1311856486
| 43> H -4.1175163236 1.2821560431 -1.1304285077
| 44> H -4.2664214817 -1.1061639713 -1.8174996785
| 45> H -5.428927752 -1.4204495812 -0.5236204968
| 46> H -5.8687857667 -0.3587876018 -1.8709352719
| 47> *
| 48>
| 49>                          ****END OF INPUT****

CARTESIAN COORDINATES (ANGSTROEM)
---------------------------------
  C      4.539450   -1.724170   -0.822548
  C      4.655358   -0.304363   -0.306422
  O      3.511004    0.089166    0.469748
  P      2.070522    0.304983   -0.170843
  S      2.092186    1.107301   -1.962941
  O      1.340528    1.097613    0.991132
  C      1.374741    2.533127    1.091498
  C      2.764075    3.052902    1.391902
  S      1.179425   -1.584896    0.050158
  C     -0.048272   -1.558373   -1.305300
  S     -1.736425   -1.804694   -0.719326
  P     -2.012727    0.091801    0.198274
  S     -1.344086    1.614619   -0.838948
  O     -1.362599    0.023922    1.630124
  C     -1.377980   -1.105083    2.541988
  C     -2.766451   -1.650955    2.790509
  O     -3.564159    0.169730    0.524062
  C     -4.551891    0.538103   -0.454078
  C     -5.060567   -0.669440   -1.216607
  H      4.310825   -2.405846   -0.007232
  H      3.746271   -1.785171   -1.566447
  H      5.477419   -2.014196   -1.284984
  H      4.764721    0.397695   -1.139372
  H      5.490364   -0.193964    0.386712
  H      0.991199    2.953849    0.155419
  H      0.671264    2.751459    1.896872
  H      3.420151    2.871031    0.541504
  H      2.712856    4.121641    1.575204
  H      3.170528    2.551249    2.266289
  H      0.165458   -2.392088   -1.968780
  H      0.030834   -0.602708   -1.831007
  H     -0.718831   -1.877945    2.135752
  H     -0.936555   -0.690381    3.449466
  H     -2.709684   -2.411679    3.563108
  H     -3.432787   -0.856054    3.114976
  H     -3.165316   -2.098257    1.882393
  H     -5.348410    1.000951    0.131186
  H     -4.117516    1.282156   -1.130429
  H     -4.266421   -1.106164   -1.817500
  H     -5.428928   -1.420450   -0.523620
  H     -5.868786   -0.358788   -1.870935

 Total Charge           Charge          ....    0
 Multiplicity           Mult            ....    1
 Number of Electrons    NEL             ....  202
 Basis Dimension        Dim             ....  334

ORBITAL ENERGIES
----------------

  NO   OCC          E(Eh)            E(eV)
   0   2.0000     -88.046903     -2395.8780
   1   2.0000     -88.042023     -2395.7452
   2   2.0000     -87.982981     -2394.1386
   3   2.0000     -87.978360     -2394.0129
   4   2.0000     -76.424233     -2079.6091
   5   2.0000     -76.420970     -2079.5203
   6   2.0000     -18.793747      -511.4039
   7   2.0000     -18.788698      -511.2665
   8   2.0000     -18.788574      -511.2631
   9   2.0000     -18.778281      -510.9830
  10   2.0000      -9.956032      -270.9174
  11   2.0000      -9.952183      -270.8127
  12   2.0000      -9.951870      -270.8041
  13   2.0000      -9.948919      -270.7238
  14   2.0000      -9.937449      -270.4117
  15   2.0000      -9.886354      -269.0214
  16   2.0000      -9.885853      -269.0077
  17   2.0000      -9.881654      -268.8935
  18   2.0000      -9.875350      -268.7219
  19   2.0000      -7.691781      -209.3040
  20   2.0000      -7.687089      -209.1763
  21   2.0000      -7.627850      -207.5644
  22   2.0000      -7.623308      -207.4408
  23   2.0000      -6.421673      -174.7426
  24   2.0000      -6.418539      -174.6573
  25   2.0000      -5.719551      -155.6369
  26   2.0000      -5.716091      -155.5428
  27   2.0000      -5.714935      -155.5113
  28   2.0000      -5.711621      -155.4211
  29   2.0000      -5.709073      -155.3518
  30   2.0000      -5.703985      -155.2133
  31   2.0000      -5.656716      -153.9271
  32   2.0000      -5.652280      -153.8064
  33   2.0000      -5.648691      -153.7087
  34   2.0000      -5.647883      -153.6867
  35   2.0000      -5.643750      -153.5742
  36   2.0000      -5.643543      -153.5686
  37   2.0000      -4.644413      -126.3809
  38   2.0000      -4.643629      -126.3596
  39   2.0000      -4.641792      -126.3096
  40   2.0000      -4.640793      -126.2824
  41   2.0000      -4.640144      -126.2647
  42   2.0000      -4.639445      -126.2457
  43   2.0000      -0.986045       -26.8316
  44   2.0000      -0.979849       -26.6630
  45   2.0000      -0.944015       -25.6880
  46   2.0000      -0.937051       -25.4985
  47   2.0000      -0.763172       -20.7670
  48   2.0000      -0.718944       -19.5635
  49   2.0000      -0.707039       -19.2395
  50   2.0000      -0.690416       -18.7872
  51   2.0000      -0.682919       -18.5832
  52   2.0000      -0.672870       -18.3097
  53   2.0000      -0.648602       -17.6493
  54   2.0000      -0.631725       -17.1901
  55   2.0000      -0.600640       -16.3442
  56   2.0000      -0.592357       -16.1189
  57   2.0000      -0.574029       -15.6201
  58   2.0000      -0.565881       -15.3984
  59   2.0000      -0.560510       -15.2523
  60   2.0000      -0.495341       -13.4789
  61   2.0000      -0.485908       -13.2222
  62   2.0000      -0.472240       -12.8503
  63   2.0000      -0.465280       -12.6609
  64   2.0000      -0.450372       -12.2552
  65   2.0000      -0.445965       -12.1353
  66   2.0000      -0.440204       -11.9785
  67   2.0000      -0.434612       -11.8264
  68   2.0000      -0.429673       -11.6920
  69   2.0000      -0.413357       -11.2480
  70   2.0000      -0.409944       -11.1551
  71   2.0000      -0.395567       -10.7639
  72   2.0000      -0.387471       -10.5436
  73   2.0000      -0.385190       -10.4815
  74   2.0000      -0.381246       -10.3742
  75   2.0000      -0.377432       -10.2705
  76   2.0000      -0.366056        -9.9609
  77   2.0000      -0.359144        -9.7728
  78   2.0000      -0.352469        -9.5912
  79   2.0000      -0.350298        -9.5321
  80   2.0000      -0.346470        -9.4279
  81   2.0000      -0.342701        -9.3254
  82   2.0000      -0.335894        -9.1401
  83   2.0000      -0.333565        -9.0768
  84   2.0000      -0.331819        -9.0293
  85   2.0000      -0.315994        -8.5986
  86   2.0000      -0.307808        -8.3759
  87   2.0000      -0.292806        -7.9677
  88   2.0000      -0.290640        -7.9087
  89   2.0000      -0.289729        -7.8839
  90   2.0000      -0.274306        -7.4642
  91   2.0000      -0.271033        -7.3752
  92   2.0000      -0.264472        -7.1966
  93   2.0000      -0.261475        -7.1151
  94   2.0000      -0.258028        -7.0213
  95   2.0000      -0.238570        -6.4918
  96   2.0000      -0.219849        -5.9824
  97   2.0000      -0.212860        -5.7922
  98   2.0000      -0.202195        -5.5020
  99   2.0000      -0.192494        -5.2380
 100   2.0000      -0.185035        -5.0351
 101   0.0000      -0.040727        -1.1082
 102   0.0000      -0.030722        -0.8360
 103   0.0000      -0.010170        -0.2767
 104   0.0000       0.012765         0.3474
 105   0.0000       0.024334         0.6622

MULLIKEN ATOMIC CHARGES
-----------------------
   0 C :   -0.308947
   1 C :   -0.003338
   2 O :   -0.375107
   3 P :    0.614947
   4 S :   -0.318461
   5 O :   -0.354102
   6 C :   -0.001888
   7 C :   -0.301338
   8 S :   -0.098528
   9 C :   -0.352291
  10 S :   -0.114681
  11 P :    0.599581
  12 S :   -0.301694
  13 O :   -0.349519
  14 C :   -0.000321
  15 C :   -0.309728
  16 O :   -0.371774
  17 C :   -0.006121
  18 C :   -0.312574
  19 H :    0.116327
  20 H :    0.120409
  21 H :    0.111091
  22 H :    0.109286
  23 H :    0.103326
  24 H :    0.121557
  25 H :    0.101874
  26 H :    0.118721
  27 H :    0.108955
  28 H :    0.111811
  29 H :    0.182932
  30 H :    0.212843
  31 H :    0.115226
  32 H :    0.108198
  33 H :    0.112597
  34 H :    0.121580
  35 H :    0.118301
  36 H :    0.105969
  37 H :    0.108652
  38 H :    0.128211
  39 H :    0.114560
  40 H :    0.113460
Sum of atomic charges:   -0.0000000

LOEWDIN ATOMIC CHARGES
----------------------
   0 C :   -0.369169
   1 C :   -0.120180
   2 O :   -0.245498
   3 P :    0.571144
   4 S :   -0.311882
   5 O :   -0.232205
   6 C :   -0.119048
   7 C :   -0.365748
   8 S :    0.090499
   9 C :   -0.478103
  10 S :    0.073617
  11 P :    0.565845
  12 S :   -0.292394
  13 O :   -0.227997
  14 C :   -0.113952
  15 C :   -0.368036
  16 O :   -0.240697
  17 C :   -0.119920
  18 C :   -0.367245
  19 H :    0.123270
  20 H :    0.119599
  21 H :    0.129830
  22 H :    0.109398
  23 H :    0.117708
  24 H :    0.109267
  25 H :    0.118439
  26 H :    0.120663
  27 H :    0.128899
  28 H :    0.123859
  29 H :    0.137163
  30 H :    0.127856
  31 H :    0.102938
  32 H :    0.122568
  33 H :    0.131051
  34 H :    0.127787
  35 H :    0.116495
  36 H :    0.119065
  37 H :    0.109042
  38 H :    0.119771
  39 H :    0.124499
  40 H :    0.131799

  Mayer bond orders larger than 0.100000
B(  0-C ,  1-C ) :   1.1675 B(  0-C , 19-H ) :   0.9441 B(  0-C , 20-H ) :   0.9370
B(  0-C , 21-H ) :   0.9381 B(  1-C ,  2-O ) :   0.9124 B(  1-C , 22-H ) :   0.9142
B(  1-C , 23-H ) :   0.9340 B(  2-O ,  3-P ) :   1.0958 B(  3-P ,  4-S ) :   1.5974
B(  3-P ,  5-O ) :   1.1487 B(  3-P ,  8-S ) :   0.9574 B(  4-S ,  8-S ) :   0.1133
B(  5-O ,  6-C ) :   0.9043 B(  6-C ,  7-C ) :   1.1571 B(  6-C , 24-H ) :   0.9139
B(  6-C , 25-H ) :   0.9360 B(  7-C , 26-H ) :   0.9382 B(  7-C , 27-H ) :   0.9394
B(  7-C , 28-H ) :   0.9449 B(  8-S ,  9-C ) :   0.9914 B(  9-C , 10-S ) :   1.0064
B(  9-C , 29-H ) :   0.9107 B(  9-C , 30-H ) :   0.8466 B( 10-S , 11-P ) :   0.9327
B( 10-S , 12-S ) :   0.1042 B( 11-P , 12-S ) :   1.6435 B( 11-P , 13-O ) :   1.1527
B( 11-P , 16-O ) :   1.0925 B( 13-O , 14-C ) :   0.8969 B( 14-C , 15-C ) :   1.1692
B( 14-C , 31-H ) :   0.9100 B( 14-C , 32-H ) :   0.9352 B( 15-C , 33-H ) :   0.9354
B( 15-C , 34-H ) :   0.9424 B( 15-C , 35-H ) :   0.9380 B( 16-O , 17-C ) :   0.9069
B( 17-C , 18-C ) :   1.1654 B( 17-C , 36-H ) :   0.9343 B( 17-C , 37-H ) :   0.9047
B( 18-C , 38-H ) :   0.9344 B( 18-C , 39-H ) :   0.9480 B( 18-C , 40-H ) :   0.9396

Dispersion correction           -0.068398673
FINAL SINGLE POINT ENERGY     -2929.519318114475

DIPOLE MOMENT
-------------

Method             : SCF
Type of density    : Electron Density
Multiplicity       :   1
Irrep              :   0
Energy             : -2929.6372201231861254 Eh
Relativity type    :
Basis              : AO
                                X                 Y                 Z
Electronic contribution:      0.759956727       1.577524449      -6.721625819
Nuclear contribution   :     -1.035244969      -2.457220801       7.596017008
                        -----------------------------------------
Total Dipole Moment    :     -0.275288242      -0.879696353       0.874391189
                        -----------------------------------------
Magnitude (a.u.)       :      1.270515344
Magnitude (Debye)      :      3.229393361

Rotational constants in cm-1:             0.013352             0.005193             0.004961
Rotational constants in MHz :           400.289453           155.682696           148.721534

                             ****ORCA TERMINATED NORMALLY****
TOTAL RUN TIME: 0 days 0 hours 0 minutes 23 seconds 24 msec
