                         Program Version 6.0.0  -   RELEASE  -
|  1> ! pbe def2-sv(p) def2/J RI DEFGRID1 loosescf d4 GCP(DFT/SV(P)) printgap
|  2> %output
|  3>     printlevel normal
|  4> end
|  5> * xyz 0 1
|  6> C 5.647981027 -1.3178908221 -0.744841898
|  7> C 4.6025114866 -1.2632669812 0.3519835955
|  8> O 3.8208317566 -0.0539141888 0.2719034935
|  9> P 2.4800768124 0.0593184199 -0.5715416455
| 10> S 2.6139776684 -0.2867374308 -2.4935847839
| 11> O 2.0451679226 1.5506690615 -0.3103088587
| 12> C 1.4947569798 2.1166016863 0.9012598229
| 13> C 2.311059013 1.8077175126 2.1370717078
| 14> S 1.1509216582 -1.2282413383 0.4843952197
| 15> C -0.064390065 -1.411735632 -0.8398757875
| 16> S -0.8251572737 0.1678753932 -1.3349815652
| 17> P -2.3201213836 0.2766551895 0.1647466925
| 18> S -3.3397599288 1.9473879625 0.1842740426
| 19> O -1.4742592448 -0.0491884861 1.4591417411
| 20> C -1.9299134444 0.3163710211 2.7809760328
| 21> C -3.1499764986 -0.4804657808 3.1880890592
| 22> O -3.1424498104 -1.0803374864 -0.0192822422
| 23> C -4.1295825085 -1.2240510402 -1.0579233526
| 24> C -5.516257692 -0.9176082526 -0.526249279
| 25> H 6.2569905081 -2.2066456692 -0.6148773938
| 26> H 5.1705634699 -1.3529253263 -1.7216155091
| 27> H 6.28242065 -0.4369847997 -0.700468977
| 28> H 5.0677223356 -1.218492378 1.3386607779
| 29> H 3.9342040007 -2.1270208728 0.3015180633
| 30> H 1.473415751 3.1865899331 0.6872191466
| 31> H 0.4675513748 1.7522746027 1.0070741957
| 32> H 2.2715419064 0.7440566948 2.3637624941
| 33> H 3.3466943124 2.0981897934 1.9815291363
| 34> H 1.9028449805 2.3647071113 2.9750739625
| 35> H -0.8296560718 -2.09468879 -0.480203001
| 36> H 0.4339379993 -1.7901721133 -1.732183123
| 37> H -1.0706626977 0.1021465087 3.4176945628
| 38> H -2.1485201619 1.3888083086 2.7877141473
| 39> H -3.9890256331 -0.2206330288 2.5439826791
| 40> H -2.9515385632 -1.5450539909 3.0979956716
| 41> H -3.4076098424 -0.2450426258 4.2159096441
| 42> H -3.8758172551 -0.562466071 -1.8926349027
| 43> H -4.0499756817 -2.2639840526 -1.3807574291
| 44> H -6.2457851214 -1.0870021507 -1.3115866238
| 45> H -5.7423090096 -1.5606028204 0.3196450192
| 46> H -5.5750267522 0.1210030722 -0.2078474428
| 47> *
| 48>
| 49>                          ****END OF INPUT****

CARTESIAN COORDINATES (ANGSTROEM)
---------------------------------
  C      5.647981   -1.317891   -0.744842
  C      4.602511   -1.263267    0.351984
  O      3.820832   -0.053914    0.271903
  P      2.480077    0.059318   -0.571542
  S      2.613978   -0.286737   -2.493585
  O      2.045168    1.550669   -0.310309
  C      1.494757    2.116602    0.901260
  C      2.311059    1.807718    2.137072
  S      1.150922   -1.228241    0.484395
  C     -0.064390   -1.411736   -0.839876
  S     -0.825157    0.167875   -1.334982
  P     -2.320121    0.276655    0.164747
  S     -3.339760    1.947388    0.184274
  O     -1.474259   -0.049188    1.459142
  C     -1.929913    0.316371    2.780976
  C     -3.149976   -0.480466    3.188089
  O     -3.142450   -1.080337   -0.019282
  C     -4.129583   -1.224051   -1.057923
  C     -5.516258   -0.917608   -0.526249
  H      6.256991   -2.206646   -0.614877
  H      5.170563   -1.352925   -1.721616
  H      6.282421   -0.436985   -0.700469
  H      5.067722   -1.218492    1.338661
  H      3.934204   -2.127021    0.301518
  H      1.473416    3.186590    0.687219
  H      0.467551    1.752275    1.007074
  H      2.271542    0.744057    2.363762
  H      3.346694    2.098190    1.981529
  H      1.902845    2.364707    2.975074
  H     -0.829656   -2.094689   -0.480203
  H      0.433938   -1.790172   -1.732183
  H     -1.070663    0.102147    3.417695
  H     -2.148520    1.388808    2.787714
  H     -3.989026   -0.220633    2.543983
  H     -2.951539   -1.545054    3.097996
  H     -3.407610   -0.245043    4.215910
  H     -3.875817   -0.562466   -1.892635
  H     -4.049976   -2.263984   -1.380757
  H     -6.245785   -1.087002   -1.311587
  H     -5.742309   -1.560603    0.319645
  H     -5.575027    0.121003   -0.207847

 Total Charge           Charge          ....    0
 Multiplicity           Mult            ....    1
 Number of Electrons    NEL             ....  202
 Basis Dimension        Dim             ....  334

ORBITAL ENERGIES
----------------

  NO   OCC          E(Eh)            E(eV)
   0   2.0000     -88.043917     -2395.7968
   1   2.0000     -88.043403     -2395.7828
   2   2.0000     -87.992216     -2394.3899
   3   2.0000     -87.981261     -2394.0918
   4   2.0000     -76.430444     -2079.7781
   5   2.0000     -76.426095     -2079.6598
   6   2.0000     -18.798473      -511.5325
   7   2.0000     -18.797732      -511.5123
   8   2.0000     -18.793975      -511.4101
   9   2.0000     -18.788180      -511.2524
  10   2.0000      -9.959959      -271.0243
  11   2.0000      -9.958885      -270.9950
  12   2.0000      -9.957405      -270.9548
  13   2.0000      -9.955971      -270.9157
  14   2.0000      -9.951330      -270.7895
  15   2.0000      -9.890611      -269.1372
  16   2.0000      -9.886638      -269.0291
  17   2.0000      -9.885248      -268.9913
  18   2.0000      -9.879982      -268.8480
  19   2.0000      -7.688618      -209.2179
  20   2.0000      -7.688236      -209.2075
  21   2.0000      -7.637339      -207.8226
  22   2.0000      -7.626577      -207.5297
  23   2.0000      -6.428015      -174.9152
  24   2.0000      -6.423090      -174.7812
  25   2.0000      -5.716846      -155.5633
  26   2.0000      -5.715955      -155.5390
  27   2.0000      -5.712945      -155.4571
  28   2.0000      -5.712696      -155.4504
  29   2.0000      -5.705501      -155.2546
  30   2.0000      -5.705451      -155.2532
  31   2.0000      -5.666217      -154.1856
  32   2.0000      -5.658048      -153.9633
  33   2.0000      -5.657475      -153.9477
  34   2.0000      -5.655558      -153.8955
  35   2.0000      -5.647074      -153.6647
  36   2.0000      -5.646742      -153.6557
  37   2.0000      -4.650501      -126.5466
  38   2.0000      -4.649997      -126.5328
  39   2.0000      -4.648340      -126.4878
  40   2.0000      -4.645772      -126.4179
  41   2.0000      -4.645222      -126.4029
  42   2.0000      -4.643216      -126.3483
  43   2.0000      -0.993605       -27.0374
  44   2.0000      -0.985751       -26.8236
  45   2.0000      -0.952314       -25.9138
  46   2.0000      -0.943560       -25.6756
  47   2.0000      -0.765118       -20.8199
  48   2.0000      -0.723853       -19.6970
  49   2.0000      -0.710961       -19.3462
  50   2.0000      -0.692252       -18.8371
  51   2.0000      -0.689534       -18.7632
  52   2.0000      -0.676789       -18.4164
  53   2.0000      -0.655493       -17.8369
  54   2.0000      -0.638580       -17.3767
  55   2.0000      -0.601779       -16.3752
  56   2.0000      -0.591449       -16.0941
  57   2.0000      -0.575008       -15.6468
  58   2.0000      -0.572388       -15.5755
  59   2.0000      -0.568474       -15.4690
  60   2.0000      -0.507602       -13.8126
  61   2.0000      -0.497580       -13.5398
  62   2.0000      -0.482031       -13.1167
  63   2.0000      -0.472791       -12.8653
  64   2.0000      -0.462831       -12.5943
  65   2.0000      -0.444799       -12.1036
  66   2.0000      -0.441810       -12.0223
  67   2.0000      -0.440507       -11.9868
  68   2.0000      -0.431736       -11.7481
  69   2.0000      -0.413568       -11.2538
  70   2.0000      -0.408722       -11.1219
  71   2.0000      -0.403114       -10.9693
  72   2.0000      -0.399219       -10.8633
  73   2.0000      -0.392725       -10.6866
  74   2.0000      -0.389904       -10.6098
  75   2.0000      -0.370817       -10.0905
  76   2.0000      -0.364746        -9.9253
  77   2.0000      -0.361024        -9.8240
  78   2.0000      -0.355362        -9.6699
  79   2.0000      -0.354317        -9.6415
  80   2.0000      -0.350831        -9.5466
  81   2.0000      -0.347552        -9.4574
  82   2.0000      -0.344451        -9.3730
  83   2.0000      -0.336195        -9.1483
  84   2.0000      -0.333744        -9.0816
  85   2.0000      -0.325587        -8.8597
  86   2.0000      -0.314891        -8.5686
  87   2.0000      -0.301309        -8.1990
  88   2.0000      -0.297836        -8.1045
  89   2.0000      -0.295009        -8.0276
  90   2.0000      -0.286834        -7.8052
  91   2.0000      -0.281702        -7.6655
  92   2.0000      -0.272731        -7.4214
  93   2.0000      -0.265558        -7.2262
  94   2.0000      -0.260809        -7.0970
  95   2.0000      -0.234997        -6.3946
  96   2.0000      -0.221667        -6.0319
  97   2.0000      -0.211510        -5.7555
  98   2.0000      -0.205573        -5.5939
  99   2.0000      -0.199862        -5.4385
 100   2.0000      -0.196512        -5.3474
 101   0.0000      -0.042038        -1.1439
 102   0.0000      -0.025709        -0.6996
 103   0.0000      -0.008940        -0.2433
 104   0.0000       0.002421         0.0659
 105   0.0000       0.010476         0.2851

MULLIKEN ATOMIC CHARGES
-----------------------
   0 C :   -0.291912
   1 C :   -0.012453
   2 O :   -0.371910
   3 P :    0.598023
   4 S :   -0.315965
   5 O :   -0.352684
   6 C :   -0.012800
   7 C :   -0.311941
   8 S :   -0.098057
   9 C :   -0.356665
  10 S :   -0.043813
  11 P :    0.588713
  12 S :   -0.319134
  13 O :   -0.372048
  14 C :   -0.009734
  15 C :   -0.306584
  16 O :   -0.379052
  17 C :   -0.011560
  18 C :   -0.293822
  19 H :    0.106198
  20 H :    0.131606
  21 H :    0.114655
  22 H :    0.104856
  23 H :    0.101384
  24 H :    0.111570
  25 H :    0.127273
  26 H :    0.114873
  27 H :    0.123037
  28 H :    0.111697
  29 H :    0.182287
  30 H :    0.196302
  31 H :    0.106556
  32 H :    0.113575
  33 H :    0.129362
  34 H :    0.117465
  35 H :    0.114094
  36 H :    0.105747
  37 H :    0.105904
  38 H :    0.110747
  39 H :    0.113367
  40 H :    0.130844
Sum of atomic charges:    0.0000000

LOEWDIN ATOMIC CHARGES
----------------------
   0 C :   -0.363929
   1 C :   -0.116492
   2 O :   -0.242863
   3 P :    0.565552
   4 S :   -0.313120
   5 O :   -0.228960
   6 C :   -0.113777
   7 C :   -0.367616
   8 S :    0.072848
   9 C :   -0.480998
  10 S :    0.105159
  11 P :    0.561563
  12 S :   -0.318610
  13 O :   -0.239734
  14 C :   -0.115625
  15 C :   -0.364912
  16 O :   -0.251730
  17 C :   -0.117283
  18 C :   -0.363366
  19 H :    0.128192
  20 H :    0.125209
  21 H :    0.126824
  22 H :    0.117674
  23 H :    0.105117
  24 H :    0.124199
  25 H :    0.107741
  26 H :    0.115145
  27 H :    0.128433
  28 H :    0.130146
  29 H :    0.131835
  30 H :    0.132675
  31 H :    0.118760
  32 H :    0.111736
  33 H :    0.124398
  34 H :    0.126906
  35 H :    0.131885
  36 H :    0.109932
  37 H :    0.117556
  38 H :    0.130222
  39 H :    0.124405
  40 H :    0.124901

  Mayer bond orders larger than 0.100000
B(  0-C ,  1-C ) :   1.1685 B(  0-C , 19-H ) :   0.9389 B(  0-C , 20-H ) :   0.9296
B(  0-C , 21-H ) :   0.9472 B(  1-C ,  2-O ) :   0.9066 B(  1-C , 22-H ) :   0.9357
B(  1-C , 23-H ) :   0.9145 B(  2-O ,  3-P ) :   1.0937 B(  3-P ,  4-S ) :   1.6321
B(  3-P ,  5-O ) :   1.1484 B(  3-P ,  8-S ) :   0.9457 B(  4-S ,  8-S ) :   0.1116
B(  5-O ,  6-C ) :   0.8977 B(  6-C ,  7-C ) :   1.1685 B(  6-C , 24-H ) :   0.9340
B(  6-C , 25-H ) :   0.9102 B(  7-C , 26-H ) :   0.9390 B(  7-C , 27-H ) :   0.9420
B(  7-C , 28-H ) :   0.9363 B(  8-S ,  9-C ) :   1.0012 B(  9-C , 10-S ) :   0.9835
B(  9-C , 29-H ) :   0.8931 B(  9-C , 30-H ) :   0.8788 B( 10-S , 11-P ) :   0.9818
B( 11-P , 12-S ) :   1.6392 B( 11-P , 13-O ) :   1.1013 B( 11-P , 16-O ) :   1.0668
B( 13-O , 14-C ) :   0.8949 B( 14-C , 15-C ) :   1.1707 B( 14-C , 31-H ) :   0.9320
B( 14-C , 32-H ) :   0.9168 B( 15-C , 33-H ) :   0.9335 B( 15-C , 34-H ) :   0.9457
B( 15-C , 35-H ) :   0.9374 B( 16-O , 17-C ) :   0.9035 B( 17-C , 18-C ) :   1.1701
B( 17-C , 36-H ) :   0.9132 B( 17-C , 37-H ) :   0.9349 B( 18-C , 38-H ) :   0.9397
B( 18-C , 39-H ) :   0.9454 B( 18-C , 40-H ) :   0.9314

Dispersion correction           -0.065228209
FINAL SINGLE POINT ENERGY     -2929.520316140894

DIPOLE MOMENT
-------------

Method             : SCF
Type of density    : Electron Density
Multiplicity       :   1
Irrep              :   0
Energy             : -2929.6407588951969956 Eh
Relativity type    :
Basis              : AO
                                X                 Y                 Z
Electronic contribution:      2.952827395       5.672712951     -14.744736896
Nuclear contribution   :     -3.188203610      -6.836121114      16.420496981
                        -----------------------------------------
Total Dipole Moment    :     -0.235376216      -1.163408163       1.675760086
                        -----------------------------------------
Magnitude (a.u.)       :      2.053556033
Magnitude (Debye)      :      5.219724618

Rotational constants in cm-1:             0.014658             0.004468             0.004135
Rotational constants in MHz :           439.439125           133.942629           123.973697

                             ****ORCA TERMINATED NORMALLY****
TOTAL RUN TIME: 0 days 0 hours 0 minutes 21 seconds 220 msec
