                         Program Version 6.0.0  -   RELEASE  -
|  1> ! pbe def2-sv(p) def2/J RI DEFGRID1 loosescf d4 GCP(DFT/SV(P)) printgap
|  2> %output
|  3>     printlevel normal
|  4> end
|  5> * xyz 0 1
|  6> C 1.4206818429 -1.1378097824 -2.8342236621
|  7> C 2.4912058024 -0.3121642232 -2.1490939073
|  8> O 1.9053775327 0.4766254587 -1.0821492509
|  9> P 2.1010858985 0.1764816891 0.4491370515
| 10> S 1.0906265014 1.4642358562 1.521831559
| 11> O 3.6859340802 0.1954856472 0.5629192119
| 12> C 4.4571679904 -0.3660159496 1.6424858436
| 13> C 4.0413804539 0.1617266392 2.9991867636
| 14> S 1.6309188497 -1.8659525688 0.8103277684
| 15> C -0.1093666628 -1.668214312 1.2545094882
| 16> S -1.2458083117 -1.7727536645 -0.1642909044
| 17> P -2.0113490472 0.1926822097 -0.3811910127
| 18> S -1.0970291314 1.538858959 -1.4850523105
| 19> O -2.2056819906 0.5857245487 1.1424334984
| 20> C -2.3788717971 1.9510010798 1.5608686577
| 21> C -3.7336117679 2.4835465762 1.1484718463
| 22> O -3.5124566007 -0.0961879291 -0.8251872649
| 23> C -3.9342593429 -0.9721129552 -1.885352856
| 24> C -3.0928995064 -0.8420439937 -3.1374918963
| 25> H 1.8449793189 -1.6139428675 -3.71205999
| 26> H 1.0328146376 -1.9043466503 -2.1662182157
| 27> H 0.6021527477 -0.4888607681 -3.1383775173
| 28> H 2.9186644315 0.4240955393 -2.8312224543
| 29> H 3.2842625673 -0.9407935481 -1.737704227
| 30> H 4.3564697837 -1.4539977904 1.602677867
| 31> H 5.481253832 -0.077748127 1.3988492868
| 32> H 4.7110518324 -0.229660678 3.7580937921
| 33> H 4.0781049473 1.2486231065 3.0112405257
| 34> H 3.0230258913 -0.1484139563 3.2286666599
| 35> H -0.2429155987 -0.7078209789 1.7562610566
| 36> H -0.3565104333 -2.4998010862 1.9087455508
| 37> H -2.2607206816 1.9124233673 2.6446711991
| 38> H -1.5707893168 2.5544636807 1.1333676504
| 39> H -4.5213791755 1.8416329162 1.5333978183
| 40> H -3.8583553992 3.4894000572 1.5365916755
| 41> H -3.7991021649 2.5087982595 0.0611499477
| 42> H -3.9006853763 -1.9966883018 -1.504217294
| 43> H -4.9696036235 -0.6781180007 -2.0675646439
| 44> H -3.0813496491 0.1891945301 -3.4832946071
| 45> H -2.0679811477 -1.1488343108 -2.9280593398
| 46> H -3.5008946322 -1.4797160575 -3.9150309195
| 47> *
| 48>
| 49>                          ****END OF INPUT****

CARTESIAN COORDINATES (ANGSTROEM)
---------------------------------
  C      1.420682   -1.137810   -2.834224
  C      2.491206   -0.312164   -2.149094
  O      1.905378    0.476625   -1.082149
  P      2.101086    0.176482    0.449137
  S      1.090627    1.464236    1.521832
  O      3.685934    0.195486    0.562919
  C      4.457168   -0.366016    1.642486
  C      4.041380    0.161727    2.999187
  S      1.630919   -1.865953    0.810328
  C     -0.109367   -1.668214    1.254509
  S     -1.245808   -1.772754   -0.164291
  P     -2.011349    0.192682   -0.381191
  S     -1.097029    1.538859   -1.485052
  O     -2.205682    0.585725    1.142433
  C     -2.378872    1.951001    1.560869
  C     -3.733612    2.483547    1.148472
  O     -3.512457   -0.096188   -0.825187
  C     -3.934259   -0.972113   -1.885353
  C     -3.092900   -0.842044   -3.137492
  H      1.844979   -1.613943   -3.712060
  H      1.032815   -1.904347   -2.166218
  H      0.602153   -0.488861   -3.138378
  H      2.918664    0.424096   -2.831222
  H      3.284263   -0.940794   -1.737704
  H      4.356470   -1.453998    1.602678
  H      5.481254   -0.077748    1.398849
  H      4.711052   -0.229661    3.758094
  H      4.078105    1.248623    3.011241
  H      3.023026   -0.148414    3.228667
  H     -0.242916   -0.707821    1.756261
  H     -0.356510   -2.499801    1.908746
  H     -2.260721    1.912423    2.644671
  H     -1.570789    2.554464    1.133368
  H     -4.521379    1.841633    1.533398
  H     -3.858355    3.489400    1.536592
  H     -3.799102    2.508798    0.061150
  H     -3.900685   -1.996688   -1.504217
  H     -4.969604   -0.678118   -2.067565
  H     -3.081350    0.189195   -3.483295
  H     -2.067981   -1.148834   -2.928059
  H     -3.500895   -1.479716   -3.915031

 Total Charge           Charge          ....    0
 Multiplicity           Mult            ....    1
 Number of Electrons    NEL             ....  202
 Basis Dimension        Dim             ....  334

ORBITAL ENERGIES
----------------

  NO   OCC          E(Eh)            E(eV)
   0   2.0000     -88.046981     -2395.8801
   1   2.0000     -88.040172     -2395.6949
   2   2.0000     -87.981434     -2394.0965
   3   2.0000     -87.972748     -2393.8602
   4   2.0000     -76.424425     -2079.6143
   5   2.0000     -76.419396     -2079.4775
   6   2.0000     -18.794046      -511.4120
   7   2.0000     -18.783386      -511.1219
   8   2.0000     -18.782484      -511.0974
   9   2.0000     -18.782071      -511.0861
  10   2.0000      -9.959148      -271.0022
  11   2.0000      -9.958974      -270.9975
  12   2.0000      -9.954434      -270.8739
  13   2.0000      -9.949606      -270.7426
  14   2.0000      -9.939192      -270.4592
  15   2.0000      -9.883557      -268.9453
  16   2.0000      -9.882711      -268.9222
  17   2.0000      -9.874097      -268.6878
  18   2.0000      -9.873859      -268.6814
  19   2.0000      -7.692006      -209.3101
  20   2.0000      -7.685468      -209.1322
  21   2.0000      -7.626499      -207.5276
  22   2.0000      -7.617659      -207.2870
  23   2.0000      -6.421780      -174.7455
  24   2.0000      -6.416632      -174.6054
  25   2.0000      -5.719650      -155.6396
  26   2.0000      -5.716345      -155.5497
  27   2.0000      -5.713634      -155.4759
  28   2.0000      -5.709685      -155.3684
  29   2.0000      -5.709381      -155.3602
  30   2.0000      -5.702371      -155.1694
  31   2.0000      -5.655524      -153.8946
  32   2.0000      -5.647185      -153.6677
  33   2.0000      -5.646656      -153.6533
  34   2.0000      -5.646413      -153.6467
  35   2.0000      -5.638455      -153.4302
  36   2.0000      -5.637594      -153.4067
  37   2.0000      -4.644447      -126.3818
  38   2.0000      -4.643864      -126.3660
  39   2.0000      -4.641887      -126.3122
  40   2.0000      -4.639188      -126.2387
  41   2.0000      -4.638866      -126.2300
  42   2.0000      -4.636721      -126.1716
  43   2.0000      -0.986014       -26.8308
  44   2.0000      -0.978302       -26.6209
  45   2.0000      -0.940856       -25.6020
  46   2.0000      -0.937799       -25.5188
  47   2.0000      -0.762286       -20.7429
  48   2.0000      -0.717634       -19.5278
  49   2.0000      -0.706966       -19.2375
  50   2.0000      -0.687369       -18.7043
  51   2.0000      -0.683989       -18.6123
  52   2.0000      -0.671086       -18.2612
  53   2.0000      -0.648955       -17.6590
  54   2.0000      -0.633152       -17.2289
  55   2.0000      -0.591842       -16.1048
  56   2.0000      -0.585439       -15.9306
  57   2.0000      -0.573264       -15.5993
  58   2.0000      -0.567988       -15.4558
  59   2.0000      -0.563340       -15.3293
  60   2.0000      -0.502290       -13.6680
  61   2.0000      -0.487608       -13.2685
  62   2.0000      -0.469480       -12.7752
  63   2.0000      -0.463906       -12.6235
  64   2.0000      -0.454836       -12.3767
  65   2.0000      -0.450151       -12.2492
  66   2.0000      -0.435615       -11.8537
  67   2.0000      -0.433648       -11.8002
  68   2.0000      -0.425515       -11.5788
  69   2.0000      -0.417707       -11.3664
  70   2.0000      -0.413077       -11.2404
  71   2.0000      -0.399189       -10.8625
  72   2.0000      -0.394003       -10.7214
  73   2.0000      -0.385130       -10.4799
  74   2.0000      -0.381087       -10.3699
  75   2.0000      -0.365185        -9.9372
  76   2.0000      -0.354509        -9.6467
  77   2.0000      -0.350937        -9.5495
  78   2.0000      -0.346394        -9.4259
  79   2.0000      -0.344474        -9.3736
  80   2.0000      -0.342165        -9.3108
  81   2.0000      -0.339887        -9.2488
  82   2.0000      -0.337832        -9.1929
  83   2.0000      -0.335855        -9.1391
  84   2.0000      -0.331341        -9.0163
  85   2.0000      -0.313349        -8.5267
  86   2.0000      -0.306774        -8.3478
  87   2.0000      -0.296656        -8.0724
  88   2.0000      -0.292522        -7.9599
  89   2.0000      -0.288561        -7.8521
  90   2.0000      -0.280981        -7.6459
  91   2.0000      -0.273379        -7.4390
  92   2.0000      -0.265285        -7.2188
  93   2.0000      -0.258955        -7.0465
  94   2.0000      -0.253403        -6.8954
  95   2.0000      -0.236849        -6.4450
  96   2.0000      -0.221636        -6.0310
  97   2.0000      -0.205142        -5.5822
  98   2.0000      -0.200220        -5.4483
  99   2.0000      -0.188672        -5.1340
 100   2.0000      -0.175363        -4.7719
 101   0.0000      -0.041470        -1.1285
 102   0.0000      -0.028318        -0.7706
 103   0.0000      -0.025727        -0.7001
 104   0.0000       0.000332         0.0090
 105   0.0000       0.017084         0.4649

MULLIKEN ATOMIC CHARGES
-----------------------
   0 C :   -0.315348
   1 C :   -0.001827
   2 O :   -0.332617
   3 P :    0.599857
   4 S :   -0.300881
   5 O :   -0.378025
   6 C :   -0.009743
   7 C :   -0.306109
   8 S :   -0.123662
   9 C :   -0.336685
  10 S :   -0.122947
  11 P :    0.607708
  12 S :   -0.299944
  13 O :   -0.369683
  14 C :   -0.016229
  15 C :   -0.295706
  16 O :   -0.377986
  17 C :   -0.000165
  18 C :   -0.334185
  19 H :    0.100401
  20 H :    0.125419
  21 H :    0.140470
  22 H :    0.109988
  23 H :    0.093026
  24 H :    0.110930
  25 H :    0.109337
  26 H :    0.110258
  27 H :    0.127831
  28 H :    0.121011
  29 H :    0.210109
  30 H :    0.184805
  31 H :    0.100361
  32 H :    0.129831
  33 H :    0.110701
  34 H :    0.108675
  35 H :    0.123017
  36 H :    0.108696
  37 H :    0.109277
  38 H :    0.131277
  39 H :    0.137585
  40 H :    0.111176
Sum of atomic charges:   -0.0000000

LOEWDIN ATOMIC CHARGES
----------------------
   0 C :   -0.368216
   1 C :   -0.109518
   2 O :   -0.221591
   3 P :    0.567385
   4 S :   -0.287021
   5 O :   -0.244793
   6 C :   -0.115234
   7 C :   -0.369180
   8 S :    0.062592
   9 C :   -0.474401
  10 S :    0.069767
  11 P :    0.567180
  12 S :   -0.299047
  13 O :   -0.238267
  14 C :   -0.123273
  15 C :   -0.363900
  16 O :   -0.249056
  17 C :   -0.114214
  18 C :   -0.374033
  19 H :    0.125233
  20 H :    0.114566
  21 H :    0.128271
  22 H :    0.122356
  23 H :    0.103071
  24 H :    0.106694
  25 H :    0.121439
  26 H :    0.129528
  27 H :    0.131001
  28 H :    0.119770
  29 H :    0.129762
  30 H :    0.139492
  31 H :    0.116355
  32 H :    0.110352
  33 H :    0.123743
  34 H :    0.129052
  35 H :    0.123343
  36 H :    0.108616
  37 H :    0.121711
  38 H :    0.130416
  39 H :    0.120262
  40 H :    0.129789

  Mayer bond orders larger than 0.100000
B(  0-C ,  1-C ) :   1.1658 B(  0-C , 19-H ) :   0.9365 B(  0-C , 20-H ) :   0.9331
B(  0-C , 21-H ) :   0.9305 B(  1-C ,  2-O ) :   0.8908 B(  1-C , 22-H ) :   0.9334
B(  1-C , 23-H ) :   0.9190 B(  2-O ,  3-P ) :   1.1635 B(  3-P ,  4-S ) :   1.6348
B(  3-P ,  5-O ) :   1.0927 B(  3-P ,  8-S ) :   0.9256 B(  4-S ,  8-S ) :   0.1091
B(  5-O ,  6-C ) :   0.9121 B(  6-C ,  7-C ) :   1.1675 B(  6-C , 24-H ) :   0.9260
B(  6-C , 25-H ) :   0.9333 B(  7-C , 26-H ) :   0.9349 B(  7-C , 27-H ) :   0.9432
B(  7-C , 28-H ) :   0.9326 B(  8-S ,  9-C ) :   1.0129 B(  9-C , 10-S ) :   1.0031
B(  9-C , 29-H ) :   0.8483 B(  9-C , 30-H ) :   0.9104 B( 10-S , 11-P ) :   0.9342
B( 10-S , 12-S ) :   0.1104 B( 11-P , 12-S ) :   1.6537 B( 11-P , 13-O ) :   1.1181
B( 11-P , 16-O ) :   1.0832 B( 13-O , 14-C ) :   0.8949 B( 14-C , 15-C ) :   1.1631
B( 14-C , 31-H ) :   0.9352 B( 14-C , 32-H ) :   0.9067 B( 15-C , 33-H ) :   0.9459
B( 15-C , 34-H ) :   0.9400 B( 15-C , 35-H ) :   0.9349 B( 16-O , 17-C ) :   0.9237
B( 17-C , 18-C ) :   1.1657 B( 17-C , 36-H ) :   0.9263 B( 17-C , 37-H ) :   0.9340
B( 18-C , 38-H ) :   0.9381 B( 18-C , 39-H ) :   0.9317 B( 18-C , 40-H ) :   0.9326

Dispersion correction           -0.068396601
FINAL SINGLE POINT ENERGY     -2929.508618786130

DIPOLE MOMENT
-------------

Method             : SCF
Type of density    : Electron Density
Multiplicity       :   1
Irrep              :   0
Energy             : -2929.6261970731379733 Eh
Relativity type    :
Basis              : AO
                                X                 Y                 Z
Electronic contribution:      3.005053624       0.167428404       3.863779108
Nuclear contribution   :     -2.717563467      -1.420157447      -3.751752952
                        -----------------------------------------
Total Dipole Moment    :      0.287490157      -1.252729043       0.112026156
                        -----------------------------------------
Magnitude (a.u.)       :      1.290166851
Magnitude (Debye)      :      3.279343522

Rotational constants in cm-1:             0.012505             0.005664             0.004989
Rotational constants in MHz :           374.905401           169.792053           149.568583

                             ****ORCA TERMINATED NORMALLY****
TOTAL RUN TIME: 0 days 0 hours 0 minutes 21 seconds 757 msec
