                         Program Version 6.0.0  -   RELEASE  -
|  1> ! pbe def2-sv(p) def2/J RI DEFGRID1 loosescf d4 GCP(DFT/SV(P)) printgap
|  2> %output
|  3>     printlevel normal
|  4> end
|  5> * xyz 0 1
|  6> C 2.3995460959 -4.99508e-05 0.0155054729
|  7> N 0.9863491105 3.01045e-05 -0.2954013787
|  8> C 0.3227114676 1.1915146454 0.2073498258
|  9> C -1.1465433524 1.1865142152 -0.2283487637
| 10> N -1.856820149 5.72307e-05 0.2175049851
| 11> C -1.1466752263 -1.1865292105 -0.2281839719
| 12> C 0.3226833104 -1.1915097821 0.2071984697
| 13> H 2.857896559 0.8858327928 -0.4203185309
| 14> H 2.8579945369 -0.8854001783 -0.4213608521
| 15> H 2.5953987275 -0.0006723689 1.1006128088
| 16> H 0.3798744899 1.2451711304 1.3135058456
| 17> H 0.828297122 2.0680324181 -0.2028832119
| 18> H -1.6549783832 2.0697661187 0.1615592235
| 19> H -1.1921323887 1.2034187882 -1.3198797248
| 20> H -1.8943023113 0.0001360482 1.2344077472
| 21> H -1.655052338 -2.069650593 0.162105452
| 22> H -1.1925495987 -1.203760605 -1.319695465
| 23> H 0.3800934713 -1.24540078 1.3133278055
| 24> H 0.828154636 -2.0679704632 -0.2033155243
| 25> *
| 26>
| 27>                          ****END OF INPUT****

CARTESIAN COORDINATES (ANGSTROEM)
---------------------------------
  C      2.399546   -0.000050    0.015505
  N      0.986349    0.000030   -0.295401
  C      0.322711    1.191515    0.207350
  C     -1.146543    1.186514   -0.228349
  N     -1.856820    0.000057    0.217505
  C     -1.146675   -1.186529   -0.228184
  C      0.322683   -1.191510    0.207198
  H      2.857897    0.885833   -0.420319
  H      2.857995   -0.885400   -0.421361
  H      2.595399   -0.000672    1.100613
  H      0.379874    1.245171    1.313506
  H      0.828297    2.068032   -0.202883
  H     -1.654978    2.069766    0.161559
  H     -1.192132    1.203419   -1.319880
  H     -1.894302    0.000136    1.234408
  H     -1.655052   -2.069651    0.162105
  H     -1.192550   -1.203761   -1.319695
  H      0.380093   -1.245401    1.313328
  H      0.828155   -2.067970   -0.203316

 Total Charge           Charge          ....    0
 Multiplicity           Mult            ....    1
 Number of Electrons    NEL             ....   56
 Basis Dimension        Dim             ....  122

ORBITAL ENERGIES
----------------

  NO   OCC          E(Eh)            E(eV)
   0   2.0000     -13.983584      -380.5127
   1   2.0000     -13.967744      -380.0816
   2   2.0000      -9.905640      -269.5462
   3   2.0000      -9.905634      -269.5460
   4   2.0000      -9.903941      -269.4999
   5   2.0000      -9.903935      -269.4998
   6   2.0000      -9.900240      -269.3992
   7   2.0000      -0.855659       -23.2837
   8   2.0000      -0.805181       -21.9101
   9   2.0000      -0.681096       -18.5336
  10   2.0000      -0.639750       -17.4085
  11   2.0000      -0.571160       -15.5420
  12   2.0000      -0.561256       -15.2726
  13   2.0000      -0.512430       -13.9439
  14   2.0000      -0.446432       -12.1480
  15   2.0000      -0.416867       -11.3435
  16   2.0000      -0.410918       -11.1817
  17   2.0000      -0.405916       -11.0455
  18   2.0000      -0.398737       -10.8502
  19   2.0000      -0.365176        -9.9370
  20   2.0000      -0.348768        -9.4905
  21   2.0000      -0.328183        -8.9303
  22   2.0000      -0.325431        -8.8554
  23   2.0000      -0.308306        -8.3894
  24   2.0000      -0.305192        -8.3047
  25   2.0000      -0.291822        -7.9409
  26   2.0000      -0.182882        -4.9765
  27   2.0000      -0.166835        -4.5398
  28   0.0000       0.033013         0.8983
  29   0.0000       0.055479         1.5097
  30   0.0000       0.062318         1.6958
  31   0.0000       0.066580         1.8117
  32   0.0000       0.100624         2.7381

MULLIKEN ATOMIC CHARGES
-----------------------
   0 C :   -0.142027
   1 N :   -0.310893
   2 C :   -0.072776
   3 C :   -0.052731
   4 N :   -0.332045
   5 C :   -0.052726
   6 C :   -0.072799
   7 H :    0.101319
   8 H :    0.101326
   9 H :    0.066495
  10 H :    0.040423
  11 H :    0.080955
  12 H :    0.086255
  13 H :    0.080490
  14 H :    0.190605
  15 H :    0.086257
  16 H :    0.080496
  17 H :    0.040427
  18 H :    0.080952
Sum of atomic charges:    0.0000000

LOEWDIN ATOMIC CHARGES
----------------------
   0 C :   -0.256880
   1 N :   -0.150724
   2 C :   -0.175361
   3 C :   -0.177258
   4 N :   -0.255441
   5 C :   -0.177257
   6 C :   -0.175361
   7 H :    0.113067
   8 H :    0.113066
   9 H :    0.088500
  10 H :    0.082235
  11 H :    0.113089
  12 H :    0.113434
  13 H :    0.116720
  14 H :    0.202686
  15 H :    0.113440
  16 H :    0.116718
  17 H :    0.082235
  18 H :    0.113091

  Mayer bond orders larger than 0.100000
B(  0-C ,  1-N ) :   1.0441 B(  0-C ,  7-H ) :   0.9549 B(  0-C ,  8-H ) :   0.9549
B(  0-C ,  9-H ) :   0.9251 B(  1-N ,  2-C ) :   1.0240 B(  1-N ,  6-C ) :   1.0241
B(  2-C ,  3-C ) :   1.1069 B(  2-C , 10-H ) :   0.8806 B(  2-C , 11-H ) :   0.9149
B(  3-C ,  4-N ) :   1.1138 B(  3-C , 12-H ) :   0.9300 B(  3-C , 13-H ) :   0.9071
B(  4-N ,  5-C ) :   1.1138 B(  4-N , 14-H ) :   0.8775 B(  5-C ,  6-C ) :   1.1069
B(  5-C , 15-H ) :   0.9300 B(  5-C , 16-H ) :   0.9071 B(  6-C , 17-H ) :   0.8806
B(  6-C , 18-H ) :   0.9149

Dispersion correction           -0.016544265
FINAL SINGLE POINT ENERGY      -306.503583981442

DIPOLE MOMENT
-------------

Method             : SCF
Type of density    : Electron Density
Multiplicity       :   1
Irrep              :   0
Energy             :  -306.5781450789942255 Eh
Relativity type    :
Basis              : AO
                                X                 Y                 Z
Electronic contribution:     -2.560782380       0.000476064      -0.958721412
Nuclear contribution   :      2.939849864      -0.000466439       1.311190101
                        -----------------------------------------
Total Dipole Moment    :      0.379067485       0.000009625       0.352468689
                        -----------------------------------------
Magnitude (a.u.)       :      0.517616011
Magnitude (Debye)      :      1.315675341

Rotational constants in cm-1:             0.157226             0.077862             0.057163
Rotational constants in MHz :          4713.508849          2334.237392          1713.702254

                             ****ORCA TERMINATED NORMALLY****
TOTAL RUN TIME: 0 days 0 hours 0 minutes 8 seconds 467 msec
