                         Program Version 6.0.1  -  RELEASE   -
|  1> ! pbe def2-sv(p) def2/J RI DEFGRID1 loosescf d4 GCP(DFT/SV(P)) printgap
|  2> %output
|  3>     printlevel normal
|  4> end
|  5> * xyz 0 1
|  6> C 2.0209961608 -3.4425641349 -2.3670875476
|  7> C 3.2089899678 -2.892119209 -1.5942953577
|  8> O 2.906300144 -1.590687946 -1.0581834767
|  9> C 2.2732657515 -1.5193798899 0.0947741229
| 10> O 1.9944102568 -2.467051044 0.7933345105
| 11> C 1.9308813886 -0.0817439364 0.4492582527
| 12> C 1.1145270566 0.550165064 -0.6821805054
| 13> H 1.7505432237 0.7293430852 -1.5512734793
| 14> C 0.4714478884 1.8396676938 -0.2180035587
| 15> O -0.7368774082 1.9568349825 -0.110904567
| 16> O 1.3353589014 2.7636569593 0.0670331769
| 17> C 0.8410368136 4.0227510389 0.5837240992
| 18> C 2.0390641108 4.8840447261 0.9264953377
| 19> S -0.2223983327 -0.5458468947 -1.2774580809
| 20> P -1.6605949786 -0.312692155 0.2489158607
| 21> S -1.2831652122 0.1196614373 2.1359729581
| 22> O -2.9898374722 0.352440841 -0.3391784208
| 23> C -3.4872726835 1.654522979 -0.0313122515
| 24> O -2.081717631 -1.8562009041 0.0823128356
| 25> C -3.1160900986 -2.4386055994 0.8777476247
| 26> H 1.726911277 -2.7475450967 -3.1485362412
| 27> H 2.288634655 -4.3958854547 -2.8101779985
| 28> H 1.1748468196 -3.586393513 -1.6983869515
| 29> H 4.0664971656 -2.7252858026 -2.2458989213
| 30> H 3.4772093159 -3.5578073658 -0.7689965309
| 31> H 2.8498116119 0.4888219882 0.5885635969
| 32> H 1.3648441307 -0.0940054769 1.3831784752
| 33> H 0.2144982316 4.4830843847 -0.185197262
| 34> H 0.2207525459 3.8112594418 1.4597142904
| 35> H 2.6410331685 4.4023151488 1.6906697047
| 36> H 2.6500168548 5.0410764135 0.0430569286
| 37> H 1.6932588218 5.8427343393 1.2980488242
| 38> H -4.5713199064 1.5770283804 -0.0780204903
| 39> H -3.1159851039 2.367620542 -0.7639181972
| 40> H -3.1660039295 1.9521758276 0.9677709086
| 41> H -3.0221061433 -3.5131423673 0.7424579657
| 42> H -4.0907894274 -2.0908623426 0.5364847556
| 43> H -2.9746754152 -2.1752675323 1.9284115112
| 44> *
| 45>
| 46>                          ****END OF INPUT****

CARTESIAN COORDINATES (ANGSTROEM)
---------------------------------
  C      2.020996   -3.442564   -2.367088
  C      3.208990   -2.892119   -1.594295
  O      2.906300   -1.590688   -1.058183
  C      2.273266   -1.519380    0.094774
  O      1.994410   -2.467051    0.793335
  C      1.930881   -0.081744    0.449258
  C      1.114527    0.550165   -0.682181
  H      1.750543    0.729343   -1.551273
  C      0.471448    1.839668   -0.218004
  O     -0.736877    1.956835   -0.110905
  O      1.335359    2.763657    0.067033
  C      0.841037    4.022751    0.583724
  C      2.039064    4.884045    0.926495
  S     -0.222398   -0.545847   -1.277458
  P     -1.660595   -0.312692    0.248916
  S     -1.283165    0.119661    2.135973
  O     -2.989837    0.352441   -0.339178
  C     -3.487273    1.654523   -0.031312
  O     -2.081718   -1.856201    0.082313
  C     -3.116090   -2.438606    0.877748
  H      1.726911   -2.747545   -3.148536
  H      2.288635   -4.395885   -2.810178
  H      1.174847   -3.586394   -1.698387
  H      4.066497   -2.725286   -2.245899
  H      3.477209   -3.557807   -0.768997
  H      2.849812    0.488822    0.588564
  H      1.364844   -0.094005    1.383178
  H      0.214498    4.483084   -0.185197
  H      0.220753    3.811259    1.459714
  H      2.641033    4.402315    1.690670
  H      2.650017    5.041076    0.043057
  H      1.693259    5.842734    1.298049
  H     -4.571320    1.577028   -0.078020
  H     -3.115985    2.367621   -0.763918
  H     -3.166004    1.952176    0.967771
  H     -3.022106   -3.513142    0.742458
  H     -4.090789   -2.090862    0.536485
  H     -2.974675   -2.175268    1.928412

 Total Charge           Charge          ....    0
 Multiplicity           Mult            ....    1
 Number of Electrons    NEL             ....  174
 Basis Dimension        Dim             ....  316

ORBITAL ENERGIES
----------------

  NO   OCC          E(Eh)            E(eV)
   0   2.0000     -88.034567     -2395.5424
   1   2.0000     -87.968850     -2393.7541
   2   2.0000     -76.416321     -2079.3938
   3   2.0000     -18.831838      -512.4404
   4   2.0000     -18.799606      -511.5633
   5   2.0000     -18.779015      -511.0030
   6   2.0000     -18.767154      -510.6802
   7   2.0000     -18.766325      -510.6577
   8   2.0000     -18.731465      -509.7091
   9   2.0000     -10.034769      -273.0599
  10   2.0000     -10.005144      -272.2538
  11   2.0000      -9.966290      -271.1965
  12   2.0000      -9.953950      -270.8607
  13   2.0000      -9.944603      -270.6064
  14   2.0000      -9.930825      -270.2315
  15   2.0000      -9.926183      -270.1052
  16   2.0000      -9.905588      -269.5447
  17   2.0000      -9.902168      -269.4517
  18   2.0000      -9.879825      -268.8437
  19   2.0000      -7.679466      -208.9689
  20   2.0000      -7.613949      -207.1861
  21   2.0000      -6.412034      -174.4803
  22   2.0000      -5.707726      -155.3151
  23   2.0000      -5.704175      -155.2185
  24   2.0000      -5.695795      -154.9905
  25   2.0000      -5.643110      -153.5568
  26   2.0000      -5.634820      -153.3313
  27   2.0000      -5.633572      -153.2973
  28   2.0000      -4.634655      -126.1154
  29   2.0000      -4.634051      -126.0989
  30   2.0000      -4.632660      -126.0611
  31   2.0000      -1.042007       -28.3545
  32   2.0000      -1.007030       -27.4027
  33   2.0000      -0.966971       -26.3126
  34   2.0000      -0.944546       -25.7024
  35   2.0000      -0.921642       -25.0791
  36   2.0000      -0.909143       -24.7390
  37   2.0000      -0.769074       -20.9276
  38   2.0000      -0.725658       -19.7462
  39   2.0000      -0.705612       -19.2007
  40   2.0000      -0.685068       -18.6416
  41   2.0000      -0.647121       -17.6091
  42   2.0000      -0.628523       -17.1030
  43   2.0000      -0.617365       -16.7993
  44   2.0000      -0.613273       -16.6880
  45   2.0000      -0.591197       -16.0873
  46   2.0000      -0.565357       -15.3841
  47   2.0000      -0.528314       -14.3762
  48   2.0000      -0.502667       -13.6783
  49   2.0000      -0.495793       -13.4912
  50   2.0000      -0.485658       -13.2154
  51   2.0000      -0.468280       -12.7426
  52   2.0000      -0.463132       -12.6025
  53   2.0000      -0.450907       -12.2698
  54   2.0000      -0.446196       -12.1416
  55   2.0000      -0.434889       -11.8339
  56   2.0000      -0.419995       -11.4287
  57   2.0000      -0.412383       -11.2215
  58   2.0000      -0.409453       -11.1418
  59   2.0000      -0.401088       -10.9142
  60   2.0000      -0.394930       -10.7466
  61   2.0000      -0.387790       -10.5523
  62   2.0000      -0.386399       -10.5145
  63   2.0000      -0.381373       -10.3777
  64   2.0000      -0.377667       -10.2768
  65   2.0000      -0.372855       -10.1459
  66   2.0000      -0.366756        -9.9799
  67   2.0000      -0.353402        -9.6166
  68   2.0000      -0.350018        -9.5245
  69   2.0000      -0.338436        -9.2093
  70   2.0000      -0.333368        -9.0714
  71   2.0000      -0.332117        -9.0374
  72   2.0000      -0.324030        -8.8173
  73   2.0000      -0.317823        -8.6484
  74   2.0000      -0.304396        -8.2830
  75   2.0000      -0.291453        -7.9308
  76   2.0000      -0.290349        -7.9008
  77   2.0000      -0.288928        -7.8621
  78   2.0000      -0.274065        -7.4577
  79   2.0000      -0.260659        -7.0929
  80   2.0000      -0.256458        -6.9786
  81   2.0000      -0.254366        -6.9216
  82   2.0000      -0.244867        -6.6632
  83   2.0000      -0.214873        -5.8470
  84   2.0000      -0.211570        -5.7571
  85   2.0000      -0.189568        -5.1584
  86   2.0000      -0.181898        -4.9497
  87   0.0000      -0.050229        -1.3668
  88   0.0000      -0.039781        -1.0825
  89   0.0000      -0.013354        -0.3634
  90   0.0000       0.007466         0.2032
  91   0.0000       0.028579         0.7777

MULLIKEN ATOMIC CHARGES
-----------------------
   0 C :   -0.305004
   1 C :   -0.012436
   2 O :   -0.242206
   3 C :    0.122178
   4 O :   -0.178208
   5 C :   -0.072045
   6 C :   -0.328965
   7 H :    0.149345
   8 C :    0.234096
   9 O :   -0.201281
  10 O :   -0.215100
  11 C :   -0.035075
  12 C :   -0.274821
  13 S :   -0.061636
  14 P :    0.652825
  15 S :   -0.352937
  16 O :   -0.390923
  17 C :   -0.083155
  18 O :   -0.391312
  19 C :   -0.094921
  20 H :    0.110753
  21 H :    0.109605
  22 H :    0.139094
  23 H :    0.099007
  24 H :    0.109140
  25 H :    0.115267
  26 H :    0.123676
  27 H :    0.111967
  28 H :    0.125703
  29 H :    0.123749
  30 H :    0.118981
  31 H :    0.118335
  32 H :    0.113845
  33 H :    0.111179
  34 H :    0.112036
  35 H :    0.120578
  36 H :    0.104672
  37 H :    0.113995
Sum of atomic charges:   -0.0000000

LOEWDIN ATOMIC CHARGES
----------------------
   0 C :   -0.357995
   1 C :   -0.110574
   2 O :   -0.066736
   3 C :    0.021199
   4 O :   -0.150242
   5 C :   -0.254765
   6 C :   -0.262917
   7 H :    0.148775
   8 C :    0.029163
   9 O :   -0.152618
  10 O :   -0.034525
  11 C :   -0.102057
  12 C :   -0.349910
  13 S :    0.134251
  14 P :    0.591174
  15 S :   -0.341341
  16 O :   -0.252984
  17 C :   -0.212125
  18 O :   -0.268998
  19 C :   -0.215772
  20 H :    0.122180
  21 H :    0.128639
  22 H :    0.134094
  23 H :    0.115642
  24 H :    0.120331
  25 H :    0.141835
  26 H :    0.136074
  27 H :    0.120211
  28 H :    0.126711
  29 H :    0.130894
  30 H :    0.128811
  31 H :    0.134967
  32 H :    0.114650
  33 H :    0.110834
  34 H :    0.107370
  35 H :    0.120057
  36 H :    0.107580
  37 H :    0.108116

  Mayer bond orders larger than 0.100000
B(  0-C ,  1-C ) :   1.1760 B(  0-C , 20-H ) :   0.9479 B(  0-C , 21-H ) :   0.9427
B(  0-C , 22-H ) :   0.9415 B(  1-C ,  2-O ) :   0.9160 B(  1-C , 23-H ) :   0.9377
B(  1-C , 24-H ) :   0.9141 B(  2-O ,  3-C ) :   1.1990 B(  3-C ,  4-O ) :   2.0862
B(  3-C ,  5-C ) :   1.0205 B(  5-C ,  6-C ) :   1.0325 B(  5-C , 25-H ) :   0.8746
B(  5-C , 26-H ) :   0.8774 B(  6-C ,  7-H ) :   0.8606 B(  6-C ,  8-C ) :   0.9286
B(  6-C , 13-S ) :   1.0472 B(  8-C ,  9-O ) :   1.9056 B(  8-C , 10-O ) :   1.2918
B(  9-O , 14-P ) :   0.1300 B( 10-O , 11-C ) :   0.8838 B( 11-C , 12-C ) :   1.1562
B( 11-C , 27-H ) :   0.9325 B( 11-C , 28-H ) :   0.9278 B( 12-C , 29-H ) :   0.9493
B( 12-C , 30-H ) :   0.9491 B( 12-C , 31-H ) :   0.9417 B( 13-S , 14-P ) :   0.9244
B( 13-S , 15-S ) :   0.1092 B( 14-P , 15-S ) :   1.5543 B( 14-P , 16-O ) :   1.0934
B( 14-P , 18-O ) :   1.0775 B( 16-O , 17-C ) :   0.9328 B( 17-C , 32-H ) :   0.9547
B( 17-C , 33-H ) :   0.9533 B( 17-C , 34-H ) :   0.9338 B( 18-O , 19-C ) :   0.9416
B( 19-C , 35-H ) :   0.9608 B( 19-C , 36-H ) :   0.9510 B( 19-C , 37-H ) :   0.9330

Dispersion correction           -0.051939224
FINAL SINGLE POINT ENERGY     -1979.011248134202

DIPOLE MOMENT
-------------

Method             : SCF
Type of density    : Electron Density
Multiplicity       :   1
Irrep              :   0
Energy             : -1979.1412968263789480 Eh
Relativity type    :
Basis              : AO
                                X                 Y                 Z
Electronic contribution:     -5.817170397      -4.211898898       1.763133799
Nuclear contribution   :      6.391500223       5.729360165      -2.706186931
                        -----------------------------------------
Total Dipole Moment    :      0.574329825       1.517461267      -0.943053133
                        -----------------------------------------
Magnitude (a.u.)       :      1.876670630
Magnitude (Debye)      :      4.770117655

Rotational constants in cm-1:             0.010455             0.008678             0.005697
Rotational constants in MHz :           313.427966           260.172265           170.796872

                             ****ORCA TERMINATED NORMALLY****
TOTAL RUN TIME: 0 days 0 hours 0 minutes 27 seconds 548 msec
