                         Program Version 6.0.0  -   RELEASE  -
|  1> ! pbe def2-sv(p) def2/J RI DEFGRID1 loosescf d4 GCP(DFT/SV(P)) printgap
|  2> %output
|  3>     printlevel normal
|  4> end
|  5> * xyz 0 1
|  6> C 1.6800906643 2.7741617278 0.3333823072
|  7> C 1.9735619278 1.7964037035 -0.7883049776
|  8> O 2.8894303203 0.7688352243 -0.3814479885
|  9> P 2.5330455134 -0.4897377178 0.5128208647
| 10> S 2.2413230261 -0.2216228511 2.4365602063
| 11> O 3.8505386195 -1.2868283551 0.1534009708
| 12> C 4.3476745889 -2.3440799995 0.9918401077
| 13> C 3.4815570235 -3.5857066377 0.9126765613
| 14> S 0.9689681617 -1.4931682954 -0.5347546825
| 15> C -0.3442760689 -1.3385920964 0.7107623004
| 16> S -1.0066234494 0.3389179241 0.8969387731
| 17> P -2.1942557137 0.3952371079 -0.8802209277
| 18> S -1.227158143 0.2986039319 -2.5801527087
| 19> O -3.0360569659 1.7227869202 -0.6595980112
| 20> C -2.4259415303 3.0219675598 -0.8088963187
| 21> C -3.5337916432 4.037654959 -1.0001483227
| 22> O -3.2761150051 -0.7406468826 -0.7571824578
| 23> C -4.3727505551 -0.7543842848 0.1971349705
| 24> C -4.0306268979 -1.5825013282 1.4197103806
| 25> H 2.6102808515 3.1782750596 0.7239674486
| 26> H 1.0689736331 3.5845871102 -0.051543599
| 27> H 1.1483424799 2.27995976 1.1445320768
| 28> H 2.4860478122 2.2883022995 -1.6174371115
| 29> H 1.05442627 1.3355953887 -1.1690401535
| 30> H 5.3529058776 -2.5294892526 0.6110983315
| 31> H 4.4025137039 -1.9771080942 2.0221823744
| 32> H 3.9616887819 -4.3941091694 1.4546388879
| 33> H 2.5082574674 -3.3890449216 1.3599901245
| 34> H 3.3387591524 -3.8796758004 -0.1242155664
| 35> H 0.053630529 -1.6031169975 1.6902528003
| 36> H -1.1364467496 -2.0154443522 0.4001433231
| 37> H -1.8449873825 3.2272788815 0.0941746599
| 38> H -1.7539282641 2.9930363664 -1.6731295998
| 39> H -4.1966978195 4.0335249339 -0.1399853466
| 40> H -3.0958387879 5.0240938066 -1.1107703455
| 41> H -4.1086195216 3.7990431481 -1.8905522221
| 42> H -4.6199180836 0.2726955984 0.4663482468
| 43> H -5.1972592515 -1.1987090218 -0.3626138074
| 44> H -3.7214016726 -2.5817652824 1.1241105618
| 45> H -3.2344433796 -1.1162965597 1.9950468191
| 46> H -4.9140542527 -1.6595788893 2.045990028
| 47> *
| 48>
| 49>                          ****END OF INPUT****

CARTESIAN COORDINATES (ANGSTROEM)
---------------------------------
  C      1.680091    2.774162    0.333382
  C      1.973562    1.796404   -0.788305
  O      2.889430    0.768835   -0.381448
  P      2.533046   -0.489738    0.512821
  S      2.241323   -0.221623    2.436560
  O      3.850539   -1.286828    0.153401
  C      4.347675   -2.344080    0.991840
  C      3.481557   -3.585707    0.912677
  S      0.968968   -1.493168   -0.534755
  C     -0.344276   -1.338592    0.710762
  S     -1.006623    0.338918    0.896939
  P     -2.194256    0.395237   -0.880221
  S     -1.227158    0.298604   -2.580153
  O     -3.036057    1.722787   -0.659598
  C     -2.425942    3.021968   -0.808896
  C     -3.533792    4.037655   -1.000148
  O     -3.276115   -0.740647   -0.757182
  C     -4.372751   -0.754384    0.197135
  C     -4.030627   -1.582501    1.419710
  H      2.610281    3.178275    0.723967
  H      1.068974    3.584587   -0.051544
  H      1.148342    2.279960    1.144532
  H      2.486048    2.288302   -1.617437
  H      1.054426    1.335595   -1.169040
  H      5.352906   -2.529489    0.611098
  H      4.402514   -1.977108    2.022182
  H      3.961689   -4.394109    1.454639
  H      2.508257   -3.389045    1.359990
  H      3.338759   -3.879676   -0.124216
  H      0.053631   -1.603117    1.690253
  H     -1.136447   -2.015444    0.400143
  H     -1.844987    3.227279    0.094175
  H     -1.753928    2.993036   -1.673130
  H     -4.196698    4.033525   -0.139985
  H     -3.095839    5.024094   -1.110770
  H     -4.108620    3.799043   -1.890552
  H     -4.619918    0.272696    0.466348
  H     -5.197259   -1.198709   -0.362614
  H     -3.721402   -2.581765    1.124111
  H     -3.234443   -1.116297    1.995047
  H     -4.914054   -1.659579    2.045990

 Total Charge           Charge          ....    0
 Multiplicity           Mult            ....    1
 Number of Electrons    NEL             ....  202
 Basis Dimension        Dim             ....  334

ORBITAL ENERGIES
----------------

  NO   OCC          E(Eh)            E(eV)
   0   2.0000     -88.046208     -2395.8591
   1   2.0000     -88.040013     -2395.6905
   2   2.0000     -87.987926     -2394.2732
   3   2.0000     -87.986307     -2394.2291
   4   2.0000     -76.430563     -2079.7814
   5   2.0000     -76.423662     -2079.5936
   6   2.0000     -18.801277      -511.6088
   7   2.0000     -18.801212      -511.6070
   8   2.0000     -18.785448      -511.1780
   9   2.0000     -18.782833      -511.1069
  10   2.0000      -9.964412      -271.1454
  11   2.0000      -9.961739      -271.0727
  12   2.0000      -9.959794      -271.0198
  13   2.0000      -9.947996      -270.6987
  14   2.0000      -9.941150      -270.5125
  15   2.0000      -9.895255      -269.2636
  16   2.0000      -9.895017      -269.2571
  17   2.0000      -9.881315      -268.8842
  18   2.0000      -9.873551      -268.6730
  19   2.0000      -7.690579      -209.2713
  20   2.0000      -7.684749      -209.1127
  21   2.0000      -7.632863      -207.7008
  22   2.0000      -7.631222      -207.6561
  23   2.0000      -6.428033      -174.9157
  24   2.0000      -6.420872      -174.7208
  25   2.0000      -5.718210      -155.6004
  26   2.0000      -5.715279      -155.5206
  27   2.0000      -5.712638      -155.4488
  28   2.0000      -5.709252      -155.3567
  29   2.0000      -5.707709      -155.3147
  30   2.0000      -5.701744      -155.1523
  31   2.0000      -5.661635      -154.0609
  32   2.0000      -5.660255      -154.0234
  33   2.0000      -5.653445      -153.8381
  34   2.0000      -5.653225      -153.8321
  35   2.0000      -5.651957      -153.7976
  36   2.0000      -5.651173      -153.7762
  37   2.0000      -4.651263      -126.5673
  38   2.0000      -4.649769      -126.5266
  39   2.0000      -4.647880      -126.4753
  40   2.0000      -4.643127      -126.3459
  41   2.0000      -4.642916      -126.3402
  42   2.0000      -4.641378      -126.2983
  43   2.0000      -0.996597       -27.1188
  44   2.0000      -0.983490       -26.7621
  45   2.0000      -0.953737       -25.9525
  46   2.0000      -0.938349       -25.5338
  47   2.0000      -0.763419       -20.7737
  48   2.0000      -0.725763       -19.7490
  49   2.0000      -0.710650       -19.3378
  50   2.0000      -0.700410       -19.0591
  51   2.0000      -0.679119       -18.4798
  52   2.0000      -0.673529       -18.3277
  53   2.0000      -0.651340       -17.7239
  54   2.0000      -0.639833       -17.4107
  55   2.0000      -0.596237       -16.2244
  56   2.0000      -0.591863       -16.1054
  57   2.0000      -0.582781       -15.8583
  58   2.0000      -0.568289       -15.4639
  59   2.0000      -0.561526       -15.2799
  60   2.0000      -0.516362       -14.0509
  61   2.0000      -0.490655       -13.3514
  62   2.0000      -0.487163       -13.2564
  63   2.0000      -0.467040       -12.7088
  64   2.0000      -0.458729       -12.4827
  65   2.0000      -0.451365       -12.2823
  66   2.0000      -0.442893       -12.0517
  67   2.0000      -0.437873       -11.9151
  68   2.0000      -0.425102       -11.5676
  69   2.0000      -0.415337       -11.3019
  70   2.0000      -0.410075       -11.1587
  71   2.0000      -0.401102       -10.9145
  72   2.0000      -0.395800       -10.7703
  73   2.0000      -0.386547       -10.5185
  74   2.0000      -0.379774       -10.3342
  75   2.0000      -0.375504       -10.2180
  76   2.0000      -0.369452       -10.0533
  77   2.0000      -0.361273        -9.8307
  78   2.0000      -0.359869        -9.7925
  79   2.0000      -0.359306        -9.7772
  80   2.0000      -0.349226        -9.5029
  81   2.0000      -0.344239        -9.3672
  82   2.0000      -0.340364        -9.2618
  83   2.0000      -0.336649        -9.1607
  84   2.0000      -0.329416        -8.9639
  85   2.0000      -0.324794        -8.8381
  86   2.0000      -0.313975        -8.5437
  87   2.0000      -0.309545        -8.4232
  88   2.0000      -0.303035        -8.2460
  89   2.0000      -0.293005        -7.9731
  90   2.0000      -0.283017        -7.7013
  91   2.0000      -0.279119        -7.5952
  92   2.0000      -0.265805        -7.2329
  93   2.0000      -0.264362        -7.1937
  94   2.0000      -0.256129        -6.9696
  95   2.0000      -0.245247        -6.6735
  96   2.0000      -0.216060        -5.8793
  97   2.0000      -0.209968        -5.7135
  98   2.0000      -0.204931        -5.5765
  99   2.0000      -0.201988        -5.4964
 100   2.0000      -0.190841        -5.1930
 101   0.0000      -0.045077        -1.2266
 102   0.0000      -0.031661        -0.8616
 103   0.0000      -0.009660        -0.2629
 104   0.0000      -0.000048        -0.0013
 105   0.0000       0.012034         0.3275

MULLIKEN ATOMIC CHARGES
-----------------------
   0 C :   -0.314009
   1 C :   -0.027784
   2 O :   -0.351880
   3 P :    0.603857
   4 S :   -0.340926
   5 O :   -0.356649
   6 C :   -0.003699
   7 C :   -0.309681
   8 S :   -0.071288
   9 C :   -0.353070
  10 S :   -0.106291
  11 P :    0.600358
  12 S :   -0.290241
  13 O :   -0.387272
  14 C :   -0.024690
  15 C :   -0.279260
  16 O :   -0.363507
  17 C :   -0.010059
  18 C :   -0.314078
  19 H :    0.113442
  20 H :    0.100474
  21 H :    0.137989
  22 H :    0.102891
  23 H :    0.122554
  24 H :    0.106732
  25 H :    0.112852
  26 H :    0.110627
  27 H :    0.117146
  28 H :    0.119251
  29 H :    0.194278
  30 H :    0.185439
  31 H :    0.113021
  32 H :    0.109569
  33 H :    0.116162
  34 H :    0.114855
  35 H :    0.123772
  36 H :    0.114805
  37 H :    0.114933
  38 H :    0.124153
  39 H :    0.129217
  40 H :    0.116006
Sum of atomic charges:    0.0000000

LOEWDIN ATOMIC CHARGES
----------------------
   0 C :   -0.369553
   1 C :   -0.124309
   2 O :   -0.229628
   3 P :    0.569282
   4 S :   -0.319388
   5 O :   -0.234125
   6 C :   -0.119540
   7 C :   -0.367424
   8 S :    0.095131
   9 C :   -0.480923
  10 S :    0.078370
  11 P :    0.559734
  12 S :   -0.299349
  13 O :   -0.250278
  14 C :   -0.120480
  15 C :   -0.349735
  16 O :   -0.238585
  17 C :   -0.108688
  18 C :   -0.365432
  19 H :    0.125651
  20 H :    0.122895
  21 H :    0.116044
  22 H :    0.118910
  23 H :    0.096846
  24 H :    0.119616
  25 H :    0.109525
  26 H :    0.129475
  27 H :    0.117677
  28 H :    0.125821
  29 H :    0.129432
  30 H :    0.131213
  31 H :    0.111384
  32 H :    0.109884
  33 H :    0.126563
  34 H :    0.132641
  35 H :    0.130756
  36 H :    0.114890
  37 H :    0.124081
  38 H :    0.127238
  39 H :    0.120983
  40 H :    0.133397

  Mayer bond orders larger than 0.100000
B(  0-C ,  1-C ) :   1.1607 B(  0-C , 19-H ) :   0.9436 B(  0-C , 20-H ) :   0.9373
B(  0-C , 21-H ) :   0.9311 B(  1-C ,  2-O ) :   0.9136 B(  1-C , 22-H ) :   0.9355
B(  1-C , 23-H ) :   0.8940 B(  2-O ,  3-P ) :   1.1417 B(  3-P ,  4-S ) :   1.5880
B(  3-P ,  5-O ) :   1.1287 B(  3-P ,  8-S ) :   0.9445 B(  4-S ,  8-S ) :   0.1203
B(  5-O ,  6-C ) :   0.9153 B(  6-C ,  7-C ) :   1.1623 B(  6-C , 24-H ) :   0.9340
B(  6-C , 25-H ) :   0.9140 B(  7-C , 26-H ) :   0.9387 B(  7-C , 27-H ) :   0.9386
B(  7-C , 28-H ) :   0.9449 B(  8-S ,  9-C ) :   1.0164 B(  9-C , 10-S ) :   0.9887
B(  9-C , 29-H ) :   0.8778 B(  9-C , 30-H ) :   0.8906 B( 10-S , 11-P ) :   0.9451
B( 10-S , 12-S ) :   0.1112 B( 11-P , 12-S ) :   1.6768 B( 11-P , 13-O ) :   1.0757
B( 11-P , 16-O ) :   1.1295 B( 13-O , 14-C ) :   0.9023 B( 14-C , 15-C ) :   1.1615
B( 14-C , 31-H ) :   0.9267 B( 14-C , 32-H ) :   0.9072 B( 15-C , 33-H ) :   0.9510
B( 15-C , 34-H ) :   0.9409 B( 15-C , 35-H ) :   0.9504 B( 16-O , 17-C ) :   0.8924
B( 17-C , 18-C ) :   1.1699 B( 17-C , 36-H ) :   0.9186 B( 17-C , 37-H ) :   0.9348
B( 18-C , 38-H ) :   0.9422 B( 18-C , 39-H ) :   0.9319 B( 18-C , 40-H ) :   0.9378

Dispersion correction           -0.065207867
FINAL SINGLE POINT ENERGY     -2929.520809381483

DIPOLE MOMENT
-------------

Method             : SCF
Type of density    : Electron Density
Multiplicity       :   1
Irrep              :   0
Energy             : -2929.6393971978313857 Eh
Relativity type    :
Basis              : AO
                                X                 Y                 Z
Electronic contribution:      8.315328011      -5.316813557      -6.288852072
Nuclear contribution   :     -9.554159030       5.443856035       6.858397737
                        -----------------------------------------
Total Dipole Moment    :     -1.238831019       0.127042478       0.569545665
                        -----------------------------------------
Magnitude (a.u.)       :      1.369388312
Magnitude (Debye)      :      3.480708472

Rotational constants in cm-1:             0.012425             0.004883             0.004330
Rotational constants in MHz :           372.480108           146.403289           129.821637

                             ****ORCA TERMINATED NORMALLY****
TOTAL RUN TIME: 0 days 0 hours 0 minutes 20 seconds 975 msec
