                         Program Version 6.0.0  -   RELEASE  -
|  1> ! pbe def2-sv(p) def2/J RI DEFGRID1 loosescf d4 GCP(DFT/SV(P)) printgap
|  2> %output
|  3>     printlevel normal
|  4> end
|  5> * xyz 0 1
|  6> C 4.6396380176 0.0573296182 -1.7811946544
|  7> C 4.3840342964 1.1543844433 -0.7687418645
|  8> O 3.4796924993 0.7409591547 0.2709205468
|  9> P 1.9510093969 0.4098337059 -0.001739348
| 10> S 1.0303334334 1.5853339867 -1.2740241184
| 11> O 1.326287217 0.5230898349 1.4440408925
| 12> C 1.9896708293 0.1879498531 2.6911616291
| 13> C 2.2184828317 -1.3008652065 2.8475219871
| 14> S 1.9563790165 -1.6514054549 -0.5359514762
| 15> C 0.2121382821 -1.8027420797 -0.9653735072
| 16> S -0.8937097144 -1.5545716372 0.4602305931
| 17> P -2.1309918879 0.0174549259 -0.2639263439
| 18> S -2.1789505088 0.2139083429 -2.2087116585
| 19> O -1.7419784589 1.3493164 0.4786690439
| 20> C -1.7853208262 1.4762459485 1.9234693568
| 21> C -1.091741726 2.7708419338 2.2900194746
| 22> O -3.5065527823 -0.3211592731 0.4665418021
| 23> C -4.2755582011 -1.5136041109 0.2156752528
| 24> C -5.2377932705 -1.3236841821 -0.9402742358
| 25> H 4.9362939197 -0.8607319661 -1.280493964
| 26> H 3.737108963 -0.1332703567 -2.3598836677
| 27> H 5.4283795851 0.3718248817 -2.4571044439
| 28> H 3.9647822283 2.0389172055 -1.2580348482
| 29> H 5.2924930209 1.4232203349 -0.2276304343
| 30> H 2.9305940355 0.7383830506 2.7360596535
| 31> H 1.2992876546 0.5677731932 3.4463357315
| 32> H 2.5656367143 -1.4969988191 3.8572015646
| 33> H 1.2933692459 -1.8469676969 2.675464676
| 34> H 2.9683870786 -1.6495000541 2.1414689577
| 35> H 0.0771513435 -2.8190192468 -1.3268397821
| 36> H -0.0554716239 -1.0726779307 -1.7352644455
| 37> H -2.8333403314 1.4774195586 2.2285850793
| 38> H -1.2797902428 0.6088201235 2.35814371
| 39> H -0.0640402654 2.7530441346 1.9356997092
| 40> H -1.6011639753 3.609817066 1.8244110204
| 41> H -1.1039913097 2.8917305607 3.3683887264
| 42> H -3.5922799087 -2.3460513733 0.0265833126
| 43> H -4.8102255764 -1.6862131011 1.1517958363
| 44> H -4.690441551 -1.1400414522 -1.8622057406
| 45> H -5.8385292336 -2.2200126484 -1.0555008983
| 46> H -5.8892290094 -0.4752464143 -0.7495080818
| 47> *
| 48>
| 49>                          ****END OF INPUT****

CARTESIAN COORDINATES (ANGSTROEM)
---------------------------------
  C      4.639638    0.057330   -1.781195
  C      4.384034    1.154384   -0.768742
  O      3.479692    0.740959    0.270921
  P      1.951009    0.409834   -0.001739
  S      1.030333    1.585334   -1.274024
  O      1.326287    0.523090    1.444041
  C      1.989671    0.187950    2.691162
  C      2.218483   -1.300865    2.847522
  S      1.956379   -1.651405   -0.535951
  C      0.212138   -1.802742   -0.965374
  S     -0.893710   -1.554572    0.460231
  P     -2.130992    0.017455   -0.263926
  S     -2.178951    0.213908   -2.208712
  O     -1.741978    1.349316    0.478669
  C     -1.785321    1.476246    1.923469
  C     -1.091742    2.770842    2.290019
  O     -3.506553   -0.321159    0.466542
  C     -4.275558   -1.513604    0.215675
  C     -5.237793   -1.323684   -0.940274
  H      4.936294   -0.860732   -1.280494
  H      3.737109   -0.133270   -2.359884
  H      5.428380    0.371825   -2.457104
  H      3.964782    2.038917   -1.258035
  H      5.292493    1.423220   -0.227630
  H      2.930594    0.738383    2.736060
  H      1.299288    0.567773    3.446336
  H      2.565637   -1.496999    3.857202
  H      1.293369   -1.846968    2.675465
  H      2.968387   -1.649500    2.141469
  H      0.077151   -2.819019   -1.326840
  H     -0.055472   -1.072678   -1.735264
  H     -2.833340    1.477420    2.228585
  H     -1.279790    0.608820    2.358144
  H     -0.064040    2.753044    1.935700
  H     -1.601164    3.609817    1.824411
  H     -1.103991    2.891731    3.368389
  H     -3.592280   -2.346051    0.026583
  H     -4.810226   -1.686213    1.151796
  H     -4.690442   -1.140041   -1.862206
  H     -5.838529   -2.220013   -1.055501
  H     -5.889229   -0.475246   -0.749508

 Total Charge           Charge          ....    0
 Multiplicity           Mult            ....    1
 Number of Electrons    NEL             ....  202
 Basis Dimension        Dim             ....  334

ORBITAL ENERGIES
----------------

  NO   OCC          E(Eh)            E(eV)
   0   2.0000     -88.041981     -2395.7441
   1   2.0000     -88.039831     -2395.6856
   2   2.0000     -87.978682     -2394.0216
   3   2.0000     -87.977251     -2393.9827
   4   2.0000     -76.424961     -2079.6289
   5   2.0000     -76.419480     -2079.4798
   6   2.0000     -18.797039      -511.4934
   7   2.0000     -18.791229      -511.3353
   8   2.0000     -18.788083      -511.2497
   9   2.0000     -18.782207      -511.0898
  10   2.0000      -9.959211      -271.0039
  11   2.0000      -9.955820      -270.9116
  12   2.0000      -9.951711      -270.7998
  13   2.0000      -9.950723      -270.7729
  14   2.0000      -9.947665      -270.6897
  15   2.0000      -9.888050      -269.0675
  16   2.0000      -9.885644      -269.0021
  17   2.0000      -9.878389      -268.8046
  18   2.0000      -9.876389      -268.7502
  19   2.0000      -7.686934      -209.1721
  20   2.0000      -7.684402      -209.1032
  21   2.0000      -7.623560      -207.4476
  22   2.0000      -7.622468      -207.4179
  23   2.0000      -6.422130      -174.7550
  24   2.0000      -6.416818      -174.6105
  25   2.0000      -5.714822      -155.5082
  26   2.0000      -5.712169      -155.4360
  27   2.0000      -5.711382      -155.4146
  28   2.0000      -5.708761      -155.3433
  29   2.0000      -5.703965      -155.2128
  30   2.0000      -5.701670      -155.1503
  31   2.0000      -5.652586      -153.8147
  32   2.0000      -5.651549      -153.7865
  33   2.0000      -5.644285      -153.5888
  34   2.0000      -5.643554      -153.5689
  35   2.0000      -5.642944      -153.5523
  36   2.0000      -5.642542      -153.5414
  37   2.0000      -4.645267      -126.4041
  38   2.0000      -4.643718      -126.3620
  39   2.0000      -4.642233      -126.3216
  40   2.0000      -4.639552      -126.2486
  41   2.0000      -4.638659      -126.2243
  42   2.0000      -4.637115      -126.1823
  43   2.0000      -0.990105       -26.9421
  44   2.0000      -0.981983       -26.7211
  45   2.0000      -0.946037       -25.7430
  46   2.0000      -0.936175       -25.4746
  47   2.0000      -0.760424       -20.6922
  48   2.0000      -0.718591       -19.5538
  49   2.0000      -0.709394       -19.3036
  50   2.0000      -0.692716       -18.8498
  51   2.0000      -0.683414       -18.5966
  52   2.0000      -0.675656       -18.3855
  53   2.0000      -0.647137       -17.6095
  54   2.0000      -0.629894       -17.1403
  55   2.0000      -0.596015       -16.2184
  56   2.0000      -0.581654       -15.8276
  57   2.0000      -0.579747       -15.7757
  58   2.0000      -0.564187       -15.3523
  59   2.0000      -0.561231       -15.2719
  60   2.0000      -0.503295       -13.6953
  61   2.0000      -0.497997       -13.5512
  62   2.0000      -0.474999       -12.9254
  63   2.0000      -0.472676       -12.8622
  64   2.0000      -0.452723       -12.3192
  65   2.0000      -0.446321       -12.1450
  66   2.0000      -0.444024       -12.0825
  67   2.0000      -0.430535       -11.7154
  68   2.0000      -0.429670       -11.6919
  69   2.0000      -0.418713       -11.3938
  70   2.0000      -0.408300       -11.1104
  71   2.0000      -0.400868       -10.9082
  72   2.0000      -0.394859       -10.7447
  73   2.0000      -0.380958       -10.3664
  74   2.0000      -0.378238       -10.2924
  75   2.0000      -0.367628       -10.0037
  76   2.0000      -0.358440        -9.7537
  77   2.0000      -0.354100        -9.6356
  78   2.0000      -0.351644        -9.5687
  79   2.0000      -0.349061        -9.4984
  80   2.0000      -0.345993        -9.4149
  81   2.0000      -0.343951        -9.3594
  82   2.0000      -0.337076        -9.1723
  83   2.0000      -0.332908        -9.0589
  84   2.0000      -0.329931        -8.9779
  85   2.0000      -0.318677        -8.6716
  86   2.0000      -0.312358        -8.4997
  87   2.0000      -0.300382        -8.1738
  88   2.0000      -0.294886        -8.0242
  89   2.0000      -0.292421        -7.9572
  90   2.0000      -0.289698        -7.8831
  91   2.0000      -0.273336        -7.4378
  92   2.0000      -0.265304        -7.2193
  93   2.0000      -0.262201        -7.1348
  94   2.0000      -0.255693        -6.9578
  95   2.0000      -0.232402        -6.3240
  96   2.0000      -0.219817        -5.9815
  97   2.0000      -0.209847        -5.7102
  98   2.0000      -0.197393        -5.3713
  99   2.0000      -0.187606        -5.1050
 100   2.0000      -0.180662        -4.9161
 101   0.0000      -0.040484        -1.1016
 102   0.0000      -0.029513        -0.8031
 103   0.0000      -0.006399        -0.1741
 104   0.0000       0.010583         0.2880
 105   0.0000       0.019800         0.5388

MULLIKEN ATOMIC CHARGES
-----------------------
   0 C :   -0.323503
   1 C :    0.001702
   2 O :   -0.387147
   3 P :    0.600631
   4 S :   -0.278589
   5 O :   -0.359629
   6 C :   -0.002087
   7 C :   -0.313806
   8 S :   -0.109190
   9 C :   -0.345267
  10 S :   -0.127942
  11 P :    0.611619
  12 S :   -0.287457
  13 O :   -0.347271
  14 C :   -0.013537
  15 C :   -0.285878
  16 O :   -0.387258
  17 C :   -0.007231
  18 C :   -0.293029
  19 H :    0.116429
  20 H :    0.135010
  21 H :    0.115908
  22 H :    0.113866
  23 H :    0.103568
  24 H :    0.112018
  25 H :    0.106343
  26 H :    0.110746
  27 H :    0.126750
  28 H :    0.123520
  29 H :    0.179025
  30 H :    0.208242
  31 H :    0.105400
  32 H :    0.099965
  33 H :    0.133195
  34 H :    0.119436
  35 H :    0.099603
  36 H :    0.097607
  37 H :    0.101324
  38 H :    0.129656
  39 H :    0.104222
  40 H :    0.113038
Sum of atomic charges:   -0.0000000

LOEWDIN ATOMIC CHARGES
----------------------
   0 C :   -0.372142
   1 C :   -0.116246
   2 O :   -0.249029
   3 P :    0.561626
   4 S :   -0.287448
   5 O :   -0.235816
   6 C :   -0.108787
   7 C :   -0.370063
   8 S :    0.078771
   9 C :   -0.482093
  10 S :    0.060055
  11 P :    0.566915
  12 S :   -0.289495
  13 O :   -0.225772
  14 C :   -0.113804
  15 C :   -0.353550
  16 O :   -0.249912
  17 C :   -0.118041
  18 C :   -0.365059
  19 H :    0.122647
  20 H :    0.124287
  21 H :    0.132774
  22 H :    0.114051
  23 H :    0.117883
  24 H :    0.114807
  25 H :    0.117181
  26 H :    0.129667
  27 H :    0.123803
  28 H :    0.118349
  29 H :    0.136312
  30 H :    0.125061
  31 H :    0.111670
  32 H :    0.102145
  33 H :    0.129499
  34 H :    0.129826
  35 H :    0.124589
  36 H :    0.102106
  37 H :    0.116103
  38 H :    0.123941
  39 H :    0.127200
  40 H :    0.125986

  Mayer bond orders larger than 0.100000
B(  0-C ,  1-C ) :   1.1671 B(  0-C , 19-H ) :   0.9438 B(  0-C , 20-H ) :   0.9329
B(  0-C , 21-H ) :   0.9368 B(  1-C ,  2-O ) :   0.9033 B(  1-C , 22-H ) :   0.9167
B(  1-C , 23-H ) :   0.9342 B(  2-O ,  3-P ) :   1.0750 B(  3-P ,  4-S ) :   1.6726
B(  3-P ,  5-O ) :   1.1107 B(  3-P ,  8-S ) :   0.9340 B(  4-S ,  8-S ) :   0.1086
B(  5-O ,  6-C ) :   0.8970 B(  6-C ,  7-C ) :   1.1751 B(  6-C , 24-H ) :   0.9259
B(  6-C , 25-H ) :   0.9297 B(  7-C , 26-H ) :   0.9355 B(  7-C , 27-H ) :   0.9396
B(  7-C , 28-H ) :   0.9388 B(  8-S ,  9-C ) :   1.0041 B(  9-C , 10-S ) :   0.9960
B(  9-C , 29-H ) :   0.9111 B(  9-C , 30-H ) :   0.8420 B( 10-S , 11-P ) :   0.9471
B( 10-S , 12-S ) :   0.1160 B( 11-P , 12-S ) :   1.6516 B( 11-P , 13-O ) :   1.1430
B( 11-P , 16-O ) :   1.0681 B( 13-O , 14-C ) :   0.8931 B( 14-C , 15-C ) :   1.1674
B( 14-C , 31-H ) :   0.9279 B( 14-C , 32-H ) :   0.9137 B( 15-C , 33-H ) :   0.9393
B( 15-C , 34-H ) :   0.9484 B( 15-C , 35-H ) :   0.9402 B( 16-O , 17-C ) :   0.9138
B( 17-C , 18-C ) :   1.1662 B( 17-C , 36-H ) :   0.9126 B( 17-C , 37-H ) :   0.9367
B( 18-C , 38-H ) :   0.9296 B( 18-C , 39-H ) :   0.9389 B( 18-C , 40-H ) :   0.9474

Dispersion correction           -0.068016034
FINAL SINGLE POINT ENERGY     -2929.515166630641

DIPOLE MOMENT
-------------

Method             : SCF
Type of density    : Electron Density
Multiplicity       :   1
Irrep              :   0
Energy             : -2929.6336563847717116 Eh
Relativity type    :
Basis              : AO
                                X                 Y                 Z
Electronic contribution:     -1.972072834       0.662052355     -11.245587716
Nuclear contribution   :      2.722630884      -1.494635547      12.986623540
                        -----------------------------------------
Total Dipole Moment    :      0.750558051      -0.832583192       1.741035824
                        -----------------------------------------
Magnitude (a.u.)       :      2.070685370
Magnitude (Debye)      :      5.263263932

Rotational constants in cm-1:             0.012763             0.005382             0.005096
Rotational constants in MHz :           382.623672           161.339043           152.771273

                             ****ORCA TERMINATED NORMALLY****
TOTAL RUN TIME: 0 days 0 hours 0 minutes 21 seconds 646 msec
