                         Program Version 6.0.0  -   RELEASE  -
|  1> ! pbe def2-sv(p) def2/J RI DEFGRID1 loosescf d4 GCP(DFT/SV(P)) printgap
|  2> %output
|  3>     printlevel normal
|  4> end
|  5> * xyz 0 1
|  6> C 2.8152183876 0.2153738068 -3.0485722929
|  7> C 2.3332967173 -1.1233225935 -2.5274898648
|  8> O 1.5458703313 -0.9865878038 -1.3255582738
|  9> P 2.1292732432 -0.5779493632 0.0898544162
| 10> S 2.8286142558 1.2316102098 0.4147929449
| 11> O 3.230936248 -1.7141931042 0.2750160351
| 12> C 4.257794706 -1.6364297667 1.2771827082
| 13> C 3.6958525386 -1.775882124 2.6771744898
| 14> S 0.5028940998 -1.1795772243 1.2870471602
| 15> C -0.0492829647 0.4356506439 1.9454486455
| 16> S -1.8319949281 0.658731612 1.8222868268
| 17> P -2.052789823 0.9787817732 -0.2771336585
| 18> S -0.4286907436 1.5744779086 -1.1963663161
| 19> O -3.2141650298 2.0257456648 -0.4252409913
| 20> C -4.6296803881 1.7536190603 -0.2585888874
| 21> C -4.9680790725 1.2580515564 1.1302483132
| 22> O -2.7264338188 -0.3418621372 -0.8608323093
| 23> C -1.9964084189 -1.5475111904 -1.1485540596
| 24> C -2.7708814819 -2.3201222065 -2.1974025366
| 25> H 3.5464894016 0.6495647496 -2.3691057227
| 26> H 3.2710201196 0.0828719895 -4.0244816326
| 27> H 1.9766408967 0.9047700681 -3.1301122128
| 28> H 3.1703831939 -1.7944964906 -2.3210888658
| 29> H 1.6427597588 -1.5941621618 -3.2295876739
| 30> H 4.9305234571 -2.4579759779 1.0275920985
| 31> H 4.7767236127 -0.6788992669 1.1661333951
| 32> H 3.0791285682 -2.6679673571 2.7504268582
| 33> H 4.5134674665 -1.8404532008 3.387742043
| 34> H 3.0876697494 -0.904891521 2.9181032465
| 35> H 0.4726859714 1.2264571526 1.3998469058
| 36> H 0.1781336984 0.4734564935 3.0077387831
| 37> H -5.0898170501 2.7210428303 -0.4651233666
| 38> H -4.9268802536 1.0288783345 -1.0182332754
| 39> H -6.0460857807 1.1659183071 1.2198949634
| 40> H -4.5137131609 0.2851191674 1.3071822122
| 41> H -4.6038016365 1.9534731382 1.8820285324
| 42> H -0.9956914985 -1.2804160985 -1.5050985663
| 43> H -1.9005729891 -2.1190814545 -0.2208240459
| 44> H -2.2485386071 -3.24635924 -2.4128582945
| 45> H -3.7675209368 -2.5464808032 -1.8300776002
| 46> H -2.8539293912 -1.7340104891 -3.1086248953
| 47> *
| 48>
| 49>                          ****END OF INPUT****

CARTESIAN COORDINATES (ANGSTROEM)
---------------------------------
  C      2.815218    0.215374   -3.048572
  C      2.333297   -1.123323   -2.527490
  O      1.545870   -0.986588   -1.325558
  P      2.129273   -0.577949    0.089854
  S      2.828614    1.231610    0.414793
  O      3.230936   -1.714193    0.275016
  C      4.257795   -1.636430    1.277183
  C      3.695853   -1.775882    2.677174
  S      0.502894   -1.179577    1.287047
  C     -0.049283    0.435651    1.945449
  S     -1.831995    0.658732    1.822287
  P     -2.052790    0.978782   -0.277134
  S     -0.428691    1.574478   -1.196366
  O     -3.214165    2.025746   -0.425241
  C     -4.629680    1.753619   -0.258589
  C     -4.968079    1.258052    1.130248
  O     -2.726434   -0.341862   -0.860832
  C     -1.996408   -1.547511   -1.148554
  C     -2.770881   -2.320122   -2.197403
  H      3.546489    0.649565   -2.369106
  H      3.271020    0.082872   -4.024482
  H      1.976641    0.904770   -3.130112
  H      3.170383   -1.794496   -2.321089
  H      1.642760   -1.594162   -3.229588
  H      4.930523   -2.457976    1.027592
  H      4.776724   -0.678899    1.166133
  H      3.079129   -2.667967    2.750427
  H      4.513467   -1.840453    3.387742
  H      3.087670   -0.904892    2.918103
  H      0.472686    1.226457    1.399847
  H      0.178134    0.473456    3.007739
  H     -5.089817    2.721043   -0.465123
  H     -4.926880    1.028878   -1.018233
  H     -6.046086    1.165918    1.219895
  H     -4.513713    0.285119    1.307182
  H     -4.603802    1.953473    1.882029
  H     -0.995691   -1.280416   -1.505099
  H     -1.900573   -2.119081   -0.220824
  H     -2.248539   -3.246359   -2.412858
  H     -3.767521   -2.546481   -1.830078
  H     -2.853929   -1.734010   -3.108625

 Total Charge           Charge          ....    0
 Multiplicity           Mult            ....    1
 Number of Electrons    NEL             ....  202
 Basis Dimension        Dim             ....  334

ORBITAL ENERGIES
----------------

  NO   OCC          E(Eh)            E(eV)
   0   2.0000     -88.040399     -2395.7011
   1   2.0000     -88.040240     -2395.6967
   2   2.0000     -87.984387     -2394.1769
   3   2.0000     -87.975884     -2393.9455
   4   2.0000     -76.424929     -2079.6281
   5   2.0000     -76.421412     -2079.5324
   6   2.0000     -18.790441      -511.3139
   7   2.0000     -18.790309      -511.3103
   8   2.0000     -18.787744      -511.2405
   9   2.0000     -18.787021      -511.2208
  10   2.0000      -9.957539      -270.9584
  11   2.0000      -9.951215      -270.7863
  12   2.0000      -9.950625      -270.7703
  13   2.0000      -9.950221      -270.7593
  14   2.0000      -9.944575      -270.6056
  15   2.0000      -9.891292      -269.1557
  16   2.0000      -9.884931      -268.9827
  17   2.0000      -9.882941      -268.9285
  18   2.0000      -9.875467      -268.7251
  19   2.0000      -7.685373      -209.1296
  20   2.0000      -7.685167      -209.1240
  21   2.0000      -7.629235      -207.6020
  22   2.0000      -7.620797      -207.3724
  23   2.0000      -6.422050      -174.7529
  24   2.0000      -6.418808      -174.6646
  25   2.0000      -5.713431      -155.4704
  26   2.0000      -5.713022      -155.4592
  27   2.0000      -5.709757      -155.3704
  28   2.0000      -5.709583      -155.3656
  29   2.0000      -5.702532      -155.1738
  30   2.0000      -5.702052      -155.1607
  31   2.0000      -5.658122      -153.9653
  32   2.0000      -5.650034      -153.7452
  33   2.0000      -5.649829      -153.7397
  34   2.0000      -5.649257      -153.7241
  35   2.0000      -5.641164      -153.5039
  36   2.0000      -5.641075      -153.5014
  37   2.0000      -4.644709      -126.3890
  38   2.0000      -4.643603      -126.3589
  39   2.0000      -4.642682      -126.3338
  40   2.0000      -4.641744      -126.3083
  41   2.0000      -4.640440      -126.2728
  42   2.0000      -4.639061      -126.2353
  43   2.0000      -0.985350       -26.8127
  44   2.0000      -0.985086       -26.8056
  45   2.0000      -0.940998       -25.6059
  46   2.0000      -0.940478       -25.5917
  47   2.0000      -0.758846       -20.6492
  48   2.0000      -0.720230       -19.5985
  49   2.0000      -0.709175       -19.2976
  50   2.0000      -0.691509       -18.8169
  51   2.0000      -0.684863       -18.6361
  52   2.0000      -0.672894       -18.3104
  53   2.0000      -0.648430       -17.6447
  54   2.0000      -0.630570       -17.1587
  55   2.0000      -0.596360       -16.2278
  56   2.0000      -0.588374       -16.0105
  57   2.0000      -0.574352       -15.6289
  58   2.0000      -0.571235       -15.5441
  59   2.0000      -0.558132       -15.1876
  60   2.0000      -0.500642       -13.6232
  61   2.0000      -0.494026       -13.4431
  62   2.0000      -0.473594       -12.8872
  63   2.0000      -0.466183       -12.6855
  64   2.0000      -0.452125       -12.3029
  65   2.0000      -0.445261       -12.1162
  66   2.0000      -0.443526       -12.0690
  67   2.0000      -0.431666       -11.7462
  68   2.0000      -0.426371       -11.6021
  69   2.0000      -0.415860       -11.3161
  70   2.0000      -0.412129       -11.2146
  71   2.0000      -0.404648       -11.0110
  72   2.0000      -0.392695       -10.6858
  73   2.0000      -0.385207       -10.4820
  74   2.0000      -0.377167       -10.2632
  75   2.0000      -0.368498       -10.0273
  76   2.0000      -0.364845        -9.9279
  77   2.0000      -0.356904        -9.7118
  78   2.0000      -0.351417        -9.5625
  79   2.0000      -0.349669        -9.5150
  80   2.0000      -0.343787        -9.3549
  81   2.0000      -0.343179        -9.3384
  82   2.0000      -0.339528        -9.2390
  83   2.0000      -0.335644        -9.1333
  84   2.0000      -0.332056        -9.0357
  85   2.0000      -0.312480        -8.5030
  86   2.0000      -0.308056        -8.3826
  87   2.0000      -0.298032        -8.1099
  88   2.0000      -0.293518        -7.9870
  89   2.0000      -0.292424        -7.9573
  90   2.0000      -0.284470        -7.7408
  91   2.0000      -0.272541        -7.4162
  92   2.0000      -0.271721        -7.3939
  93   2.0000      -0.261585        -7.1181
  94   2.0000      -0.253096        -6.8871
  95   2.0000      -0.235677        -6.4131
  96   2.0000      -0.215347        -5.8599
  97   2.0000      -0.211183        -5.7466
  98   2.0000      -0.197624        -5.3776
  99   2.0000      -0.192392        -5.2353
 100   2.0000      -0.184358        -5.0166
 101   0.0000      -0.038009        -1.0343
 102   0.0000      -0.033045        -0.8992
 103   0.0000      -0.009913        -0.2697
 104   0.0000       0.009971         0.2713
 105   0.0000       0.015501         0.4218

MULLIKEN ATOMIC CHARGES
-----------------------
   0 C :   -0.317838
   1 C :    0.001025
   2 O :   -0.359344
   3 P :    0.635794
   4 S :   -0.312219
   5 O :   -0.380410
   6 C :   -0.002798
   7 C :   -0.309524
   8 S :   -0.108166
   9 C :   -0.338382
  10 S :   -0.128483
  11 P :    0.609198
  12 S :   -0.299987
  13 O :   -0.360692
  14 C :    0.008418
  15 C :   -0.338430
  16 O :   -0.390768
  17 C :   -0.038613
  18 C :   -0.273337
  19 H :    0.126847
  20 H :    0.106015
  21 H :    0.135560
  22 H :    0.104320
  23 H :    0.102945
  24 H :    0.101809
  25 H :    0.110075
  26 H :    0.117061
  27 H :    0.111734
  28 H :    0.118569
  29 H :    0.215244
  30 H :    0.178861
  31 H :    0.112183
  32 H :    0.111003
  33 H :    0.118685
  34 H :    0.132099
  35 H :    0.131422
  36 H :    0.131192
  37 H :    0.104627
  38 H :    0.109411
  39 H :    0.109458
  40 H :    0.115438
Sum of atomic charges:   -0.0000000

LOEWDIN ATOMIC CHARGES
----------------------
   0 C :   -0.368283
   1 C :   -0.109805
   2 O :   -0.234656
   3 P :    0.572939
   4 S :   -0.297420
   5 O :   -0.248603
   6 C :   -0.121485
   7 C :   -0.368324
   8 S :    0.084290
   9 C :   -0.480309
  10 S :    0.068220
  11 P :    0.562414
  12 S :   -0.294473
  13 O :   -0.235778
  14 C :   -0.107465
  15 C :   -0.374056
  16 O :   -0.253320
  17 C :   -0.127016
  18 C :   -0.351452
  19 H :    0.121634
  20 H :    0.127277
  21 H :    0.131583
  22 H :    0.110113
  23 H :    0.117403
  24 H :    0.116779
  25 H :    0.109074
  26 H :    0.124204
  27 H :    0.130049
  28 H :    0.119031
  29 H :    0.126909
  30 H :    0.134193
  31 H :    0.123505
  32 H :    0.115479
  33 H :    0.134388
  34 H :    0.119310
  35 H :    0.129025
  36 H :    0.110540
  37 H :    0.104921
  38 H :    0.129654
  39 H :    0.123099
  40 H :    0.126409

  Mayer bond orders larger than 0.100000
B(  0-C ,  1-C ) :   1.1654 B(  0-C , 19-H ) :   0.9355 B(  0-C , 20-H ) :   0.9373
B(  0-C , 21-H ) :   0.9414 B(  1-C ,  2-O ) :   0.9056 B(  1-C , 22-H ) :   0.9277
B(  1-C , 23-H ) :   0.9347 B(  2-O ,  3-P ) :   1.1212 B(  3-P ,  4-S ) :   1.6045
B(  3-P ,  5-O ) :   1.0848 B(  3-P ,  8-S ) :   0.9626 B(  4-S ,  8-S ) :   0.1208
B(  5-O ,  6-C ) :   0.9138 B(  6-C ,  7-C ) :   1.1656 B(  6-C , 24-H ) :   0.9333
B(  6-C , 25-H ) :   0.9126 B(  7-C , 26-H ) :   0.9445 B(  7-C , 27-H ) :   0.9383
B(  7-C , 28-H ) :   0.9368 B(  8-S ,  9-C ) :   0.9837 B(  9-C , 10-S ) :   1.0162
B(  9-C , 29-H ) :   0.8449 B(  9-C , 30-H ) :   0.9080 B( 10-S , 11-P ) :   0.9242
B( 10-S , 12-S ) :   0.1106 B( 11-P , 12-S ) :   1.6785 B( 11-P , 13-O ) :   1.1460
B( 11-P , 16-O ) :   1.0644 B( 13-O , 14-C ) :   0.8974 B( 14-C , 15-C ) :   1.1708
B( 14-C , 31-H ) :   0.9340 B( 14-C , 32-H ) :   0.9273 B( 15-C , 33-H ) :   0.9348
B( 15-C , 34-H ) :   0.9310 B( 15-C , 35-H ) :   0.9408 B( 16-O , 17-C ) :   0.9008
B( 17-C , 18-C ) :   1.1541 B( 17-C , 36-H ) :   0.9022 B( 17-C , 37-H ) :   0.9246
B( 18-C , 38-H ) :   0.9427 B( 18-C , 39-H ) :   0.9506 B( 18-C , 40-H ) :   0.9504

Dispersion correction           -0.066194706
FINAL SINGLE POINT ENERGY     -2929.516215585344

DIPOLE MOMENT
-------------

Method             : SCF
Type of density    : Electron Density
Multiplicity       :   1
Irrep              :   0
Energy             : -2929.6354070666152438 Eh
Relativity type    :
Basis              : AO
                                X                 Y                 Z
Electronic contribution:      1.735099493      10.613110646       5.238615920
Nuclear contribution   :     -2.275235028     -12.047959627      -5.158888092
                        -----------------------------------------
Total Dipole Moment    :     -0.540135535      -1.434848981       0.079727829
                        -----------------------------------------
Magnitude (a.u.)       :      1.535218070
Magnitude (Debye)      :      3.902214219

Rotational constants in cm-1:             0.012824             0.005066             0.004657
Rotational constants in MHz :           384.439143           151.864032           139.624117

                             ****ORCA TERMINATED NORMALLY****
TOTAL RUN TIME: 0 days 0 hours 0 minutes 21 seconds 67 msec
