                         Program Version 6.0.0  -   RELEASE  -
|  1> ! pbe def2-sv(p) def2/J RI DEFGRID1 loosescf d4 GCP(DFT/SV(P)) printgap
|  2> %output
|  3>     printlevel normal
|  4> end
|  5> * xyz 0 1
|  6> C 4.1230155395 2.1365228036 -1.8024828912
|  7> C 4.0887562379 0.6242963563 -1.7042211627
|  8> O 3.9453639351 0.2161798491 -0.3187671112
|  9> P 2.6245729971 -0.3579663545 0.3099393944
| 10> S 2.8859301995 -0.717129555 2.2125417851
| 11> O 2.3535873596 -1.5900164172 -0.6636279221
| 12> C 1.1640665604 -2.391087975 -0.7306594443
| 13> C 0.9325359463 -3.2014212109 0.5284320044
| 14> S 1.0956319961 1.0709907153 -0.1565109559
| 15> C 0.2247492584 1.0871746968 1.4255238381
| 16> S -1.0519644086 -0.1934310214 1.5824982376
| 17> P -2.2598428813 0.3291931213 -0.0900226577
| 18> S -1.7569882587 -0.307778289 -1.8809013808
| 19> O -2.2922542784 1.9067883441 0.054281673
| 20> C -2.5126740052 2.7706303121 -1.0781448643
| 21> C -3.9640210111 2.7401340271 -1.5075141395
| 22> O -3.7239486259 -0.0702243905 0.3800224001
| 23> C -4.0986246805 -1.3257477601 0.9746427322
| 24> C -3.5289430616 -2.5209505292 0.2390462182
| 25> H 4.9002440968 2.5320062875 -1.1545219246
| 26> H 4.3328273722 2.4194722856 -2.8291305367
| 27> H 3.1666882903 2.5604964019 -1.5055867031
| 28> H 5.0346852027 0.1845926919 -2.0244556589
| 29> H 3.2710189668 0.2028898247 -2.292093147
| 30> H 0.3102339812 -1.7409534805 -0.9487830249
| 31> H 1.3413955835 -3.0393830464 -1.5909536162
| 32> H 0.6995131828 -2.5511586487 1.3700547994
| 33> H 0.101257284 -3.8803833081 0.3658619335
| 34> H 1.8230296846 -3.7756046661 0.7718758915
| 35> H -0.2353452191 2.0658410187 1.5288439887
| 36> H 0.9389733283 0.8899817836 2.2285015332
| 37> H -2.2108085825 3.7575238143 -0.7255483214
| 38> H -1.8575626155 2.4513708301 -1.8954943056
| 39> H -4.6083770192 3.0128448604 -0.6761915547
| 40> H -4.1146303407 3.4339859545 -2.3283802087
| 41> H -4.2246077185 1.7347729876 -1.8370584991
| 42> H -3.7619349142 -1.3187540005 2.0152664393
| 43> H -5.1894209777 -1.3147616294 0.9375998831
| 44> H -2.4405669156 -2.5087866655 0.3003231701
| 45> H -3.8980682508 -3.4344813963 0.6939716499
| 46> H -3.817849932 -2.4969572065 -0.8092249767
| 47> *
| 48>
| 49>                          ****END OF INPUT****

CARTESIAN COORDINATES (ANGSTROEM)
---------------------------------
  C      4.123016    2.136523   -1.802483
  C      4.088756    0.624296   -1.704221
  O      3.945364    0.216180   -0.318767
  P      2.624573   -0.357966    0.309939
  S      2.885930   -0.717130    2.212542
  O      2.353587   -1.590016   -0.663628
  C      1.164067   -2.391088   -0.730659
  C      0.932536   -3.201421    0.528432
  S      1.095632    1.070991   -0.156511
  C      0.224749    1.087175    1.425524
  S     -1.051964   -0.193431    1.582498
  P     -2.259843    0.329193   -0.090023
  S     -1.756988   -0.307778   -1.880901
  O     -2.292254    1.906788    0.054282
  C     -2.512674    2.770630   -1.078145
  C     -3.964021    2.740134   -1.507514
  O     -3.723949   -0.070224    0.380022
  C     -4.098625   -1.325748    0.974643
  C     -3.528943   -2.520951    0.239046
  H      4.900244    2.532006   -1.154522
  H      4.332827    2.419472   -2.829131
  H      3.166688    2.560496   -1.505587
  H      5.034685    0.184593   -2.024456
  H      3.271019    0.202890   -2.292093
  H      0.310234   -1.740953   -0.948783
  H      1.341396   -3.039383   -1.590954
  H      0.699513   -2.551159    1.370055
  H      0.101257   -3.880383    0.365862
  H      1.823030   -3.775605    0.771876
  H     -0.235345    2.065841    1.528844
  H      0.938973    0.889982    2.228502
  H     -2.210809    3.757524   -0.725548
  H     -1.857563    2.451371   -1.895494
  H     -4.608377    3.012845   -0.676192
  H     -4.114630    3.433986   -2.328380
  H     -4.224608    1.734773   -1.837058
  H     -3.761935   -1.318754    2.015266
  H     -5.189421   -1.314762    0.937600
  H     -2.440567   -2.508787    0.300323
  H     -3.898068   -3.434481    0.693972
  H     -3.817850   -2.496957   -0.809225

 Total Charge           Charge          ....    0
 Multiplicity           Mult            ....    1
 Number of Electrons    NEL             ....  202
 Basis Dimension        Dim             ....  334

ORBITAL ENERGIES
----------------

  NO   OCC          E(Eh)            E(eV)
   0   2.0000     -88.046491     -2395.8668
   1   2.0000     -88.042187     -2395.7497
   2   2.0000     -87.989591     -2394.3185
   3   2.0000     -87.984331     -2394.1754
   4   2.0000     -76.432738     -2079.8405
   5   2.0000     -76.424647     -2079.6204
   6   2.0000     -18.798625      -511.5366
   7   2.0000     -18.794970      -511.4371
   8   2.0000     -18.789261      -511.2818
   9   2.0000     -18.786462      -511.2056
  10   2.0000      -9.963288      -271.1148
  11   2.0000      -9.957351      -270.9533
  12   2.0000      -9.956645      -270.9341
  13   2.0000      -9.955622      -270.9062
  14   2.0000      -9.941021      -270.5089
  15   2.0000      -9.890740      -269.1407
  16   2.0000      -9.886491      -269.0251
  17   2.0000      -9.886415      -269.0230
  18   2.0000      -9.871447      -268.6157
  19   2.0000      -7.691353      -209.2924
  20   2.0000      -7.686932      -209.1721
  21   2.0000      -7.634198      -207.7371
  22   2.0000      -7.629575      -207.6113
  23   2.0000      -6.429905      -174.9666
  24   2.0000      -6.421948      -174.7501
  25   2.0000      -5.719322      -155.6307
  26   2.0000      -5.715866      -155.5366
  27   2.0000      -5.714798      -155.5076
  28   2.0000      -5.711432      -155.4160
  29   2.0000      -5.708270      -155.3299
  30   2.0000      -5.703952      -155.2124
  31   2.0000      -5.663086      -154.1004
  32   2.0000      -5.658629      -153.9791
  33   2.0000      -5.654903      -153.8777
  34   2.0000      -5.654355      -153.8628
  35   2.0000      -5.650203      -153.7498
  36   2.0000      -5.649528      -153.7315
  37   2.0000      -4.652561      -126.6026
  38   2.0000      -4.651990      -126.5871
  39   2.0000      -4.650054      -126.5344
  40   2.0000      -4.644629      -126.3868
  41   2.0000      -4.643833      -126.3651
  42   2.0000      -4.642259      -126.3223
  43   2.0000      -0.992324       -27.0025
  44   2.0000      -0.984362       -26.7858
  45   2.0000      -0.952208       -25.9109
  46   2.0000      -0.938876       -25.5481
  47   2.0000      -0.764654       -20.8073
  48   2.0000      -0.722731       -19.6665
  49   2.0000      -0.712410       -19.3857
  50   2.0000      -0.693331       -18.8665
  51   2.0000      -0.683557       -18.6005
  52   2.0000      -0.674210       -18.3462
  53   2.0000      -0.656073       -17.8527
  54   2.0000      -0.640345       -17.4247
  55   2.0000      -0.600052       -16.3282
  56   2.0000      -0.585706       -15.9379
  57   2.0000      -0.579179       -15.7603
  58   2.0000      -0.574197       -15.6247
  59   2.0000      -0.565973       -15.4009
  60   2.0000      -0.504969       -13.7409
  61   2.0000      -0.496469       -13.5096
  62   2.0000      -0.475853       -12.9486
  63   2.0000      -0.469477       -12.7751
  64   2.0000      -0.462260       -12.5787
  65   2.0000      -0.446947       -12.1621
  66   2.0000      -0.443040       -12.0557
  67   2.0000      -0.437864       -11.9149
  68   2.0000      -0.425825       -11.5873
  69   2.0000      -0.422586       -11.4991
  70   2.0000      -0.407582       -11.0909
  71   2.0000      -0.398411       -10.8413
  72   2.0000      -0.397473       -10.8158
  73   2.0000      -0.392628       -10.6839
  74   2.0000      -0.383355       -10.4316
  75   2.0000      -0.376680       -10.2500
  76   2.0000      -0.362388        -9.8611
  77   2.0000      -0.356112        -9.6903
  78   2.0000      -0.354061        -9.6345
  79   2.0000      -0.352082        -9.5806
  80   2.0000      -0.351573        -9.5668
  81   2.0000      -0.349065        -9.4986
  82   2.0000      -0.341345        -9.2885
  83   2.0000      -0.337460        -9.1828
  84   2.0000      -0.330874        -9.0035
  85   2.0000      -0.319719        -8.7000
  86   2.0000      -0.309333        -8.4174
  87   2.0000      -0.302694        -8.2367
  88   2.0000      -0.294485        -8.0134
  89   2.0000      -0.293232        -7.9793
  90   2.0000      -0.286984        -7.8092
  91   2.0000      -0.280211        -7.6249
  92   2.0000      -0.274428        -7.4676
  93   2.0000      -0.264390        -7.1944
  94   2.0000      -0.255855        -6.9622
  95   2.0000      -0.244134        -6.6432
  96   2.0000      -0.218918        -5.9571
  97   2.0000      -0.205985        -5.6051
  98   2.0000      -0.204314        -5.5597
  99   2.0000      -0.201409        -5.4806
 100   2.0000      -0.192809        -5.2466
 101   0.0000      -0.052032        -1.4159
 102   0.0000      -0.027305        -0.7430
 103   0.0000      -0.024545        -0.6679
 104   0.0000      -0.002863        -0.0779
 105   0.0000       0.010873         0.2959

MULLIKEN ATOMIC CHARGES
-----------------------
   0 C :   -0.290203
   1 C :   -0.017327
   2 O :   -0.356988
   3 P :    0.615060
   4 S :   -0.308517
   5 O :   -0.376479
   6 C :   -0.034099
   7 C :   -0.314860
   8 S :   -0.117264
   9 C :   -0.333416
  10 S :   -0.109954
  11 P :    0.609939
  12 S :   -0.312173
  13 O :   -0.370853
  14 C :   -0.012163
  15 C :   -0.301976
  16 O :   -0.370988
  17 C :   -0.006612
  18 C :   -0.332724
  19 H :    0.122128
  20 H :    0.110089
  21 H :    0.122825
  22 H :    0.113043
  23 H :    0.110376
  24 H :    0.134976
  25 H :    0.098918
  26 H :    0.131925
  27 H :    0.109814
  28 H :    0.114358
  29 H :    0.191173
  30 H :    0.193795
  31 H :    0.104628
  32 H :    0.116336
  33 H :    0.116924
  34 H :    0.113015
  35 H :    0.124937
  36 H :    0.115940
  37 H :    0.113086
  38 H :    0.136337
  39 H :    0.116335
  40 H :    0.130642
Sum of atomic charges:    0.0000000

LOEWDIN ATOMIC CHARGES
----------------------
   0 C :   -0.360054
   1 C :   -0.112086
   2 O :   -0.235183
   3 P :    0.569091
   4 S :   -0.296739
   5 O :   -0.243224
   6 C :   -0.124574
   7 C :   -0.371660
   8 S :    0.069502
   9 C :   -0.479244
  10 S :    0.082392
  11 P :    0.573748
  12 S :   -0.303702
  13 O :   -0.239381
  14 C :   -0.121241
  15 C :   -0.362911
  16 O :   -0.245239
  17 C :   -0.113741
  18 C :   -0.372536
  19 H :    0.130268
  20 H :    0.129773
  21 H :    0.120023
  22 H :    0.122992
  23 H :    0.110903
  24 H :    0.098376
  25 H :    0.117686
  26 H :    0.113317
  27 H :    0.126475
  28 H :    0.125482
  29 H :    0.134846
  30 H :    0.128414
  31 H :    0.117779
  32 H :    0.110140
  33 H :    0.126703
  34 H :    0.131142
  35 H :    0.124255
  36 H :    0.111463
  37 H :    0.123640
  38 H :    0.119988
  39 H :    0.132309
  40 H :    0.130808

  Mayer bond orders larger than 0.100000
B(  0-C ,  1-C ) :   1.1638 B(  0-C , 19-H ) :   0.9464 B(  0-C , 20-H ) :   0.9398
B(  0-C , 21-H ) :   0.9387 B(  1-C ,  2-O ) :   0.8909 B(  1-C , 22-H ) :   0.9352
B(  1-C , 23-H ) :   0.9195 B(  2-O ,  3-P ) :   1.1484 B(  3-P ,  4-S ) :   1.6451
B(  3-P ,  5-O ) :   1.1006 B(  3-P ,  8-S ) :   0.9197 B(  4-S ,  8-S ) :   0.1129
B(  4-S , 30-H ) :   0.1109 B(  5-O ,  6-C ) :   0.9046 B(  6-C ,  7-C ) :   1.1677
B(  6-C , 24-H ) :   0.8942 B(  6-C , 25-H ) :   0.9347 B(  7-C , 26-H ) :   0.9274
B(  7-C , 27-H ) :   0.9335 B(  7-C , 28-H ) :   0.9427 B(  8-S ,  9-C ) :   1.0290
B(  9-C , 10-S ) :   0.9992 B(  9-C , 29-H ) :   0.8965 B(  9-C , 30-H ) :   0.8570
B( 10-S , 11-P ) :   0.9480 B( 10-S , 12-S ) :   0.1071 B( 11-P , 12-S ) :   1.6124
B( 11-P , 13-O ) :   1.1130 B( 11-P , 16-O ) :   1.1086 B( 13-O , 14-C ) :   0.8976
B( 14-C , 15-C ) :   1.1655 B( 14-C , 31-H ) :   0.9326 B( 14-C , 32-H ) :   0.9100
B( 15-C , 33-H ) :   0.9465 B( 15-C , 34-H ) :   0.9395 B( 15-C , 35-H ) :   0.9354
B( 16-O , 17-C ) :   0.9159 B( 17-C , 18-C ) :   1.1645 B( 17-C , 36-H ) :   0.9257
B( 17-C , 37-H ) :   0.9338 B( 18-C , 38-H ) :   0.9305 B( 18-C , 39-H ) :   0.9335
B( 18-C , 40-H ) :   0.9389

Dispersion correction           -0.065906892
FINAL SINGLE POINT ENERGY     -2929.515060934767

DIPOLE MOMENT
-------------

Method             : SCF
Type of density    : Electron Density
Multiplicity       :   1
Irrep              :   0
Energy             : -2929.6341151422211624 Eh
Relativity type    :
Basis              : AO
                                X                 Y                 Z
Electronic contribution:      9.053762148       1.204504382       9.272626758
Nuclear contribution   :    -10.149506597      -0.728200442     -10.017285774
                        -----------------------------------------
Total Dipole Moment    :     -1.095744449       0.476303940      -0.744659017
                        -----------------------------------------
Magnitude (a.u.)       :      1.407848853
Magnitude (Debye)      :      3.578467398

Rotational constants in cm-1:             0.011833             0.005247             0.004534
Rotational constants in MHz :           354.754429           157.304172           135.915062

                             ****ORCA TERMINATED NORMALLY****
TOTAL RUN TIME: 0 days 0 hours 0 minutes 21 seconds 341 msec
