                         Program Version 6.0.0  -   RELEASE  -
|  1> ! pbe def2-sv(p) def2/J RI DEFGRID1 loosescf d4 GCP(DFT/SV(P)) printgap
|  2> %output
|  3>     printlevel normal
|  4> end
|  5> * xyz 0 1
|  6> C 3.5986008164 -2.2524003412 1.4079500703
|  7> C 2.1976678462 -2.1153578419 0.8482851172
|  8> O 1.8079449624 -0.7324191064 0.7661192148
|  9> P 2.3624610264 0.2404208783 -0.3786374163
| 10> S 2.9817549266 -0.6665044559 -1.9942725098
| 11> O 3.5024885092 1.1421594036 0.2447658282
| 12> C 3.3169227228 2.1384191197 1.2785301413
| 13> C 3.2081578866 1.5127334043 2.6537284551
| 14> S 0.7129663865 1.5597518562 -0.5794887929
| 15> C -0.1916522564 0.5138701478 -1.7475802716
| 16> S -0.8781410221 -0.9687292043 -0.9818525897
| 17> P -2.5419400582 0.0287693709 -0.0799663114
| 18> S -3.4791522417 1.2966936053 -1.2380113461
| 19> O -2.0092198287 0.7913246327 1.1874132817
| 20> C -1.2598922763 0.1759545068 2.2663298435
| 21> C -0.7427732406 1.2952893148 3.1456618031
| 22> O -3.3546267502 -1.167169131 0.5776543697
| 23> C -3.7481162168 -2.3772114567 -0.0971778322
| 24> C -4.5350590743 -2.1117821417 -1.3631139591
| 25> H 4.3039571581 -1.744531129 0.7502073324
| 26> H 3.6572876873 -1.8106675752 2.39887524
| 27> H 3.8636173664 -3.3032965774 1.4653190838
| 28> H 1.4507122274 -2.5708438592 1.4998144588
| 29> H 2.1335241247 -2.55704779 -0.1510981471
| 30> H 4.2050674378 2.766656438 1.191605003
| 31> H 2.4274310276 2.7273514131 1.0375079371
| 32> H 2.3280737301 0.8779722429 2.711191865
| 33> H 4.0926191754 0.9167943983 2.8627739252
| 34> H 3.126852201 2.3019140234 3.394729466
| 35> H 0.4871855158 0.1846142894 -2.5348863819
| 36> H -1.0074857995 1.1176544325 -2.1491828044
| 37> H -1.9308495234 -0.49238072 2.8089638677
| 38> H -0.439745494 -0.4040180799 1.8328535655
| 39> H -1.5744252757 1.8739250039 3.5369443086
| 40> H -0.178336295 0.8726070789 3.9706812684
| 41> H -0.1039956365 1.9560883252 2.5653098994
| 42> H -2.8448069069 -2.9530795208 -0.3170116373
| 43> H -4.3521085947 -2.900149606 0.6464250018
| 44> H -5.3947619108 -1.4806529162 -1.150578811
| 45> H -3.909362328 -1.6028718554 -2.0952174358
| 46> H -4.8744136207 -3.0536927148 -1.7818742472
| 47> *
| 48>
| 49>                          ****END OF INPUT****

CARTESIAN COORDINATES (ANGSTROEM)
---------------------------------
  C      3.598601   -2.252400    1.407950
  C      2.197668   -2.115358    0.848285
  O      1.807945   -0.732419    0.766119
  P      2.362461    0.240421   -0.378637
  S      2.981755   -0.666504   -1.994273
  O      3.502489    1.142159    0.244766
  C      3.316923    2.138419    1.278530
  C      3.208158    1.512733    2.653728
  S      0.712966    1.559752   -0.579489
  C     -0.191652    0.513870   -1.747580
  S     -0.878141   -0.968729   -0.981853
  P     -2.541940    0.028769   -0.079966
  S     -3.479152    1.296694   -1.238011
  O     -2.009220    0.791325    1.187413
  C     -1.259892    0.175955    2.266330
  C     -0.742773    1.295289    3.145662
  O     -3.354627   -1.167169    0.577654
  C     -3.748116   -2.377211   -0.097178
  C     -4.535059   -2.111782   -1.363114
  H      4.303957   -1.744531    0.750207
  H      3.657288   -1.810668    2.398875
  H      3.863617   -3.303297    1.465319
  H      1.450712   -2.570844    1.499814
  H      2.133524   -2.557048   -0.151098
  H      4.205067    2.766656    1.191605
  H      2.427431    2.727351    1.037508
  H      2.328074    0.877972    2.711192
  H      4.092619    0.916794    2.862774
  H      3.126852    2.301914    3.394729
  H      0.487186    0.184614   -2.534886
  H     -1.007486    1.117654   -2.149183
  H     -1.930850   -0.492381    2.808964
  H     -0.439745   -0.404018    1.832854
  H     -1.574425    1.873925    3.536944
  H     -0.178336    0.872607    3.970681
  H     -0.103996    1.956088    2.565310
  H     -2.844807   -2.953080   -0.317012
  H     -4.352109   -2.900150    0.646425
  H     -5.394762   -1.480653   -1.150579
  H     -3.909362   -1.602872   -2.095217
  H     -4.874414   -3.053693   -1.781874

 Total Charge           Charge          ....    0
 Multiplicity           Mult            ....    1
 Number of Electrons    NEL             ....  202
 Basis Dimension        Dim             ....  334

ORBITAL ENERGIES
----------------

  NO   OCC          E(Eh)            E(eV)
   0   2.0000     -88.045583     -2395.8421
   1   2.0000     -88.043562     -2395.7871
   2   2.0000     -87.990785     -2394.3510
   3   2.0000     -87.981407     -2394.0958
   4   2.0000     -76.430914     -2079.7909
   5   2.0000     -76.426020     -2079.6577
   6   2.0000     -18.801185      -511.6063
   7   2.0000     -18.797318      -511.5010
   8   2.0000     -18.796921      -511.4902
   9   2.0000     -18.789956      -511.3007
  10   2.0000      -9.968112      -271.2461
  11   2.0000      -9.961910      -271.0773
  12   2.0000      -9.955375      -270.8995
  13   2.0000      -9.953910      -270.8597
  14   2.0000      -9.952467      -270.8204
  15   2.0000      -9.898130      -269.3418
  16   2.0000      -9.889975      -269.1199
  17   2.0000      -9.889345      -269.1028
  18   2.0000      -9.884497      -268.9708
  19   2.0000      -7.690618      -209.2723
  20   2.0000      -7.688360      -209.2109
  21   2.0000      -7.635997      -207.7860
  22   2.0000      -7.626768      -207.5349
  23   2.0000      -6.428778      -174.9359
  24   2.0000      -6.423325      -174.7875
  25   2.0000      -5.718333      -155.6038
  26   2.0000      -5.715954      -155.5390
  27   2.0000      -5.715340      -155.5223
  28   2.0000      -5.712958      -155.4575
  29   2.0000      -5.707533      -155.3099
  30   2.0000      -5.705580      -155.2567
  31   2.0000      -5.665032      -154.1534
  32   2.0000      -5.656799      -153.9293
  33   2.0000      -5.655847      -153.9034
  34   2.0000      -5.655800      -153.9021
  35   2.0000      -5.647385      -153.6732
  36   2.0000      -5.646724      -153.6552
  37   2.0000      -4.651674      -126.5785
  38   2.0000      -4.650274      -126.5404
  39   2.0000      -4.649169      -126.5103
  40   2.0000      -4.646233      -126.4304
  41   2.0000      -4.645349      -126.4064
  42   2.0000      -4.643261      -126.3496
  43   2.0000      -0.991152       -26.9706
  44   2.0000      -0.989464       -26.9247
  45   2.0000      -0.953013       -25.9328
  46   2.0000      -0.945765       -25.7356
  47   2.0000      -0.767367       -20.8811
  48   2.0000      -0.726920       -19.7805
  49   2.0000      -0.716813       -19.5055
  50   2.0000      -0.698406       -19.0046
  51   2.0000      -0.692076       -18.8323
  52   2.0000      -0.678354       -18.4590
  53   2.0000      -0.653979       -17.7957
  54   2.0000      -0.640295       -17.4233
  55   2.0000      -0.601501       -16.3677
  56   2.0000      -0.590829       -16.0773
  57   2.0000      -0.583942       -15.8899
  58   2.0000      -0.571891       -15.5619
  59   2.0000      -0.567228       -15.4351
  60   2.0000      -0.511836       -13.9278
  61   2.0000      -0.501001       -13.6329
  62   2.0000      -0.485460       -13.2101
  63   2.0000      -0.477302       -12.9880
  64   2.0000      -0.463634       -12.6161
  65   2.0000      -0.455084       -12.3835
  66   2.0000      -0.444497       -12.0954
  67   2.0000      -0.437394       -11.9021
  68   2.0000      -0.431421       -11.7396
  69   2.0000      -0.418243       -11.3810
  70   2.0000      -0.416368       -11.3299
  71   2.0000      -0.407221       -11.0811
  72   2.0000      -0.395772       -10.7695
  73   2.0000      -0.391396       -10.6504
  74   2.0000      -0.383961       -10.4481
  75   2.0000      -0.380041       -10.3414
  76   2.0000      -0.366188        -9.9645
  77   2.0000      -0.361254        -9.8302
  78   2.0000      -0.358300        -9.7498
  79   2.0000      -0.356857        -9.7106
  80   2.0000      -0.352911        -9.6032
  81   2.0000      -0.349410        -9.5079
  82   2.0000      -0.346517        -9.4292
  83   2.0000      -0.340496        -9.2654
  84   2.0000      -0.337563        -9.1856
  85   2.0000      -0.325758        -8.8643
  86   2.0000      -0.321146        -8.7388
  87   2.0000      -0.314225        -8.5505
  88   2.0000      -0.298935        -8.1344
  89   2.0000      -0.295236        -8.0338
  90   2.0000      -0.286617        -7.7993
  91   2.0000      -0.282531        -7.6881
  92   2.0000      -0.274024        -7.4566
  93   2.0000      -0.272118        -7.4047
  94   2.0000      -0.259444        -7.0598
  95   2.0000      -0.235373        -6.4048
  96   2.0000      -0.222155        -6.0451
  97   2.0000      -0.213050        -5.7974
  98   2.0000      -0.204985        -5.5779
  99   2.0000      -0.200282        -5.4500
 100   2.0000      -0.195518        -5.3203
 101   0.0000      -0.046130        -1.2553
 102   0.0000      -0.026065        -0.7093
 103   0.0000      -0.011800        -0.3211
 104   0.0000      -0.001173        -0.0319
 105   0.0000       0.009900         0.2694

MULLIKEN ATOMIC CHARGES
-----------------------
   0 C :   -0.309637
   1 C :   -0.007348
   2 O :   -0.379464
   3 P :    0.621765
   4 S :   -0.310524
   5 O :   -0.365830
   6 C :   -0.032622
   7 C :   -0.325129
   8 S :   -0.098318
   9 C :   -0.357327
  10 S :   -0.112574
  11 P :    0.601072
  12 S :   -0.308510
  13 O :   -0.353142
  14 C :   -0.037773
  15 C :   -0.285987
  16 O :   -0.384222
  17 C :   -0.013088
  18 C :   -0.309413
  19 H :    0.128855
  20 H :    0.113162
  21 H :    0.114372
  22 H :    0.099980
  23 H :    0.115408
  24 H :    0.119216
  25 H :    0.128271
  26 H :    0.140011
  27 H :    0.125647
  28 H :    0.116464
  29 H :    0.197156
  30 H :    0.193981
  31 H :    0.102256
  32 H :    0.131041
  33 H :    0.121020
  34 H :    0.108083
  35 H :    0.121343
  36 H :    0.113301
  37 H :    0.109581
  38 H :    0.127979
  39 H :    0.129004
  40 H :    0.111940
Sum of atomic charges:   -0.0000000

LOEWDIN ATOMIC CHARGES
----------------------
   0 C :   -0.363810
   1 C :   -0.123802
   2 O :   -0.249770
   3 P :    0.572740
   4 S :   -0.302619
   5 O :   -0.240283
   6 C :   -0.112633
   7 C :   -0.365711
   8 S :    0.084529
   9 C :   -0.484895
  10 S :    0.065774
  11 P :    0.569003
  12 S :   -0.309458
  13 O :   -0.232337
  14 C :   -0.122479
  15 C :   -0.351367
  16 O :   -0.246715
  17 C :   -0.113982
  18 C :   -0.368785
  19 H :    0.126101
  20 H :    0.122102
  21 H :    0.131847
  22 H :    0.113909
  23 H :    0.109323
  24 H :    0.126247
  25 H :    0.108061
  26 H :    0.125035
  27 H :    0.128855
  28 H :    0.132830
  29 H :    0.130380
  30 H :    0.129331
  31 H :    0.111600
  32 H :    0.107290
  33 H :    0.129679
  34 H :    0.126694
  35 H :    0.123088
  36 H :    0.107968
  37 H :    0.121343
  38 H :    0.131303
  39 H :    0.123166
  40 H :    0.130446

  Mayer bond orders larger than 0.100000
B(  0-C ,  1-C ) :   1.1639 B(  0-C , 19-H ) :   0.9359 B(  0-C , 20-H ) :   0.9448
B(  0-C , 21-H ) :   0.9397 B(  1-C ,  2-O ) :   0.8991 B(  1-C , 22-H ) :   0.9314
B(  1-C , 23-H ) :   0.9096 B(  2-O ,  3-P ) :   1.0616 B(  3-P ,  4-S ) :   1.6294
B(  3-P ,  5-O ) :   1.1292 B(  3-P ,  8-S ) :   0.9620 B(  4-S ,  8-S ) :   0.1015
B(  5-O ,  6-C ) :   0.9042 B(  6-C ,  7-C ) :   1.1622 B(  6-C , 24-H ) :   0.9337
B(  6-C , 25-H ) :   0.9150 B(  7-C , 26-H ) :   0.9298 B(  7-C , 27-H ) :   0.9404
B(  7-C , 28-H ) :   0.9365 B(  8-S ,  9-C ) :   1.0054 B(  9-C , 10-S ) :   1.0106
B(  9-C , 29-H ) :   0.8719 B(  9-C , 30-H ) :   0.8626 B( 10-S , 11-P ) :   0.9351
B( 10-S , 12-S ) :   0.1080 B( 11-P , 12-S ) :   1.6482 B( 11-P , 13-O ) :   1.1455
B( 11-P , 16-O ) :   1.0885 B( 13-O , 14-C ) :   0.8834 B( 14-C , 15-C ) :   1.1722
B( 14-C , 31-H ) :   0.9272 B( 14-C , 32-H ) :   0.9008 B( 15-C , 33-H ) :   0.9468
B( 15-C , 34-H ) :   0.9372 B( 15-C , 35-H ) :   0.9416 B( 16-O , 17-C ) :   0.9130
B( 17-C , 18-C ) :   1.1668 B( 17-C , 36-H ) :   0.9264 B( 17-C , 37-H ) :   0.9334
B( 18-C , 38-H ) :   0.9432 B( 18-C , 39-H ) :   0.9317 B( 18-C , 40-H ) :   0.9348

Dispersion correction           -0.066236050
FINAL SINGLE POINT ENERGY     -2929.517468991871

DIPOLE MOMENT
-------------

Method             : SCF
Type of density    : Electron Density
Multiplicity       :   1
Irrep              :   0
Energy             : -2929.6376869390328466 Eh
Relativity type    :
Basis              : AO
                                X                 Y                 Z
Electronic contribution:     -4.841845350       7.971743877     -19.721344577
Nuclear contribution   :      5.306835094      -8.979405696      21.692268706
                        -----------------------------------------
Total Dipole Moment    :      0.464989744      -1.007661819       1.970924129
                        -----------------------------------------
Magnitude (a.u.)       :      2.261888531
Magnitude (Debye)      :      5.749263743

Rotational constants in cm-1:             0.012261             0.005047             0.004766
Rotational constants in MHz :           367.588905           151.295293           142.887987

                             ****ORCA TERMINATED NORMALLY****
TOTAL RUN TIME: 0 days 0 hours 0 minutes 21 seconds 572 msec
