                         Program Version 6.0.0  -   RELEASE  -
|  1> ! pbe def2-sv(p) def2/J RI DEFGRID1 loosescf d4 GCP(DFT/SV(P)) printgap
|  2> %output
|  3>     printlevel normal
|  4> end
|  5> * xyz 0 1
|  6> C 4.5948172124 -2.2444673119 0.0291194999
|  7> C 4.8372367569 -0.7493286496 -0.0010623247
|  8> O 3.6928629578 -0.0084232719 0.4591605363
|  9> P 2.3284533046 0.0507224004 -0.3563953445
| 10> S 2.555774806 0.1848783572 -2.3032381507
| 11> O 1.6080406198 1.270708308 0.3593984812
| 12> C 1.8050038149 2.6366562463 -0.0693717932
| 13> C 0.6124625871 3.4552909403 0.3809576444
| 14> S 1.1730423782 -1.5336350259 0.4005331043
| 15> C -0.0855708532 -1.5379081962 -0.9144533999
| 16> S -0.8763362093 0.0725267713 -1.1747501179
| 17> P -2.3507223739 -0.0421129575 0.3640427529
| 18> S -3.3918502279 1.601185322 0.5710983073
| 19> O -1.5815034176 -0.6045563948 1.6304929876
| 20> C -0.8748696595 0.2580064567 2.5425349394
| 21> C -1.759577468 0.6271838621 3.7163074496
| 22> O -3.1577303891 -1.3733479563 0.0631636473
| 23> C -4.36891117 -1.3564104744 -0.7125909488
| 24> C -4.1008504156 -1.0944608199 -2.1816143592
| 25> H 3.8369753157 -2.5124934381 -0.7059168747
| 26> H 5.5172714274 -2.7630164459 -0.2116150968
| 27> H 4.2524445154 -2.5523678097 1.0138794018
| 28> H 5.076147876 -0.4181515835 -1.0166729183
| 29> H 5.6328861473 -0.4541725274 0.6841523143
| 30> H 2.7315303926 2.9999813145 0.3810805066
| 31> H 1.905191074 2.6472890861 -1.1601209282
| 32> H -0.305046475 3.0607466421 -0.051607438
| 33> H 0.5291080107 3.4365221904 1.4642463382
| 34> H 0.7416589593 4.4810201691 0.0513374703
| 35> H -0.8319079362 -2.2745091144 -0.6254390062
| 36> H 0.3885430807 -1.7934591672 -1.8605813456
| 37> H -0.0079935622 -0.3248082954 2.8619990867
| 38> H -0.532882497 1.1518450646 2.0123652608
| 39> H -1.1862929727 1.2131281873 4.427457567
| 40> H -2.6098563042 1.2137302508 3.3746556436
| 41> H -2.1254194241 -0.2732062102 4.2013473257
| 42> H -4.7988232557 -2.3458962959 -0.5506823559
| 43> H -5.0346684861 -0.5903445999 -0.3027029538
| 44> H -3.3921428605 -1.8177276964 -2.5768533657
| 45> H -5.0322698362 -1.1674826533 -2.7338963548
| 46> H -3.69144206 -0.0930760054 -2.31232855
| 47> *
| 48>
| 49>                          ****END OF INPUT****

CARTESIAN COORDINATES (ANGSTROEM)
---------------------------------
  C      4.594817   -2.244467    0.029119
  C      4.837237   -0.749329   -0.001062
  O      3.692863   -0.008423    0.459161
  P      2.328453    0.050722   -0.356395
  S      2.555775    0.184878   -2.303238
  O      1.608041    1.270708    0.359398
  C      1.805004    2.636656   -0.069372
  C      0.612463    3.455291    0.380958
  S      1.173042   -1.533635    0.400533
  C     -0.085571   -1.537908   -0.914453
  S     -0.876336    0.072527   -1.174750
  P     -2.350722   -0.042113    0.364043
  S     -3.391850    1.601185    0.571098
  O     -1.581503   -0.604556    1.630493
  C     -0.874870    0.258006    2.542535
  C     -1.759577    0.627184    3.716307
  O     -3.157730   -1.373348    0.063164
  C     -4.368911   -1.356410   -0.712591
  C     -4.100850   -1.094461   -2.181614
  H      3.836975   -2.512493   -0.705917
  H      5.517271   -2.763016   -0.211615
  H      4.252445   -2.552368    1.013879
  H      5.076148   -0.418152   -1.016673
  H      5.632886   -0.454173    0.684152
  H      2.731530    2.999981    0.381081
  H      1.905191    2.647289   -1.160121
  H     -0.305046    3.060747   -0.051607
  H      0.529108    3.436522    1.464246
  H      0.741659    4.481020    0.051337
  H     -0.831908   -2.274509   -0.625439
  H      0.388543   -1.793459   -1.860581
  H     -0.007994   -0.324808    2.861999
  H     -0.532882    1.151845    2.012365
  H     -1.186293    1.213128    4.427458
  H     -2.609856    1.213730    3.374656
  H     -2.125419   -0.273206    4.201347
  H     -4.798823   -2.345896   -0.550682
  H     -5.034668   -0.590345   -0.302703
  H     -3.392143   -1.817728   -2.576853
  H     -5.032270   -1.167483   -2.733896
  H     -3.691442   -0.093076   -2.312329

 Total Charge           Charge          ....    0
 Multiplicity           Mult            ....    1
 Number of Electrons    NEL             ....  202
 Basis Dimension        Dim             ....  334

ORBITAL ENERGIES
----------------

  NO   OCC          E(Eh)            E(eV)
   0   2.0000     -88.046786     -2395.8748
   1   2.0000     -88.042584     -2395.7605
   2   2.0000     -87.991940     -2394.3824
   3   2.0000     -87.991424     -2394.3684
   4   2.0000     -76.429440     -2079.7508
   5   2.0000     -76.427231     -2079.6907
   6   2.0000     -18.796162      -511.4696
   7   2.0000     -18.793867      -511.4071
   8   2.0000     -18.790562      -511.3172
   9   2.0000     -18.789295      -511.2827
  10   2.0000      -9.960003      -271.0255
  11   2.0000      -9.954918      -270.8871
  12   2.0000      -9.954084      -270.8644
  13   2.0000      -9.949253      -270.7329
  14   2.0000      -9.946470      -270.6572
  15   2.0000      -9.887099      -269.0416
  16   2.0000      -9.884723      -268.9770
  17   2.0000      -9.881682      -268.8942
  18   2.0000      -9.876495      -268.7531
  19   2.0000      -7.691926      -209.3079
  20   2.0000      -7.686997      -209.1738
  21   2.0000      -7.636872      -207.8099
  22   2.0000      -7.636464      -207.7988
  23   2.0000      -6.426965      -174.8866
  24   2.0000      -6.424704      -174.8251
  25   2.0000      -5.719811      -155.6440
  26   2.0000      -5.716524      -155.5545
  27   2.0000      -5.715133      -155.5167
  28   2.0000      -5.711368      -155.4142
  29   2.0000      -5.708732      -155.3425
  30   2.0000      -5.703941      -155.2121
  31   2.0000      -5.665637      -154.1698
  32   2.0000      -5.665341      -154.1618
  33   2.0000      -5.657491      -153.9482
  34   2.0000      -5.657236      -153.9412
  35   2.0000      -5.657097      -153.9374
  36   2.0000      -5.656672      -153.9259
  37   2.0000      -4.649370      -126.5158
  38   2.0000      -4.648712      -126.4979
  39   2.0000      -4.647594      -126.4675
  40   2.0000      -4.646976      -126.4506
  41   2.0000      -4.646947      -126.4499
  42   2.0000      -4.645023      -126.3975
  43   2.0000      -0.989749       -26.9324
  44   2.0000      -0.988030       -26.8857
  45   2.0000      -0.946148       -25.7460
  46   2.0000      -0.945353       -25.7244
  47   2.0000      -0.766299       -20.8521
  48   2.0000      -0.722362       -19.6565
  49   2.0000      -0.709921       -19.3179
  50   2.0000      -0.687877       -18.7181
  51   2.0000      -0.682193       -18.5634
  52   2.0000      -0.675368       -18.3777
  53   2.0000      -0.656604       -17.8671
  54   2.0000      -0.641398       -17.4533
  55   2.0000      -0.600763       -16.3476
  56   2.0000      -0.595763       -16.2115
  57   2.0000      -0.573881       -15.6161
  58   2.0000      -0.563930       -15.3453
  59   2.0000      -0.559420       -15.2226
  60   2.0000      -0.505860       -13.7651
  61   2.0000      -0.497357       -13.5338
  62   2.0000      -0.475369       -12.9354
  63   2.0000      -0.471307       -12.8249
  64   2.0000      -0.460354       -12.5269
  65   2.0000      -0.444479       -12.0949
  66   2.0000      -0.442837       -12.0502
  67   2.0000      -0.430910       -11.7257
  68   2.0000      -0.424324       -11.5464
  69   2.0000      -0.421987       -11.4829
  70   2.0000      -0.411016       -11.1843
  71   2.0000      -0.397096       -10.8055
  72   2.0000      -0.394881       -10.7453
  73   2.0000      -0.387752       -10.5513
  74   2.0000      -0.385540       -10.4911
  75   2.0000      -0.378545       -10.3007
  76   2.0000      -0.364459        -9.9174
  77   2.0000      -0.358349        -9.7512
  78   2.0000      -0.355657        -9.6779
  79   2.0000      -0.352064        -9.5801
  80   2.0000      -0.347161        -9.4467
  81   2.0000      -0.344129        -9.3642
  82   2.0000      -0.336398        -9.1539
  83   2.0000      -0.335040        -9.1169
  84   2.0000      -0.330162        -8.9842
  85   2.0000      -0.326371        -8.8810
  86   2.0000      -0.316552        -8.6138
  87   2.0000      -0.300755        -8.1840
  88   2.0000      -0.297499        -8.0954
  89   2.0000      -0.289784        -7.8854
  90   2.0000      -0.286251        -7.7893
  91   2.0000      -0.276051        -7.5117
  92   2.0000      -0.268970        -7.3191
  93   2.0000      -0.267523        -7.2797
  94   2.0000      -0.258309        -7.0289
  95   2.0000      -0.233684        -6.3589
  96   2.0000      -0.221324        -6.0225
  97   2.0000      -0.210840        -5.7372
  98   2.0000      -0.208703        -5.6791
  99   2.0000      -0.207282        -5.6404
 100   2.0000      -0.204703        -5.5703
 101   0.0000      -0.046107        -1.2546
 102   0.0000      -0.024403        -0.6640
 103   0.0000      -0.010779        -0.2933
 104   0.0000       0.001195         0.0325
 105   0.0000       0.002251         0.0613

MULLIKEN ATOMIC CHARGES
-----------------------
   0 C :   -0.317096
   1 C :   -0.003568
   2 O :   -0.373295
   3 P :    0.609531
   4 S :   -0.333800
   5 O :   -0.362928
   6 C :   -0.012081
   7 C :   -0.295490
   8 S :   -0.074860
   9 C :   -0.353081
  10 S :   -0.062570
  11 P :    0.576285
  12 S :   -0.314937
  13 O :   -0.363123
  14 C :   -0.033599
  15 C :   -0.280240
  16 O :   -0.365878
  17 C :   -0.005295
  18 C :   -0.309875
  19 H :    0.125883
  20 H :    0.114548
  21 H :    0.118051
  22 H :    0.112423
  23 H :    0.106106
  24 H :    0.100491
  25 H :    0.109873
  26 H :    0.129646
  27 H :    0.120941
  28 H :    0.111987
  29 H :    0.188100
  30 H :    0.192909
  31 H :    0.105978
  32 H :    0.124846
  33 H :    0.104705
  34 H :    0.123423
  35 H :    0.110619
  36 H :    0.106921
  37 H :    0.113782
  38 H :    0.112598
  39 H :    0.113159
  40 H :    0.128909
Sum of atomic charges:   -0.0000000

LOEWDIN ATOMIC CHARGES
----------------------
   0 C :   -0.369300
   1 C :   -0.119200
   2 O :   -0.246636
   3 P :    0.568201
   4 S :   -0.323225
   5 O :   -0.243239
   6 C :   -0.117402
   7 C :   -0.355510
   8 S :    0.103327
   9 C :   -0.477851
  10 S :    0.095171
  11 P :    0.566866
  12 S :   -0.315376
  13 O :   -0.237206
  14 C :   -0.123761
  15 C :   -0.361767
  16 O :   -0.239908
  17 C :   -0.118628
  18 C :   -0.366950
  19 H :    0.120742
  20 H :    0.131737
  21 H :    0.124473
  22 H :    0.111036
  23 H :    0.119130
  24 H :    0.111601
  25 H :    0.108898
  26 H :    0.125688
  27 H :    0.123623
  28 H :    0.131049
  29 H :    0.134601
  30 H :    0.134442
  31 H :    0.111823
  32 H :    0.111552
  33 H :    0.127487
  34 H :    0.122728
  35 H :    0.124497
  36 H :    0.119142
  37 H :    0.111478
  38 H :    0.123222
  39 H :    0.131000
  40 H :    0.122445

  Mayer bond orders larger than 0.100000
B(  0-C ,  1-C ) :   1.1646 B(  0-C , 19-H ) :   0.9355 B(  0-C , 20-H ) :   0.9379
B(  0-C , 21-H ) :   0.9450 B(  1-C ,  2-O ) :   0.9084 B(  1-C , 22-H ) :   0.9159
B(  1-C , 23-H ) :   0.9339 B(  2-O ,  3-P ) :   1.1144 B(  3-P ,  4-S ) :   1.5987
B(  3-P ,  5-O ) :   1.1214 B(  3-P ,  8-S ) :   0.9726 B(  4-S ,  8-S ) :   0.1106
B(  5-O ,  6-C ) :   0.8994 B(  6-C ,  7-C ) :   1.1650 B(  6-C , 24-H ) :   0.9316
B(  6-C , 25-H ) :   0.9096 B(  7-C , 26-H ) :   0.9379 B(  7-C , 27-H ) :   0.9416
B(  7-C , 28-H ) :   0.9392 B(  8-S ,  9-C ) :   0.9854 B(  9-C , 10-S ) :   0.9931
B(  9-C , 29-H ) :   0.8938 B(  9-C , 30-H ) :   0.8919 B( 10-S , 11-P ) :   0.9672
B( 11-P , 12-S ) :   1.6304 B( 11-P , 13-O ) :   1.1186 B( 11-P , 16-O ) :   1.0940
B( 13-O , 14-C ) :   0.8925 B( 14-C , 15-C ) :   1.1617 B( 14-C , 31-H ) :   0.9272
B( 14-C , 32-H ) :   0.9057 B( 15-C , 33-H ) :   0.9405 B( 15-C , 34-H ) :   0.9349
B( 15-C , 35-H ) :   0.9467 B( 16-O , 17-C ) :   0.9097 B( 17-C , 18-C ) :   1.1630
B( 17-C , 36-H ) :   0.9345 B( 17-C , 37-H ) :   0.9156 B( 18-C , 38-H ) :   0.9468
B( 18-C , 39-H ) :   0.9385 B( 18-C , 40-H ) :   0.9362

Dispersion correction           -0.066191193
FINAL SINGLE POINT ENERGY     -2929.527053389713

DIPOLE MOMENT
-------------

Method             : SCF
Type of density    : Electron Density
Multiplicity       :   1
Irrep              :   0
Energy             : -2929.6457518568272462 Eh
Relativity type    :
Basis              : AO
                                X                 Y                 Z
Electronic contribution:     -0.456702676      -1.376797079      -5.653764578
Nuclear contribution   :      1.041116341       0.744934850       6.073548132
                        -----------------------------------------
Total Dipole Moment    :      0.584413665      -0.631862229       0.419783554
                        -----------------------------------------
Magnitude (a.u.)       :      0.957605054
Magnitude (Debye)      :      2.434038612

Rotational constants in cm-1:             0.012395             0.005040             0.004734
Rotational constants in MHz :           371.590183           151.086084           141.924031

                             ****ORCA TERMINATED NORMALLY****
TOTAL RUN TIME: 0 days 0 hours 0 minutes 21 seconds 573 msec
