                         Program Version 6.0.0  -   RELEASE  -
|  1> ! pbe def2-sv(p) def2/J RI DEFGRID1 loosescf d4 GCP(DFT/SV(P)) printgap
|  2> %output
|  3>     printlevel normal
|  4> end
|  5> * xyz 0 1
|  6> C 4.8218460288 -2.5540393423 -1.6343020122
|  7> C 3.9191807726 -2.0294074693 -0.538190453
|  8> O 3.8899592715 -0.5792154608 -0.6413272163
|  9> P 2.6857430624 0.2805766823 -0.1174413268
| 10> S 2.9406922713 2.1992910214 -0.3905941243
| 11> O 2.6108286349 -0.1850064878 1.4049239482
| 12> C 1.7628831883 0.4355859525 2.391082022
| 13> C 0.6197302509 -0.4898756849 2.7597040817
| 14> S 0.9834264791 -0.5775511517 -1.104749504
| 15> C 0.0730715133 0.9505231598 -1.4116697198
| 16> S -0.8899441545 1.5086126869 0.0167900662
| 17> P -2.4985042662 0.1674919006 -0.2770289142
| 18> S -3.1875574882 0.0284027258 -2.1008287595
| 19> O -3.6216941277 0.6169064711 0.7422817536
| 20> C -3.4390014023 0.6402932758 2.1810618091
| 21> C -3.0579886789 2.0269002119 2.6583669157
| 22> O -1.8402225405 -1.168564308 0.3098597583
| 23> C -2.2279545591 -2.4763230083 -0.1511652827
| 24> C -3.5858688149 -2.868907672 0.3940371037
| 25> H 4.4206870295 -2.289757336 -2.6087178138
| 26> H 5.8138200304 -2.122536978 -1.5366504912
| 27> H 4.8891162578 -3.6342165853 -1.5547529084
| 28> H 4.2991627161 -2.2788832315 0.4537868971
| 29> H 2.8988646073 -2.407901943 -0.6456016051
| 30> H 2.4121570351 0.6204625945 3.2492522825
| 31> H 1.3981910625 1.3929716657 2.0047305113
| 32> H -0.0155038117 -0.6743778646 1.8968387848
| 33> H 1.0105737478 -1.4385976009 3.1160237593
| 34> H 0.030443551 -0.0249197214 3.5436767745
| 35> H -0.6058574718 0.7609604392 -2.2440273455
| 36> H 0.7797256033 1.748041151 -1.6451571524
| 37> H -4.4110714851 0.3410157164 2.5766754462
| 38> H -2.6812251836 -0.0969868792 2.4551946977
| 39> H -2.0864229926 2.3163846661 2.2629198238
| 40> H -3.7969864301 2.7511074574 2.3269569315
| 41> H -3.0165452241 2.0296779339 3.743075808
| 42> H -2.2361866137 -2.4719181182 -1.2453812769
| 43> H -1.4346896548 -3.1325368509 0.2086452693
| 44> H -3.5807751714 -2.849768759 1.4806454441
| 45> H -4.3415004741 -2.1730660499 0.0294515751
| 46> H -3.8355445112 -3.8686276498 0.0531106887
| 47> *
| 48>
| 49>                          ****END OF INPUT****

CARTESIAN COORDINATES (ANGSTROEM)
---------------------------------
  C      4.821846   -2.554039   -1.634302
  C      3.919181   -2.029407   -0.538190
  O      3.889959   -0.579215   -0.641327
  P      2.685743    0.280577   -0.117441
  S      2.940692    2.199291   -0.390594
  O      2.610829   -0.185006    1.404924
  C      1.762883    0.435586    2.391082
  C      0.619730   -0.489876    2.759704
  S      0.983426   -0.577551   -1.104750
  C      0.073072    0.950523   -1.411670
  S     -0.889944    1.508613    0.016790
  P     -2.498504    0.167492   -0.277029
  S     -3.187557    0.028403   -2.100829
  O     -3.621694    0.616906    0.742282
  C     -3.439001    0.640293    2.181062
  C     -3.057989    2.026900    2.658367
  O     -1.840223   -1.168564    0.309860
  C     -2.227955   -2.476323   -0.151165
  C     -3.585869   -2.868908    0.394037
  H      4.420687   -2.289757   -2.608718
  H      5.813820   -2.122537   -1.536650
  H      4.889116   -3.634217   -1.554753
  H      4.299163   -2.278883    0.453787
  H      2.898865   -2.407902   -0.645602
  H      2.412157    0.620463    3.249252
  H      1.398191    1.392972    2.004731
  H     -0.015504   -0.674378    1.896839
  H      1.010574   -1.438598    3.116024
  H      0.030444   -0.024920    3.543677
  H     -0.605857    0.760960   -2.244027
  H      0.779726    1.748041   -1.645157
  H     -4.411071    0.341016    2.576675
  H     -2.681225   -0.096987    2.455195
  H     -2.086423    2.316385    2.262920
  H     -3.796986    2.751107    2.326957
  H     -3.016545    2.029678    3.743076
  H     -2.236187   -2.471918   -1.245381
  H     -1.434690   -3.132537    0.208645
  H     -3.580775   -2.849769    1.480645
  H     -4.341500   -2.173066    0.029452
  H     -3.835545   -3.868628    0.053111

 Total Charge           Charge          ....    0
 Multiplicity           Mult            ....    1
 Number of Electrons    NEL             ....  202
 Basis Dimension        Dim             ....  334

ORBITAL ENERGIES
----------------

  NO   OCC          E(Eh)            E(eV)
   0   2.0000     -88.045220     -2395.8322
   1   2.0000     -88.041053     -2395.7188
   2   2.0000     -87.989789     -2394.3239
   3   2.0000     -87.988496     -2394.2887
   4   2.0000     -76.430216     -2079.7719
   5   2.0000     -76.427020     -2079.6849
   6   2.0000     -18.801454      -511.6136
   7   2.0000     -18.797455      -511.5048
   8   2.0000     -18.795360      -511.4477
   9   2.0000     -18.789928      -511.2999
  10   2.0000      -9.966152      -271.1928
  11   2.0000      -9.963263      -271.1142
  12   2.0000      -9.955402      -270.9003
  13   2.0000      -9.951765      -270.8013
  14   2.0000      -9.951408      -270.7916
  15   2.0000      -9.896165      -269.2884
  16   2.0000      -9.892762      -269.1957
  17   2.0000      -9.890738      -269.1407
  18   2.0000      -9.883475      -268.9430
  19   2.0000      -7.690144      -209.2595
  20   2.0000      -7.685915      -209.1444
  21   2.0000      -7.635018      -207.7594
  22   2.0000      -7.633732      -207.7244
  23   2.0000      -6.428179      -174.9196
  24   2.0000      -6.424730      -174.8258
  25   2.0000      -5.717885      -155.5916
  26   2.0000      -5.714816      -155.5080
  27   2.0000      -5.713734      -155.4786
  28   2.0000      -5.710489      -155.3903
  29   2.0000      -5.707107      -155.2983
  30   2.0000      -5.702929      -155.1846
  31   2.0000      -5.664107      -154.1282
  32   2.0000      -5.662732      -154.0908
  33   2.0000      -5.655612      -153.8970
  34   2.0000      -5.654980      -153.8798
  35   2.0000      -5.654293      -153.8611
  36   2.0000      -5.653828      -153.8485
  37   2.0000      -4.651226      -126.5663
  38   2.0000      -4.649521      -126.5199
  39   2.0000      -4.648568      -126.4940
  40   2.0000      -4.647461      -126.4638
  41   2.0000      -4.646379      -126.4344
  42   2.0000      -4.645128      -126.4004
  43   2.0000      -0.992413       -27.0049
  44   2.0000      -0.989870       -26.9357
  45   2.0000      -0.951691       -25.8968
  46   2.0000      -0.944665       -25.7056
  47   2.0000      -0.765043       -20.8179
  48   2.0000      -0.727108       -19.7856
  49   2.0000      -0.717201       -19.5160
  50   2.0000      -0.698485       -19.0067
  51   2.0000      -0.691377       -18.8133
  52   2.0000      -0.678225       -18.4554
  53   2.0000      -0.652463       -17.7544
  54   2.0000      -0.639916       -17.4130
  55   2.0000      -0.599159       -16.3039
  56   2.0000      -0.587976       -15.9996
  57   2.0000      -0.586445       -15.9580
  58   2.0000      -0.576478       -15.6868
  59   2.0000      -0.561092       -15.2681
  60   2.0000      -0.511908       -13.9297
  61   2.0000      -0.504215       -13.7204
  62   2.0000      -0.485963       -13.2237
  63   2.0000      -0.483294       -13.1511
  64   2.0000      -0.463455       -12.6113
  65   2.0000      -0.453451       -12.3390
  66   2.0000      -0.445626       -12.1261
  67   2.0000      -0.438448       -11.9308
  68   2.0000      -0.431493       -11.7415
  69   2.0000      -0.420409       -11.4399
  70   2.0000      -0.407839       -11.0979
  71   2.0000      -0.405332       -11.0296
  72   2.0000      -0.399163       -10.8618
  73   2.0000      -0.382820       -10.4171
  74   2.0000      -0.378842       -10.3088
  75   2.0000      -0.377748       -10.2791
  76   2.0000      -0.368908       -10.0385
  77   2.0000      -0.364018        -9.9054
  78   2.0000      -0.361371        -9.8334
  79   2.0000      -0.360605        -9.8126
  80   2.0000      -0.352922        -9.6035
  81   2.0000      -0.351878        -9.5751
  82   2.0000      -0.346507        -9.4289
  83   2.0000      -0.342792        -9.3278
  84   2.0000      -0.335827        -9.1383
  85   2.0000      -0.325158        -8.8480
  86   2.0000      -0.320514        -8.7216
  87   2.0000      -0.309924        -8.4335
  88   2.0000      -0.303928        -8.2703
  89   2.0000      -0.294039        -8.0012
  90   2.0000      -0.286297        -7.7905
  91   2.0000      -0.277492        -7.5509
  92   2.0000      -0.277252        -7.5444
  93   2.0000      -0.276229        -7.5166
  94   2.0000      -0.257582        -7.0092
  95   2.0000      -0.234587        -6.3834
  96   2.0000      -0.219272        -5.9667
  97   2.0000      -0.213744        -5.8163
  98   2.0000      -0.206148        -5.6096
  99   2.0000      -0.203517        -5.5380
 100   2.0000      -0.202041        -5.4978
 101   0.0000      -0.046137        -1.2555
 102   0.0000      -0.028531        -0.7764
 103   0.0000      -0.010632        -0.2893
 104   0.0000       0.001563         0.0425
 105   0.0000       0.007296         0.1985

MULLIKEN ATOMIC CHARGES
-----------------------
   0 C :   -0.277877
   1 C :   -0.020290
   2 O :   -0.359257
   3 P :    0.600539
   4 S :   -0.302148
   5 O :   -0.384373
   6 C :   -0.000286
   7 C :   -0.335146
   8 S :   -0.122628
   9 C :   -0.343019
  10 S :   -0.102975
  11 P :    0.620110
  12 S :   -0.305761
  13 O :   -0.364768
  14 C :   -0.039640
  15 C :   -0.302429
  16 O :   -0.379965
  17 C :   -0.001728
  18 C :   -0.314602
  19 H :    0.123445
  20 H :    0.125576
  21 H :    0.111620
  22 H :    0.112942
  23 H :    0.111065
  24 H :    0.104773
  25 H :    0.105353
  26 H :    0.159500
  27 H :    0.105292
  28 H :    0.103428
  29 H :    0.188032
  30 H :    0.199425
  31 H :    0.113990
  32 H :    0.117977
  33 H :    0.138461
  34 H :    0.127858
  35 H :    0.113854
  36 H :    0.113247
  37 H :    0.103124
  38 H :    0.111639
  39 H :    0.129861
  40 H :    0.115780
Sum of atomic charges:   -0.0000000

LOEWDIN ATOMIC CHARGES
----------------------
   0 C :   -0.349808
   1 C :   -0.111162
   2 O :   -0.237242
   3 P :    0.568542
   4 S :   -0.297755
   5 O :   -0.253492
   6 C :   -0.116106
   7 C :   -0.371964
   8 S :    0.057557
   9 C :   -0.487124
  10 S :    0.093265
  11 P :    0.572514
  12 S :   -0.304426
  13 O :   -0.239516
  14 C :   -0.117144
  15 C :   -0.361198
  16 O :   -0.247703
  17 C :   -0.121854
  18 C :   -0.364805
  19 H :    0.131146
  20 H :    0.132038
  21 H :    0.130781
  22 H :    0.118327
  23 H :    0.104901
  24 H :    0.117700
  25 H :    0.101787
  26 H :    0.120357
  27 H :    0.122252
  28 H :    0.124480
  29 H :    0.128719
  30 H :    0.129660
  31 H :    0.123129
  32 H :    0.111570
  33 H :    0.119557
  34 H :    0.133006
  35 H :    0.132172
  36 H :    0.110185
  37 H :    0.116888
  38 H :    0.122107
  39 H :    0.126150
  40 H :    0.132508

  Mayer bond orders larger than 0.100000
B(  0-C ,  1-C ) :   1.1637 B(  0-C , 19-H ) :   0.9492 B(  0-C , 20-H ) :   0.9487
B(  0-C , 21-H ) :   0.9403 B(  1-C ,  2-O ) :   0.8888 B(  1-C , 22-H ) :   0.9306
B(  1-C , 23-H ) :   0.9147 B(  2-O ,  3-P ) :   1.1489 B(  3-P ,  4-S ) :   1.6535
B(  3-P ,  5-O ) :   1.0821 B(  3-P ,  8-S ) :   0.9357 B(  4-S ,  8-S ) :   0.1139
B(  5-O ,  6-C ) :   0.9052 B(  6-C ,  7-C ) :   1.1628 B(  6-C , 24-H ) :   0.9352
B(  6-C , 25-H ) :   0.9030 B(  7-C , 26-H ) :   0.9161 B(  7-C , 27-H ) :   0.9441
B(  7-C , 28-H ) :   0.9379 B(  8-S ,  9-C ) :   1.0190 B(  9-C , 10-S ) :   0.9980
B(  9-C , 29-H ) :   0.8651 B(  9-C , 30-H ) :   0.8610 B( 10-S , 11-P ) :   0.9652
B( 10-S , 12-S ) :   0.1002 B( 11-P , 12-S ) :   1.6352 B( 11-P , 13-O ) :   1.1298
B( 11-P , 16-O ) :   1.0598 B( 13-O , 14-C ) :   0.8965 B( 14-C , 15-C ) :   1.1708
B( 14-C , 31-H ) :   0.9327 B( 14-C , 32-H ) :   0.9116 B( 15-C , 33-H ) :   0.9320
B( 15-C , 34-H ) :   0.9451 B( 15-C , 35-H ) :   0.9378 B( 16-O , 17-C ) :   0.9014
B( 17-C , 18-C ) :   1.1619 B( 17-C , 36-H ) :   0.9115 B( 17-C , 37-H ) :   0.9328
B( 18-C , 38-H ) :   0.9472 B( 18-C , 39-H ) :   0.9358 B( 18-C , 40-H ) :   0.9402

Dispersion correction           -0.064414760
FINAL SINGLE POINT ENERGY     -2929.518745417497

DIPOLE MOMENT
-------------

Method             : SCF
Type of density    : Electron Density
Multiplicity       :   1
Irrep              :   0
Energy             : -2929.6401877396474447 Eh
Relativity type    :
Basis              : AO
                                X                 Y                 Z
Electronic contribution:      3.787027775      15.195085632     -15.581071191
Nuclear contribution   :     -3.984189775     -16.932542978      17.295657683
                        -----------------------------------------
Total Dipole Moment    :     -0.197162000      -1.737457346       1.714586492
                        -----------------------------------------
Magnitude (a.u.)       :      2.448966664
Magnitude (Debye)      :      6.224778568

Rotational constants in cm-1:             0.011757             0.004826             0.004485
Rotational constants in MHz :           352.464590           144.694392           134.451183

                             ****ORCA TERMINATED NORMALLY****
TOTAL RUN TIME: 0 days 0 hours 0 minutes 21 seconds 613 msec
