                         Program Version 6.0.0  -   RELEASE  -
|  1> ! r2scan-3c def2/J RI DEFGRID2 scfconv6 printgap
|  2> %output
|  3>     printlevel normal
|  4> end
|  5> * xyz 0 1
|  6> C 1.6078295199 -2.3212441368 2.7047743041
|  7> C 0.852947933 -1.7372311797 1.5269694852
|  8> O 1.328280028 -0.4057527161 1.2643137865
|  9> P 2.1163119189 0.0399737022 -0.0448988717
| 10> S 2.8352102461 -1.4479102488 -1.1052174406
| 11> O 3.1011795822 1.14658674 0.5150951145
| 12> C 3.9772217508 0.936206606 1.6439471147
| 13> C 5.1585011774 0.0544644656 1.2910832469
| 14> S 0.8947483142 1.4136932799 -1.0942834741
| 15> C 0.1402553005 0.2161409591 -2.2269373446
| 16> S -0.8630528067 -1.0282001912 -1.3779482366
| 17> P -2.2540304506 0.3209328534 -0.5104285047
| 18> S -2.7688652507 1.8564105148 -1.6000805639
| 19> O -1.5247614943 0.6370297317 0.8797412632
| 20> C -1.5197978562 1.9470301395 1.4736932889
| 21> C -2.838361096 2.2351894638 2.161919305
| 22> O -3.5087489038 -0.5675923192 -0.1376066153
| 23> C -3.5131685633 -1.6269256395 0.851841864
| 24> C -3.176790831 -2.9677010725 0.2316050504
| 25> H 1.5101957637 -1.6764746378 3.5738005614
| 26> H 1.2000998747 -3.2997795553 2.9361330377
| 27> H 2.6614441625 -2.427303822 2.4561183887
| 28> H -0.2131817847 -1.6384493255 1.739887043
| 29> H 0.9910001527 -2.3516411304 0.63128474
| 30> H 4.29921294 1.9446908233 1.9093858196
| 31> H 3.3958138706 0.5058795181 2.4630868189
| 32> H 5.704090591 0.4759428594 0.4507003574
| 33> H 5.8205327754 -0.0200740902 2.1480948346
| 34> H 4.8197890033 -0.9422379399 1.013538695
| 35> H 0.9183701759 -0.3291604249 -2.7610026135
| 36> H -0.4881576177 0.7870792026 -2.9095174335
| 37> H -0.6851012275 1.9206388353 2.1762770388
| 38> H -1.3183185424 2.6872794437 0.6929254439
| 39> H -2.7980595303 3.2186787027 2.6191006231
| 40> H -3.6434179959 2.2192579933 1.4276504885
| 41> H -3.0413024733 1.4900037299 2.9265417723
| 42> H -2.8125384797 -1.3681966532 1.648871033
| 43> H -4.5337141084 -1.6159941049 1.2383595964
| 44> H -3.8545588191 -3.1771321962 -0.5911627281
| 45> H -2.157521213 -2.9725871711 -0.1498680969
| 46> H -3.2786864775 -3.7421248916 0.9854440046
| 47> *
| 48>
| 49>                          ****END OF INPUT****

CARTESIAN COORDINATES (ANGSTROEM)
---------------------------------
  C      1.607830   -2.321244    2.704774
  C      0.852948   -1.737231    1.526969
  O      1.328280   -0.405753    1.264314
  P      2.116312    0.039974   -0.044899
  S      2.835210   -1.447910   -1.105217
  O      3.101180    1.146587    0.515095
  C      3.977222    0.936207    1.643947
  C      5.158501    0.054464    1.291083
  S      0.894748    1.413693   -1.094283
  C      0.140255    0.216141   -2.226937
  S     -0.863053   -1.028200   -1.377948
  P     -2.254030    0.320933   -0.510429
  S     -2.768865    1.856411   -1.600081
  O     -1.524761    0.637030    0.879741
  C     -1.519798    1.947030    1.473693
  C     -2.838361    2.235189    2.161919
  O     -3.508749   -0.567592   -0.137607
  C     -3.513169   -1.626926    0.851842
  C     -3.176791   -2.967701    0.231605
  H      1.510196   -1.676475    3.573801
  H      1.200100   -3.299780    2.936133
  H      2.661444   -2.427304    2.456118
  H     -0.213182   -1.638449    1.739887
  H      0.991000   -2.351641    0.631285
  H      4.299213    1.944691    1.909386
  H      3.395814    0.505880    2.463087
  H      5.704091    0.475943    0.450700
  H      5.820533   -0.020074    2.148095
  H      4.819789   -0.942238    1.013539
  H      0.918370   -0.329160   -2.761003
  H     -0.488158    0.787079   -2.909517
  H     -0.685101    1.920639    2.176277
  H     -1.318319    2.687279    0.692925
  H     -2.798060    3.218679    2.619101
  H     -3.643418    2.219258    1.427650
  H     -3.041302    1.490004    2.926542
  H     -2.812538   -1.368197    1.648871
  H     -4.533714   -1.615994    1.238360
  H     -3.854559   -3.177132   -0.591163
  H     -2.157521   -2.972587   -0.149868
  H     -3.278686   -3.742125    0.985444

 Total Charge           Charge          ....    0
 Multiplicity           Mult            ....    1
 Number of Electrons    NEL             ....  202
 Basis Dimension        Dim             ....  539

ORBITAL ENERGIES
----------------

  NO   OCC          E(Eh)            E(eV)
   0   2.0000     -88.574393     -2410.2318
   1   2.0000     -88.572391     -2410.1773
   2   2.0000     -88.521549     -2408.7938
   3   2.0000     -88.520271     -2408.7590
   4   2.0000     -76.915639     -2092.9809
   5   2.0000     -76.915366     -2092.9735
   6   2.0000     -18.995602      -516.8966
   7   2.0000     -18.994084      -516.8553
   8   2.0000     -18.993841      -516.8487
   9   2.0000     -18.988936      -516.7152
  10   2.0000     -10.110101      -275.1098
  11   2.0000     -10.105262      -274.9781
  12   2.0000     -10.103058      -274.9182
  13   2.0000     -10.098219      -274.7865
  14   2.0000     -10.095271      -274.7063
  15   2.0000     -10.039597      -273.1913
  16   2.0000     -10.036044      -273.0946
  17   2.0000     -10.030664      -272.9482
  18   2.0000     -10.029525      -272.9173
  19   2.0000      -7.868927      -214.1244
  20   2.0000      -7.866537      -214.0594
  21   2.0000      -7.816389      -212.6948
  22   2.0000      -7.815099      -212.6597
  23   2.0000      -6.593783      -179.4260
  24   2.0000      -6.593561      -179.4199
  25   2.0000      -5.815773      -158.2552
  26   2.0000      -5.813540      -158.1945
  27   2.0000      -5.812807      -158.1745
  28   2.0000      -5.810443      -158.1102
  29   2.0000      -5.806014      -157.9897
  30   2.0000      -5.803506      -157.9214
  31   2.0000      -5.764018      -156.8469
  32   2.0000      -5.762940      -156.8176
  33   2.0000      -5.756810      -156.6508
  34   2.0000      -5.756263      -156.6359
  35   2.0000      -5.755262      -156.6087
  36   2.0000      -5.755009      -156.6018
  37   2.0000      -4.739579      -128.9705
  38   2.0000      -4.739478      -128.9677
  39   2.0000      -4.738474      -128.9404
  40   2.0000      -4.738118      -128.9307
  41   2.0000      -4.737511      -128.9142
  42   2.0000      -4.737312      -128.9088
  43   2.0000      -1.052315       -28.6349
  44   2.0000      -1.049346       -28.5541
  45   2.0000      -1.011782       -27.5320
  46   2.0000      -1.009790       -27.4778
  47   2.0000      -0.802062       -21.8252
  48   2.0000      -0.763175       -20.7671
  49   2.0000      -0.754244       -20.5240
  50   2.0000      -0.736516       -20.0416
  51   2.0000      -0.736323       -20.0364
  52   2.0000      -0.710037       -19.3211
  53   2.0000      -0.688278       -18.7290
  54   2.0000      -0.669718       -18.2240
  55   2.0000      -0.630183       -17.1481
  56   2.0000      -0.622239       -16.9320
  57   2.0000      -0.615622       -16.7519
  58   2.0000      -0.612365       -16.6633
  59   2.0000      -0.591224       -16.0880
  60   2.0000      -0.531177       -14.4541
  61   2.0000      -0.523565       -14.2469
  62   2.0000      -0.499960       -13.6046
  63   2.0000      -0.497629       -13.5412
  64   2.0000      -0.476270       -12.9600
  65   2.0000      -0.470072       -12.7913
  66   2.0000      -0.459915       -12.5149
  67   2.0000      -0.455645       -12.3987
  68   2.0000      -0.447610       -12.1801
  69   2.0000      -0.433144       -11.7865
  70   2.0000      -0.427934       -11.6447
  71   2.0000      -0.416175       -11.3247
  72   2.0000      -0.409676       -11.1479
  73   2.0000      -0.399311       -10.8658
  74   2.0000      -0.394068       -10.7231
  75   2.0000      -0.391527       -10.6540
  76   2.0000      -0.388758       -10.5786
  77   2.0000      -0.377436       -10.2706
  78   2.0000      -0.376530       -10.2459
  79   2.0000      -0.370941       -10.0938
  80   2.0000      -0.368853       -10.0370
  81   2.0000      -0.366351        -9.9689
  82   2.0000      -0.360694        -9.8150
  83   2.0000      -0.356364        -9.6971
  84   2.0000      -0.350477        -9.5370
  85   2.0000      -0.339305        -9.2330
  86   2.0000      -0.329450        -8.9648
  87   2.0000      -0.317682        -8.6446
  88   2.0000      -0.310844        -8.4585
  89   2.0000      -0.308764        -8.4019
  90   2.0000      -0.297796        -8.1034
  91   2.0000      -0.295317        -8.0360
  92   2.0000      -0.288748        -7.8572
  93   2.0000      -0.286405        -7.7935
  94   2.0000      -0.273074        -7.4307
  95   2.0000      -0.244602        -6.6560
  96   2.0000      -0.228882        -6.2282
  97   2.0000      -0.226921        -6.1748
  98   2.0000      -0.220535        -6.0011
  99   2.0000      -0.212933        -5.7942
 100   2.0000      -0.210464        -5.7270
 101   0.0000      -0.047316        -1.2875
 102   0.0000      -0.025820        -0.7026
 103   0.0000      -0.000345        -0.0094
 104   0.0000       0.003631         0.0988
 105   0.0000       0.007049         0.1918

MULLIKEN ATOMIC CHARGES
-----------------------
   0 C :   -0.498188
   1 C :   -0.113240
   2 O :   -0.273386
   3 P :    0.699769
   4 S :   -0.473703
   5 O :   -0.308148
   6 C :   -0.165610
   7 C :   -0.426184
   8 S :   -0.126850
   9 C :   -0.233824
  10 S :   -0.160138
  11 P :    0.683379
  12 S :   -0.444218
  13 O :   -0.271777
  14 C :   -0.160449
  15 C :   -0.450632
  16 O :   -0.277682
  17 C :   -0.178548
  18 C :   -0.417879
  19 H :    0.154778
  20 H :    0.147809
  21 H :    0.162514
  22 H :    0.152117
  23 H :    0.184960
  24 H :    0.150775
  25 H :    0.158941
  26 H :    0.159925
  27 H :    0.145705
  28 H :    0.166056
  29 H :    0.211089
  30 H :    0.212655
  31 H :    0.158121
  32 H :    0.180683
  33 H :    0.148144
  34 H :    0.175566
  35 H :    0.144625
  36 H :    0.160434
  37 H :    0.155731
  38 H :    0.165545
  39 H :    0.151502
  40 H :    0.149634
Sum of atomic charges:   -0.0000000

LOEWDIN ATOMIC CHARGES
----------------------
   0 C :   -0.394939
   1 C :    0.001313
   2 O :   -0.669311
   3 P :    0.389137
   4 S :   -0.130226
   5 O :   -0.665713
   6 C :    0.030201
   7 C :   -0.402080
   8 S :    0.190974
   9 C :   -0.420317
  10 S :    0.145377
  11 P :    0.384671
  12 S :   -0.093582
  13 O :   -0.703492
  14 C :    0.008192
  15 C :   -0.399501
  16 O :   -0.652419
  17 C :    0.023818
  18 C :   -0.399010
  19 H :    0.157188
  20 H :    0.160346
  21 H :    0.160632
  22 H :    0.175965
  23 H :    0.185532
  24 H :    0.181354
  25 H :    0.174864
  26 H :    0.163990
  27 H :    0.157722
  28 H :    0.165338
  29 H :    0.191028
  30 H :    0.190793
  31 H :    0.180496
  32 H :    0.183780
  33 H :    0.160505
  34 H :    0.167167
  35 H :    0.154164
  36 H :    0.175365
  37 H :    0.182652
  38 H :    0.165368
  39 H :    0.162657
  40 H :    0.159998

  Mayer bond orders larger than 0.100000
B(  0-C ,  1-C ) :   0.9292 B(  0-C , 19-H ) :   0.9801 B(  0-C , 20-H ) :   0.9640
B(  0-C , 21-H ) :   0.9733 B(  1-C ,  2-O ) :   0.7339 B(  1-C , 22-H ) :   0.9578
B(  1-C , 23-H ) :   0.9471 B(  2-O ,  3-P ) :   1.0463 B(  3-P ,  4-S ) :   1.7661
B(  3-P ,  5-O ) :   1.1518 B(  3-P ,  8-S ) :   1.0817 B(  5-O ,  6-C ) :   0.7946
B(  6-C ,  7-C ) :   0.9455 B(  6-C , 24-H ) :   0.9599 B(  6-C , 25-H ) :   0.9680
B(  7-C , 26-H ) :   0.9683 B(  7-C , 27-H ) :   0.9661 B(  7-C , 28-H ) :   0.9528
B(  8-S ,  9-C ) :   0.8892 B(  9-C , 10-S ) :   0.8895 B(  9-C , 29-H ) :   0.9115
B(  9-C , 30-H ) :   0.9101 B( 10-S , 11-P ) :   1.0313 B( 11-P , 12-S ) :   1.8401
B( 11-P , 13-O ) :   1.0285 B( 11-P , 16-O ) :   1.1264 B( 13-O , 14-C ) :   0.7730
B( 14-C , 15-C ) :   0.9228 B( 14-C , 31-H ) :   0.9650 B( 14-C , 32-H ) :   0.9553
B( 15-C , 33-H ) :   0.9636 B( 15-C , 34-H ) :   0.9616 B( 15-C , 35-H ) :   0.9754
B( 16-O , 17-C ) :   0.7659 B( 17-C , 18-C ) :   0.9530 B( 17-C , 36-H ) :   0.9702
B( 17-C , 37-H ) :   0.9606 B( 18-C , 38-H ) :   0.9705 B( 18-C , 39-H ) :   0.9487
B( 18-C , 40-H ) :   0.9662

Dispersion correction           -0.022347238
FINAL SINGLE POINT ENERGY     -2932.460315213075

DIPOLE MOMENT
-------------

Method             : SCF
Type of density    : Electron Density
Multiplicity       :   1
Irrep              :   0
Energy             : -2932.4846628322179640 Eh
Relativity type    :
Basis              : AO
                                X                 Y                 Z
Electronic contribution:     -2.322791495       9.332224535     -23.338329689
Nuclear contribution   :      2.452936504     -10.007606231      25.662841146
                        -----------------------------------------
Total Dipole Moment    :      0.130145009      -0.675381696       2.324511458
                        -----------------------------------------
Magnitude (a.u.)       :      2.424135243
Magnitude (Debye)      :      6.161662112

Rotational constants in cm-1:             0.011898             0.005440             0.005175
Rotational constants in MHz :           356.697259           163.086952           155.147192

                             ****ORCA TERMINATED NORMALLY****
TOTAL RUN TIME: 0 days 0 hours 1 minutes 24 seconds 81 msec
