                         Program Version 6.0.0  -   RELEASE  -
|  1> ! r2scan-3c def2/J RI DEFGRID2 scfconv6 printgap
|  2> %output
|  3>     printlevel normal
|  4> end
|  5> %cpcm
|  6>     smd true
|  7>     smdsolvent "water"
|  8> end
|  9> * xyz 0 1
| 10> C 1.6078295199 -2.3212441368 2.7047743041
| 11> C 0.852947933 -1.7372311797 1.5269694852
| 12> O 1.328280028 -0.4057527161 1.2643137865
| 13> P 2.1163119189 0.0399737022 -0.0448988717
| 14> S 2.8352102461 -1.4479102488 -1.1052174406
| 15> O 3.1011795822 1.14658674 0.5150951145
| 16> C 3.9772217508 0.936206606 1.6439471147
| 17> C 5.1585011774 0.0544644656 1.2910832469
| 18> S 0.8947483142 1.4136932799 -1.0942834741
| 19> C 0.1402553005 0.2161409591 -2.2269373446
| 20> S -0.8630528067 -1.0282001912 -1.3779482366
| 21> P -2.2540304506 0.3209328534 -0.5104285047
| 22> S -2.7688652507 1.8564105148 -1.6000805639
| 23> O -1.5247614943 0.6370297317 0.8797412632
| 24> C -1.5197978562 1.9470301395 1.4736932889
| 25> C -2.838361096 2.2351894638 2.161919305
| 26> O -3.5087489038 -0.5675923192 -0.1376066153
| 27> C -3.5131685633 -1.6269256395 0.851841864
| 28> C -3.176790831 -2.9677010725 0.2316050504
| 29> H 1.5101957637 -1.6764746378 3.5738005614
| 30> H 1.2000998747 -3.2997795553 2.9361330377
| 31> H 2.6614441625 -2.427303822 2.4561183887
| 32> H -0.2131817847 -1.6384493255 1.739887043
| 33> H 0.9910001527 -2.3516411304 0.63128474
| 34> H 4.29921294 1.9446908233 1.9093858196
| 35> H 3.3958138706 0.5058795181 2.4630868189
| 36> H 5.704090591 0.4759428594 0.4507003574
| 37> H 5.8205327754 -0.0200740902 2.1480948346
| 38> H 4.8197890033 -0.9422379399 1.013538695
| 39> H 0.9183701759 -0.3291604249 -2.7610026135
| 40> H -0.4881576177 0.7870792026 -2.9095174335
| 41> H -0.6851012275 1.9206388353 2.1762770388
| 42> H -1.3183185424 2.6872794437 0.6929254439
| 43> H -2.7980595303 3.2186787027 2.6191006231
| 44> H -3.6434179959 2.2192579933 1.4276504885
| 45> H -3.0413024733 1.4900037299 2.9265417723
| 46> H -2.8125384797 -1.3681966532 1.648871033
| 47> H -4.5337141084 -1.6159941049 1.2383595964
| 48> H -3.8545588191 -3.1771321962 -0.5911627281
| 49> H -2.157521213 -2.9725871711 -0.1498680969
| 50> H -3.2786864775 -3.7421248916 0.9854440046
| 51> *
| 52>
| 53>                          ****END OF INPUT****

CARTESIAN COORDINATES (ANGSTROEM)
---------------------------------
  C      1.607830   -2.321244    2.704774
  C      0.852948   -1.737231    1.526969
  O      1.328280   -0.405753    1.264314
  P      2.116312    0.039974   -0.044899
  S      2.835210   -1.447910   -1.105217
  O      3.101180    1.146587    0.515095
  C      3.977222    0.936207    1.643947
  C      5.158501    0.054464    1.291083
  S      0.894748    1.413693   -1.094283
  C      0.140255    0.216141   -2.226937
  S     -0.863053   -1.028200   -1.377948
  P     -2.254030    0.320933   -0.510429
  S     -2.768865    1.856411   -1.600081
  O     -1.524761    0.637030    0.879741
  C     -1.519798    1.947030    1.473693
  C     -2.838361    2.235189    2.161919
  O     -3.508749   -0.567592   -0.137607
  C     -3.513169   -1.626926    0.851842
  C     -3.176791   -2.967701    0.231605
  H      1.510196   -1.676475    3.573801
  H      1.200100   -3.299780    2.936133
  H      2.661444   -2.427304    2.456118
  H     -0.213182   -1.638449    1.739887
  H      0.991000   -2.351641    0.631285
  H      4.299213    1.944691    1.909386
  H      3.395814    0.505880    2.463087
  H      5.704091    0.475943    0.450700
  H      5.820533   -0.020074    2.148095
  H      4.819789   -0.942238    1.013539
  H      0.918370   -0.329160   -2.761003
  H     -0.488158    0.787079   -2.909517
  H     -0.685101    1.920639    2.176277
  H     -1.318319    2.687279    0.692925
  H     -2.798060    3.218679    2.619101
  H     -3.643418    2.219258    1.427650
  H     -3.041302    1.490004    2.926542
  H     -2.812538   -1.368197    1.648871
  H     -4.533714   -1.615994    1.238360
  H     -3.854559   -3.177132   -0.591163
  H     -2.157521   -2.972587   -0.149868
  H     -3.278686   -3.742125    0.985444

 Total Charge           Charge          ....    0
 Multiplicity           Mult            ....    1
 Number of Electrons    NEL             ....  202
 Basis Dimension        Dim             ....  539

ORBITAL ENERGIES
----------------

  NO   OCC          E(Eh)            E(eV)
   0   2.0000     -88.578023     -2410.3305
   1   2.0000     -88.577801     -2410.3245
   2   2.0000     -88.529905     -2409.0212
   3   2.0000     -88.528074     -2408.9714
   4   2.0000     -76.920497     -2093.1131
   5   2.0000     -76.919752     -2093.0929
   6   2.0000     -18.995882      -516.9042
   7   2.0000     -18.994909      -516.8778
   8   2.0000     -18.993524      -516.8401
   9   2.0000     -18.989345      -516.7263
  10   2.0000     -10.103482      -274.9297
  11   2.0000     -10.092820      -274.6396
  12   2.0000     -10.091132      -274.5937
  13   2.0000     -10.087107      -274.4841
  14   2.0000     -10.086368      -274.4640
  15   2.0000     -10.021357      -272.6950
  16   2.0000     -10.017669      -272.5946
  17   2.0000     -10.017585      -272.5923
  18   2.0000     -10.017449      -272.5886
  19   2.0000      -7.872530      -214.2224
  20   2.0000      -7.872055      -214.2095
  21   2.0000      -7.825113      -212.9321
  22   2.0000      -7.823213      -212.8804
  23   2.0000      -6.598699      -179.5597
  24   2.0000      -6.597905      -179.5381
  25   2.0000      -5.819357      -158.3528
  26   2.0000      -5.818982      -158.3426
  27   2.0000      -5.816402      -158.2724
  28   2.0000      -5.815909      -158.2589
  29   2.0000      -5.809649      -158.0886
  30   2.0000      -5.809150      -158.0750
  31   2.0000      -5.772833      -157.0868
  32   2.0000      -5.770777      -157.0308
  33   2.0000      -5.765235      -156.8800
  34   2.0000      -5.765111      -156.8767
  35   2.0000      -5.763557      -156.8344
  36   2.0000      -5.763172      -156.8239
  37   2.0000      -4.744546      -129.1057
  38   2.0000      -4.743628      -129.0807
  39   2.0000      -4.743228      -129.0698
  40   2.0000      -4.742600      -129.0527
  41   2.0000      -4.742598      -129.0527
  42   2.0000      -4.741738      -129.0293
  43   2.0000      -1.052112       -28.6294
  44   2.0000      -1.049146       -28.5487
  45   2.0000      -1.010936       -27.5090
  46   2.0000      -1.009112       -27.4593
  47   2.0000      -0.804767       -21.8988
  48   2.0000      -0.757669       -20.6172
  49   2.0000      -0.744412       -20.2565
  50   2.0000      -0.725960       -19.7544
  51   2.0000      -0.723581       -19.6896
  52   2.0000      -0.707436       -19.2503
  53   2.0000      -0.690030       -18.7767
  54   2.0000      -0.675639       -18.3851
  55   2.0000      -0.627921       -17.0866
  56   2.0000      -0.616092       -16.7647
  57   2.0000      -0.605198       -16.4683
  58   2.0000      -0.602062       -16.3829
  59   2.0000      -0.588651       -16.0180
  60   2.0000      -0.524934       -14.2842
  61   2.0000      -0.516361       -14.0509
  62   2.0000      -0.493632       -13.4324
  63   2.0000      -0.490461       -13.3461
  64   2.0000      -0.474118       -12.9014
  65   2.0000      -0.462266       -12.5789
  66   2.0000      -0.452330       -12.3085
  67   2.0000      -0.447740       -12.1836
  68   2.0000      -0.441501       -12.0139
  69   2.0000      -0.429292       -11.6816
  70   2.0000      -0.422425       -11.4948
  71   2.0000      -0.408608       -11.1188
  72   2.0000      -0.401160       -10.9161
  73   2.0000      -0.395675       -10.7669
  74   2.0000      -0.390538       -10.6271
  75   2.0000      -0.388485       -10.5712
  76   2.0000      -0.384146       -10.4531
  77   2.0000      -0.370157       -10.0725
  78   2.0000      -0.364048        -9.9062
  79   2.0000      -0.359146        -9.7729
  80   2.0000      -0.358352        -9.7513
  81   2.0000      -0.355571        -9.6756
  82   2.0000      -0.351543        -9.5660
  83   2.0000      -0.346883        -9.4392
  84   2.0000      -0.344215        -9.3666
  85   2.0000      -0.334761        -9.1093
  86   2.0000      -0.322452        -8.7744
  87   2.0000      -0.308555        -8.3962
  88   2.0000      -0.305512        -8.3134
  89   2.0000      -0.300317        -8.1721
  90   2.0000      -0.294254        -8.0071
  91   2.0000      -0.290902        -7.9158
  92   2.0000      -0.286865        -7.8060
  93   2.0000      -0.285279        -7.7628
  94   2.0000      -0.272795        -7.4231
  95   2.0000      -0.248346        -6.7578
  96   2.0000      -0.237003        -6.4492
  97   2.0000      -0.234869        -6.3911
  98   2.0000      -0.229131        -6.2350
  99   2.0000      -0.221591        -6.0298
 100   2.0000      -0.217767        -5.9257
 101   0.0000      -0.052557        -1.4301
 102   0.0000      -0.032046        -0.8720
 103   0.0000      -0.003890        -0.1058
 104   0.0000       0.000296         0.0081
 105   0.0000       0.008003         0.2178

MULLIKEN ATOMIC CHARGES
-----------------------
   0 C :   -0.529449
   1 C :   -0.094689
   2 O :   -0.299901
   3 P :    0.723014
   4 S :   -0.517106
   5 O :   -0.341481
   6 C :   -0.146096
   7 C :   -0.479200
   8 S :   -0.151895
   9 C :   -0.245493
  10 S :   -0.168194
  11 P :    0.698708
  12 S :   -0.503393
  13 O :   -0.285410
  14 C :   -0.143605
  15 C :   -0.486813
  16 O :   -0.314744
  17 C :   -0.162703
  18 C :   -0.459124
  19 H :    0.168998
  20 H :    0.169693
  21 H :    0.168011
  22 H :    0.177271
  23 H :    0.176637
  24 H :    0.174532
  25 H :    0.176901
  26 H :    0.168894
  27 H :    0.171174
  28 H :    0.165810
  29 H :    0.231798
  30 H :    0.233308
  31 H :    0.179888
  32 H :    0.176568
  33 H :    0.170200
  34 H :    0.167257
  35 H :    0.167190
  36 H :    0.183115
  37 H :    0.178073
  38 H :    0.174330
  39 H :    0.152218
  40 H :    0.175708
Sum of atomic charges:   -0.0000000

LOEWDIN ATOMIC CHARGES
----------------------
   0 C :   -0.396371
   1 C :    0.008315
   2 O :   -0.676523
   3 P :    0.390647
   4 S :   -0.159618
   5 O :   -0.682337
   6 C :    0.037853
   7 C :   -0.406414
   8 S :    0.174021
   9 C :   -0.416809
  10 S :    0.145524
  11 P :    0.386894
  12 S :   -0.137499
  13 O :   -0.705304
  14 C :    0.013024
  15 C :   -0.401634
  16 O :   -0.672201
  17 C :    0.033542
  18 C :   -0.400385
  19 H :    0.163022
  20 H :    0.168169
  21 H :    0.161926
  22 H :    0.185614
  23 H :    0.183840
  24 H :    0.191365
  25 H :    0.183719
  26 H :    0.163149
  27 H :    0.168079
  28 H :    0.162402
  29 H :    0.197046
  30 H :    0.196437
  31 H :    0.189435
  32 H :    0.181863
  33 H :    0.168030
  34 H :    0.162526
  35 H :    0.162426
  36 H :    0.186060
  37 H :    0.192480
  38 H :    0.165488
  39 H :    0.161059
  40 H :    0.171137

  Mayer bond orders larger than 0.100000
B(  0-C ,  1-C ) :   0.9347 B(  0-C , 19-H ) :   0.9742 B(  0-C , 20-H ) :   0.9593
B(  0-C , 21-H ) :   0.9700 B(  1-C ,  2-O ) :   0.7230 B(  1-C , 22-H ) :   0.9461
B(  1-C , 23-H ) :   0.9452 B(  2-O ,  3-P ) :   1.0563 B(  3-P ,  4-S ) :   1.7384
B(  3-P ,  5-O ) :   1.1612 B(  3-P ,  8-S ) :   1.0887 B(  5-O ,  6-C ) :   0.7878
B(  6-C ,  7-C ) :   0.9264 B(  6-C , 24-H ) :   0.9523 B(  6-C , 25-H ) :   0.9586
B(  7-C , 26-H ) :   0.9708 B(  7-C , 27-H ) :   0.9591 B(  7-C , 28-H ) :   0.9565
B(  8-S ,  9-C ) :   0.8797 B(  9-C , 10-S ) :   0.8777 B(  9-C , 29-H ) :   0.9064
B(  9-C , 30-H ) :   0.9042 B( 10-S , 11-P ) :   1.0444 B( 11-P , 12-S ) :   1.8113
B( 11-P , 13-O ) :   1.0410 B( 11-P , 16-O ) :   1.1375 B( 13-O , 14-C ) :   0.7585
B( 14-C , 15-C ) :   0.9225 B( 14-C , 31-H ) :   0.9540 B( 14-C , 32-H ) :   0.9529
B( 15-C , 33-H ) :   0.9592 B( 15-C , 34-H ) :   0.9636 B( 15-C , 35-H ) :   0.9702
B( 16-O , 17-C ) :   0.7571 B( 17-C , 18-C ) :   0.9410 B( 17-C , 36-H ) :   0.9575
B( 17-C , 37-H ) :   0.9515 B( 18-C , 38-H ) :   0.9719 B( 18-C , 39-H ) :   0.9483
B( 18-C , 40-H ) :   0.9584

Dispersion correction           -0.022347238
FINAL SINGLE POINT ENERGY     -2932.471450179855

DIPOLE MOMENT
-------------

Method             : SCF
Type of density    : Electron Density
Multiplicity       :   1
Irrep              :   0
Energy             : -2932.4957977989979554 Eh
Relativity type    :
Basis              : AO
                                X                 Y                 Z
Electronic contribution:     -2.266935039       8.960743846     -22.341534208
Nuclear contribution   :      2.452936504     -10.007606231      25.662841146
                        -----------------------------------------
Total Dipole Moment    :      0.186001465      -1.046862385       3.321306939
                        -----------------------------------------
Magnitude (a.u.)       :      3.487348159
Magnitude (Debye)      :      8.864134575

Rotational constants in cm-1:             0.011898             0.005440             0.005175
Rotational constants in MHz :           356.697259           163.086952           155.147192

                             ****ORCA TERMINATED NORMALLY****
TOTAL RUN TIME: 0 days 0 hours 2 minutes 0 seconds 955 msec
