                         Program Version 6.0.0  -   RELEASE  -
|  1> ! pbe def2-sv(p) def2/J RI DEFGRID1 loosescf d4 GCP(DFT/SV(P)) printgap
|  2> %output
|  3>     printlevel normal
|  4> end
|  5> * xyz 0 1
|  6> C 2.6805011892 -1.5092116027 2.9269856522
|  7> C 1.4040685632 -1.5284886259 2.1133606547
|  8> O 1.2947500604 -0.3519423237 1.2870418692
|  9> P 2.1843246169 -0.1385969366 -0.000390458
| 10> S 2.8865741186 -1.7458573361 -0.8816243248
| 11> O 3.2823004728 0.8680368889 0.5462774793
| 12> C 4.3933218013 1.2947879642 -0.2691560269
| 13> C 5.4742512023 1.8206848674 0.6535634047
| 14> S 0.9450846788 1.1061975271 -1.1790430691
| 15> C 0.1149992557 -0.2243166433 -2.090134864
| 16> S -0.8259765939 -1.3428617872 -1.0161337772
| 17> P -2.16919076 0.1090406099 -0.2662596656
| 18> S -2.7504711911 1.4890572284 -1.5353448944
| 19> O -1.4213278151 0.5960494768 1.0366280092
| 20> C -1.6040782658 1.9186367192 1.5811495433
| 21> C -2.9611315296 2.0574556667 2.2374483695
| 22> O -3.3335369645 -0.7711932966 0.3559891767
| 23> C -4.3586653501 -1.3648557218 -0.4675068298
| 24> C -5.5382500157 -1.6976230744 0.423688946
| 25> H 3.5397240213 -1.5632223002 2.2592238733
| 26> H 2.74282004 -0.5920513267 3.5064983377
| 27> H 2.6969051232 -2.3644609844 3.5951181372
| 28> H 0.5129692341 -1.4915038096 2.7415982164
| 29> H 1.3646376029 -2.4129106047 1.4686735183
| 30> H 4.7456411857 0.438323357 -0.8539489004
| 31> H 4.0365134073 2.0712476026 -0.9511347402
| 32> H 5.8153520015 1.0327603638 1.3189994067
| 33> H 6.3098857049 2.1722492766 0.057436968
| 34> H 5.085308931 2.6413538644 1.2491050516
| 35> H 0.856775894 -0.8381819181 -2.5999013403
| 36> H -0.5590019849 0.2596152829 -2.7961471842
| 37> H -0.7865899051 2.0232994204 2.2958987054
| 38> H -1.4838370422 2.6484034183 0.7734459967
| 39> H -3.0969803049 1.282613248 2.9871565736
| 40> H -3.0392083752 3.0342204092 2.704288673
| 41> H -3.7423809551 1.9599975864 1.4842725756
| 42> H -4.6348425099 -0.6496557975 -1.2497398417
| 43> H -3.9435662176 -2.2624050118 -0.9337242343
| 44> H -5.2252700464 -2.3727658766 1.2146900265
| 45> H -5.9380277512 -0.7919440817 0.8707698421
| 46> H -6.3102595858 -2.173530098 -0.1719266019
| 47> *
| 48>
| 49>                          ****END OF INPUT****

CARTESIAN COORDINATES (ANGSTROEM)
---------------------------------
  C      2.680501   -1.509212    2.926986
  C      1.404069   -1.528489    2.113361
  O      1.294750   -0.351942    1.287042
  P      2.184325   -0.138597   -0.000390
  S      2.886574   -1.745857   -0.881624
  O      3.282300    0.868037    0.546277
  C      4.393322    1.294788   -0.269156
  C      5.474251    1.820685    0.653563
  S      0.945085    1.106198   -1.179043
  C      0.114999   -0.224317   -2.090135
  S     -0.825977   -1.342862   -1.016134
  P     -2.169191    0.109041   -0.266260
  S     -2.750471    1.489057   -1.535345
  O     -1.421328    0.596049    1.036628
  C     -1.604078    1.918637    1.581150
  C     -2.961132    2.057456    2.237448
  O     -3.333537   -0.771193    0.355989
  C     -4.358665   -1.364856   -0.467507
  C     -5.538250   -1.697623    0.423689
  H      3.539724   -1.563222    2.259224
  H      2.742820   -0.592051    3.506498
  H      2.696905   -2.364461    3.595118
  H      0.512969   -1.491504    2.741598
  H      1.364638   -2.412911    1.468674
  H      4.745641    0.438323   -0.853949
  H      4.036513    2.071248   -0.951135
  H      5.815352    1.032760    1.318999
  H      6.309886    2.172249    0.057437
  H      5.085309    2.641354    1.249105
  H      0.856776   -0.838182   -2.599901
  H     -0.559002    0.259615   -2.796147
  H     -0.786590    2.023299    2.295899
  H     -1.483837    2.648403    0.773446
  H     -3.096980    1.282613    2.987157
  H     -3.039208    3.034220    2.704289
  H     -3.742381    1.959998    1.484273
  H     -4.634843   -0.649656   -1.249740
  H     -3.943566   -2.262405   -0.933724
  H     -5.225270   -2.372766    1.214690
  H     -5.938028   -0.791944    0.870770
  H     -6.310260   -2.173530   -0.171927

 Total Charge           Charge          ....    0
 Multiplicity           Mult            ....    1
 Number of Electrons    NEL             ....  202
 Basis Dimension        Dim             ....  334

ORBITAL ENERGIES
----------------

  NO   OCC          E(Eh)            E(eV)
   0   2.0000     -88.040012     -2395.6905
   1   2.0000     -88.039997     -2395.6901
   2   2.0000     -87.987323     -2394.2568
   3   2.0000     -87.987312     -2394.2565
   4   2.0000     -76.424671     -2079.6210
   5   2.0000     -76.424639     -2079.6201
   6   2.0000     -18.794264      -511.4179
   7   2.0000     -18.794251      -511.4176
   8   2.0000     -18.787114      -511.2233
   9   2.0000     -18.787087      -511.2226
  10   2.0000      -9.953193      -270.8402
  11   2.0000      -9.953188      -270.8400
  12   2.0000      -9.952430      -270.8194
  13   2.0000      -9.947698      -270.6906
  14   2.0000      -9.947685      -270.6903
  15   2.0000      -9.889108      -269.0963
  16   2.0000      -9.889106      -269.0963
  17   2.0000      -9.882000      -268.9029
  18   2.0000      -9.881975      -268.9022
  19   2.0000      -7.685097      -209.1221
  20   2.0000      -7.685089      -209.1219
  21   2.0000      -7.632298      -207.6854
  22   2.0000      -7.632289      -207.6851
  23   2.0000      -6.422372      -174.7616
  24   2.0000      -6.422343      -174.7608
  25   2.0000      -5.712928      -155.4567
  26   2.0000      -5.712909      -155.4562
  27   2.0000      -5.709716      -155.3693
  28   2.0000      -5.709702      -155.3689
  29   2.0000      -5.701995      -155.1592
  30   2.0000      -5.701993      -155.1591
  31   2.0000      -5.661076      -154.0457
  32   2.0000      -5.661034      -154.0446
  33   2.0000      -5.652914      -153.8236
  34   2.0000      -5.652904      -153.8233
  35   2.0000      -5.652638      -153.8161
  36   2.0000      -5.652628      -153.8158
  37   2.0000      -4.644675      -126.3880
  38   2.0000      -4.644666      -126.3878
  39   2.0000      -4.644157      -126.3739
  40   2.0000      -4.644139      -126.3735
  41   2.0000      -4.643001      -126.3425
  42   2.0000      -4.642961      -126.3414
  43   2.0000      -0.987088       -26.8600
  44   2.0000      -0.985846       -26.8262
  45   2.0000      -0.945753       -25.7353
  46   2.0000      -0.944280       -25.6952
  47   2.0000      -0.763631       -20.7795
  48   2.0000      -0.721790       -19.6409
  49   2.0000      -0.709287       -19.3007
  50   2.0000      -0.687619       -18.7111
  51   2.0000      -0.686777       -18.6882
  52   2.0000      -0.671164       -18.2633
  53   2.0000      -0.648832       -17.6556
  54   2.0000      -0.637686       -17.3523
  55   2.0000      -0.599706       -16.3188
  56   2.0000      -0.594348       -16.1730
  57   2.0000      -0.567256       -15.4358
  58   2.0000      -0.564217       -15.3531
  59   2.0000      -0.560306       -15.2467
  60   2.0000      -0.506247       -13.7757
  61   2.0000      -0.500305       -13.6140
  62   2.0000      -0.477259       -12.9869
  63   2.0000      -0.474424       -12.9097
  64   2.0000      -0.454129       -12.3575
  65   2.0000      -0.444660       -12.0998
  66   2.0000      -0.437213       -11.8972
  67   2.0000      -0.435489       -11.8503
  68   2.0000      -0.427805       -11.6412
  69   2.0000      -0.412003       -11.2112
  70   2.0000      -0.404336       -11.0025
  71   2.0000      -0.395357       -10.7582
  72   2.0000      -0.389204       -10.5908
  73   2.0000      -0.383199       -10.4274
  74   2.0000      -0.378777       -10.3070
  75   2.0000      -0.372313       -10.1312
  76   2.0000      -0.372265       -10.1298
  77   2.0000      -0.358283        -9.7494
  78   2.0000      -0.357616        -9.7312
  79   2.0000      -0.352984        -9.6052
  80   2.0000      -0.347485        -9.4555
  81   2.0000      -0.346460        -9.4277
  82   2.0000      -0.343280        -9.3411
  83   2.0000      -0.340412        -9.2631
  84   2.0000      -0.330248        -8.9865
  85   2.0000      -0.320159        -8.7120
  86   2.0000      -0.308487        -8.3944
  87   2.0000      -0.300938        -8.1889
  88   2.0000      -0.300507        -8.1772
  89   2.0000      -0.287029        -7.8104
  90   2.0000      -0.281116        -7.6496
  91   2.0000      -0.277358        -7.5473
  92   2.0000      -0.265360        -7.2208
  93   2.0000      -0.263873        -7.1803
  94   2.0000      -0.257899        -7.0178
  95   2.0000      -0.232519        -6.3272
  96   2.0000      -0.217224        -5.9110
  97   2.0000      -0.213754        -5.8165
  98   2.0000      -0.208091        -5.6624
  99   2.0000      -0.199436        -5.4269
 100   2.0000      -0.198884        -5.4119
 101   0.0000      -0.043027        -1.1708
 102   0.0000      -0.021275        -0.5789
 103   0.0000       0.004934         0.1343
 104   0.0000       0.006687         0.1820
 105   0.0000       0.012434         0.3383

MULLIKEN ATOMIC CHARGES
-----------------------
   0 C :   -0.304243
   1 C :   -0.002180
   2 O :   -0.350221
   3 P :    0.616733
   4 S :   -0.341202
   5 O :   -0.375176
   6 C :   -0.011362
   7 C :   -0.281121
   8 S :   -0.084918
   9 C :   -0.361219
  10 S :   -0.084809
  11 P :    0.616314
  12 S :   -0.341514
  13 O :   -0.349938
  14 C :   -0.002517
  15 C :   -0.304187
  16 O :   -0.375086
  17 C :   -0.011640
  18 C :   -0.280932
  19 H :    0.121022
  20 H :    0.113782
  21 H :    0.110954
  22 H :    0.104412
  23 H :    0.113407
  24 H :    0.106308
  25 H :    0.103609
  26 H :    0.119180
  27 H :    0.112763
  28 H :    0.117002
  29 H :    0.191936
  30 H :    0.192063
  31 H :    0.104529
  32 H :    0.113533
  33 H :    0.113831
  34 H :    0.110866
  35 H :    0.121024
  36 H :    0.106389
  37 H :    0.103828
  38 H :    0.116885
  39 H :    0.119227
  40 H :    0.112666
Sum of atomic charges:    0.0000000

LOEWDIN ATOMIC CHARGES
----------------------
   0 C :   -0.364275
   1 C :   -0.116496
   2 O :   -0.228720
   3 P :    0.570178
   4 S :   -0.326877
   5 O :   -0.248159
   6 C :   -0.120210
   7 C :   -0.350234
   8 S :    0.084142
   9 C :   -0.479719
  10 S :    0.083947
  11 P :    0.570133
  12 S :   -0.326925
  13 O :   -0.228649
  14 C :   -0.116599
  15 C :   -0.364272
  16 O :   -0.248129
  17 C :   -0.120255
  18 C :   -0.350153
  19 H :    0.121538
  20 H :    0.124931
  21 H :    0.129736
  22 H :    0.118293
  23 H :    0.110224
  24 H :    0.108380
  25 H :    0.110772
  26 H :    0.127976
  27 H :    0.131211
  28 H :    0.127097
  29 H :    0.130462
  30 H :    0.130543
  31 H :    0.118303
  32 H :    0.110244
  33 H :    0.124944
  34 H :    0.129715
  35 H :    0.121530
  36 H :    0.108323
  37 H :    0.110837
  38 H :    0.127071
  39 H :    0.127944
  40 H :    0.131198

  Mayer bond orders larger than 0.100000
B(  0-C ,  1-C ) :   1.1625 B(  0-C , 19-H ) :   0.9362 B(  0-C , 20-H ) :   0.9467
B(  0-C , 21-H ) :   0.9401 B(  1-C ,  2-O ) :   0.9020 B(  1-C , 22-H ) :   0.9333
B(  1-C , 23-H ) :   0.9153 B(  2-O ,  3-P ) :   1.1428 B(  3-P ,  4-S ) :   1.5926
B(  3-P ,  5-O ) :   1.1130 B(  3-P ,  8-S ) :   0.9558 B(  4-S ,  8-S ) :   0.1084
B(  5-O ,  6-C ) :   0.9034 B(  6-C ,  7-C ) :   1.1611 B(  6-C , 24-H ) :   0.9092
B(  6-C , 25-H ) :   0.9292 B(  7-C , 26-H ) :   0.9513 B(  7-C , 27-H ) :   0.9419
B(  7-C , 28-H ) :   0.9505 B(  8-S ,  9-C ) :   1.0041 B(  9-C , 10-S ) :   1.0038
B(  9-C , 29-H ) :   0.8844 B(  9-C , 30-H ) :   0.8845 B( 10-S , 11-P ) :   0.9563
B( 10-S , 12-S ) :   0.1084 B( 11-P , 12-S ) :   1.5923 B( 11-P , 13-O ) :   1.1431
B( 11-P , 16-O ) :   1.1132 B( 13-O , 14-C ) :   0.9019 B( 14-C , 15-C ) :   1.1627
B( 14-C , 31-H ) :   0.9333 B( 14-C , 32-H ) :   0.9151 B( 15-C , 33-H ) :   0.9466
B( 15-C , 34-H ) :   0.9401 B( 15-C , 35-H ) :   0.9361 B( 16-O , 17-C ) :   0.9031
B( 17-C , 18-C ) :   1.1611 B( 17-C , 36-H ) :   0.9093 B( 17-C , 37-H ) :   0.9293
B( 18-C , 38-H ) :   0.9506 B( 18-C , 39-H ) :   0.9514 B( 18-C , 40-H ) :   0.9418

Dispersion correction           -0.064684353
FINAL SINGLE POINT ENERGY     -2929.528804092673

DIPOLE MOMENT
-------------

Method             : SCF
Type of density    : Electron Density
Multiplicity       :   1
Irrep              :   0
Energy             : -2929.6475868158750018 Eh
Relativity type    :
Basis              : AO
                                X                 Y                 Z
Electronic contribution:      0.954685249      -1.861945934     -17.218869832
Nuclear contribution   :     -1.011843052       1.970357138      18.217270587
                        -----------------------------------------
Total Dipole Moment    :     -0.057157803       0.108411204       0.998400755
                        -----------------------------------------
Magnitude (a.u.)       :      1.005894662
Magnitude (Debye)      :      2.556781041

Rotational constants in cm-1:             0.013342             0.004587             0.004565
Rotational constants in MHz :           399.971924           137.501186           136.859632

                             ****ORCA TERMINATED NORMALLY****
TOTAL RUN TIME: 0 days 0 hours 0 minutes 21 seconds 68 msec
