                         Program Version 6.0.1  -  RELEASE   -
|  1> ! pbe def2-sv(p) def2/J RI DEFGRID1 loosescf d4 GCP(DFT/SV(P)) printgap
|  2> %output
|  3>     printlevel normal
|  4> end
|  5> * xyz 0 1
|  6> C 5.3754599783 -1.8254724892 -1.531999304
|  7> C 4.5757458113 -0.5395052919 -1.3959566123
|  8> O 3.1604888021 -0.8065840121 -1.4216386821
|  9> C 2.5586311477 -1.1040201601 -0.2865423677
| 10> O 3.1077640441 -1.1706484384 0.7886408721
| 11> C 1.0753072862 -1.3594317134 -0.4988803375
| 12> C 0.4149291288 -0.1603787176 -1.1833168852
| 13> H 0.8912390938 0.0235537248 -2.1496076458
| 14> C 0.5203893737 1.0770381648 -0.3152393278
| 15> O -0.4617488378 1.643981297 0.1247177173
| 16> O 1.7556616515 1.4347340333 -0.1083173291
| 17> C 2.0158118555 2.4978910481 0.8376228842
| 18> C 2.0479261141 1.9424027107 2.2515744487
| 19> S -1.3464294245 -0.4527206641 -1.5368784963
| 20> P -2.2366999357 -0.0792724727 0.3440961157
| 21> S -1.3994140356 -0.3773051627 2.0907792043
| 22> O -3.0948349403 1.2682679817 0.3297157226
| 23> C -3.7628839968 1.7210298945 -0.8597058947
| 24> O -3.3533636667 -1.2207603408 0.0392405247
| 25> C -4.3462843639 -1.5382630548 1.014728476
| 26> H 5.0877014269 -2.3516902916 -2.4378579057
| 27> H 6.433075412 -1.587569762 -1.5766754802
| 28> H 5.1951593791 -2.4700358748 -0.6746838767
| 29> H 4.743092568 0.1244328968 -2.243964408
| 30> H 4.8164622263 -0.0312484316 -0.4583683584
| 31> H 0.61609152 -1.5556466797 0.4729978296
| 32> H 0.9566216617 -2.2354383814 -1.137987918
| 33> H 2.9866787712 2.8911874627 0.5376503632
| 34> H 1.238569165 3.2588677367 0.7313589
| 35> H 1.0649215395 1.5692506639 2.5355129137
| 36> H 2.7556181128 1.1187572727 2.3141527611
| 37> H 2.3408058968 2.7252803307 2.9426381036
| 38> H -4.5608797481 2.374345748 -0.5151374633
| 39> H -4.1666172341 0.8761469717 -1.4196555775
| 40> H -3.0565803221 2.2739578106 -1.4779991981
| 41> H -4.9875850964 -0.6765062858 1.205989617
| 42> H -3.8687002696 -1.8464385897 1.9467578117
| 43> H -4.9205084209 -2.358449374 0.5916311047
| 44> *
| 45>
| 46>                          ****END OF INPUT****

CARTESIAN COORDINATES (ANGSTROEM)
---------------------------------
  C      5.375460   -1.825472   -1.531999
  C      4.575746   -0.539505   -1.395957
  O      3.160489   -0.806584   -1.421639
  C      2.558631   -1.104020   -0.286542
  O      3.107764   -1.170648    0.788641
  C      1.075307   -1.359432   -0.498880
  C      0.414929   -0.160379   -1.183317
  H      0.891239    0.023554   -2.149608
  C      0.520389    1.077038   -0.315239
  O     -0.461749    1.643981    0.124718
  O      1.755662    1.434734   -0.108317
  C      2.015812    2.497891    0.837623
  C      2.047926    1.942403    2.251574
  S     -1.346429   -0.452721   -1.536878
  P     -2.236700   -0.079272    0.344096
  S     -1.399414   -0.377305    2.090779
  O     -3.094835    1.268268    0.329716
  C     -3.762884    1.721030   -0.859706
  O     -3.353364   -1.220760    0.039241
  C     -4.346284   -1.538263    1.014728
  H      5.087701   -2.351690   -2.437858
  H      6.433075   -1.587570   -1.576675
  H      5.195159   -2.470036   -0.674684
  H      4.743093    0.124433   -2.243964
  H      4.816462   -0.031248   -0.458368
  H      0.616092   -1.555647    0.472998
  H      0.956622   -2.235438   -1.137988
  H      2.986679    2.891187    0.537650
  H      1.238569    3.258868    0.731359
  H      1.064922    1.569251    2.535513
  H      2.755618    1.118757    2.314153
  H      2.340806    2.725280    2.942638
  H     -4.560880    2.374346   -0.515137
  H     -4.166617    0.876147   -1.419656
  H     -3.056580    2.273958   -1.477999
  H     -4.987585   -0.676506    1.205990
  H     -3.868700   -1.846439    1.946758
  H     -4.920508   -2.358449    0.591631

 Total Charge           Charge          ....    0
 Multiplicity           Mult            ....    1
 Number of Electrons    NEL             ....  174
 Basis Dimension        Dim             ....  316

ORBITAL ENERGIES
----------------

  NO   OCC          E(Eh)            E(eV)
   0   2.0000     -88.037605     -2395.6250
   1   2.0000     -87.972035     -2393.8408
   2   2.0000     -76.417766     -2079.4331
   3   2.0000     -18.823920      -512.2249
   4   2.0000     -18.805001      -511.7101
   5   2.0000     -18.780193      -511.0350
   6   2.0000     -18.773017      -510.8398
   7   2.0000     -18.759172      -510.4630
   8   2.0000     -18.740730      -509.9612
   9   2.0000     -10.028890      -272.9000
  10   2.0000     -10.011785      -272.4345
  11   2.0000      -9.955220      -270.8953
  12   2.0000      -9.953915      -270.8598
  13   2.0000      -9.952461      -270.8202
  14   2.0000      -9.942541      -270.5503
  15   2.0000      -9.931710      -270.2556
  16   2.0000      -9.907799      -269.6049
  17   2.0000      -9.890700      -269.1396
  18   2.0000      -9.878826      -268.8165
  19   2.0000      -7.682792      -209.0594
  20   2.0000      -7.617207      -207.2747
  21   2.0000      -6.413930      -174.5319
  22   2.0000      -5.710924      -155.4021
  23   2.0000      -5.707423      -155.3069
  24   2.0000      -5.699296      -155.0857
  25   2.0000      -5.646543      -153.6503
  26   2.0000      -5.638081      -153.4200
  27   2.0000      -5.636603      -153.3798
  28   2.0000      -4.636914      -126.1768
  29   2.0000      -4.635890      -126.1490
  30   2.0000      -4.634256      -126.1045
  31   2.0000      -1.033909       -28.1341
  32   2.0000      -1.012896       -27.5623
  33   2.0000      -0.969763       -26.3886
  34   2.0000      -0.938749       -25.5447
  35   2.0000      -0.924979       -25.1700
  36   2.0000      -0.917396       -24.9636
  37   2.0000      -0.769649       -20.9432
  38   2.0000      -0.713255       -19.4087
  39   2.0000      -0.710646       -19.3377
  40   2.0000      -0.686641       -18.6845
  41   2.0000      -0.657226       -17.8840
  42   2.0000      -0.630325       -17.1520
  43   2.0000      -0.617006       -16.7896
  44   2.0000      -0.609982       -16.5984
  45   2.0000      -0.595900       -16.2153
  46   2.0000      -0.567968       -15.4552
  47   2.0000      -0.511818       -13.9273
  48   2.0000      -0.506045       -13.7702
  49   2.0000      -0.501059       -13.6345
  50   2.0000      -0.486081       -13.2269
  51   2.0000      -0.466734       -12.7005
  52   2.0000      -0.464467       -12.6388
  53   2.0000      -0.447965       -12.1897
  54   2.0000      -0.446589       -12.1523
  55   2.0000      -0.426925       -11.6172
  56   2.0000      -0.422140       -11.4870
  57   2.0000      -0.419304       -11.4098
  58   2.0000      -0.415046       -11.2940
  59   2.0000      -0.404811       -11.0155
  60   2.0000      -0.402997       -10.9661
  61   2.0000      -0.395647       -10.7661
  62   2.0000      -0.391758       -10.6603
  63   2.0000      -0.383040       -10.4230
  64   2.0000      -0.371293       -10.1034
  65   2.0000      -0.365765        -9.9530
  66   2.0000      -0.362401        -9.8614
  67   2.0000      -0.349625        -9.5138
  68   2.0000      -0.347045        -9.4436
  69   2.0000      -0.340334        -9.2610
  70   2.0000      -0.337375        -9.1804
  71   2.0000      -0.329751        -8.9730
  72   2.0000      -0.324797        -8.8382
  73   2.0000      -0.315604        -8.5880
  74   2.0000      -0.308680        -8.3996
  75   2.0000      -0.299982        -8.1629
  76   2.0000      -0.297533        -8.0963
  77   2.0000      -0.279419        -7.6034
  78   2.0000      -0.272680        -7.4200
  79   2.0000      -0.262715        -7.1488
  80   2.0000      -0.260791        -7.0965
  81   2.0000      -0.256240        -6.9726
  82   2.0000      -0.241060        -6.5596
  83   2.0000      -0.228513        -6.2182
  84   2.0000      -0.212597        -5.7851
  85   2.0000      -0.193067        -5.2536
  86   2.0000      -0.183743        -4.9999
  87   0.0000      -0.046360        -1.2615
  88   0.0000      -0.040433        -1.1002
  89   0.0000      -0.022388        -0.6092
  90   0.0000       0.007459         0.2030
  91   0.0000       0.032922         0.8959

MULLIKEN ATOMIC CHARGES
-----------------------
   0 C :   -0.304176
   1 C :   -0.011305
   2 O :   -0.242155
   3 C :    0.110532
   4 O :   -0.193727
   5 C :   -0.043749
   6 C :   -0.331080
   7 H :    0.156368
   8 C :    0.222487
   9 O :   -0.186719
  10 O :   -0.218824
  11 C :   -0.010628
  12 C :   -0.328205
  13 S :   -0.061154
  14 P :    0.622662
  15 S :   -0.321931
  16 O :   -0.374477
  17 C :   -0.104683
  18 O :   -0.402914
  19 C :   -0.102604
  20 H :    0.114270
  21 H :    0.113732
  22 H :    0.129248
  23 H :    0.101182
  24 H :    0.107159
  25 H :    0.123913
  26 H :    0.122177
  27 H :    0.104203
  28 H :    0.114660
  29 H :    0.145685
  30 H :    0.136348
  31 H :    0.110334
  32 H :    0.126310
  33 H :    0.114081
  34 H :    0.120644
  35 H :    0.103807
  36 H :    0.119347
  37 H :    0.119180
Sum of atomic charges:   -0.0000000

LOEWDIN ATOMIC CHARGES
----------------------
   0 C :   -0.355781
   1 C :   -0.110220
   2 O :   -0.063559
   3 C :    0.024020
   4 O :   -0.159222
   5 C :   -0.248456
   6 C :   -0.268880
   7 H :    0.149838
   8 C :    0.025744
   9 O :   -0.149869
  10 O :   -0.028313
  11 C :   -0.103944
  12 C :   -0.362804
  13 S :    0.120743
  14 P :    0.590396
  15 S :   -0.315041
  16 O :   -0.249852
  17 C :   -0.213403
  18 O :   -0.283836
  19 C :   -0.219335
  20 H :    0.125048
  21 H :    0.131070
  22 H :    0.131814
  23 H :    0.116965
  24 H :    0.119141
  25 H :    0.136733
  26 H :    0.144692
  27 H :    0.118473
  28 H :    0.122949
  29 H :    0.133471
  30 H :    0.133079
  31 H :    0.129968
  32 H :    0.122742
  33 H :    0.106994
  34 H :    0.114204
  35 H :    0.105744
  36 H :    0.110112
  37 H :    0.118573

  Mayer bond orders larger than 0.100000
B(  0-C ,  1-C ) :   1.1752 B(  0-C , 20-H ) :   0.9487 B(  0-C , 21-H ) :   0.9441
B(  0-C , 22-H ) :   0.9458 B(  1-C ,  2-O ) :   0.9159 B(  1-C , 23-H ) :   0.9370
B(  1-C , 24-H ) :   0.9133 B(  2-O ,  3-C ) :   1.1948 B(  3-C ,  4-O ) :   2.0415
B(  3-C ,  5-C ) :   1.0169 B(  5-C ,  6-C ) :   1.0220 B(  5-C , 25-H ) :   0.8784
B(  5-C , 26-H ) :   0.8864 B(  6-C ,  7-H ) :   0.8654 B(  6-C ,  8-C ) :   0.9000
B(  6-C , 13-S ) :   1.0412 B(  8-C ,  9-O ) :   1.9488 B(  8-C , 10-O ) :   1.2754
B(  9-O , 14-P ) :   0.1294 B( 10-O , 11-C ) :   0.8857 B( 11-C , 12-C ) :   1.1785
B( 11-C , 27-H ) :   0.9364 B( 11-C , 28-H ) :   0.9158 B( 12-C , 29-H ) :   0.9304
B( 12-C , 30-H ) :   0.9387 B( 12-C , 31-H ) :   0.9399 B( 13-S , 14-P ) :   0.9359
B( 13-S , 15-S ) :   0.1073 B( 14-P , 15-S ) :   1.5989 B( 14-P , 16-O ) :   1.0866
B( 14-P , 18-O ) :   1.0309 B( 16-O , 17-C ) :   0.9305 B( 17-C , 32-H ) :   0.9575
B( 17-C , 33-H ) :   0.9395 B( 17-C , 34-H ) :   0.9498 B( 18-O , 19-C ) :   0.9445
B( 19-C , 35-H ) :   0.9481 B( 19-C , 36-H ) :   0.9377 B( 19-C , 37-H ) :   0.9591

Dispersion correction           -0.052729756
FINAL SINGLE POINT ENERGY     -1979.010964126421

DIPOLE MOMENT
-------------

Method             : SCF
Type of density    : Electron Density
Multiplicity       :   1
Irrep              :   0
Energy             : -1979.1420297478803150 Eh
Relativity type    :
Basis              : AO
                                X                 Y                 Z
Electronic contribution:    -14.287083331      -1.387354701      -0.356545609
Nuclear contribution   :     14.820941906       2.103385050      -1.090120868
                        -----------------------------------------
Total Dipole Moment    :      0.533858575       0.716030349      -1.446666477
                        -----------------------------------------
Magnitude (a.u.)       :      1.700161267
Magnitude (Debye)      :      4.321466508

Rotational constants in cm-1:             0.017638             0.005882             0.005474
Rotational constants in MHz :           528.771625           176.331638           164.094479

                             ****ORCA TERMINATED NORMALLY****
TOTAL RUN TIME: 0 days 0 hours 0 minutes 42 seconds 861 msec
