                         Program Version 6.0.0  -   RELEASE  -
|  1> ! pbe def2-sv(p) def2/J RI DEFGRID1 loosescf d4 GCP(DFT/SV(P)) printgap
|  2> %output
|  3>     printlevel normal
|  4> end
|  5> * xyz 0 1
|  6> C -2.5132945529 -0.7584869865 0.0033784068
|  7> C -1.2152860048 -0.0048388141 0.0002356249
|  8> C -1.2145055271 1.3804093396 0.0004883865
|  9> C -0.0273924978 2.0898841605 -0.0012672125
| 10> C 1.1710154648 1.4048683327 -0.0010148169
| 11> C 1.2139561315 0.0151748431 -0.0004662974
| 12> C 0.0068568006 -0.6891467622 -0.0018289329
| 13> O -0.0533065237 -2.0558918254 -0.0038860947
| 14> C 2.5665146091 -0.6458171395 0.004544337
| 15> H -3.1005019261 -0.4992422103 -0.8759679444
| 16> H -2.3315179266 -1.8286829038 0.00306096
| 17> H -3.0953430578 -0.4991296079 0.8861115545
| 18> H -2.1600998093 1.9022108279 0.0011127492
| 19> H -0.0374096508 3.1691539357 -0.0020354996
| 20> H 2.1033855131 1.9505353977 -0.0006732426
| 21> H 0.8366045826 -2.4350495052 -0.0177534028
| 22> H 3.1208936373 -0.3353903189 0.8890591056
| 23> H 2.5234540126 -1.7315945206 0.0015676972
| 24> H 3.1313400675 -0.3300176885 -0.8712897225
| 25> *
| 26>
| 27>                          ****END OF INPUT****

CARTESIAN COORDINATES (ANGSTROEM)
---------------------------------
  C     -2.513295   -0.758487    0.003378
  C     -1.215286   -0.004839    0.000236
  C     -1.214506    1.380409    0.000488
  C     -0.027392    2.089884   -0.001267
  C      1.171015    1.404868   -0.001015
  C      1.213956    0.015175   -0.000466
  C      0.006857   -0.689147   -0.001829
  O     -0.053307   -2.055892   -0.003886
  C      2.566515   -0.645817    0.004544
  H     -3.100502   -0.499242   -0.875968
  H     -2.331518   -1.828683    0.003061
  H     -3.095343   -0.499130    0.886112
  H     -2.160100    1.902211    0.001113
  H     -0.037410    3.169154   -0.002035
  H      2.103386    1.950535   -0.000673
  H      0.836605   -2.435050   -0.017753
  H      3.120894   -0.335390    0.889059
  H      2.523454   -1.731595    0.001568
  H      3.131340   -0.330018   -0.871290

 Total Charge           Charge          ....    0
 Multiplicity           Mult            ....    1
 Number of Electrons    NEL             ....   66
 Basis Dimension        Dim             ....  146

ORBITAL ENERGIES
----------------

  NO   OCC          E(Eh)            E(eV)
   0   2.0000     -18.775720      -510.9133
   1   2.0000      -9.942836      -270.5583
   2   2.0000      -9.896751      -269.3043
   3   2.0000      -9.896380      -269.2942
   4   2.0000      -9.889777      -269.1145
   5   2.0000      -9.882497      -268.9164
   6   2.0000      -9.880333      -268.8575
   7   2.0000      -9.878389      -268.8046
   8   2.0000      -9.871190      -268.6087
   9   2.0000      -0.956755       -26.0346
  10   2.0000      -0.769121       -20.9288
  11   2.0000      -0.706285       -19.2190
  12   2.0000      -0.671188       -18.2639
  13   2.0000      -0.624867       -17.0035
  14   2.0000      -0.601612       -16.3707
  15   2.0000      -0.545601       -14.8466
  16   2.0000      -0.514519       -14.0008
  17   2.0000      -0.483608       -13.1596
  18   2.0000      -0.434698       -11.8287
  19   2.0000      -0.412976       -11.2376
  20   2.0000      -0.390830       -10.6350
  21   2.0000      -0.373654       -10.1676
  22   2.0000      -0.369097       -10.0436
  23   2.0000      -0.364862        -9.9284
  24   2.0000      -0.354214        -9.6387
  25   2.0000      -0.333121        -9.0647
  26   2.0000      -0.332206        -9.0398
  27   2.0000      -0.328708        -8.9446
  28   2.0000      -0.297770        -8.1027
  29   2.0000      -0.287075        -7.8117
  30   2.0000      -0.284040        -7.7291
  31   2.0000      -0.207775        -5.6538
  32   2.0000      -0.185875        -5.0579
  33   0.0000      -0.029563        -0.8044
  34   0.0000      -0.008582        -0.2335
  35   0.0000       0.012681         0.3451
  36   0.0000       0.056337         1.5330
  37   0.0000       0.070244         1.9114

MULLIKEN ATOMIC CHARGES
-----------------------
   0 C :   -0.216037
   1 C :   -0.028905
   2 C :   -0.140609
   3 C :   -0.034345
   4 C :   -0.140269
   5 C :   -0.000285
   6 C :    0.080995
   7 O :   -0.339254
   8 C :   -0.255648
   9 H :    0.109398
  10 H :    0.115183
  11 H :    0.109492
  12 H :    0.030202
  13 H :    0.041798
  14 H :    0.028978
  15 H :    0.309359
  16 H :    0.126356
  17 H :    0.077613
  18 H :    0.125980
Sum of atomic charges:    0.0000000

LOEWDIN ATOMIC CHARGES
----------------------
   0 C :   -0.326789
   1 C :   -0.069112
   2 C :   -0.122414
   3 C :   -0.143957
   4 C :   -0.125278
   5 C :   -0.093888
   6 C :    0.023763
   7 O :   -0.240133
   8 C :   -0.323248
   9 H :    0.130034
  10 H :    0.129460
  11 H :    0.130092
  12 H :    0.120256
  13 H :    0.120444
  14 H :    0.118721
  15 H :    0.289543
  16 H :    0.137244
  17 H :    0.108252
  18 H :    0.137010

  Mayer bond orders larger than 0.100000
B(  0-C ,  1-C ) :   1.1134 B(  0-C ,  9-H ) :   0.9365 B(  0-C , 10-H ) :   0.9333
B(  0-C , 11-H ) :   0.9366 B(  1-C ,  2-C ) :   1.4110 B(  1-C ,  6-C ) :   1.3775
B(  2-C ,  3-C ) :   1.3319 B(  2-C , 12-H ) :   0.9707 B(  3-C ,  4-C ) :   1.3624
B(  3-C , 13-H ) :   0.9678 B(  4-C ,  5-C ) :   1.3815 B(  4-C , 14-H ) :   0.9669
B(  5-C ,  6-C ) :   1.3370 B(  5-C ,  8-C ) :   1.0800 B(  6-C ,  7-O ) :   1.2150
B(  7-O , 15-H ) :   0.8270 B(  8-C , 16-H ) :   0.9352 B(  8-C , 17-H ) :   0.9316
B(  8-C , 18-H ) :   0.9353

Dispersion correction           -0.019235938
FINAL SINGLE POINT ENERGY      -385.236682896501

DIPOLE MOMENT
-------------

Method             : SCF
Type of density    : Electron Density
Multiplicity       :   1
Irrep              :   0
Energy             :  -385.2961879681894857 Eh
Relativity type    :
Basis              : AO
                                X                 Y                 Z
Electronic contribution:     -0.342127919       0.404796882      -0.017735174
Nuclear contribution   :      0.928752672      -0.628275746       0.012318968
                        -----------------------------------------
Total Dipole Moment    :      0.586624753      -0.223478865      -0.005416206
                        -----------------------------------------
Magnitude (a.u.)       :      0.627774434
Magnitude (Debye)      :      1.595675800

Rotational constants in cm-1:             0.077317             0.058389             0.033682
Rotational constants in MHz :          2317.907679          1750.461083          1009.771479

                             ****ORCA TERMINATED NORMALLY****
TOTAL RUN TIME: 0 days 0 hours 0 minutes 9 seconds 993 msec
