                         Program Version 6.0.0  -   RELEASE  -
|  1> ! r2scan-3c def2/J RI DEFGRID2 scfconv6 printgap
|  2> %output
|  3>     printlevel normal
|  4> end
|  5> * xyz 0 1
|  6> C 1.465265842 0.1338395328 -3.6253103711
|  7> C 2.3534942717 0.0622726349 -2.401383472
|  8> O 1.6073865046 -0.565927354 -1.3302784576
|  9> P 2.1398175697 -0.4602851654 0.1594817696
| 10> S 2.6532409865 1.3163078112 0.8224754266
| 11> O 3.3646293403 -1.4775960623 0.083063361
| 12> C 4.3998089903 -1.517509571 1.0799766381
| 13> C 3.8811709491 -1.9843375593 2.4246162456
| 14> S 0.6294356693 -1.5102008803 1.1860101357
| 15> C -0.0491881339 -0.1632522322 2.2173413869
| 16> S -1.8475735549 -0.0028065011 2.0806975095
| 17> P -1.9857430599 0.4077983157 0.0198035725
| 18> S -0.6473191235 1.6367864125 -0.7329598265
| 19> O -3.4864592466 0.8956838567 -0.1455692754
| 20> C -3.8983736769 2.2354099133 0.1908965433
| 21> C -5.2026853159 2.5162648905 -0.5278023125
| 22> O -2.0582974239 -1.0543695815 -0.5704091413
| 23> C -1.734763255 -1.3805356376 -1.9380866539
| 24> C -2.6657663144 -0.6946790455 -2.9144927261
| 25> H 0.5866615121 0.7362638157 -3.4080142048
| 26> H 2.019840107 0.596083485 -4.4354166066
| 27> H 1.1542632603 -0.8634384901 -3.9229763393
| 28> H 2.6509838894 1.063516631 -2.070605307
| 29> H 3.2480193363 -0.5382776356 -2.584260807
| 30> H 5.1336243646 -2.2103965906 0.6663838328
| 31> H 4.8347394601 -0.5164420541 1.1633519533
| 32> H 4.7160602214 -2.1153710149 3.1053780103
| 33> H 3.2033046034 -1.2379696941 2.8371712042
| 34> H 3.3475166402 -2.9254443559 2.3189876469
| 35> H 0.4359269543 0.7733926554 1.9275339264
| 36> H 0.1430724777 -0.3965756131 3.2614983915
| 37> H -4.0197425181 2.2910646235 1.2758654447
| 38> H -3.1106622788 2.9314488474 -0.1175802934
| 39> H -5.5494410489 3.5088805927 -0.260129696
| 40> H -5.0578214494 2.4650984479 -1.6031930623
| 41> H -5.9487241105 1.7826247201 -0.2370064391
| 42> H -0.6937863549 -1.0990922059 -2.1206854645
| 43> H -1.8340229297 -2.4663853141 -1.9712444466
| 44> H -2.5347314908 0.3853611307 -2.8500512157
| 45> H -2.4359282267 -1.0196745619 -3.924417236
| 46> H -3.69892573 -0.9367117291 -2.6794877487
| 47> *
| 48>
| 49>                          ****END OF INPUT****

CARTESIAN COORDINATES (ANGSTROEM)
---------------------------------
  C      1.465266    0.133840   -3.625310
  C      2.353494    0.062273   -2.401383
  O      1.607387   -0.565927   -1.330278
  P      2.139818   -0.460285    0.159482
  S      2.653241    1.316308    0.822475
  O      3.364629   -1.477596    0.083063
  C      4.399809   -1.517510    1.079977
  C      3.881171   -1.984338    2.424616
  S      0.629436   -1.510201    1.186010
  C     -0.049188   -0.163252    2.217341
  S     -1.847574   -0.002807    2.080698
  P     -1.985743    0.407798    0.019804
  S     -0.647319    1.636786   -0.732960
  O     -3.486459    0.895684   -0.145569
  C     -3.898374    2.235410    0.190897
  C     -5.202685    2.516265   -0.527802
  O     -2.058297   -1.054370   -0.570409
  C     -1.734763   -1.380536   -1.938087
  C     -2.665766   -0.694679   -2.914493
  H      0.586662    0.736264   -3.408014
  H      2.019840    0.596083   -4.435417
  H      1.154263   -0.863438   -3.922976
  H      2.650984    1.063517   -2.070605
  H      3.248019   -0.538278   -2.584261
  H      5.133624   -2.210397    0.666384
  H      4.834739   -0.516442    1.163352
  H      4.716060   -2.115371    3.105378
  H      3.203305   -1.237970    2.837171
  H      3.347517   -2.925444    2.318988
  H      0.435927    0.773393    1.927534
  H      0.143072   -0.396576    3.261498
  H     -4.019743    2.291065    1.275865
  H     -3.110662    2.931449   -0.117580
  H     -5.549441    3.508881   -0.260130
  H     -5.057821    2.465098   -1.603193
  H     -5.948724    1.782625   -0.237006
  H     -0.693786   -1.099092   -2.120685
  H     -1.834023   -2.466385   -1.971244
  H     -2.534731    0.385361   -2.850051
  H     -2.435928   -1.019675   -3.924417
  H     -3.698926   -0.936712   -2.679488

 Total Charge           Charge          ....    0
 Multiplicity           Mult            ....    1
 Number of Electrons    NEL             ....  202
 Basis Dimension        Dim             ....  539

ORBITAL ENERGIES
----------------

  NO   OCC          E(Eh)            E(eV)
   0   2.0000     -88.574780     -2410.2423
   1   2.0000     -88.574351     -2410.2306
   2   2.0000     -88.516398     -2408.6536
   3   2.0000     -88.513252     -2408.5680
   4   2.0000     -76.910024     -2092.8282
   5   2.0000     -76.909842     -2092.8232
   6   2.0000     -18.989159      -516.7213
   7   2.0000     -18.986570      -516.6508
   8   2.0000     -18.984838      -516.6037
   9   2.0000     -18.984404      -516.5919
  10   2.0000     -10.104918      -274.9688
  11   2.0000     -10.096233      -274.7325
  12   2.0000     -10.094471      -274.6845
  13   2.0000     -10.093711      -274.6638
  14   2.0000     -10.092337      -274.6264
  15   2.0000     -10.031725      -272.9771
  16   2.0000     -10.028481      -272.8888
  17   2.0000     -10.026414      -272.8326
  18   2.0000     -10.025554      -272.8092
  19   2.0000      -7.869122      -214.1297
  20   2.0000      -7.868829      -214.1217
  21   2.0000      -7.811157      -212.5524
  22   2.0000      -7.808026      -212.4672
  23   2.0000      -6.588442      -179.2806
  24   2.0000      -6.588423      -179.2801
  25   2.0000      -5.815987      -158.2610
  26   2.0000      -5.815799      -158.2559
  27   2.0000      -5.813072      -158.1817
  28   2.0000      -5.812535      -158.1671
  29   2.0000      -5.806130      -157.9928
  30   2.0000      -5.805965      -157.9883
  31   2.0000      -5.758781      -156.7044
  32   2.0000      -5.755705      -156.6207
  33   2.0000      -5.751682      -156.5112
  34   2.0000      -5.750929      -156.4907
  35   2.0000      -5.748320      -156.4197
  36   2.0000      -5.747994      -156.4109
  37   2.0000      -4.733827      -128.8140
  38   2.0000      -4.733785      -128.8128
  39   2.0000      -4.733469      -128.8042
  40   2.0000      -4.733226      -128.7976
  41   2.0000      -4.732335      -128.7734
  42   2.0000      -4.732232      -128.7706
  43   2.0000      -1.046570       -28.4786
  44   2.0000      -1.045306       -28.4442
  45   2.0000      -1.007422       -27.4133
  46   2.0000      -1.003836       -27.3158
  47   2.0000      -0.798588       -21.7307
  48   2.0000      -0.757099       -20.6017
  49   2.0000      -0.747538       -20.3415
  50   2.0000      -0.730208       -19.8700
  51   2.0000      -0.728590       -19.8259
  52   2.0000      -0.709219       -19.2988
  53   2.0000      -0.682521       -18.5723
  54   2.0000      -0.662459       -18.0264
  55   2.0000      -0.629446       -17.1281
  56   2.0000      -0.621531       -16.9127
  57   2.0000      -0.602334       -16.3903
  58   2.0000      -0.597900       -16.2697
  59   2.0000      -0.587928       -15.9983
  60   2.0000      -0.528261       -14.3747
  61   2.0000      -0.521368       -14.1871
  62   2.0000      -0.491361       -13.3706
  63   2.0000      -0.487658       -13.2699
  64   2.0000      -0.463798       -12.6206
  65   2.0000      -0.461517       -12.5585
  66   2.0000      -0.456102       -12.4112
  67   2.0000      -0.450484       -12.2583
  68   2.0000      -0.442762       -12.0482
  69   2.0000      -0.440670       -11.9912
  70   2.0000      -0.423230       -11.5167
  71   2.0000      -0.413703       -11.2574
  72   2.0000      -0.407317       -11.0837
  73   2.0000      -0.402671       -10.9572
  74   2.0000      -0.392296       -10.6749
  75   2.0000      -0.386279       -10.5112
  76   2.0000      -0.383281       -10.4296
  77   2.0000      -0.370710       -10.0875
  78   2.0000      -0.368342       -10.0231
  79   2.0000      -0.363777        -9.8989
  80   2.0000      -0.358915        -9.7666
  81   2.0000      -0.356055        -9.6887
  82   2.0000      -0.352448        -9.5906
  83   2.0000      -0.348074        -9.4716
  84   2.0000      -0.346250        -9.4219
  85   2.0000      -0.327053        -8.8996
  86   2.0000      -0.323510        -8.8031
  87   2.0000      -0.313045        -8.5184
  88   2.0000      -0.307526        -8.3682
  89   2.0000      -0.304611        -8.2889
  90   2.0000      -0.296128        -8.0580
  91   2.0000      -0.286067        -7.7843
  92   2.0000      -0.282824        -7.6960
  93   2.0000      -0.276611        -7.5270
  94   2.0000      -0.272662        -7.4195
  95   2.0000      -0.244259        -6.6466
  96   2.0000      -0.232689        -6.3318
  97   2.0000      -0.225476        -6.1355
  98   2.0000      -0.214868        -5.8469
  99   2.0000      -0.206946        -5.6313
 100   2.0000      -0.198994        -5.4149
 101   0.0000      -0.042757        -1.1635
 102   0.0000      -0.034268        -0.9325
 103   0.0000      -0.004468        -0.1216
 104   0.0000       0.015634         0.4254
 105   0.0000       0.020377         0.5545

MULLIKEN ATOMIC CHARGES
-----------------------
   0 C :   -0.491010
   1 C :   -0.132046
   2 O :   -0.292191
   3 P :    0.708765
   4 S :   -0.476823
   5 O :   -0.307033
   6 C :   -0.156449
   7 C :   -0.441207
   8 S :   -0.118596
   9 C :   -0.234676
  10 S :   -0.131405
  11 P :    0.726429
  12 S :   -0.455689
  13 O :   -0.288895
  14 C :   -0.162167
  15 C :   -0.440632
  16 O :   -0.289614
  17 C :   -0.154868
  18 C :   -0.456227
  19 H :    0.183304
  20 H :    0.146264
  21 H :    0.153293
  22 H :    0.171274
  23 H :    0.152271
  24 H :    0.145821
  25 H :    0.173201
  26 H :    0.146935
  27 H :    0.167291
  28 H :    0.157112
  29 H :    0.221126
  30 H :    0.185809
  31 H :    0.149729
  32 H :    0.173299
  33 H :    0.146789
  34 H :    0.154676
  35 H :    0.154031
  36 H :    0.186809
  37 H :    0.150386
  38 H :    0.173205
  39 H :    0.145179
  40 H :    0.156530
Sum of atomic charges:   -0.0000000

LOEWDIN ATOMIC CHARGES
----------------------
   0 C :   -0.396949
   1 C :    0.018626
   2 O :   -0.690818
   3 P :    0.374092
   4 S :   -0.130084
   5 O :   -0.670015
   6 C :    0.017618
   7 C :   -0.407026
   8 S :    0.186496
   9 C :   -0.413058
  10 S :    0.159162
  11 P :    0.370881
  12 S :   -0.090235
  13 O :   -0.665674
  14 C :    0.019319
  15 C :   -0.386127
  16 O :   -0.665110
  17 C :    0.022835
  18 C :   -0.404678
  19 H :    0.167426
  20 H :    0.159934
  21 H :    0.156408
  22 H :    0.183160
  23 H :    0.172826
  24 H :    0.178449
  25 H :    0.179654
  26 H :    0.158205
  27 H :    0.162363
  28 H :    0.161058
  29 H :    0.200536
  30 H :    0.178416
  31 H :    0.171256
  32 H :    0.181269
  33 H :    0.159789
  34 H :    0.159922
  35 H :    0.159903
  36 H :    0.192226
  37 H :    0.181262
  38 H :    0.166463
  39 H :    0.158984
  40 H :    0.161237

  Mayer bond orders larger than 0.100000
B(  0-C ,  1-C ) :   0.9397 B(  0-C , 19-H ) :   0.9663 B(  0-C , 20-H ) :   0.9597
B(  0-C , 21-H ) :   0.9738 B(  1-C ,  2-O ) :   0.7910 B(  1-C , 22-H ) :   0.9532
B(  1-C , 23-H ) :   0.9446 B(  2-O ,  3-P ) :   1.1795 B(  3-P ,  4-S ) :   1.7197
B(  3-P ,  5-O ) :   1.0426 B(  3-P ,  8-S ) :   1.1244 B(  5-O ,  6-C ) :   0.8265
B(  6-C ,  7-C ) :   0.9201 B(  6-C , 24-H ) :   0.9585 B(  6-C , 25-H ) :   0.9678
B(  7-C , 26-H ) :   0.9603 B(  7-C , 27-H ) :   0.9667 B(  7-C , 28-H ) :   0.9667
B(  8-S ,  9-C ) :   0.8913 B(  9-C , 10-S ) :   0.9334 B(  9-C , 29-H ) :   0.9014
B(  9-C , 30-H ) :   0.9144 B( 10-S , 11-P ) :   1.0693 B( 11-P , 12-S ) :   1.7312
B( 11-P , 13-O ) :   1.0804 B( 11-P , 16-O ) :   1.1865 B( 13-O , 14-C ) :   0.7829
B( 14-C , 15-C ) :   0.9565 B( 14-C , 31-H ) :   0.9470 B( 14-C , 32-H ) :   0.9508
B( 15-C , 33-H ) :   0.9646 B( 15-C , 34-H ) :   0.9713 B( 15-C , 35-H ) :   0.9717
B( 16-O , 17-C ) :   0.8028 B( 17-C , 18-C ) :   0.9076 B( 17-C , 36-H ) :   0.9588
B( 17-C , 37-H ) :   0.9609 B( 18-C , 38-H ) :   0.9621 B( 18-C , 39-H ) :   0.9609
B( 18-C , 40-H ) :   0.9688

Dispersion correction           -0.022053090
FINAL SINGLE POINT ENERGY     -2932.460468129233

DIPOLE MOMENT
-------------

Method             : SCF
Type of density    : Electron Density
Multiplicity       :   1
Irrep              :   0
Energy             : -2932.4850529842024116 Eh
Relativity type    :
Basis              : AO
                                X                 Y                 Z
Electronic contribution:      3.197754052      -0.784262122      14.457103834
Nuclear contribution   :     -3.367906072       0.167693753     -14.949012829
                        -----------------------------------------
Total Dipole Moment    :     -0.170152020      -0.616568369      -0.491908995
                        -----------------------------------------
Magnitude (a.u.)       :      0.806896972
Magnitude (Debye)      :      2.050969109

Rotational constants in cm-1:             0.012718             0.005348             0.004684
Rotational constants in MHz :           381.262516           160.339820           140.421588

                             ****ORCA TERMINATED NORMALLY****
TOTAL RUN TIME: 0 days 0 hours 1 minutes 21 seconds 61 msec
