                         Program Version 6.0.0  -   RELEASE  -
|  1> ! r2scan-3c def2/J RI DEFGRID2 scfconv6 printgap
|  2> %output
|  3>     printlevel normal
|  4> end
|  5> %cpcm
|  6>     smd true
|  7>     smdsolvent "water"
|  8> end
|  9> * xyz 0 1
| 10> C 1.465265842 0.1338395328 -3.6253103711
| 11> C 2.3534942717 0.0622726349 -2.401383472
| 12> O 1.6073865046 -0.565927354 -1.3302784576
| 13> P 2.1398175697 -0.4602851654 0.1594817696
| 14> S 2.6532409865 1.3163078112 0.8224754266
| 15> O 3.3646293403 -1.4775960623 0.083063361
| 16> C 4.3998089903 -1.517509571 1.0799766381
| 17> C 3.8811709491 -1.9843375593 2.4246162456
| 18> S 0.6294356693 -1.5102008803 1.1860101357
| 19> C -0.0491881339 -0.1632522322 2.2173413869
| 20> S -1.8475735549 -0.0028065011 2.0806975095
| 21> P -1.9857430599 0.4077983157 0.0198035725
| 22> S -0.6473191235 1.6367864125 -0.7329598265
| 23> O -3.4864592466 0.8956838567 -0.1455692754
| 24> C -3.8983736769 2.2354099133 0.1908965433
| 25> C -5.2026853159 2.5162648905 -0.5278023125
| 26> O -2.0582974239 -1.0543695815 -0.5704091413
| 27> C -1.734763255 -1.3805356376 -1.9380866539
| 28> C -2.6657663144 -0.6946790455 -2.9144927261
| 29> H 0.5866615121 0.7362638157 -3.4080142048
| 30> H 2.019840107 0.596083485 -4.4354166066
| 31> H 1.1542632603 -0.8634384901 -3.9229763393
| 32> H 2.6509838894 1.063516631 -2.070605307
| 33> H 3.2480193363 -0.5382776356 -2.584260807
| 34> H 5.1336243646 -2.2103965906 0.6663838328
| 35> H 4.8347394601 -0.5164420541 1.1633519533
| 36> H 4.7160602214 -2.1153710149 3.1053780103
| 37> H 3.2033046034 -1.2379696941 2.8371712042
| 38> H 3.3475166402 -2.9254443559 2.3189876469
| 39> H 0.4359269543 0.7733926554 1.9275339264
| 40> H 0.1430724777 -0.3965756131 3.2614983915
| 41> H -4.0197425181 2.2910646235 1.2758654447
| 42> H -3.1106622788 2.9314488474 -0.1175802934
| 43> H -5.5494410489 3.5088805927 -0.260129696
| 44> H -5.0578214494 2.4650984479 -1.6031930623
| 45> H -5.9487241105 1.7826247201 -0.2370064391
| 46> H -0.6937863549 -1.0990922059 -2.1206854645
| 47> H -1.8340229297 -2.4663853141 -1.9712444466
| 48> H -2.5347314908 0.3853611307 -2.8500512157
| 49> H -2.4359282267 -1.0196745619 -3.924417236
| 50> H -3.69892573 -0.9367117291 -2.6794877487
| 51> *
| 52>
| 53>                          ****END OF INPUT****

CARTESIAN COORDINATES (ANGSTROEM)
---------------------------------
  C      1.465266    0.133840   -3.625310
  C      2.353494    0.062273   -2.401383
  O      1.607387   -0.565927   -1.330278
  P      2.139818   -0.460285    0.159482
  S      2.653241    1.316308    0.822475
  O      3.364629   -1.477596    0.083063
  C      4.399809   -1.517510    1.079977
  C      3.881171   -1.984338    2.424616
  S      0.629436   -1.510201    1.186010
  C     -0.049188   -0.163252    2.217341
  S     -1.847574   -0.002807    2.080698
  P     -1.985743    0.407798    0.019804
  S     -0.647319    1.636786   -0.732960
  O     -3.486459    0.895684   -0.145569
  C     -3.898374    2.235410    0.190897
  C     -5.202685    2.516265   -0.527802
  O     -2.058297   -1.054370   -0.570409
  C     -1.734763   -1.380536   -1.938087
  C     -2.665766   -0.694679   -2.914493
  H      0.586662    0.736264   -3.408014
  H      2.019840    0.596083   -4.435417
  H      1.154263   -0.863438   -3.922976
  H      2.650984    1.063517   -2.070605
  H      3.248019   -0.538278   -2.584261
  H      5.133624   -2.210397    0.666384
  H      4.834739   -0.516442    1.163352
  H      4.716060   -2.115371    3.105378
  H      3.203305   -1.237970    2.837171
  H      3.347517   -2.925444    2.318988
  H      0.435927    0.773393    1.927534
  H      0.143072   -0.396576    3.261498
  H     -4.019743    2.291065    1.275865
  H     -3.110662    2.931449   -0.117580
  H     -5.549441    3.508881   -0.260130
  H     -5.057821    2.465098   -1.603193
  H     -5.948724    1.782625   -0.237006
  H     -0.693786   -1.099092   -2.120685
  H     -1.834023   -2.466385   -1.971244
  H     -2.534731    0.385361   -2.850051
  H     -2.435928   -1.019675   -3.924417
  H     -3.698926   -0.936712   -2.679488

 Total Charge           Charge          ....    0
 Multiplicity           Mult            ....    1
 Number of Electrons    NEL             ....  202
 Basis Dimension        Dim             ....  539

ORBITAL ENERGIES
----------------

  NO   OCC          E(Eh)            E(eV)
   0   2.0000     -88.580413     -2410.3956
   1   2.0000     -88.579748     -2410.3775
   2   2.0000     -88.525401     -2408.8986
   3   2.0000     -88.521490     -2408.7922
   4   2.0000     -76.916781     -2093.0120
   5   2.0000     -76.916328     -2092.9997
   6   2.0000     -18.993497      -516.8393
   7   2.0000     -18.991262      -516.7785
   8   2.0000     -18.990778      -516.7653
   9   2.0000     -18.987662      -516.6805
  10   2.0000     -10.105467      -274.9837
  11   2.0000     -10.089256      -274.5426
  12   2.0000     -10.087591      -274.4973
  13   2.0000     -10.087427      -274.4928
  14   2.0000     -10.087161      -274.4856
  15   2.0000     -10.019342      -272.6402
  16   2.0000     -10.017969      -272.6028
  17   2.0000     -10.017738      -272.5965
  18   2.0000     -10.017353      -272.5860
  19   2.0000      -7.874871      -214.2861
  20   2.0000      -7.874113      -214.2655
  21   2.0000      -7.820487      -212.8063
  22   2.0000      -7.816498      -212.6977
  23   2.0000      -6.595284      -179.4668
  24   2.0000      -6.594937      -179.4573
  25   2.0000      -5.821786      -158.4189
  26   2.0000      -5.820989      -158.3972
  27   2.0000      -5.818543      -158.3306
  28   2.0000      -5.818080      -158.3180
  29   2.0000      -5.812113      -158.1556
  30   2.0000      -5.811106      -158.1282
  31   2.0000      -5.768037      -156.9563
  32   2.0000      -5.764139      -156.8502
  33   2.0000      -5.761003      -156.7649
  34   2.0000      -5.760281      -156.7452
  35   2.0000      -5.756786      -156.6501
  36   2.0000      -5.756468      -156.6414
  37   2.0000      -4.740594      -128.9981
  38   2.0000      -4.740311      -128.9904
  39   2.0000      -4.740295      -128.9900
  40   2.0000      -4.739727      -128.9745
  41   2.0000      -4.739121      -128.9580
  42   2.0000      -4.738944      -128.9532
  43   2.0000      -1.051710       -28.6185
  44   2.0000      -1.048837       -28.5403
  45   2.0000      -1.011985       -27.5375
  46   2.0000      -1.006615       -27.3914
  47   2.0000      -0.801993       -21.8233
  48   2.0000      -0.755998       -20.5717
  49   2.0000      -0.743263       -20.2252
  50   2.0000      -0.723851       -19.6970
  51   2.0000      -0.721558       -19.6346
  52   2.0000      -0.709541       -19.3076
  53   2.0000      -0.687279       -18.7018
  54   2.0000      -0.669913       -18.2293
  55   2.0000      -0.629946       -17.1417
  56   2.0000      -0.619367       -16.8538
  57   2.0000      -0.597982       -16.2719
  58   2.0000      -0.592287       -16.1170
  59   2.0000      -0.586454       -15.9582
  60   2.0000      -0.526582       -14.3290
  61   2.0000      -0.520033       -14.1508
  62   2.0000      -0.491426       -13.3724
  63   2.0000      -0.486134       -13.2284
  64   2.0000      -0.465199       -12.6587
  65   2.0000      -0.462317       -12.5803
  66   2.0000      -0.454631       -12.3711
  67   2.0000      -0.446690       -12.1551
  68   2.0000      -0.441619       -12.0171
  69   2.0000      -0.436429       -11.8758
  70   2.0000      -0.422266       -11.4904
  71   2.0000      -0.412454       -11.2235
  72   2.0000      -0.406982       -11.0746
  73   2.0000      -0.400866       -10.9081
  74   2.0000      -0.392472       -10.6797
  75   2.0000      -0.383993       -10.4490
  76   2.0000      -0.382387       -10.4053
  77   2.0000      -0.362009        -9.8508
  78   2.0000      -0.360721        -9.8157
  79   2.0000      -0.356287        -9.6951
  80   2.0000      -0.351949        -9.5770
  81   2.0000      -0.350373        -9.5341
  82   2.0000      -0.349554        -9.5118
  83   2.0000      -0.344501        -9.3743
  84   2.0000      -0.341805        -9.3010
  85   2.0000      -0.325079        -8.8459
  86   2.0000      -0.322690        -8.7808
  87   2.0000      -0.311834        -8.4854
  88   2.0000      -0.307908        -8.3786
  89   2.0000      -0.303909        -8.2698
  90   2.0000      -0.297414        -8.0930
  91   2.0000      -0.287708        -7.8289
  92   2.0000      -0.282346        -7.6830
  93   2.0000      -0.279386        -7.6025
  94   2.0000      -0.274856        -7.4792
  95   2.0000      -0.250276        -6.8104
  96   2.0000      -0.239888        -6.5277
  97   2.0000      -0.234464        -6.3801
  98   2.0000      -0.222854        -6.0642
  99   2.0000      -0.215330        -5.8594
 100   2.0000      -0.208311        -5.6684
 101   0.0000      -0.048182        -1.3111
 102   0.0000      -0.041335        -1.1248
 103   0.0000      -0.009314        -0.2534
 104   0.0000       0.009473         0.2578
 105   0.0000       0.016623         0.4523

MULLIKEN ATOMIC CHARGES
-----------------------
   0 C :   -0.510160
   1 C :   -0.136088
   2 O :   -0.313487
   3 P :    0.751729
   4 S :   -0.532876
   5 O :   -0.334835
   6 C :   -0.156744
   7 C :   -0.475258
   8 S :   -0.130791
   9 C :   -0.232348
  10 S :   -0.145773
  11 P :    0.742271
  12 S :   -0.496051
  13 O :   -0.315238
  14 C :   -0.154410
  15 C :   -0.482181
  16 O :   -0.318213
  17 C :   -0.144981
  18 C :   -0.494772
  19 H :    0.173993
  20 H :    0.168704
  21 H :    0.170420
  22 H :    0.171787
  23 H :    0.172676
  24 H :    0.172494
  25 H :    0.176382
  26 H :    0.171442
  27 H :    0.169619
  28 H :    0.166818
  29 H :    0.216517
  30 H :    0.229697
  31 H :    0.170549
  32 H :    0.173075
  33 H :    0.169225
  34 H :    0.165975
  35 H :    0.165702
  36 H :    0.187357
  37 H :    0.175873
  38 H :    0.170760
  39 H :    0.172104
  40 H :    0.169036
Sum of atomic charges:    0.0000000

LOEWDIN ATOMIC CHARGES
----------------------
   0 C :   -0.397262
   1 C :    0.022268
   2 O :   -0.700020
   3 P :    0.380245
   4 S :   -0.164940
   5 O :   -0.681482
   6 C :    0.022323
   7 C :   -0.409637
   8 S :    0.182236
   9 C :   -0.405798
  10 S :    0.153199
  11 P :    0.371593
  12 S :   -0.113753
  13 O :   -0.680339
  14 C :    0.023244
  15 C :   -0.389647
  16 O :   -0.683101
  17 C :    0.026587
  18 C :   -0.406017
  19 H :    0.163769
  20 H :    0.167994
  21 H :    0.162855
  22 H :    0.182744
  23 H :    0.180944
  24 H :    0.189577
  25 H :    0.180644
  26 H :    0.167164
  27 H :    0.160843
  28 H :    0.163359
  29 H :    0.198575
  30 H :    0.195490
  31 H :    0.179381
  32 H :    0.181460
  33 H :    0.168638
  34 H :    0.162469
  35 H :    0.163100
  36 H :    0.192884
  37 H :    0.191332
  38 H :    0.163712
  39 H :    0.169295
  40 H :    0.164073

  Mayer bond orders larger than 0.100000
B(  0-C ,  1-C ) :   0.9413 B(  0-C , 19-H ) :   0.9678 B(  0-C , 20-H ) :   0.9555
B(  0-C , 21-H ) :   0.9682 B(  1-C ,  2-O ) :   0.7786 B(  1-C , 22-H ) :   0.9518
B(  1-C , 23-H ) :   0.9358 B(  2-O ,  3-P ) :   1.1885 B(  3-P ,  4-S ) :   1.6678
B(  3-P ,  5-O ) :   1.0521 B(  3-P ,  8-S ) :   1.1371 B(  5-O ,  6-C ) :   0.8144
B(  6-C ,  7-C ) :   0.9093 B(  6-C , 24-H ) :   0.9489 B(  6-C , 25-H ) :   0.9656
B(  7-C , 26-H ) :   0.9550 B(  7-C , 27-H ) :   0.9654 B(  7-C , 28-H ) :   0.9650
B(  8-S ,  9-C ) :   0.8855 B(  9-C , 10-S ) :   0.9243 B(  9-C , 29-H ) :   0.9057
B(  9-C , 30-H ) :   0.8989 B( 10-S , 11-P ) :   1.0878 B( 11-P , 12-S ) :   1.7077
B( 11-P , 13-O ) :   1.0826 B( 11-P , 16-O ) :   1.1847 B( 13-O , 14-C ) :   0.7757
B( 14-C , 15-C ) :   0.9529 B( 14-C , 31-H ) :   0.9381 B( 14-C , 32-H ) :   0.9474
B( 15-C , 33-H ) :   0.9585 B( 15-C , 34-H ) :   0.9687 B( 15-C , 35-H ) :   0.9692
B( 16-O , 17-C ) :   0.7916 B( 17-C , 18-C ) :   0.9027 B( 17-C , 36-H ) :   0.9533
B( 17-C , 37-H ) :   0.9503 B( 18-C , 38-H ) :   0.9610 B( 18-C , 39-H ) :   0.9544
B( 18-C , 40-H ) :   0.9684

Dispersion correction           -0.022053090
FINAL SINGLE POINT ENERGY     -2932.468050314368

DIPOLE MOMENT
-------------

Method             : SCF
Type of density    : Electron Density
Multiplicity       :   1
Irrep              :   0
Energy             : -2932.4926351693375182 Eh
Relativity type    :
Basis              : AO
                                X                 Y                 Z
Electronic contribution:      3.280659451      -1.043395595      14.394989749
Nuclear contribution   :     -3.367906072       0.167693753     -14.949012829
                        -----------------------------------------
Total Dipole Moment    :     -0.087246621      -0.875701842      -0.554023080
                        -----------------------------------------
Magnitude (a.u.)       :      1.039907333
Magnitude (Debye)      :      2.643234380

Rotational constants in cm-1:             0.012718             0.005348             0.004684
Rotational constants in MHz :           381.262516           160.339820           140.421588

                             ****ORCA TERMINATED NORMALLY****
TOTAL RUN TIME: 0 days 0 hours 1 minutes 50 seconds 901 msec
