                         Program Version 6.0.0  -   RELEASE  -
|  1> ! pbe def2-sv(p) def2/J RI DEFGRID1 loosescf d4 GCP(DFT/SV(P)) printgap
|  2> %output
|  3>     printlevel normal
|  4> end
|  5> * xyz 0 1
|  6> C 3.5050903926 -0.6779864218 -2.998572984
|  7> C 4.2483980272 -0.7229104804 -1.6808484624
|  8> O 3.6463282987 0.1066774509 -0.6670718279
|  9> P 2.1129204876 0.084647888 -0.2585007201
| 10> S 0.8866402129 1.0729669162 -1.4207290521
| 11> O 2.1225810354 0.7504526346 1.1668901711
| 12> C 2.9661818606 0.3258484144 2.2654430776
| 13> C 4.1890487035 1.213603148 2.3689869518
| 14> S 1.7873319832 -2.0024093123 0.0447473591
| 15> C 0.1116101986 -1.9763664464 0.7219918967
| 16> S -1.172044276 -1.5677781118 -0.5055964777
| 17> P -1.9309833859 0.1821363862 0.3821711487
| 18> S -1.0228249718 0.9461323973 1.9343283383
| 19> O -3.3777900182 -0.4183276662 0.7258096866
| 20> C -4.3343940807 0.3919339085 1.4397737637
| 21> C -5.6727871884 -0.3148860157 1.3827050572
| 22> O -2.1719759537 1.2698878629 -0.7420331678
| 23> C -2.6808212127 0.9368317708 -2.0585963853
| 24> C -3.9290923323 1.749005852 -2.3352915076
| 25> H 2.5056611566 -1.0951766539 -2.8805669602
| 26> H 3.407994248 0.3483267659 -3.3451360093
| 27> H 4.0466011714 -1.2593449843 -3.7377551362
| 28> H 5.2568573303 -0.316978216 -1.7779307603
| 29> H 4.2925404019 -1.7454723626 -1.2964400705
| 30> H 2.3279381056 0.4193283388 3.1469664064
| 31> H 3.2471998266 -0.7206583102 2.1163949165
| 32> H 3.8850706586 2.2504146057 2.4846310693
| 33> H 4.7740374839 0.9120335653 3.2321387446
| 34> H 4.7954628922 1.1248884188 1.4714543722
| 35> H 0.0518066038 -1.2513903436 1.5388631552
| 36> H -0.0750346884 -2.9879801931 1.0728998818
| 37> H -3.9798400746 0.5065008848 2.4686871243
| 38> H -4.3774800886 1.383517069 0.9762102463
| 39> H -6.4075732432 0.2692661551 1.9270073473
| 40> H -5.9936831503 -0.4289116399 0.3510655215
| 41> H -5.5877607122 -1.2993935172 1.8328969866
| 42> H -1.8736746783 1.1819336642 -2.7529875785
| 43> H -2.884605798 -0.1375256353 -2.1045221583
| 44> H -3.714815709 2.8073283312 -2.2143334207
| 45> H -4.2511703238 1.5623049136 -3.3546456016
| 46> H -4.726538409 1.4688463552 -1.651370522
| 47> *
| 48>
| 49>                          ****END OF INPUT****

CARTESIAN COORDINATES (ANGSTROEM)
---------------------------------
  C      3.505090   -0.677986   -2.998573
  C      4.248398   -0.722910   -1.680848
  O      3.646328    0.106677   -0.667072
  P      2.112920    0.084648   -0.258501
  S      0.886640    1.072967   -1.420729
  O      2.122581    0.750453    1.166890
  C      2.966182    0.325848    2.265443
  C      4.189049    1.213603    2.368987
  S      1.787332   -2.002409    0.044747
  C      0.111610   -1.976366    0.721992
  S     -1.172044   -1.567778   -0.505596
  P     -1.930983    0.182136    0.382171
  S     -1.022825    0.946132    1.934328
  O     -3.377790   -0.418328    0.725810
  C     -4.334394    0.391934    1.439774
  C     -5.672787   -0.314886    1.382705
  O     -2.171976    1.269888   -0.742033
  C     -2.680821    0.936832   -2.058596
  C     -3.929092    1.749006   -2.335292
  H      2.505661   -1.095177   -2.880567
  H      3.407994    0.348327   -3.345136
  H      4.046601   -1.259345   -3.737755
  H      5.256857   -0.316978   -1.777931
  H      4.292540   -1.745472   -1.296440
  H      2.327938    0.419328    3.146966
  H      3.247200   -0.720658    2.116395
  H      3.885071    2.250415    2.484631
  H      4.774037    0.912034    3.232139
  H      4.795463    1.124888    1.471454
  H      0.051807   -1.251390    1.538863
  H     -0.075035   -2.987980    1.072900
  H     -3.979840    0.506501    2.468687
  H     -4.377480    1.383517    0.976210
  H     -6.407573    0.269266    1.927007
  H     -5.993683   -0.428912    0.351066
  H     -5.587761   -1.299394    1.832897
  H     -1.873675    1.181934   -2.752988
  H     -2.884606   -0.137526   -2.104522
  H     -3.714816    2.807328   -2.214333
  H     -4.251170    1.562305   -3.354646
  H     -4.726538    1.468846   -1.651371

 Total Charge           Charge          ....    0
 Multiplicity           Mult            ....    1
 Number of Electrons    NEL             ....  202
 Basis Dimension        Dim             ....  334

ORBITAL ENERGIES
----------------

  NO   OCC          E(Eh)            E(eV)
   0   2.0000     -88.042174     -2395.7493
   1   2.0000     -88.035917     -2395.5791
   2   2.0000     -87.976483     -2393.9618
   3   2.0000     -87.972150     -2393.8439
   4   2.0000     -76.419748     -2079.4871
   5   2.0000     -76.415596     -2079.3741
   6   2.0000     -18.789501      -511.2883
   7   2.0000     -18.784513      -511.1526
   8   2.0000     -18.781404      -511.0680
   9   2.0000     -18.778634      -510.9926
  10   2.0000      -9.958028      -270.9717
  11   2.0000      -9.955351      -270.8989
  12   2.0000      -9.953496      -270.8484
  13   2.0000      -9.948233      -270.7052
  14   2.0000      -9.945803      -270.6391
  15   2.0000      -9.889779      -269.1146
  16   2.0000      -9.885638      -269.0019
  17   2.0000      -9.881255      -268.8826
  18   2.0000      -9.880699      -268.8675
  19   2.0000      -7.687094      -209.1765
  20   2.0000      -7.681417      -209.0220
  21   2.0000      -7.621859      -207.4013
  22   2.0000      -7.617220      -207.2751
  23   2.0000      -6.416897      -174.6126
  24   2.0000      -6.413789      -174.5281
  25   2.0000      -5.714710      -155.5052
  26   2.0000      -5.711486      -155.4174
  27   2.0000      -5.709336      -155.3589
  28   2.0000      -5.706205      -155.2737
  29   2.0000      -5.704479      -155.2268
  30   2.0000      -5.697954      -155.0492
  31   2.0000      -5.650897      -153.7687
  32   2.0000      -5.646379      -153.6458
  33   2.0000      -5.642918      -153.5516
  34   2.0000      -5.641345      -153.5088
  35   2.0000      -5.637632      -153.4078
  36   2.0000      -5.637335      -153.3997
  37   2.0000      -4.639857      -126.2569
  38   2.0000      -4.639088      -126.2360
  39   2.0000      -4.636658      -126.1699
  40   2.0000      -4.636647      -126.1696
  41   2.0000      -4.635270      -126.1321
  42   2.0000      -4.634194      -126.1028
  43   2.0000      -0.983020       -26.7493
  44   2.0000      -0.976780       -26.5795
  45   2.0000      -0.939728       -25.5713
  46   2.0000      -0.933953       -25.4141
  47   2.0000      -0.759434       -20.6652
  48   2.0000      -0.717770       -19.5315
  49   2.0000      -0.708455       -19.2781
  50   2.0000      -0.690021       -18.7764
  51   2.0000      -0.687797       -18.7159
  52   2.0000      -0.671055       -18.2603
  53   2.0000      -0.644825       -17.5466
  54   2.0000      -0.632059       -17.1992
  55   2.0000      -0.586105       -15.9487
  56   2.0000      -0.581534       -15.8243
  57   2.0000      -0.572569       -15.5804
  58   2.0000      -0.569480       -15.4963
  59   2.0000      -0.556653       -15.1473
  60   2.0000      -0.506838       -13.7918
  61   2.0000      -0.496884       -13.5209
  62   2.0000      -0.478422       -13.0185
  63   2.0000      -0.469768       -12.7830
  64   2.0000      -0.451004       -12.2724
  65   2.0000      -0.444115       -12.0850
  66   2.0000      -0.437769       -11.9123
  67   2.0000      -0.431809       -11.7501
  68   2.0000      -0.427065       -11.6210
  69   2.0000      -0.419667       -11.4197
  70   2.0000      -0.407343       -11.0844
  71   2.0000      -0.395425       -10.7601
  72   2.0000      -0.384261       -10.4563
  73   2.0000      -0.381493       -10.3810
  74   2.0000      -0.378629       -10.3030
  75   2.0000      -0.363234        -9.8841
  76   2.0000      -0.358367        -9.7517
  77   2.0000      -0.354674        -9.6512
  78   2.0000      -0.351700        -9.5703
  79   2.0000      -0.350211        -9.5297
  80   2.0000      -0.344953        -9.3866
  81   2.0000      -0.342150        -9.3104
  82   2.0000      -0.337670        -9.1885
  83   2.0000      -0.335716        -9.1353
  84   2.0000      -0.333633        -9.0786
  85   2.0000      -0.317328        -8.6349
  86   2.0000      -0.313330        -8.5262
  87   2.0000      -0.304593        -8.2884
  88   2.0000      -0.293374        -7.9831
  89   2.0000      -0.282742        -7.6938
  90   2.0000      -0.272192        -7.4067
  91   2.0000      -0.271838        -7.3971
  92   2.0000      -0.268517        -7.3067
  93   2.0000      -0.259889        -7.0719
  94   2.0000      -0.255908        -6.9636
  95   2.0000      -0.238739        -6.4964
  96   2.0000      -0.214427        -5.8349
  97   2.0000      -0.200419        -5.4537
  98   2.0000      -0.194021        -5.2796
  99   2.0000      -0.181441        -4.9373
 100   2.0000      -0.179951        -4.8967
 101   0.0000      -0.038648        -1.0517
 102   0.0000      -0.026719        -0.7271
 103   0.0000      -0.011338        -0.3085
 104   0.0000       0.001754         0.0477
 105   0.0000       0.028309         0.7703

MULLIKEN ATOMIC CHARGES
-----------------------
   0 C :   -0.310958
   1 C :   -0.013015
   2 O :   -0.380336
   3 P :    0.594030
   4 S :   -0.300161
   5 O :   -0.337092
   6 C :   -0.012232
   7 C :   -0.286580
   8 S :   -0.130340
   9 C :   -0.334082
  10 S :   -0.080600
  11 P :    0.600936
  12 S :   -0.304561
  13 O :   -0.385823
  14 C :   -0.022346
  15 C :   -0.278202
  16 O :   -0.359199
  17 C :   -0.023721
  18 C :   -0.290701
  19 H :    0.128666
  20 H :    0.128425
  21 H :    0.109733
  22 H :    0.109744
  23 H :    0.113896
  24 H :    0.110690
  25 H :    0.092762
  26 H :    0.122936
  27 H :    0.106219
  28 H :    0.118342
  29 H :    0.190730
  30 H :    0.183020
  31 H :    0.107220
  32 H :    0.104119
  33 H :    0.110054
  34 H :    0.111993
  35 H :    0.118664
  36 H :    0.121507
  37 H :    0.108421
  38 H :    0.126744
  39 H :    0.112787
  40 H :    0.118306
Sum of atomic charges:    0.0000000

LOEWDIN ATOMIC CHARGES
----------------------
   0 C :   -0.371504
   1 C :   -0.114771
   2 O :   -0.247076
   3 P :    0.561690
   4 S :   -0.299502
   5 O :   -0.222683
   6 C :   -0.116993
   7 C :   -0.358434
   8 S :    0.057200
   9 C :   -0.477749
  10 S :    0.083041
  11 P :    0.567159
  12 S :   -0.296479
  13 O :   -0.268266
  14 C :   -0.123362
  15 C :   -0.351301
  16 O :   -0.236584
  17 C :   -0.114860
  18 C :   -0.353251
  19 H :    0.122186
  20 H :    0.130759
  21 H :    0.129259
  22 H :    0.121369
  23 H :    0.107876
  24 H :    0.120284
  25 H :    0.099829
  26 H :    0.130161
  27 H :    0.127757
  28 H :    0.125170
  29 H :    0.121596
  30 H :    0.138031
  31 H :    0.111327
  32 H :    0.105598
  33 H :    0.129562
  34 H :    0.122565
  35 H :    0.128917
  36 H :    0.119996
  37 H :    0.104557
  38 H :    0.132188
  39 H :    0.131322
  40 H :    0.123414

  Mayer bond orders larger than 0.100000
B(  0-C ,  1-C ) :   1.1683 B(  0-C , 19-H ) :   0.9310 B(  0-C , 20-H ) :   0.9412
B(  0-C , 21-H ) :   0.9337 B(  1-C ,  2-O ) :   0.9140 B(  1-C , 22-H ) :   0.9333
B(  1-C , 23-H ) :   0.9265 B(  2-O ,  3-P ) :   1.0746 B(  3-P ,  4-S ) :   1.6724
B(  3-P ,  5-O ) :   1.1418 B(  3-P ,  8-S ) :   0.9361 B(  4-S ,  8-S ) :   0.1160
B(  5-O ,  6-C ) :   0.8974 B(  6-C ,  7-C ) :   1.1665 B(  6-C , 24-H ) :   0.9313
B(  6-C , 25-H ) :   0.9099 B(  7-C , 26-H ) :   0.9472 B(  7-C , 27-H ) :   0.9403
B(  7-C , 28-H ) :   0.9434 B(  8-S ,  9-C ) :   0.9937 B(  9-C , 10-S ) :   1.0103
B(  9-C , 29-H ) :   0.8488 B(  9-C , 30-H ) :   0.9122 B( 10-S , 11-P ) :   0.9641
B( 10-S , 12-S ) :   0.1131 B( 11-P , 12-S ) :   1.6381 B( 11-P , 13-O ) :   1.0688
B( 11-P , 16-O ) :   1.1176 B( 12-S , 29-H ) :   0.1204 B( 13-O , 14-C ) :   0.9123
B( 14-C , 15-C ) :   1.1554 B( 14-C , 31-H ) :   0.9233 B( 14-C , 32-H ) :   0.9167
B( 15-C , 33-H ) :   0.9426 B( 15-C , 34-H ) :   0.9509 B( 15-C , 35-H ) :   0.9487
B( 16-O , 17-C ) :   0.8995 B( 17-C , 18-C ) :   1.1671 B( 17-C , 36-H ) :   0.9263
B( 17-C , 37-H ) :   0.9123 B( 18-C , 38-H ) :   0.9474 B( 18-C , 39-H ) :   0.9402
B( 18-C , 40-H ) :   0.9436

Dispersion correction           -0.065763933
FINAL SINGLE POINT ENERGY     -2929.506471511472

DIPOLE MOMENT
-------------

Method             : SCF
Type of density    : Electron Density
Multiplicity       :   1
Irrep              :   0
Energy             : -2929.6251082153180505 Eh
Relativity type    :
Basis              : AO
                                X                 Y                 Z
Electronic contribution:      5.138239600      -3.490390786       2.264462558
Nuclear contribution   :     -5.127676633       2.638708613      -2.446985180
                        -----------------------------------------
Total Dipole Moment    :      0.010562967      -0.851682173      -0.182522621
                        -----------------------------------------
Magnitude (a.u.)       :      0.871084731
Magnitude (Debye)      :      2.214121426

Rotational constants in cm-1:             0.013290             0.004918             0.004486
Rotational constants in MHz :           398.437378           147.447464           134.477026

                             ****ORCA TERMINATED NORMALLY****
TOTAL RUN TIME: 0 days 0 hours 0 minutes 20 seconds 659 msec
