                         Program Version 6.0.0  -   RELEASE  -
|  1> ! wb97x-v def2-tzvp def2/J RIJCOSX DEFGRID2 scfconv7 GCP(DFT/TZ) printgap
|  2> %output
|  3>     printlevel normal
|  4> end
|  5> * xyz 0 1
|  6> C -1.0439077763240214 -2.932928444505874 -0.00010863991436868217
|  7> C -1.0166607118496147 -1.4315809642779331 -1.9475040676110554e-05
|  8> C -2.1873836197366296 -0.7057686995705736 4.6792992100152534e-05
|  9> C -2.1878543481138935 0.7042961432648572 5.4006490239570724e-05
| 10> C -1.0176190895855637 1.430895639191751 -1.4278893442012779e-05
| 11> C 0.22120333425040992 0.7180115619962042 -1.468601677572528e-05
| 12> C 0.22168233384586752 -0.7178687966208381 -6.124202065098808e-06
| 13> C 1.467284907645988 -1.3948716214124142 3.200425139137427e-05
| 14> C 2.6568938630401955 -0.7032643682857196 5.676316904070542e-05
| 15> C 2.656423842483817 0.7050478097994011 3.355151335204151e-05
| 16> C 1.4663492554467987 1.3958552996061258 -2.638934929680258e-06
| 17> C -1.0458785792006644 2.9322222354618908 -5.9811753257428505e-05
| 18> H -2.074923189318887 -3.2937596466602663 -0.00044798374783801037
| 19> H -0.5379960644125245 -3.345127353414583 -0.8806644743394904
| 20> H -0.5385402377452453 -3.3452400339111654 0.8807109182953672
| 21> H -3.138516567496313 -1.2314855190559326 6.40513419110801e-05
| 22> H -3.1393404670454887 1.2293742530453338 8.385838747485553e-05
| 23> H 1.481125739044259 -2.4793106748077434 6.008147144734691e-05
| 24> H 3.5988456120908086 -1.2430141471207437 9.99124343503783e-05
| 25> H 3.598013847375454 1.245429259537261 4.4174227823503146e-05
| 26> H 1.479453284687502 2.4803045413875604 -1.0024216480264108e-05
| 27> H -0.5409168083098355 3.3448400479318496 0.8808520823551831
| 28> H -0.5401236616498521 3.344801830369644 -0.8805268573740335
| 29> H -2.0771418594153084 3.292346861712774 -0.0005267856934765203
| 30> *
| 31>
| 32>                          ****END OF INPUT****

CARTESIAN COORDINATES (ANGSTROEM)
---------------------------------
  C     -1.043908   -2.932928   -0.000109
  C     -1.016661   -1.431581   -0.000019
  C     -2.187384   -0.705769    0.000047
  C     -2.187854    0.704296    0.000054
  C     -1.017619    1.430896   -0.000014
  C      0.221203    0.718012   -0.000015
  C      0.221682   -0.717869   -0.000006
  C      1.467285   -1.394872    0.000032
  C      2.656894   -0.703264    0.000057
  C      2.656424    0.705048    0.000034
  C      1.466349    1.395855   -0.000003
  C     -1.045879    2.932222   -0.000060
  H     -2.074923   -3.293760   -0.000448
  H     -0.537996   -3.345127   -0.880664
  H     -0.538540   -3.345240    0.880711
  H     -3.138517   -1.231486    0.000064
  H     -3.139340    1.229374    0.000084
  H      1.481126   -2.479311    0.000060
  H      3.598846   -1.243014    0.000100
  H      3.598014    1.245429    0.000044
  H      1.479453    2.480305   -0.000010
  H     -0.540917    3.344840    0.880852
  H     -0.540124    3.344802   -0.880527
  H     -2.077142    3.292347   -0.000527

 Total Charge           Charge          ....    0
 Multiplicity           Mult            ....    1
 Number of Electrons    NEL             ....   84
 Basis Dimension        Dim             ....  444

ORBITAL ENERGIES
----------------

  NO   OCC          E(Eh)            E(eV)
   0   2.0000     -12.059128      -328.1455
   1   2.0000     -12.058406      -328.1259
   2   2.0000     -12.057134      -328.0913
   3   2.0000     -12.056296      -328.0685
   4   2.0000     -12.051951      -327.9502
   5   2.0000     -12.051100      -327.9271
   6   2.0000     -12.049623      -327.8869
   7   2.0000     -12.048655      -327.8606
   8   2.0000     -12.045924      -327.7862
   9   2.0000     -12.044156      -327.7382
  10   2.0000     -12.043354      -327.7163
  11   2.0000     -12.043168      -327.7113
  12   2.0000      -1.400616       -38.1127
  13   2.0000      -1.349320       -36.7169
  14   2.0000      -1.320094       -35.9216
  15   2.0000      -1.266258       -34.4566
  16   2.0000      -1.260929       -34.3116
  17   2.0000      -1.222546       -33.2672
  18   2.0000      -1.163388       -31.6574
  19   2.0000      -1.122625       -30.5482
  20   2.0000      -1.122406       -30.5422
  21   2.0000      -1.056030       -28.7360
  22   2.0000      -0.996123       -27.1059
  23   2.0000      -0.981203       -26.6999
  24   2.0000      -0.961736       -26.1702
  25   2.0000      -0.914296       -24.8793
  26   2.0000      -0.899320       -24.4717
  27   2.0000      -0.892172       -24.2772
  28   2.0000      -0.875061       -23.8116
  29   2.0000      -0.857633       -23.3374
  30   2.0000      -0.842719       -22.9315
  31   2.0000      -0.835360       -22.7313
  32   2.0000      -0.833319       -22.6758
  33   2.0000      -0.831760       -22.6333
  34   2.0000      -0.814883       -22.1741
  35   2.0000      -0.799826       -21.7644
  36   2.0000      -0.797934       -21.7129
  37   2.0000      -0.780521       -21.2391
  38   2.0000      -0.719106       -19.5679
  39   2.0000      -0.670044       -18.2328
  40   2.0000      -0.625551       -17.0221
  41   2.0000      -0.591304       -16.0902
  42   0.0000      -0.281370        -7.6565
  43   0.0000      -0.253719        -6.9041
  44   0.0000      -0.196456        -5.3458
  45   0.0000      -0.127913        -3.4807
  46   0.0000      -0.053164        -1.4467

MULLIKEN ATOMIC CHARGES
-----------------------
   0 C :   -0.384622
   1 C :    0.077456
   2 C :   -0.174723
   3 C :   -0.174930
   4 C :    0.077398
   5 C :    0.111921
   6 C :    0.111989
   7 C :   -0.227627
   8 C :   -0.128347
   9 C :   -0.127927
  10 C :   -0.226776
  11 C :   -0.385113
  12 H :    0.117945
  13 H :    0.129339
  14 H :    0.129326
  15 H :    0.105402
  16 H :    0.105347
  17 H :    0.128060
  18 H :    0.115441
  19 H :    0.115563
  20 H :    0.128136
  21 H :    0.129368
  22 H :    0.129343
  23 H :    0.118033
Sum of atomic charges:   -0.0000000

LOEWDIN ATOMIC CHARGES
----------------------
   0 C :   -0.252461
   1 C :   -0.134492
   2 C :   -0.119597
   3 C :   -0.119600
   4 C :   -0.134489
   5 C :   -0.062299
   6 C :   -0.062300
   7 C :   -0.100641
   8 C :   -0.141404
   9 C :   -0.141401
  10 C :   -0.100641
  11 C :   -0.252466
  12 H :    0.125465
  13 H :    0.126788
  14 H :    0.126789
  15 H :    0.143046
  16 H :    0.143047
  17 H :    0.147374
  18 H :    0.141432
  19 H :    0.141431
  20 H :    0.147374
  21 H :    0.126792
  22 H :    0.126786
  23 H :    0.125467

  Mayer bond orders larger than 0.100000
B(  0-C ,  1-C ) :   0.9203 B(  0-C , 12-H ) :   0.9885 B(  0-C , 13-H ) :   0.9820
B(  0-C , 14-H ) :   0.9819 B(  1-C ,  2-C ) :   1.5781 B(  1-C ,  6-C ) :   1.1787
B(  2-C ,  3-C ) :   1.2593 B(  2-C , 15-H ) :   0.9754 B(  3-C ,  4-C ) :   1.5779
B(  3-C , 16-H ) :   0.9755 B(  4-C ,  5-C ) :   1.1781 B(  4-C , 11-C ) :   0.9200
B(  5-C ,  6-C ) :   1.2917 B(  5-C , 10-C ) :   1.2237 B(  6-C ,  7-C ) :   1.2227
B(  7-C ,  8-C ) :   1.5854 B(  7-C , 17-H ) :   0.9681 B(  8-C ,  9-C ) :   1.2901
B(  8-C , 18-H ) :   0.9766 B(  9-C , 10-C ) :   1.5864 B(  9-C , 19-H ) :   0.9761
B( 10-C , 20-H ) :   0.9676 B( 11-C , 21-H ) :   0.9820 B( 11-C , 22-H ) :   0.9821
B( 11-C , 23-H ) :   0.9884

FINAL SINGLE POINT ENERGY      -464.539768886149

DIPOLE MOMENT
-------------

Method             : SCF
Type of density    : Electron Density
Multiplicity       :   1
Irrep              :   0
Energy             :  -464.5532943703487945 Eh
Relativity type    :
Basis              : AO
                                X                 Y                 Z
Electronic contribution:      2.250336256       0.000763197       0.000236453
Nuclear contribution   :     -2.268223043      -0.000767192      -0.000223751
                        -----------------------------------------
Total Dipole Moment    :     -0.017886786      -0.000003995       0.000012703
                        -----------------------------------------
Magnitude (a.u.)       :      0.017886791
Magnitude (Debye)      :      0.045464610

Rotational constants in cm-1:             0.039435             0.037310             0.019309
Rotational constants in MHz :          1182.240908          1118.537218           578.871150

                             ****ORCA TERMINATED NORMALLY****
TOTAL RUN TIME: 0 days 0 hours 5 minutes 59 seconds 56 msec
