                         Program Version 6.0.0  -   RELEASE  -
|  1> ! wb97x-v def2-tzvp def2/J RIJCOSX DEFGRID2 scfconv7 GCP(DFT/TZ) printgap
|  2> %output
|  3>     printlevel normal
|  4> end
|  5> %cpcm
|  6>     smd true
|  7>     smdsolvent "water"
|  8> end
|  9> * xyz 0 1
| 10> C -1.0439077763240214 -2.932928444505874 -0.00010863991436868217
| 11> C -1.0166607118496147 -1.4315809642779331 -1.9475040676110554e-05
| 12> C -2.1873836197366296 -0.7057686995705736 4.6792992100152534e-05
| 13> C -2.1878543481138935 0.7042961432648572 5.4006490239570724e-05
| 14> C -1.0176190895855637 1.430895639191751 -1.4278893442012779e-05
| 15> C 0.22120333425040992 0.7180115619962042 -1.468601677572528e-05
| 16> C 0.22168233384586752 -0.7178687966208381 -6.124202065098808e-06
| 17> C 1.467284907645988 -1.3948716214124142 3.200425139137427e-05
| 18> C 2.6568938630401955 -0.7032643682857196 5.676316904070542e-05
| 19> C 2.656423842483817 0.7050478097994011 3.355151335204151e-05
| 20> C 1.4663492554467987 1.3958552996061258 -2.638934929680258e-06
| 21> C -1.0458785792006644 2.9322222354618908 -5.9811753257428505e-05
| 22> H -2.074923189318887 -3.2937596466602663 -0.00044798374783801037
| 23> H -0.5379960644125245 -3.345127353414583 -0.8806644743394904
| 24> H -0.5385402377452453 -3.3452400339111654 0.8807109182953672
| 25> H -3.138516567496313 -1.2314855190559326 6.40513419110801e-05
| 26> H -3.1393404670454887 1.2293742530453338 8.385838747485553e-05
| 27> H 1.481125739044259 -2.4793106748077434 6.008147144734691e-05
| 28> H 3.5988456120908086 -1.2430141471207437 9.99124343503783e-05
| 29> H 3.598013847375454 1.245429259537261 4.4174227823503146e-05
| 30> H 1.479453284687502 2.4803045413875604 -1.0024216480264108e-05
| 31> H -0.5409168083098355 3.3448400479318496 0.8808520823551831
| 32> H -0.5401236616498521 3.344801830369644 -0.8805268573740335
| 33> H -2.0771418594153084 3.292346861712774 -0.0005267856934765203
| 34> *
| 35>
| 36>                          ****END OF INPUT****

CARTESIAN COORDINATES (ANGSTROEM)
---------------------------------
  C     -1.043908   -2.932928   -0.000109
  C     -1.016661   -1.431581   -0.000019
  C     -2.187384   -0.705769    0.000047
  C     -2.187854    0.704296    0.000054
  C     -1.017619    1.430896   -0.000014
  C      0.221203    0.718012   -0.000015
  C      0.221682   -0.717869   -0.000006
  C      1.467285   -1.394872    0.000032
  C      2.656894   -0.703264    0.000057
  C      2.656424    0.705048    0.000034
  C      1.466349    1.395855   -0.000003
  C     -1.045879    2.932222   -0.000060
  H     -2.074923   -3.293760   -0.000448
  H     -0.537996   -3.345127   -0.880664
  H     -0.538540   -3.345240    0.880711
  H     -3.138517   -1.231486    0.000064
  H     -3.139340    1.229374    0.000084
  H      1.481126   -2.479311    0.000060
  H      3.598846   -1.243014    0.000100
  H      3.598014    1.245429    0.000044
  H      1.479453    2.480305   -0.000010
  H     -0.540917    3.344840    0.880852
  H     -0.540124    3.344802   -0.880527
  H     -2.077142    3.292347   -0.000527

 Total Charge           Charge          ....    0
 Multiplicity           Mult            ....    1
 Number of Electrons    NEL             ....   84
 Basis Dimension        Dim             ....  444

ORBITAL ENERGIES
----------------

  NO   OCC          E(Eh)            E(eV)
   0   2.0000     -12.059845      -328.1651
   1   2.0000     -12.058538      -328.1295
   2   2.0000     -12.056597      -328.0767
   3   2.0000     -12.056314      -328.0690
   4   2.0000     -12.050261      -327.9043
   5   2.0000     -12.049545      -327.8848
   6   2.0000     -12.048083      -327.8450
   7   2.0000     -12.047038      -327.8166
   8   2.0000     -12.043881      -327.7307
   9   2.0000     -12.042003      -327.6796
  10   2.0000     -12.033590      -327.4506
  11   2.0000     -12.033532      -327.4491
  12   2.0000      -1.401497       -38.1367
  13   2.0000      -1.349253       -36.7150
  14   2.0000      -1.318665       -35.8827
  15   2.0000      -1.266494       -34.4630
  16   2.0000      -1.259765       -34.2800
  17   2.0000      -1.216551       -33.1040
  18   2.0000      -1.157634       -31.5008
  19   2.0000      -1.121631       -30.5211
  20   2.0000      -1.121475       -30.5169
  21   2.0000      -1.053814       -28.6757
  22   2.0000      -0.994229       -27.0544
  23   2.0000      -0.979704       -26.6591
  24   2.0000      -0.960082       -26.1252
  25   2.0000      -0.911852       -24.8128
  26   2.0000      -0.896704       -24.4006
  27   2.0000      -0.888142       -24.1676
  28   2.0000      -0.870105       -23.6768
  29   2.0000      -0.853806       -23.2332
  30   2.0000      -0.836698       -22.7677
  31   2.0000      -0.829701       -22.5773
  32   2.0000      -0.826930       -22.5019
  33   2.0000      -0.825491       -22.4628
  34   2.0000      -0.805624       -21.9221
  35   2.0000      -0.794656       -21.6237
  36   2.0000      -0.794326       -21.6147
  37   2.0000      -0.780523       -21.2391
  38   2.0000      -0.719852       -19.5882
  39   2.0000      -0.670928       -18.2569
  40   2.0000      -0.627749       -17.0819
  41   2.0000      -0.591790       -16.1034
  42   0.0000      -0.281667        -7.6646
  43   0.0000      -0.255527        -6.9532
  44   0.0000      -0.197372        -5.3708
  45   0.0000      -0.127810        -3.4779
  46   0.0000      -0.047779        -1.3001

MULLIKEN ATOMIC CHARGES
-----------------------
   0 C :   -0.407445
   1 C :    0.046031
   2 C :   -0.215852
   3 C :   -0.216040
   4 C :    0.045947
   5 C :    0.095144
   6 C :    0.095207
   7 C :   -0.263202
   8 C :   -0.171513
   9 C :   -0.171063
  10 C :   -0.262380
  11 C :   -0.407927
  12 H :    0.144129
  13 H :    0.145751
  14 H :    0.145730
  15 H :    0.151635
  16 H :    0.151578
  17 H :    0.169174
  18 H :    0.159993
  19 H :    0.160116
  20 H :    0.169246
  21 H :    0.145768
  22 H :    0.145758
  23 H :    0.144215
Sum of atomic charges:   -0.0000000

LOEWDIN ATOMIC CHARGES
----------------------
   0 C :   -0.253337
   1 C :   -0.143003
   2 C :   -0.128621
   3 C :   -0.128624
   4 C :   -0.143000
   5 C :   -0.075214
   6 C :   -0.075215
   7 C :   -0.106886
   8 C :   -0.149558
   9 C :   -0.149554
  10 C :   -0.106885
  11 C :   -0.253342
  12 H :    0.130804
  13 H :    0.131966
  14 H :    0.131966
  15 H :    0.153089
  16 H :    0.153089
  17 H :    0.157508
  18 H :    0.151285
  19 H :    0.151285
  20 H :    0.157508
  21 H :    0.131968
  22 H :    0.131964
  23 H :    0.130806

  Mayer bond orders larger than 0.100000
B(  0-C ,  1-C ) :   0.9445 B(  0-C , 12-H ) :   0.9819 B(  0-C , 13-H ) :   0.9744
B(  0-C , 14-H ) :   0.9743 B(  1-C ,  2-C ) :   1.5602 B(  1-C ,  6-C ) :   1.1689
B(  2-C ,  3-C ) :   1.2358 B(  2-C , 15-H ) :   0.9844 B(  3-C ,  4-C ) :   1.5600
B(  3-C , 16-H ) :   0.9845 B(  4-C ,  5-C ) :   1.1682 B(  4-C , 11-C ) :   0.9442
B(  5-C ,  6-C ) :   1.2635 B(  5-C , 10-C ) :   1.2157 B(  6-C ,  7-C ) :   1.2147
B(  7-C ,  8-C ) :   1.5607 B(  7-C , 17-H ) :   0.9757 B(  8-C ,  9-C ) :   1.2691
B(  8-C , 18-H ) :   0.9810 B(  9-C , 10-C ) :   1.5618 B(  9-C , 19-H ) :   0.9805
B( 10-C , 20-H ) :   0.9752 B( 11-C , 21-H ) :   0.9744 B( 11-C , 22-H ) :   0.9745
B( 11-C , 23-H ) :   0.9818

FINAL SINGLE POINT ENERGY      -464.542653310994

DIPOLE MOMENT
-------------

Method             : SCF
Type of density    : Electron Density
Multiplicity       :   1
Irrep              :   0
Energy             :  -464.5561787951942279 Eh
Relativity type    :
Basis              : AO
                                X                 Y                 Z
Electronic contribution:      2.264690259       0.000764166       0.000228491
Nuclear contribution   :     -2.268223043      -0.000767192      -0.000223751
                        -----------------------------------------
Total Dipole Moment    :     -0.003532783      -0.000003026       0.000004740
                        -----------------------------------------
Magnitude (a.u.)       :      0.003532788
Magnitude (Debye)      :      0.008979633

Rotational constants in cm-1:             0.039435             0.037310             0.019309
Rotational constants in MHz :          1182.240908          1118.537218           578.871150

                             ****ORCA TERMINATED NORMALLY****
TOTAL RUN TIME: 0 days 0 hours 6 minutes 8 seconds 393 msec
