                         Program Version 6.0.0  -   RELEASE  -
|  1> ! pbe def2-sv(p) def2/J RI DEFGRID1 loosescf d4 GCP(DFT/SV(P)) printgap
|  2> %output
|  3>     printlevel normal
|  4> end
|  5> * xyz 0 1
|  6> C 5.6916511763 -1.7837466419 0.4502274028
|  7> C 4.4071438177 -1.5955596648 -0.3314687509
|  8> O 3.5616107856 -0.6963673014 0.4147706843
|  9> P 2.3539639663 0.0726257673 -0.2705055786
| 10> S 2.7886012949 0.9878406197 -1.9551193925
| 11> O 1.8348382967 0.979213123 0.916184325
| 12> C 2.240673447 2.3541139492 1.0659049994
| 13> C 3.6987773809 2.4605524669 1.4585241611
| 14> S 0.8360357012 -1.3894300778 -0.3737679642
| 15> C -0.2138466834 -0.5029036504 -1.5510712054
| 16> S -0.9683024433 1.0068650863 -0.8640993837
| 17> P -2.6833824605 0.1387988976 0.0155093533
| 18> S -3.9406911884 1.3524420272 0.8970596251
| 19> O -2.1529758938 -1.0656173633 0.917740196
| 20> C -1.9958004916 -0.9435848958 2.3397877207
| 21> C -0.8888585868 0.0202120003 2.7148898075
| 22> O -3.2280043387 -0.6330886966 -1.261411078
| 23> C -4.6031290238 -1.0604408323 -1.3570221727
| 24> C -4.9279891468 -2.1535746405 -0.3608748846
| 25> H 6.3290504952 -2.4863001141 -0.0764666503
| 26> H 6.2119773937 -0.8356662665 0.5523535985
| 27> H 5.468350371 -2.1711290985 1.4399011162
| 28> H 3.8727627714 -2.5411821761 -0.4553508416
| 29> H 4.5967203545 -1.1587747776 -1.3178562924
| 30> H 2.0491028467 2.8774377865 0.12353313
| 31> H 1.5786550806 2.7408820364 1.841608817
| 32> H 3.8899871583 1.8729922283 2.3524361074
| 33> H 4.3247306479 2.0861296557 0.6491726602
| 34> H 3.9480379642 3.5002362939 1.6458846702
| 35> H -0.9939724142 -1.1854599442 -1.8727088798
| 36> H 0.3988076471 -0.1713818579 -2.3898910227
| 37> H -2.9475690196 -0.6063765606 2.7632238386
| 38> H -1.7756626911 -1.9597473833 2.6688902142
| 39> H 0.0591460339 -0.2928182877 2.2842515101
| 40> H -1.1301207325 1.0175357829 2.3448969338
| 41> H -0.795430475 0.0591628107 3.7953974026
| 42> H -5.2464625562 -0.1894521921 -1.1981228615
| 43> H -4.6956657915 -1.4075794428 -2.3869727071
| 44> H -4.2194694407 -2.9725200604 -0.4538763403
| 45> H -4.8789913188 -1.7569687744 0.6523256972
| 46> H -5.9325116709 -2.5207097078 -0.5465384925
| 47> *
| 48>
| 49>                          ****END OF INPUT****

CARTESIAN COORDINATES (ANGSTROEM)
---------------------------------
  C      5.691651   -1.783747    0.450227
  C      4.407144   -1.595560   -0.331469
  O      3.561611   -0.696367    0.414771
  P      2.353964    0.072626   -0.270506
  S      2.788601    0.987841   -1.955119
  O      1.834838    0.979213    0.916184
  C      2.240673    2.354114    1.065905
  C      3.698777    2.460552    1.458524
  S      0.836036   -1.389430   -0.373768
  C     -0.213847   -0.502904   -1.551071
  S     -0.968302    1.006865   -0.864099
  P     -2.683382    0.138799    0.015509
  S     -3.940691    1.352442    0.897060
  O     -2.152976   -1.065617    0.917740
  C     -1.995800   -0.943585    2.339788
  C     -0.888859    0.020212    2.714890
  O     -3.228004   -0.633089   -1.261411
  C     -4.603129   -1.060441   -1.357022
  C     -4.927989   -2.153575   -0.360875
  H      6.329050   -2.486300   -0.076467
  H      6.211977   -0.835666    0.552354
  H      5.468350   -2.171129    1.439901
  H      3.872763   -2.541182   -0.455351
  H      4.596720   -1.158775   -1.317856
  H      2.049103    2.877438    0.123533
  H      1.578655    2.740882    1.841609
  H      3.889987    1.872992    2.352436
  H      4.324731    2.086130    0.649173
  H      3.948038    3.500236    1.645885
  H     -0.993972   -1.185460   -1.872709
  H      0.398808   -0.171382   -2.389891
  H     -2.947569   -0.606377    2.763224
  H     -1.775663   -1.959747    2.668890
  H      0.059146   -0.292818    2.284252
  H     -1.130121    1.017536    2.344897
  H     -0.795430    0.059163    3.795397
  H     -5.246463   -0.189452   -1.198123
  H     -4.695666   -1.407579   -2.386973
  H     -4.219469   -2.972520   -0.453876
  H     -4.878991   -1.756969    0.652326
  H     -5.932512   -2.520710   -0.546538

 Total Charge           Charge          ....    0
 Multiplicity           Mult            ....    1
 Number of Electrons    NEL             ....  202
 Basis Dimension        Dim             ....  334

ORBITAL ENERGIES
----------------

  NO   OCC          E(Eh)            E(eV)
   0   2.0000     -88.044347     -2395.8085
   1   2.0000     -88.038835     -2395.6585
   2   2.0000     -87.993004     -2394.4114
   3   2.0000     -87.987780     -2394.2692
   4   2.0000     -76.430132     -2079.7696
   5   2.0000     -76.425198     -2079.6354
   6   2.0000     -18.799078      -511.5489
   7   2.0000     -18.794673      -511.4290
   8   2.0000     -18.792048      -511.3576
   9   2.0000     -18.789328      -511.2836
  10   2.0000      -9.957671      -270.9620
  11   2.0000      -9.955161      -270.8937
  12   2.0000      -9.953361      -270.8447
  13   2.0000      -9.952474      -270.8206
  14   2.0000      -9.947304      -270.6799
  15   2.0000      -9.892599      -269.1913
  16   2.0000      -9.885413      -268.9958
  17   2.0000      -9.885284      -268.9923
  18   2.0000      -9.873536      -268.6726
  19   2.0000      -7.689779      -209.2495
  20   2.0000      -7.684090      -209.0947
  21   2.0000      -7.637856      -207.8366
  22   2.0000      -7.632940      -207.7028
  23   2.0000      -6.427922      -174.9126
  24   2.0000      -6.422965      -174.7778
  25   2.0000      -5.717532      -155.5820
  26   2.0000      -5.714348      -155.4953
  27   2.0000      -5.712348      -155.4409
  28   2.0000      -5.708519      -155.3367
  29   2.0000      -5.706723      -155.2878
  30   2.0000      -5.700731      -155.1248
  31   2.0000      -5.666600      -154.1960
  32   2.0000      -5.661861      -154.0671
  33   2.0000      -5.658509      -153.9759
  34   2.0000      -5.658203      -153.9675
  35   2.0000      -5.653615      -153.8427
  36   2.0000      -5.653047      -153.8272
  37   2.0000      -4.650308      -126.5413
  38   2.0000      -4.649677      -126.5241
  39   2.0000      -4.648489      -126.4918
  40   2.0000      -4.645338      -126.4061
  41   2.0000      -4.644876      -126.3935
  42   2.0000      -4.643475      -126.3554
  43   2.0000      -0.992239       -27.0002
  44   2.0000      -0.985475       -26.8161
  45   2.0000      -0.951260       -25.8851
  46   2.0000      -0.944440       -25.6995
  47   2.0000      -0.764506       -20.8033
  48   2.0000      -0.724563       -19.7164
  49   2.0000      -0.708991       -19.2926
  50   2.0000      -0.691429       -18.8147
  51   2.0000      -0.683385       -18.5958
  52   2.0000      -0.673797       -18.3349
  53   2.0000      -0.655237       -17.8299
  54   2.0000      -0.640115       -17.4184
  55   2.0000      -0.602621       -16.3982
  56   2.0000      -0.595183       -16.1957
  57   2.0000      -0.571081       -15.5399
  58   2.0000      -0.569429       -15.4950
  59   2.0000      -0.562610       -15.3094
  60   2.0000      -0.507536       -13.8107
  61   2.0000      -0.492840       -13.4109
  62   2.0000      -0.480775       -13.0826
  63   2.0000      -0.469809       -12.7841
  64   2.0000      -0.460585       -12.5332
  65   2.0000      -0.448932       -12.2161
  66   2.0000      -0.438831       -11.9412
  67   2.0000      -0.436618       -11.8810
  68   2.0000      -0.431162       -11.7325
  69   2.0000      -0.412362       -11.2209
  70   2.0000      -0.409223       -11.1355
  71   2.0000      -0.398155       -10.8344
  72   2.0000      -0.394975       -10.7478
  73   2.0000      -0.392344       -10.6762
  74   2.0000      -0.384194       -10.4544
  75   2.0000      -0.377907       -10.2834
  76   2.0000      -0.366106        -9.9622
  77   2.0000      -0.361262        -9.8304
  78   2.0000      -0.352526        -9.5927
  79   2.0000      -0.350845        -9.5470
  80   2.0000      -0.350078        -9.5261
  81   2.0000      -0.346373        -9.4253
  82   2.0000      -0.343429        -9.3452
  83   2.0000      -0.337655        -9.1880
  84   2.0000      -0.328638        -8.9427
  85   2.0000      -0.321021        -8.7354
  86   2.0000      -0.313372        -8.5273
  87   2.0000      -0.305195        -8.3048
  88   2.0000      -0.294624        -8.0171
  89   2.0000      -0.288896        -7.8613
  90   2.0000      -0.285762        -7.7760
  91   2.0000      -0.278767        -7.5856
  92   2.0000      -0.273727        -7.4485
  93   2.0000      -0.268721        -7.3123
  94   2.0000      -0.257213        -6.9991
  95   2.0000      -0.232570        -6.3286
  96   2.0000      -0.216669        -5.8959
  97   2.0000      -0.212943        -5.7945
  98   2.0000      -0.208810        -5.6820
  99   2.0000      -0.206691        -5.6243
 100   2.0000      -0.202790        -5.5182
 101   0.0000      -0.041754        -1.1362
 102   0.0000      -0.022661        -0.6166
 103   0.0000      -0.012107        -0.3294
 104   0.0000       0.005875         0.1599
 105   0.0000       0.012296         0.3346

MULLIKEN ATOMIC CHARGES
-----------------------
   0 C :   -0.281949
   1 C :   -0.012912
   2 O :   -0.375652
   3 P :    0.613216
   4 S :   -0.333592
   5 O :   -0.353091
   6 C :   -0.004585
   7 C :   -0.308084
   8 S :   -0.077507
   9 C :   -0.374596
  10 S :   -0.056521
  11 P :    0.606953
  12 S :   -0.320947
  13 O :   -0.378404
  14 C :   -0.000623
  15 C :   -0.330446
  16 O :   -0.383653
  17 C :   -0.003086
  18 C :   -0.309061
  19 H :    0.113886
  20 H :    0.120693
  21 H :    0.118088
  22 H :    0.103958
  23 H :    0.107880
  24 H :    0.116182
  25 H :    0.111093
  26 H :    0.116424
  27 H :    0.122234
  28 H :    0.114183
  29 H :    0.193030
  30 H :    0.198272
  31 H :    0.107604
  32 H :    0.101244
  33 H :    0.140248
  34 H :    0.120588
  35 H :    0.104255
  36 H :    0.114935
  37 H :    0.105719
  38 H :    0.115723
  39 H :    0.125354
  40 H :    0.112949
Sum of atomic charges:   -0.0000000

LOEWDIN ATOMIC CHARGES
----------------------
   0 C :   -0.350174
   1 C :   -0.119838
   2 O :   -0.246485
   3 P :    0.570336
   4 S :   -0.320256
   5 O :   -0.228668
   6 C :   -0.115730
   7 C :   -0.364841
   8 S :    0.090536
   9 C :   -0.481746
  10 S :    0.094782
  11 P :    0.571794
  12 S :   -0.319052
  13 O :   -0.247802
  14 C :   -0.119966
  15 C :   -0.374283
  16 O :   -0.249422
  17 C :   -0.115393
  18 C :   -0.365545
  19 H :    0.131852
  20 H :    0.128527
  21 H :    0.127722
  22 H :    0.110865
  23 H :    0.109229
  24 H :    0.112620
  25 H :    0.121147
  26 H :    0.126206
  27 H :    0.121461
  28 H :    0.131478
  29 H :    0.135557
  30 H :    0.131319
  31 H :    0.107154
  32 H :    0.117622
  33 H :    0.120297
  34 H :    0.119035
  35 H :    0.127553
  36 H :    0.113005
  37 H :    0.118935
  38 H :    0.125890
  39 H :    0.123402
  40 H :    0.130878

  Mayer bond orders larger than 0.100000
B(  0-C ,  1-C ) :   1.1613 B(  0-C , 19-H ) :   0.9415 B(  0-C , 20-H ) :   0.9513
B(  0-C , 21-H ) :   0.9503 B(  1-C ,  2-O ) :   0.9020 B(  1-C , 22-H ) :   0.9294
B(  1-C , 23-H ) :   0.9098 B(  2-O ,  3-P ) :   1.1115 B(  3-P ,  4-S ) :   1.5975
B(  3-P ,  5-O ) :   1.1328 B(  3-P ,  8-S ) :   0.9689 B(  4-S ,  8-S ) :   0.1099
B(  5-O ,  6-C ) :   0.8992 B(  6-C ,  7-C ) :   1.1636 B(  6-C , 24-H ) :   0.9170
B(  6-C , 25-H ) :   0.9329 B(  7-C , 26-H ) :   0.9462 B(  7-C , 27-H ) :   0.9351
B(  7-C , 28-H ) :   0.9391 B(  8-S ,  9-C ) :   0.9996 B(  9-C , 10-S ) :   0.9844
B(  9-C , 29-H ) :   0.8894 B(  9-C , 30-H ) :   0.8741 B( 10-S , 11-P ) :   0.9829
B( 11-P , 12-S ) :   1.6301 B( 11-P , 13-O ) :   1.0861 B( 11-P , 16-O ) :   1.0919
B( 13-O , 14-C ) :   0.9044 B( 14-C , 15-C ) :   1.1644 B( 14-C , 31-H ) :   0.9167
B( 14-C , 32-H ) :   0.9328 B( 15-C , 33-H ) :   0.9292 B( 15-C , 34-H ) :   0.9342
B( 15-C , 35-H ) :   0.9375 B( 16-O , 17-C ) :   0.9065 B( 17-C , 18-C ) :   1.1625
B( 17-C , 36-H ) :   0.9180 B( 17-C , 37-H ) :   0.9358 B( 18-C , 38-H ) :   0.9462
B( 18-C , 39-H ) :   0.9358 B( 18-C , 40-H ) :   0.9379

Dispersion correction           -0.064306417
FINAL SINGLE POINT ENERGY     -2929.524758455678

DIPOLE MOMENT
-------------

Method             : SCF
Type of density    : Electron Density
Multiplicity       :   1
Irrep              :   0
Energy             : -2929.6463415496341440 Eh
Relativity type    :
Basis              : AO
                                X                 Y                 Z
Electronic contribution:     -9.132111650       6.630387930     -11.466887247
Nuclear contribution   :      9.818043264      -7.867325800      11.957350126
                        -----------------------------------------
Total Dipole Moment    :      0.685931615      -1.236937870       0.490462879
                        -----------------------------------------
Magnitude (a.u.)       :      1.497020812
Magnitude (Debye)      :      3.805124505

Rotational constants in cm-1:             0.014546             0.004218             0.004062
Rotational constants in MHz :           436.069392           126.462852           121.767873

                             ****ORCA TERMINATED NORMALLY****
TOTAL RUN TIME: 0 days 0 hours 0 minutes 21 seconds 873 msec
