                         Program Version 6.0.0  -   RELEASE  -
|  1> ! pbe def2-sv(p) def2/J RI DEFGRID1 loosescf d4 GCP(DFT/SV(P)) printgap
|  2> %output
|  3>     printlevel normal
|  4> end
|  5> * xyz 0 1
|  6> C 4.397687542 0.5820122894 -2.0259849437
|  7> C 4.5956104933 0.2361745322 -0.5636370431
|  8> O 3.4427193245 -0.4065224516 0.0005281616
|  9> P 2.0660313684 0.3682026524 0.2332341034
| 10> S 2.25507023 2.2221417468 0.8312161227
| 11> O 1.3302216016 -0.6371886965 1.2049459935
| 12> C 1.3354246741 -0.4653683354 2.6355759063
| 13> C 2.7014647591 -0.7456821018 3.224284924
| 14> S 0.9542712643 0.0782706185 -1.5516089542
| 15> C 0.5101648253 -1.6715421547 -1.4194691687
| 16> S -0.7845376176 -2.0455143369 -0.1857292568
| 17> P -1.9764337329 -0.3216757016 -0.3515664344
| 18> S -2.4976557555 0.2787623908 -2.1481465957
| 19> O -1.1960624033 0.7208552794 0.5596471785
| 20> C -1.4202072488 2.1390640937 0.41891488
| 21> C -2.7937584187 2.538025977 0.9110638175
| 22> O -3.1975801531 -0.6980530805 0.5915172041
| 23> C -4.2756565664 -1.5413888611 0.1361405541
| 24> C -5.4649760532 -1.3130855692 1.0469667601
| 25> H 4.126234803 -0.3032864482 -2.5951303895
| 26> H 3.6023872187 1.3207113413 -2.1287003621
| 27> H 5.3173229967 0.9981339847 -2.424620917
| 28> H 4.8056239105 1.1402674659 0.0169555796
| 29> H 5.3980139699 -0.4897084777 -0.4250411771
| 30> H 1.0139429672 0.5555332725 2.8645735217
| 31> H 0.5844273457 -1.1764215437 2.9835789273
| 32> H 2.6421095067 -0.7012413576 4.3071787982
| 33> H 3.0469549102 -1.7298823461 2.9193348915
| 34> H 3.4129420351 0.0028290369 2.8773733447
| 35> H 1.38071852 -2.2585801072 -1.1365983183
| 36> H 0.1461649269 -1.9471591497 -2.4075094242
| 37> H -0.6231827492 2.5972236974 1.0083332226
| 38> H -1.2881434403 2.4072456266 -0.6353404746
| 39> H -2.8846452054 3.6191693168 0.8792745132
| 40> H -3.5554371235 2.0974743517 0.2686938105
| 41> H -2.943071357 2.1885838254 1.9292150803
| 42> H -4.5066655213 -1.2800512374 -0.9022088198
| 43> H -3.9349330673 -2.5793448428 0.1763662744
| 44> H -6.2761049032 -1.9658247177 0.7417209733
| 45> H -5.1912941431 -1.5335946738 2.0745801277
| 46> H -5.7939352347 -0.2796638402 0.9840775362
| 47> *
| 48>
| 49>                          ****END OF INPUT****

CARTESIAN COORDINATES (ANGSTROEM)
---------------------------------
  C      4.397688    0.582012   -2.025985
  C      4.595610    0.236175   -0.563637
  O      3.442719   -0.406522    0.000528
  P      2.066031    0.368203    0.233234
  S      2.255070    2.222142    0.831216
  O      1.330222   -0.637189    1.204946
  C      1.335425   -0.465368    2.635576
  C      2.701465   -0.745682    3.224285
  S      0.954271    0.078271   -1.551609
  C      0.510165   -1.671542   -1.419469
  S     -0.784538   -2.045514   -0.185729
  P     -1.976434   -0.321676   -0.351566
  S     -2.497656    0.278762   -2.148147
  O     -1.196062    0.720855    0.559647
  C     -1.420207    2.139064    0.418915
  C     -2.793758    2.538026    0.911064
  O     -3.197580   -0.698053    0.591517
  C     -4.275657   -1.541389    0.136141
  C     -5.464976   -1.313086    1.046967
  H      4.126235   -0.303286   -2.595130
  H      3.602387    1.320711   -2.128700
  H      5.317323    0.998134   -2.424621
  H      4.805624    1.140267    0.016956
  H      5.398014   -0.489708   -0.425041
  H      1.013943    0.555533    2.864574
  H      0.584427   -1.176422    2.983579
  H      2.642110   -0.701241    4.307179
  H      3.046955   -1.729882    2.919335
  H      3.412942    0.002829    2.877373
  H      1.380719   -2.258580   -1.136598
  H      0.146165   -1.947159   -2.407509
  H     -0.623183    2.597224    1.008333
  H     -1.288143    2.407246   -0.635340
  H     -2.884645    3.619169    0.879275
  H     -3.555437    2.097474    0.268694
  H     -2.943071    2.188584    1.929215
  H     -4.506666   -1.280051   -0.902209
  H     -3.934933   -2.579345    0.176366
  H     -6.276105   -1.965825    0.741721
  H     -5.191294   -1.533595    2.074580
  H     -5.793935   -0.279664    0.984078

 Total Charge           Charge          ....    0
 Multiplicity           Mult            ....    1
 Number of Electrons    NEL             ....  202
 Basis Dimension        Dim             ....  334

ORBITAL ENERGIES
----------------

  NO   OCC          E(Eh)            E(eV)
   0   2.0000     -88.044546     -2395.8139
   1   2.0000     -88.037897     -2395.6330
   2   2.0000     -87.993233     -2394.4176
   3   2.0000     -87.980913     -2394.0823
   4   2.0000     -76.427986     -2079.7112
   5   2.0000     -76.422735     -2079.5683
   6   2.0000     -18.792970      -511.3827
   7   2.0000     -18.790688      -511.3206
   8   2.0000     -18.789993      -511.3017
   9   2.0000     -18.783772      -511.1324
  10   2.0000      -9.961744      -271.0728
  11   2.0000      -9.953301      -270.8431
  12   2.0000      -9.951301      -270.7887
  13   2.0000      -9.950472      -270.7661
  14   2.0000      -9.936834      -270.3950
  15   2.0000      -9.887165      -269.0434
  16   2.0000      -9.885260      -268.9916
  17   2.0000      -9.884156      -268.9615
  18   2.0000      -9.874885      -268.7093
  19   2.0000      -7.689078      -209.2305
  20   2.0000      -7.683322      -209.0738
  21   2.0000      -7.638195      -207.8458
  22   2.0000      -7.625941      -207.5124
  23   2.0000      -6.425592      -174.8492
  24   2.0000      -6.419915      -174.6948
  25   2.0000      -5.717441      -155.5795
  26   2.0000      -5.713413      -155.4699
  27   2.0000      -5.711450      -155.4165
  28   2.0000      -5.707866      -155.3189
  29   2.0000      -5.705725      -155.2607
  30   2.0000      -5.699918      -155.1027
  31   2.0000      -5.667009      -154.2071
  32   2.0000      -5.658967      -153.9883
  33   2.0000      -5.658308      -153.9704
  34   2.0000      -5.654835      -153.8759
  35   2.0000      -5.646565      -153.6508
  36   2.0000      -5.646174      -153.6402
  37   2.0000      -4.647928      -126.4765
  38   2.0000      -4.647524      -126.4656
  39   2.0000      -4.646145      -126.4280
  40   2.0000      -4.642308      -126.3236
  41   2.0000      -4.641790      -126.3095
  42   2.0000      -4.640498      -126.2744
  43   2.0000      -0.988107       -26.8878
  44   2.0000      -0.981973       -26.7208
  45   2.0000      -0.946444       -25.7541
  46   2.0000      -0.940172       -25.5834
  47   2.0000      -0.763621       -20.7792
  48   2.0000      -0.720122       -19.5955
  49   2.0000      -0.706643       -19.2287
  50   2.0000      -0.687043       -18.6954
  51   2.0000      -0.682190       -18.5633
  52   2.0000      -0.672720       -18.3057
  53   2.0000      -0.653358       -17.7788
  54   2.0000      -0.637381       -17.3440
  55   2.0000      -0.601136       -16.3577
  56   2.0000      -0.590844       -16.0777
  57   2.0000      -0.572249       -15.5717
  58   2.0000      -0.569021       -15.4838
  59   2.0000      -0.557939       -15.1823
  60   2.0000      -0.500936       -13.6312
  61   2.0000      -0.494292       -13.4504
  62   2.0000      -0.473784       -12.8923
  63   2.0000      -0.469221       -12.7681
  64   2.0000      -0.458806       -12.4848
  65   2.0000      -0.442121       -12.0307
  66   2.0000      -0.440417       -11.9844
  67   2.0000      -0.430945       -11.7266
  68   2.0000      -0.424337       -11.5468
  69   2.0000      -0.415883       -11.3167
  70   2.0000      -0.408072       -11.1042
  71   2.0000      -0.397032       -10.8038
  72   2.0000      -0.393515       -10.7081
  73   2.0000      -0.386979       -10.5302
  74   2.0000      -0.379371       -10.3232
  75   2.0000      -0.372906       -10.1473
  76   2.0000      -0.369855       -10.0643
  77   2.0000      -0.357133        -9.7181
  78   2.0000      -0.355195        -9.6653
  79   2.0000      -0.349505        -9.5105
  80   2.0000      -0.348961        -9.4957
  81   2.0000      -0.342707        -9.3255
  82   2.0000      -0.340067        -9.2537
  83   2.0000      -0.337144        -9.1741
  84   2.0000      -0.328730        -8.9452
  85   2.0000      -0.319406        -8.6915
  86   2.0000      -0.309365        -8.4182
  87   2.0000      -0.298177        -8.1138
  88   2.0000      -0.296510        -8.0685
  89   2.0000      -0.290879        -7.9152
  90   2.0000      -0.280243        -7.6258
  91   2.0000      -0.273686        -7.4474
  92   2.0000      -0.265057        -7.2126
  93   2.0000      -0.260965        -7.1012
  94   2.0000      -0.259061        -7.0494
  95   2.0000      -0.227303        -6.1852
  96   2.0000      -0.220912        -6.0113
  97   2.0000      -0.215131        -5.8540
  98   2.0000      -0.207718        -5.6523
  99   2.0000      -0.194128        -5.2825
 100   2.0000      -0.193283        -5.2595
 101   0.0000      -0.046773        -1.2728
 102   0.0000      -0.027452        -0.7470
 103   0.0000      -0.009563        -0.2602
 104   0.0000       0.002369         0.0645
 105   0.0000       0.019068         0.5189

MULLIKEN ATOMIC CHARGES
-----------------------
   0 C :   -0.308485
   1 C :   -0.007870
   2 O :   -0.375730
   3 P :    0.626919
   4 S :   -0.323544
   5 O :   -0.366289
   6 C :    0.003225
   7 C :   -0.305215
   8 S :   -0.075037
   9 C :   -0.319021
  10 S :   -0.097101
  11 P :    0.610655
  12 S :   -0.334657
  13 O :   -0.365089
  14 C :   -0.019380
  15 C :   -0.300414
  16 O :   -0.375629
  17 C :   -0.011609
  18 C :   -0.281780
  19 H :    0.114006
  20 H :    0.125839
  21 H :    0.113219
  22 H :    0.110406
  23 H :    0.104518
  24 H :    0.111885
  25 H :    0.104266
  26 H :    0.111895
  27 H :    0.115030
  28 H :    0.120864
  29 H :    0.180583
  30 H :    0.191788
  31 H :    0.115852
  32 H :    0.111873
  33 H :    0.110033
  34 H :    0.118266
  35 H :    0.110864
  36 H :    0.105981
  37 H :    0.100825
  38 H :    0.111516
  39 H :    0.115800
  40 H :    0.120741
Sum of atomic charges:   -0.0000000

LOEWDIN ATOMIC CHARGES
----------------------
   0 C :   -0.366981
   1 C :   -0.121651
   2 O :   -0.251322
   3 P :    0.575341
   4 S :   -0.308620
   5 O :   -0.234633
   6 C :   -0.112989
   7 C :   -0.364433
   8 S :    0.114481
   9 C :   -0.465814
  10 S :    0.078685
  11 P :    0.565087
  12 S :   -0.333788
  13 O :   -0.239454
  14 C :   -0.127692
  15 C :   -0.365186
  16 O :   -0.248143
  17 C :   -0.121862
  18 C :   -0.350435
  19 H :    0.123408
  20 H :    0.120224
  21 H :    0.130848
  22 H :    0.109261
  23 H :    0.118104
  24 H :    0.111393
  25 H :    0.118319
  26 H :    0.130246
  27 H :    0.125810
  28 H :    0.121796
  29 H :    0.134446
  30 H :    0.139688
  31 H :    0.111412
  32 H :    0.109829
  33 H :    0.129717
  34 H :    0.118867
  35 H :    0.123519
  36 H :    0.107780
  37 H :    0.109234
  38 H :    0.130626
  39 H :    0.126538
  40 H :    0.128342

  Mayer bond orders larger than 0.100000
B(  0-C ,  1-C ) :   1.1640 B(  0-C , 19-H ) :   0.9451 B(  0-C , 20-H ) :   0.9366
B(  0-C , 21-H ) :   0.9384 B(  1-C ,  2-O ) :   0.9169 B(  1-C , 22-H ) :   0.9158
B(  1-C , 23-H ) :   0.9339 B(  2-O ,  3-P ) :   1.0765 B(  3-P ,  4-S ) :   1.6149
B(  3-P ,  5-O ) :   1.1272 B(  3-P ,  8-S ) :   0.9514 B(  5-O ,  6-C ) :   0.8989
B(  6-C ,  7-C ) :   1.1621 B(  6-C , 24-H ) :   0.9194 B(  6-C , 25-H ) :   0.9320
B(  7-C , 26-H ) :   0.9395 B(  7-C , 27-H ) :   0.9461 B(  7-C , 28-H ) :   0.9371
B(  8-S ,  9-C ) :   1.0085 B(  9-C , 10-S ) :   0.9737 B(  9-C , 29-H ) :   0.9067
B(  9-C , 30-H ) :   0.9042 B( 10-S , 11-P ) :   0.9843 B( 10-S , 12-S ) :   0.1125
B( 11-P , 12-S ) :   1.6022 B( 11-P , 13-O ) :   1.1185 B( 11-P , 16-O ) :   1.1041
B( 13-O , 14-C ) :   0.8934 B( 14-C , 15-C ) :   1.1622 B( 14-C , 31-H ) :   0.9173
B( 14-C , 32-H ) :   0.9163 B( 15-C , 33-H ) :   0.9398 B( 15-C , 34-H ) :   0.9343
B( 15-C , 35-H ) :   0.9462 B( 16-O , 17-C ) :   0.9048 B( 17-C , 18-C ) :   1.1604
B( 17-C , 36-H ) :   0.9070 B( 17-C , 37-H ) :   0.9297 B( 18-C , 38-H ) :   0.9421
B( 18-C , 39-H ) :   0.9504 B( 18-C , 40-H ) :   0.9514

Dispersion correction           -0.067455675
FINAL SINGLE POINT ENERGY     -2929.519556954904

DIPOLE MOMENT
-------------

Method             : SCF
Type of density    : Electron Density
Multiplicity       :   1
Irrep              :   0
Energy             : -2929.6376507760160166 Eh
Relativity type    :
Basis              : AO
                                X                 Y                 Z
Electronic contribution:      1.914002617      -1.519764931     -10.211157599
Nuclear contribution   :     -1.498885142       0.568080954      10.901787960
                        -----------------------------------------
Total Dipole Moment    :      0.415117475      -0.951683977       0.690630361
                        -----------------------------------------
Magnitude (a.u.)       :      1.246994469
Magnitude (Debye)      :      3.169608048

Rotational constants in cm-1:             0.013221             0.005109             0.004951
Rotational constants in MHz :           396.351718           153.149833           148.424326

                             ****ORCA TERMINATED NORMALLY****
TOTAL RUN TIME: 0 days 0 hours 0 minutes 21 seconds 570 msec
