                         Program Version 6.0.0  -   RELEASE  -
|  1> ! pbe def2-sv(p) def2/J RI DEFGRID1 loosescf d4 GCP(DFT/SV(P)) printgap
|  2> %output
|  3>     printlevel normal
|  4> end
|  5> * xyz 0 1
|  6> C 4.2876835906 2.1055008905 -0.6089703086
|  7> C 3.0886588997 1.3121331863 -1.0872155458
|  8> O 2.0690303602 1.2668642116 -0.0606771775
|  9> P 1.8298745238 -0.0025840333 0.8475557566
| 10> S 0.4128280286 0.3233903672 2.153743715
| 11> O 3.3014258809 -0.236451458 1.4118562709
| 12> C 3.7841736693 -1.4483656213 2.0183019715
| 13> C 2.9175009181 -1.9231279275 3.1656445451
| 14> S 1.5788265608 -1.68102289 -0.4495970064
| 15> C -0.177848659 -2.0270997605 -0.2068461609
| 16> S -1.2053342058 -1.6033413143 -1.6547190317
| 17> P -2.0193017413 0.2346422521 -1.0412030367
| 18> S -3.368915462 1.0124312653 -2.226176983
| 19> O -0.6815633801 1.0803598845 -0.8609832692
| 20> C -0.7320203258 2.5236547799 -0.856454913
| 21> C -1.5140944005 3.0691920231 0.3188227763
| 22> O -2.4854602663 0.0212380416 0.4675054645
| 23> C -3.8300531408 -0.3588109561 0.8016843156
| 24> C -4.1087761793 -1.8096763983 0.4630314839
| 25> H 5.0151867139 2.168282768 -1.4121240198
| 26> H 3.9818535026 3.1078399835 -0.3221035704
| 27> H 4.7406606761 1.6191594864 0.2507114855
| 28> H 3.3709687149 0.2904879579 -1.3575517151
| 29> H 2.6078814145 1.7919938432 -1.9426357499
| 30> H 3.8514210225 -2.2148848871 1.2413673462
| 31> H 4.784987823 -1.1814045079 2.3624800106
| 32> H 2.7914287011 -1.1308441254 3.8998149276
| 33> H 1.9328987336 -2.2120786501 2.8013449911
| 34> H 3.3854702936 -2.7805081821 3.6385861546
| 35> H -0.529033717 -1.4722588307 0.6676343811
| 36> H -0.2766051367 -3.1008625108 -0.0741642709
| 37> H 0.3160434534 2.8200030118 -0.808374276
| 38> H -1.1758405986 2.8493708723 -1.802622809
| 39> H -2.5672093779 2.8091698238 0.2192875198
| 40> H -1.1342271372 2.6496714572 1.2479404462
| 41> H -1.4172193172 4.1500152255 0.3430656311
| 42> H -3.896161197 -0.1724619809 1.8745407031
| 43> H -4.5192907914 0.300238424 0.2634237725
| 44> H -5.1114352884 -2.0657832243 0.7899515926
| 45> H -4.039691726 -1.9600957193 -0.6141109252
| 46> H -3.3928566862 -2.4601215582 0.9588138804
| 47> *
| 48>
| 49>                          ****END OF INPUT****

CARTESIAN COORDINATES (ANGSTROEM)
---------------------------------
  C      4.287684    2.105501   -0.608970
  C      3.088659    1.312133   -1.087216
  O      2.069030    1.266864   -0.060677
  P      1.829875   -0.002584    0.847556
  S      0.412828    0.323390    2.153744
  O      3.301426   -0.236451    1.411856
  C      3.784174   -1.448366    2.018302
  C      2.917501   -1.923128    3.165645
  S      1.578827   -1.681023   -0.449597
  C     -0.177849   -2.027100   -0.206846
  S     -1.205334   -1.603341   -1.654719
  P     -2.019302    0.234642   -1.041203
  S     -3.368915    1.012431   -2.226177
  O     -0.681563    1.080360   -0.860983
  C     -0.732020    2.523655   -0.856455
  C     -1.514094    3.069192    0.318823
  O     -2.485460    0.021238    0.467505
  C     -3.830053   -0.358811    0.801684
  C     -4.108776   -1.809676    0.463031
  H      5.015187    2.168283   -1.412124
  H      3.981854    3.107840   -0.322104
  H      4.740661    1.619159    0.250711
  H      3.370969    0.290488   -1.357552
  H      2.607881    1.791994   -1.942636
  H      3.851421   -2.214885    1.241367
  H      4.784988   -1.181405    2.362480
  H      2.791429   -1.130844    3.899815
  H      1.932899   -2.212079    2.801345
  H      3.385470   -2.780508    3.638586
  H     -0.529034   -1.472259    0.667634
  H     -0.276605   -3.100863   -0.074164
  H      0.316043    2.820003   -0.808374
  H     -1.175841    2.849371   -1.802623
  H     -2.567209    2.809170    0.219288
  H     -1.134227    2.649671    1.247940
  H     -1.417219    4.150015    0.343066
  H     -3.896161   -0.172462    1.874541
  H     -4.519291    0.300238    0.263424
  H     -5.111435   -2.065783    0.789952
  H     -4.039692   -1.960096   -0.614111
  H     -3.392857   -2.460122    0.958814

 Total Charge           Charge          ....    0
 Multiplicity           Mult            ....    1
 Number of Electrons    NEL             ....  202
 Basis Dimension        Dim             ....  334

ORBITAL ENERGIES
----------------

  NO   OCC          E(Eh)            E(eV)
   0   2.0000     -88.048453     -2395.9202
   1   2.0000     -88.039663     -2395.6810
   2   2.0000     -87.989104     -2394.3052
   3   2.0000     -87.983247     -2394.1459
   4   2.0000     -76.430761     -2079.7867
   5   2.0000     -76.419999     -2079.4939
   6   2.0000     -18.799014      -511.5472
   7   2.0000     -18.793940      -511.4091
   8   2.0000     -18.787485      -511.2334
   9   2.0000     -18.779001      -511.0026
  10   2.0000      -9.961422      -271.0641
  11   2.0000      -9.960191      -271.0306
  12   2.0000      -9.958268      -270.9782
  13   2.0000      -9.947884      -270.6957
  14   2.0000      -9.937691      -270.4183
  15   2.0000      -9.890147      -269.1246
  16   2.0000      -9.887426      -269.0505
  17   2.0000      -9.882229      -268.9091
  18   2.0000      -9.867899      -268.5192
  19   2.0000      -7.693388      -209.3477
  20   2.0000      -7.685198      -209.1249
  21   2.0000      -7.634131      -207.7353
  22   2.0000      -7.628411      -207.5796
  23   2.0000      -6.427915      -174.9124
  24   2.0000      -6.417947      -174.6412
  25   2.0000      -5.721150      -155.6804
  26   2.0000      -5.717698      -155.5865
  27   2.0000      -5.713461      -155.4712
  28   2.0000      -5.710714      -155.3964
  29   2.0000      -5.709379      -155.3601
  30   2.0000      -5.702014      -155.1597
  31   2.0000      -5.663151      -154.1022
  32   2.0000      -5.657366      -153.9447
  33   2.0000      -5.654941      -153.8788
  34   2.0000      -5.653909      -153.8507
  35   2.0000      -5.649012      -153.7174
  36   2.0000      -5.648545      -153.7047
  37   2.0000      -4.650634      -126.5502
  38   2.0000      -4.649872      -126.5294
  39   2.0000      -4.648113      -126.4816
  40   2.0000      -4.640210      -126.2665
  41   2.0000      -4.639896      -126.2580
  42   2.0000      -4.638484      -126.2196
  43   2.0000      -0.993099       -27.0236
  44   2.0000      -0.978502       -26.6264
  45   2.0000      -0.948509       -25.8102
  46   2.0000      -0.937199       -25.5025
  47   2.0000      -0.762841       -20.7580
  48   2.0000      -0.722975       -19.6731
  49   2.0000      -0.706840       -19.2341
  50   2.0000      -0.694883       -18.9087
  51   2.0000      -0.682110       -18.5612
  52   2.0000      -0.671764       -18.2796
  53   2.0000      -0.653752       -17.7895
  54   2.0000      -0.639732       -17.4080
  55   2.0000      -0.594948       -16.1894
  56   2.0000      -0.591119       -16.0852
  57   2.0000      -0.578910       -15.7529
  58   2.0000      -0.569808       -15.5053
  59   2.0000      -0.561018       -15.2661
  60   2.0000      -0.508121       -13.8267
  61   2.0000      -0.485747       -13.2179
  62   2.0000      -0.477784       -13.0012
  63   2.0000      -0.465596       -12.6695
  64   2.0000      -0.460042       -12.5184
  65   2.0000      -0.446154       -12.1405
  66   2.0000      -0.444157       -12.0861
  67   2.0000      -0.436204       -11.8697
  68   2.0000      -0.427769       -11.6402
  69   2.0000      -0.413582       -11.2541
  70   2.0000      -0.412782       -11.2324
  71   2.0000      -0.407041       -11.0762
  72   2.0000      -0.391126       -10.6431
  73   2.0000      -0.389426       -10.5968
  74   2.0000      -0.383108       -10.4249
  75   2.0000      -0.368206       -10.0194
  76   2.0000      -0.362610        -9.8671
  77   2.0000      -0.360499        -9.8097
  78   2.0000      -0.352106        -9.5813
  79   2.0000      -0.350283        -9.5317
  80   2.0000      -0.345696        -9.4069
  81   2.0000      -0.343969        -9.3599
  82   2.0000      -0.338638        -9.2148
  83   2.0000      -0.333186        -9.0664
  84   2.0000      -0.326661        -8.8889
  85   2.0000      -0.323411        -8.8005
  86   2.0000      -0.313422        -8.5286
  87   2.0000      -0.301765        -8.2114
  88   2.0000      -0.291513        -7.9325
  89   2.0000      -0.288362        -7.8467
  90   2.0000      -0.283109        -7.7038
  91   2.0000      -0.275311        -7.4916
  92   2.0000      -0.266514        -7.2522
  93   2.0000      -0.262386        -7.1399
  94   2.0000      -0.261056        -7.1037
  95   2.0000      -0.236286        -6.4297
  96   2.0000      -0.218761        -5.9528
  97   2.0000      -0.209957        -5.7132
  98   2.0000      -0.203240        -5.5305
  99   2.0000      -0.201095        -5.4721
 100   2.0000      -0.197510        -5.3745
 101   0.0000      -0.040518        -1.1025
 102   0.0000      -0.029990        -0.8161
 103   0.0000      -0.017210        -0.4683
 104   0.0000       0.002870         0.0781
 105   0.0000       0.010516         0.2862

MULLIKEN ATOMIC CHARGES
-----------------------
   0 C :   -0.286001
   1 C :   -0.011961
   2 O :   -0.355125
   3 P :    0.604631
   4 S :   -0.288161
   5 O :   -0.381280
   6 C :   -0.004565
   7 C :   -0.307748
   8 S :   -0.104661
   9 C :   -0.369965
  10 S :   -0.069991
  11 P :    0.611875
  12 S :   -0.325665
  13 O :   -0.376878
  14 C :   -0.007001
  15 C :   -0.319243
  16 O :   -0.367001
  17 C :   -0.006983
  18 C :   -0.313512
  19 H :    0.110941
  20 H :    0.118863
  21 H :    0.120946
  22 H :    0.102251
  23 H :    0.115727
  24 H :    0.109266
  25 H :    0.107626
  26 H :    0.128073
  27 H :    0.118284
  28 H :    0.111609
  29 H :    0.212126
  30 H :    0.182903
  31 H :    0.109758
  32 H :    0.107124
  33 H :    0.115088
  34 H :    0.133807
  35 H :    0.103475
  36 H :    0.106917
  37 H :    0.111540
  38 H :    0.112292
  39 H :    0.127679
  40 H :    0.112940
Sum of atomic charges:    0.0000000

LOEWDIN ATOMIC CHARGES
----------------------
   0 C :   -0.357813
   1 C :   -0.113366
   2 O :   -0.227525
   3 P :    0.574059
   4 S :   -0.277118
   5 O :   -0.247284
   6 C :   -0.117475
   7 C :   -0.368993
   8 S :    0.069070
   9 C :   -0.484005
  10 S :    0.088238
  11 P :    0.570936
  12 S :   -0.321044
  13 O :   -0.246455
  14 C :   -0.120982
  15 C :   -0.371665
  16 O :   -0.236317
  17 C :   -0.121109
  18 C :   -0.367304
  19 H :    0.129902
  20 H :    0.128435
  21 H :    0.126850
  22 H :    0.104004
  23 H :    0.121294
  24 H :    0.106506
  25 H :    0.120243
  26 H :    0.130565
  27 H :    0.118670
  28 H :    0.130124
  29 H :    0.125899
  30 H :    0.136964
  31 H :    0.115413
  32 H :    0.107706
  33 H :    0.117559
  34 H :    0.124766
  35 H :    0.127064
  36 H :    0.119469
  37 H :    0.109281
  38 H :    0.130742
  39 H :    0.122209
  40 H :    0.122484

  Mayer bond orders larger than 0.100000
B(  0-C ,  1-C ) :   1.1652 B(  0-C , 19-H ) :   0.9402 B(  0-C , 20-H ) :   0.9477
B(  0-C , 21-H ) :   0.9426 B(  1-C ,  2-O ) :   0.8884 B(  1-C , 22-H ) :   0.9155
B(  1-C , 23-H ) :   0.9315 B(  2-O ,  3-P ) :   1.1196 B(  3-P ,  4-S ) :   1.6450
B(  3-P ,  5-O ) :   1.0733 B(  3-P ,  8-S ) :   0.9506 B(  4-S ,  8-S ) :   0.1148
B(  4-S , 29-H ) :   0.1026 B(  5-O ,  6-C ) :   0.9138 B(  6-C ,  7-C ) :   1.1677
B(  6-C , 24-H ) :   0.9239 B(  6-C , 25-H ) :   0.9325 B(  7-C , 26-H ) :   0.9429
B(  7-C , 27-H ) :   0.9348 B(  7-C , 28-H ) :   0.9350 B(  8-S ,  9-C ) :   0.9999
B(  9-C , 10-S ) :   0.9812 B(  9-C , 29-H ) :   0.8399 B(  9-C , 30-H ) :   0.9098
B( 10-S , 11-P ) :   0.9860 B( 11-P , 12-S ) :   1.6311 B( 11-P , 13-O ) :   1.1138
B( 11-P , 16-O ) :   1.0763 B( 13-O , 14-C ) :   0.9012 B( 14-C , 15-C ) :   1.1700
B( 14-C , 31-H ) :   0.9183 B( 14-C , 32-H ) :   0.9208 B( 15-C , 33-H ) :   0.9341
B( 15-C , 34-H ) :   0.9335 B( 15-C , 35-H ) :   0.9374 B( 16-O , 17-C ) :   0.9104
B( 17-C , 18-C ) :   1.1642 B( 17-C , 36-H ) :   0.9328 B( 17-C , 37-H ) :   0.9118
B( 18-C , 38-H ) :   0.9393 B( 18-C , 39-H ) :   0.9356 B( 18-C , 40-H ) :   0.9475

Dispersion correction           -0.067534377
FINAL SINGLE POINT ENERGY     -2929.517439296656

DIPOLE MOMENT
-------------

Method             : SCF
Type of density    : Electron Density
Multiplicity       :   1
Irrep              :   0
Energy             : -2929.6387021130599351 Eh
Relativity type    :
Basis              : AO
                                X                 Y                 Z
Electronic contribution:     -6.952165094      -4.058543416     -11.012579615
Nuclear contribution   :      8.456782213       3.450311940      11.719628069
                        -----------------------------------------
Total Dipole Moment    :      1.504617119      -0.608231476       0.707048454
                        -----------------------------------------
Magnitude (a.u.)       :      1.770236063
Magnitude (Debye)      :      4.499582485

Rotational constants in cm-1:             0.012233             0.005529             0.004952
Rotational constants in MHz :           366.723810           165.741663           148.448180

                             ****ORCA TERMINATED NORMALLY****
TOTAL RUN TIME: 0 days 0 hours 0 minutes 21 seconds 895 msec
