                         Program Version 6.0.0  -   RELEASE  -
|  1> ! r2scan-3c def2/J RI DEFGRID2 scfconv6 printgap
|  2> %output
|  3>     printlevel normal
|  4> end
|  5> * xyz 0 1
|  6> C 4.2948598535 -0.2899804981 -2.1994822188
|  7> C 4.4373259019 0.6540376759 -1.023384467
|  8> O 3.6651217649 0.2343027971 0.1154172411
|  9> P 2.0759270978 0.1943712593 0.1108095332
| 10> S 1.1918004854 1.6972893771 -0.7768958799
| 11> O 1.7265462911 0.1400227964 1.6486103325
| 12> C 2.233928648 -0.8640146029 2.5627788665
| 13> C 3.4667451154 -0.3621292451 3.2854049375
| 14> S 1.6353780925 -1.7546847326 -0.6308526026
| 15> C -0.1210000155 -1.5123643064 -0.9459014943
| 16> S -1.054972722 -1.1799848158 0.5925969225
| 17> P -2.5025562754 0.1993448853 -0.1383043228
| 18> S -2.2261884118 0.8512481087 -1.9722041412
| 19> O -2.6627950697 1.3258892085 0.9595945307
| 20> C -1.8987700084 2.5421885121 0.9971788418
| 21> C -0.915769986 2.5089615946 2.1507851445
| 22> O -3.8886343216 -0.4909487117 0.1891820808
| 23> C -4.2184458171 -1.8558338998 -0.122736525
| 24> C -4.2087989832 -2.1304144701 -1.6134204444
| 25> H 4.4880977348 -1.3139598308 -1.8898404244
| 26> H 3.2870498835 -0.229635662 -2.6075826798
| 27> H 5.0018201593 -0.006531874 -2.9726756007
| 28> H 4.1208520499 1.6644180831 -1.3001740288
| 29> H 5.4614387106 0.6767403879 -0.6480160306
| 30> H 1.4073918468 -1.0416952733 3.2534681539
| 31> H 2.4469818974 -1.7781428343 2.0019171721
| 32> H 4.275956187 -0.1954321057 2.5797710877
| 33> H 3.2469244222 0.5720623265 3.7948327413
| 34> H 3.7743854798 -1.1045615589 4.0151040634
| 35> H -0.4744285692 -2.4414936256 -1.3861437787
| 36> H -0.2707568226 -0.6665207733 -1.624183933
| 37> H -1.3841829764 2.6855383711 0.0401156015
| 38> H -2.6341688917 3.3385341244 1.1295956509
| 39> H -1.4397087912 2.2922767827 3.0772402934
| 40> H -0.1580548649 1.7458425127 1.9842006515
| 41> H -0.4252923303 3.4742630311 2.2251222684
| 42> H -3.5159188756 -2.5118481915 0.4004738246
| 43> H -5.2180116727 -1.9791590299 0.2976297627
| 44> H -4.8782709691 -1.4448209306 -2.1270242343
| 45> H -3.2068075697 -1.991779702 -2.0174008313
| 46> H -4.5295557068 -3.151189585 -1.7947932826
| 47> *
| 48>
| 49>                          ****END OF INPUT****

CARTESIAN COORDINATES (ANGSTROEM)
---------------------------------
  C      4.294860   -0.289980   -2.199482
  C      4.437326    0.654038   -1.023384
  O      3.665122    0.234303    0.115417
  P      2.075927    0.194371    0.110810
  S      1.191800    1.697289   -0.776896
  O      1.726546    0.140023    1.648610
  C      2.233929   -0.864015    2.562779
  C      3.466745   -0.362129    3.285405
  S      1.635378   -1.754685   -0.630853
  C     -0.121000   -1.512364   -0.945901
  S     -1.054973   -1.179985    0.592597
  P     -2.502556    0.199345   -0.138304
  S     -2.226188    0.851248   -1.972204
  O     -2.662795    1.325889    0.959595
  C     -1.898770    2.542189    0.997179
  C     -0.915770    2.508962    2.150785
  O     -3.888634   -0.490949    0.189182
  C     -4.218446   -1.855834   -0.122737
  C     -4.208799   -2.130414   -1.613420
  H      4.488098   -1.313960   -1.889840
  H      3.287050   -0.229636   -2.607583
  H      5.001820   -0.006532   -2.972676
  H      4.120852    1.664418   -1.300174
  H      5.461439    0.676740   -0.648016
  H      1.407392   -1.041695    3.253468
  H      2.446982   -1.778143    2.001917
  H      4.275956   -0.195432    2.579771
  H      3.246924    0.572062    3.794833
  H      3.774385   -1.104562    4.015104
  H     -0.474429   -2.441494   -1.386144
  H     -0.270757   -0.666521   -1.624184
  H     -1.384183    2.685538    0.040116
  H     -2.634169    3.338534    1.129596
  H     -1.439709    2.292277    3.077240
  H     -0.158055    1.745843    1.984201
  H     -0.425292    3.474263    2.225122
  H     -3.515919   -2.511848    0.400474
  H     -5.218012   -1.979159    0.297630
  H     -4.878271   -1.444821   -2.127024
  H     -3.206808   -1.991780   -2.017401
  H     -4.529556   -3.151190   -1.794793

 Total Charge           Charge          ....    0
 Multiplicity           Mult            ....    1
 Number of Electrons    NEL             ....  202
 Basis Dimension        Dim             ....  539

ORBITAL ENERGIES
----------------

  NO   OCC          E(Eh)            E(eV)
   0   2.0000     -88.580652     -2410.4021
   1   2.0000     -88.574373     -2410.2312
   2   2.0000     -88.519649     -2408.7421
   3   2.0000     -88.513216     -2408.5670
   4   2.0000     -76.916858     -2093.0141
   5   2.0000     -76.908347     -2092.7825
   6   2.0000     -18.997955      -516.9606
   7   2.0000     -18.993499      -516.8394
   8   2.0000     -18.983551      -516.5687
   9   2.0000     -18.980981      -516.4987
  10   2.0000     -10.105881      -274.9950
  11   2.0000     -10.104013      -274.9442
  12   2.0000     -10.103207      -274.9223
  13   2.0000     -10.097123      -274.7567
  14   2.0000     -10.082634      -274.3624
  15   2.0000     -10.033543      -273.0266
  16   2.0000     -10.032054      -272.9861
  17   2.0000     -10.025964      -272.8204
  18   2.0000     -10.011481      -272.4263
  19   2.0000      -7.875101      -214.2924
  20   2.0000      -7.868491      -214.1125
  21   2.0000      -7.814304      -212.6380
  22   2.0000      -7.807951      -212.4651
  23   2.0000      -6.595166      -179.4636
  24   2.0000      -6.586517      -179.2282
  25   2.0000      -5.822030      -158.4255
  26   2.0000      -5.818758      -158.3364
  27   2.0000      -5.815235      -158.2406
  28   2.0000      -5.812357      -158.1623
  29   2.0000      -5.812332      -158.1616
  30   2.0000      -5.805776      -157.9832
  31   2.0000      -5.762108      -156.7949
  32   2.0000      -5.755650      -156.6192
  33   2.0000      -5.754389      -156.5849
  34   2.0000      -5.754365      -156.5842
  35   2.0000      -5.748238      -156.4175
  36   2.0000      -5.747909      -156.4086
  37   2.0000      -4.740992      -129.0089
  38   2.0000      -4.740151      -128.9861
  39   2.0000      -4.738558      -128.9427
  40   2.0000      -4.731904      -128.7616
  41   2.0000      -4.731752      -128.7575
  42   2.0000      -4.730092      -128.7124
  43   2.0000      -1.054686       -28.6995
  44   2.0000      -1.044569       -28.4242
  45   2.0000      -1.014531       -27.6068
  46   2.0000      -1.000915       -27.2363
  47   2.0000      -0.800381       -21.7795
  48   2.0000      -0.758255       -20.6332
  49   2.0000      -0.748708       -20.3734
  50   2.0000      -0.737938       -20.0803
  51   2.0000      -0.720769       -19.6131
  52   2.0000      -0.710941       -19.3457
  53   2.0000      -0.686283       -18.6747
  54   2.0000      -0.664061       -18.0700
  55   2.0000      -0.629572       -17.1315
  56   2.0000      -0.621582       -16.9141
  57   2.0000      -0.611998       -16.6533
  58   2.0000      -0.598288       -16.2802
  59   2.0000      -0.588048       -16.0016
  60   2.0000      -0.528593       -14.3837
  61   2.0000      -0.516716       -14.0605
  62   2.0000      -0.497540       -13.5388
  63   2.0000      -0.482814       -13.1380
  64   2.0000      -0.471485       -12.8298
  65   2.0000      -0.466982       -12.7072
  66   2.0000      -0.461873       -12.5682
  67   2.0000      -0.449627       -12.2350
  68   2.0000      -0.438337       -11.9278
  69   2.0000      -0.431261       -11.7352
  70   2.0000      -0.428359       -11.6562
  71   2.0000      -0.427012       -11.6196
  72   2.0000      -0.412301       -11.2193
  73   2.0000      -0.397649       -10.8206
  74   2.0000      -0.394563       -10.7366
  75   2.0000      -0.386522       -10.5178
  76   2.0000      -0.380670       -10.3586
  77   2.0000      -0.372042       -10.1238
  78   2.0000      -0.370849       -10.0913
  79   2.0000      -0.365338        -9.9414
  80   2.0000      -0.360393        -9.8068
  81   2.0000      -0.358470        -9.7545
  82   2.0000      -0.356145        -9.6912
  83   2.0000      -0.349722        -9.5164
  84   2.0000      -0.336411        -9.1542
  85   2.0000      -0.331833        -9.0296
  86   2.0000      -0.324098        -8.8192
  87   2.0000      -0.314501        -8.5580
  88   2.0000      -0.310118        -8.4387
  89   2.0000      -0.305807        -8.3214
  90   2.0000      -0.292224        -7.9518
  91   2.0000      -0.290175        -7.8961
  92   2.0000      -0.281405        -7.6574
  93   2.0000      -0.278910        -7.5895
  94   2.0000      -0.269062        -7.3216
  95   2.0000      -0.246585        -6.7099
  96   2.0000      -0.235559        -6.4099
  97   2.0000      -0.224657        -6.1132
  98   2.0000      -0.218058        -5.9337
  99   2.0000      -0.208674        -5.6783
 100   2.0000      -0.200110        -5.4453
 101   0.0000      -0.045975        -1.2510
 102   0.0000      -0.034916        -0.9501
 103   0.0000      -0.012511        -0.3404
 104   0.0000       0.011117         0.3025
 105   0.0000       0.012001         0.3266

MULLIKEN ATOMIC CHARGES
-----------------------
   0 C :   -0.451636
   1 C :   -0.162130
   2 O :   -0.292586
   3 P :    0.640639
   4 S :   -0.409772
   5 O :   -0.268212
   6 C :   -0.111119
   7 C :   -0.458423
   8 S :   -0.158986
   9 C :   -0.231497
  10 S :   -0.174601
  11 P :    0.667794
  12 S :   -0.434779
  13 O :   -0.294906
  14 C :   -0.140182
  15 C :   -0.445585
  16 O :   -0.277049
  17 C :   -0.151754
  18 C :   -0.421721
  19 H :    0.153100
  20 H :    0.182809
  21 H :    0.149601
  22 H :    0.176346
  23 H :    0.147777
  24 H :    0.160367
  25 H :    0.162274
  26 H :    0.164778
  27 H :    0.157280
  28 H :    0.146757
  29 H :    0.187118
  30 H :    0.229101
  31 H :    0.172971
  32 H :    0.144733
  33 H :    0.144071
  34 H :    0.180041
  35 H :    0.143136
  36 H :    0.159838
  37 H :    0.150245
  38 H :    0.162347
  39 H :    0.156154
  40 H :    0.145663
Sum of atomic charges:   -0.0000000

LOEWDIN ATOMIC CHARGES
----------------------
   0 C :   -0.408352
   1 C :    0.022090
   2 O :   -0.672086
   3 P :    0.380162
   4 S :   -0.078249
   5 O :   -0.675635
   6 C :    0.018083
   7 C :   -0.393024
   8 S :    0.130587
   9 C :   -0.421162
  10 S :    0.140462
  11 P :    0.384341
  12 S :   -0.119605
  13 O :   -0.646264
  14 C :    0.020976
  15 C :   -0.404007
  16 O :   -0.650672
  17 C :    0.019752
  18 C :   -0.404968
  19 H :    0.159469
  20 H :    0.167149
  21 H :    0.160281
  22 H :    0.181457
  23 H :    0.179352
  24 H :    0.182025
  25 H :    0.176660
  26 H :    0.165927
  27 H :    0.161695
  28 H :    0.158780
  29 H :    0.176331
  30 H :    0.201601
  31 H :    0.184077
  32 H :    0.174778
  33 H :    0.154865
  34 H :    0.175558
  35 H :    0.160453
  36 H :    0.172528
  37 H :    0.181233
  38 H :    0.165315
  39 H :    0.161339
  40 H :    0.156696

  Mayer bond orders larger than 0.100000
B(  0-C ,  1-C ) :   0.9141 B(  0-C , 19-H ) :   0.9674 B(  0-C , 20-H ) :   0.9625
B(  0-C , 21-H ) :   0.9564 B(  1-C ,  2-O ) :   0.8203 B(  1-C , 22-H ) :   0.9680
B(  1-C , 23-H ) :   0.9611 B(  2-O ,  3-P ) :   1.0490 B(  3-P ,  4-S ) :   1.8485
B(  3-P ,  5-O ) :   1.1149 B(  3-P ,  8-S ) :   1.0153 B(  5-O ,  6-C ) :   0.7413
B(  6-C ,  7-C ) :   0.9386 B(  6-C , 24-H ) :   0.9610 B(  6-C , 25-H ) :   0.9625
B(  7-C , 26-H ) :   0.9671 B(  7-C , 27-H ) :   0.9722 B(  7-C , 28-H ) :   0.9656
B(  8-S ,  9-C ) :   0.9276 B(  9-C , 10-S ) :   0.8918 B(  9-C , 29-H ) :   0.9137
B(  9-C , 30-H ) :   0.8985 B( 10-S , 11-P ) :   1.0208 B( 11-P , 12-S ) :   1.7802
B( 11-P , 13-O ) :   1.1596 B( 11-P , 16-O ) :   1.1304 B( 13-O , 14-C ) :   0.7642
B( 14-C , 15-C ) :   0.9524 B( 14-C , 31-H ) :   0.9565 B( 14-C , 32-H ) :   0.9641
B( 15-C , 33-H ) :   0.9736 B( 15-C , 34-H ) :   0.9511 B( 15-C , 35-H ) :   0.9660
B( 16-O , 17-C ) :   0.8131 B( 17-C , 18-C ) :   0.9388 B( 17-C , 36-H ) :   0.9651
B( 17-C , 37-H ) :   0.9605 B( 18-C , 38-H ) :   0.9659 B( 18-C , 39-H ) :   0.9554
B( 18-C , 40-H ) :   0.9658

Dispersion correction           -0.021974951
FINAL SINGLE POINT ENERGY     -2932.456963331965

DIPOLE MOMENT
-------------

Method             : SCF
Type of density    : Electron Density
Multiplicity       :   1
Irrep              :   0
Energy             : -2932.4817108718102645 Eh
Relativity type    :
Basis              : AO
                                X                 Y                 Z
Electronic contribution:     -8.037677720       2.223261079      -5.378534019
Nuclear contribution   :      9.173215906      -3.519141348       6.182372125
                        -----------------------------------------
Total Dipole Moment    :      1.135538186      -1.295880269       0.803838105
                        -----------------------------------------
Magnitude (a.u.)       :      1.901291231
Magnitude (Debye)      :      4.832698247

Rotational constants in cm-1:             0.012224             0.005104             0.004867
Rotational constants in MHz :           366.461192           152.999392           145.903540

                             ****ORCA TERMINATED NORMALLY****
TOTAL RUN TIME: 0 days 0 hours 1 minutes 19 seconds 119 msec
