                         Program Version 6.0.0  -   RELEASE  -
|  1> ! r2scan-3c def2/J RI DEFGRID2 scfconv6 printgap
|  2> %output
|  3>     printlevel normal
|  4> end
|  5> %cpcm
|  6>     smd true
|  7>     smdsolvent "water"
|  8> end
|  9> * xyz 0 1
| 10> C 4.2948598535 -0.2899804981 -2.1994822188
| 11> C 4.4373259019 0.6540376759 -1.023384467
| 12> O 3.6651217649 0.2343027971 0.1154172411
| 13> P 2.0759270978 0.1943712593 0.1108095332
| 14> S 1.1918004854 1.6972893771 -0.7768958799
| 15> O 1.7265462911 0.1400227964 1.6486103325
| 16> C 2.233928648 -0.8640146029 2.5627788665
| 17> C 3.4667451154 -0.3621292451 3.2854049375
| 18> S 1.6353780925 -1.7546847326 -0.6308526026
| 19> C -0.1210000155 -1.5123643064 -0.9459014943
| 20> S -1.054972722 -1.1799848158 0.5925969225
| 21> P -2.5025562754 0.1993448853 -0.1383043228
| 22> S -2.2261884118 0.8512481087 -1.9722041412
| 23> O -2.6627950697 1.3258892085 0.9595945307
| 24> C -1.8987700084 2.5421885121 0.9971788418
| 25> C -0.915769986 2.5089615946 2.1507851445
| 26> O -3.8886343216 -0.4909487117 0.1891820808
| 27> C -4.2184458171 -1.8558338998 -0.122736525
| 28> C -4.2087989832 -2.1304144701 -1.6134204444
| 29> H 4.4880977348 -1.3139598308 -1.8898404244
| 30> H 3.2870498835 -0.229635662 -2.6075826798
| 31> H 5.0018201593 -0.006531874 -2.9726756007
| 32> H 4.1208520499 1.6644180831 -1.3001740288
| 33> H 5.4614387106 0.6767403879 -0.6480160306
| 34> H 1.4073918468 -1.0416952733 3.2534681539
| 35> H 2.4469818974 -1.7781428343 2.0019171721
| 36> H 4.275956187 -0.1954321057 2.5797710877
| 37> H 3.2469244222 0.5720623265 3.7948327413
| 38> H 3.7743854798 -1.1045615589 4.0151040634
| 39> H -0.4744285692 -2.4414936256 -1.3861437787
| 40> H -0.2707568226 -0.6665207733 -1.624183933
| 41> H -1.3841829764 2.6855383711 0.0401156015
| 42> H -2.6341688917 3.3385341244 1.1295956509
| 43> H -1.4397087912 2.2922767827 3.0772402934
| 44> H -0.1580548649 1.7458425127 1.9842006515
| 45> H -0.4252923303 3.4742630311 2.2251222684
| 46> H -3.5159188756 -2.5118481915 0.4004738246
| 47> H -5.2180116727 -1.9791590299 0.2976297627
| 48> H -4.8782709691 -1.4448209306 -2.1270242343
| 49> H -3.2068075697 -1.991779702 -2.0174008313
| 50> H -4.5295557068 -3.151189585 -1.7947932826
| 51> *
| 52>
| 53>                          ****END OF INPUT****

CARTESIAN COORDINATES (ANGSTROEM)
---------------------------------
  C      4.294860   -0.289980   -2.199482
  C      4.437326    0.654038   -1.023384
  O      3.665122    0.234303    0.115417
  P      2.075927    0.194371    0.110810
  S      1.191800    1.697289   -0.776896
  O      1.726546    0.140023    1.648610
  C      2.233929   -0.864015    2.562779
  C      3.466745   -0.362129    3.285405
  S      1.635378   -1.754685   -0.630853
  C     -0.121000   -1.512364   -0.945901
  S     -1.054973   -1.179985    0.592597
  P     -2.502556    0.199345   -0.138304
  S     -2.226188    0.851248   -1.972204
  O     -2.662795    1.325889    0.959595
  C     -1.898770    2.542189    0.997179
  C     -0.915770    2.508962    2.150785
  O     -3.888634   -0.490949    0.189182
  C     -4.218446   -1.855834   -0.122737
  C     -4.208799   -2.130414   -1.613420
  H      4.488098   -1.313960   -1.889840
  H      3.287050   -0.229636   -2.607583
  H      5.001820   -0.006532   -2.972676
  H      4.120852    1.664418   -1.300174
  H      5.461439    0.676740   -0.648016
  H      1.407392   -1.041695    3.253468
  H      2.446982   -1.778143    2.001917
  H      4.275956   -0.195432    2.579771
  H      3.246924    0.572062    3.794833
  H      3.774385   -1.104562    4.015104
  H     -0.474429   -2.441494   -1.386144
  H     -0.270757   -0.666521   -1.624184
  H     -1.384183    2.685538    0.040116
  H     -2.634169    3.338534    1.129596
  H     -1.439709    2.292277    3.077240
  H     -0.158055    1.745843    1.984201
  H     -0.425292    3.474263    2.225122
  H     -3.515919   -2.511848    0.400474
  H     -5.218012   -1.979159    0.297630
  H     -4.878271   -1.444821   -2.127024
  H     -3.206808   -1.991780   -2.017401
  H     -4.529556   -3.151190   -1.794793

 Total Charge           Charge          ....    0
 Multiplicity           Mult            ....    1
 Number of Electrons    NEL             ....  202
 Basis Dimension        Dim             ....  539

ORBITAL ENERGIES
----------------

  NO   OCC          E(Eh)            E(eV)
   0   2.0000     -88.580255     -2410.3913
   1   2.0000     -88.578419     -2410.3413
   2   2.0000     -88.525903     -2408.9123
   3   2.0000     -88.525763     -2408.9085
   4   2.0000     -76.918898     -2093.0696
   5   2.0000     -76.918663     -2093.0632
   6   2.0000     -18.995455      -516.8926
   7   2.0000     -18.993079      -516.8279
   8   2.0000     -18.992860      -516.8220
   9   2.0000     -18.991900      -516.7959
  10   2.0000     -10.103131      -274.9202
  11   2.0000     -10.091169      -274.5947
  12   2.0000     -10.090444      -274.5750
  13   2.0000     -10.090148      -274.5669
  14   2.0000     -10.086483      -274.4672
  15   2.0000     -10.018766      -272.6245
  16   2.0000     -10.018142      -272.6075
  17   2.0000     -10.017854      -272.5997
  18   2.0000     -10.013838      -272.4904
  19   2.0000      -7.874618      -214.2792
  20   2.0000      -7.872458      -214.2205
  21   2.0000      -7.820922      -212.8181
  22   2.0000      -7.820830      -212.8156
  23   2.0000      -6.597251      -179.5203
  24   2.0000      -6.596942      -179.5119
  25   2.0000      -5.821574      -158.4131
  26   2.0000      -5.819243      -158.3497
  27   2.0000      -5.818309      -158.3242
  28   2.0000      -5.816352      -158.2710
  29   2.0000      -5.811801      -158.1471
  30   2.0000      -5.809695      -158.0898
  31   2.0000      -5.768609      -156.9718
  32   2.0000      -5.768435      -156.9671
  33   2.0000      -5.761142      -156.7686
  34   2.0000      -5.761087      -156.7672
  35   2.0000      -5.760948      -156.7634
  36   2.0000      -5.760794      -156.7592
  37   2.0000      -4.743020      -129.0641
  38   2.0000      -4.742250      -129.0432
  39   2.0000      -4.742235      -129.0428
  40   2.0000      -4.742213      -129.0422
  41   2.0000      -4.740767      -129.0028
  42   2.0000      -4.740551      -128.9969
  43   2.0000      -1.054697       -28.6998
  44   2.0000      -1.052803       -28.6482
  45   2.0000      -1.012121       -27.5412
  46   2.0000      -1.010291       -27.4914
  47   2.0000      -0.800126       -21.7725
  48   2.0000      -0.755260       -20.5517
  49   2.0000      -0.745860       -20.2959
  50   2.0000      -0.725892       -19.7525
  51   2.0000      -0.718709       -19.5571
  52   2.0000      -0.712398       -19.3853
  53   2.0000      -0.689165       -18.7531
  54   2.0000      -0.670732       -18.2515
  55   2.0000      -0.628502       -17.1024
  56   2.0000      -0.621628       -16.9154
  57   2.0000      -0.603038       -16.4095
  58   2.0000      -0.595414       -16.2021
  59   2.0000      -0.588668       -16.0185
  60   2.0000      -0.524451       -14.2710
  61   2.0000      -0.516622       -14.0580
  62   2.0000      -0.490769       -13.3545
  63   2.0000      -0.486169       -13.2293
  64   2.0000      -0.470991       -12.8163
  65   2.0000      -0.465636       -12.6706
  66   2.0000      -0.458079       -12.4650
  67   2.0000      -0.439258       -11.9528
  68   2.0000      -0.436659       -11.8821
  69   2.0000      -0.433822       -11.8049
  70   2.0000      -0.430163       -11.7053
  71   2.0000      -0.422631       -11.5004
  72   2.0000      -0.404454       -11.0058
  73   2.0000      -0.399115       -10.8605
  74   2.0000      -0.392759       -10.6875
  75   2.0000      -0.384607       -10.4657
  76   2.0000      -0.378025       -10.2866
  77   2.0000      -0.367522       -10.0008
  78   2.0000      -0.362970        -9.8769
  79   2.0000      -0.360401        -9.8070
  80   2.0000      -0.355114        -9.6631
  81   2.0000      -0.353565        -9.6210
  82   2.0000      -0.350825        -9.5464
  83   2.0000      -0.346773        -9.4362
  84   2.0000      -0.339367        -9.2347
  85   2.0000      -0.326677        -8.8893
  86   2.0000      -0.325628        -8.8608
  87   2.0000      -0.307297        -8.3620
  88   2.0000      -0.306361        -8.3365
  89   2.0000      -0.303858        -8.2684
  90   2.0000      -0.297413        -8.0930
  91   2.0000      -0.286632        -7.7996
  92   2.0000      -0.284048        -7.7293
  93   2.0000      -0.278794        -7.5864
  94   2.0000      -0.275281        -7.4908
  95   2.0000      -0.248486        -6.7616
  96   2.0000      -0.241345        -6.5673
  97   2.0000      -0.234395        -6.3782
  98   2.0000      -0.224689        -6.1141
  99   2.0000      -0.218150        -5.9362
 100   2.0000      -0.211084        -5.7439
 101   0.0000      -0.048509        -1.3200
 102   0.0000      -0.040793        -1.1100
 103   0.0000      -0.014694        -0.3999
 104   0.0000       0.003815         0.1038
 105   0.0000       0.013303         0.3620

MULLIKEN ATOMIC CHARGES
-----------------------
   0 C :   -0.488026
   1 C :   -0.158103
   2 O :   -0.310782
   3 P :    0.661646
   4 S :   -0.467290
   5 O :   -0.295940
   6 C :   -0.095299
   7 C :   -0.502386
   8 S :   -0.154848
   9 C :   -0.225523
  10 S :   -0.171478
  11 P :    0.693917
  12 S :   -0.490183
  13 O :   -0.324286
  14 C :   -0.129622
  15 C :   -0.492082
  16 O :   -0.318260
  17 C :   -0.140215
  18 C :   -0.467990
  19 H :    0.169098
  20 H :    0.175690
  21 H :    0.173143
  22 H :    0.179421
  23 H :    0.175688
  24 H :    0.179719
  25 H :    0.173816
  26 H :    0.169242
  27 H :    0.167075
  28 H :    0.170618
  29 H :    0.231958
  30 H :    0.219094
  31 H :    0.168795
  32 H :    0.170124
  33 H :    0.161968
  34 H :    0.171656
  35 H :    0.167340
  36 H :    0.173226
  37 H :    0.174805
  38 H :    0.167828
  39 H :    0.164538
  40 H :    0.171907
Sum of atomic charges:    0.0000000

LOEWDIN ATOMIC CHARGES
----------------------
   0 C :   -0.411422
   1 C :    0.026827
   2 O :   -0.677064
   3 P :    0.384056
   4 S :   -0.119752
   5 O :   -0.691434
   6 C :    0.025010
   7 C :   -0.396287
   8 S :    0.141553
   9 C :   -0.412743
  10 S :    0.149377
  11 P :    0.386798
  12 S :   -0.158536
  13 O :   -0.665900
  14 C :    0.022161
  15 C :   -0.408627
  16 O :   -0.672426
  17 C :    0.026749
  18 C :   -0.407784
  19 H :    0.163808
  20 H :    0.161925
  21 H :    0.168632
  22 H :    0.181653
  23 H :    0.191164
  24 H :    0.189930
  25 H :    0.182163
  26 H :    0.165467
  27 H :    0.163383
  28 H :    0.168400
  29 H :    0.193749
  30 H :    0.198490
  31 H :    0.182813
  32 H :    0.184688
  33 H :    0.160930
  34 H :    0.170445
  35 H :    0.168053
  36 H :    0.179370
  37 H :    0.191590
  38 H :    0.163337
  39 H :    0.161842
  40 H :    0.167612

  Mayer bond orders larger than 0.100000
B(  0-C ,  1-C ) :   0.9019 B(  0-C , 19-H ) :   0.9643 B(  0-C , 20-H ) :   0.9650
B(  0-C , 21-H ) :   0.9514 B(  1-C ,  2-O ) :   0.8097 B(  1-C , 22-H ) :   0.9673
B(  1-C , 23-H ) :   0.9507 B(  2-O ,  3-P ) :   1.0591 B(  3-P ,  4-S ) :   1.8147
B(  3-P ,  5-O ) :   1.1236 B(  3-P ,  8-S ) :   1.0276 B(  5-O ,  6-C ) :   0.7321
B(  6-C ,  7-C ) :   0.9291 B(  6-C , 24-H ) :   0.9522 B(  6-C , 25-H ) :   0.9540
B(  7-C , 26-H ) :   0.9669 B(  7-C , 27-H ) :   0.9711 B(  7-C , 28-H ) :   0.9592
B(  8-S ,  9-C ) :   0.9224 B(  9-C , 10-S ) :   0.8843 B(  9-C , 29-H ) :   0.8985
B(  9-C , 30-H ) :   0.9034 B( 10-S , 11-P ) :   1.0543 B( 11-P , 12-S ) :   1.7425
B( 11-P , 13-O ) :   1.1501 B( 11-P , 16-O ) :   1.1338 B( 13-O , 14-C ) :   0.7568
B( 14-C , 15-C ) :   0.9400 B( 14-C , 31-H ) :   0.9543 B( 14-C , 32-H ) :   0.9548
B( 15-C , 33-H ) :   0.9695 B( 15-C , 34-H ) :   0.9565 B( 15-C , 35-H ) :   0.9632
B( 16-O , 17-C ) :   0.8058 B( 17-C , 18-C ) :   0.9232 B( 17-C , 36-H ) :   0.9573
B( 17-C , 37-H ) :   0.9518 B( 18-C , 38-H ) :   0.9688 B( 18-C , 39-H ) :   0.9546
B( 18-C , 40-H ) :   0.9581

Dispersion correction           -0.021974951
FINAL SINGLE POINT ENERGY     -2932.465856663225

DIPOLE MOMENT
-------------

Method             : SCF
Type of density    : Electron Density
Multiplicity       :   1
Irrep              :   0
Energy             : -2932.4906042030702338 Eh
Relativity type    :
Basis              : AO
                                X                 Y                 Z
Electronic contribution:     -7.625237171       1.400682890      -5.102113678
Nuclear contribution   :      9.173215906      -3.519141348       6.182372125
                        -----------------------------------------
Total Dipole Moment    :      1.547978735      -2.118458458       1.080258447
                        -----------------------------------------
Magnitude (a.u.)       :      2.837439464
Magnitude (Debye)      :      7.212197955

Rotational constants in cm-1:             0.012224             0.005104             0.004867
Rotational constants in MHz :           366.461192           152.999392           145.903540

                             ****ORCA TERMINATED NORMALLY****
TOTAL RUN TIME: 0 days 0 hours 1 minutes 38 seconds 847 msec
