                         Program Version 6.0.0  -   RELEASE  -
|  1> ! pbe def2-sv(p) def2/J RI DEFGRID1 loosescf d4 GCP(DFT/SV(P)) printgap
|  2> %output
|  3>     printlevel normal
|  4> end
|  5> * xyz 0 1
|  6> C 2.5323625923 -3.1008910411 -1.8132492027
|  7> C 2.9545817739 -2.6623346119 -0.4258523465
|  8> O 3.3245337035 -1.2610875959 -0.4014847763
|  9> P 2.3367779813 -0.0656206559 -0.0912163265
| 10> S 3.305208606 1.6011370887 0.2124114672
| 11> O 1.4035042683 -0.5839481402 1.1014501269
| 12> C 1.4635034656 -0.0409256678 2.4319699472
| 13> C 2.6313550249 -0.6238758801 3.2010860084
| 14> S 0.9526368979 -0.0675171946 -1.7035004315
| 15> C 0.3646996835 1.6290108977 -1.4829173793
| 16> S -0.4127896623 1.9059403267 0.133946182
| 17> P -2.0005289316 0.540143143 -0.1271149731
| 18> S -2.7720228738 0.3591257219 -1.9217420086
| 19> O -2.9236810505 1.1784872828 0.9890012887
| 20> C -4.2496009893 0.6511852256 1.2281068028
| 21> C -5.0039326255 1.6584269371 2.0707257433
| 22> O -1.5532719951 -0.8377752638 0.5373399598
| 23> C -1.3929351845 -2.0805801845 -0.1689325718
| 24> C -2.5478761965 -3.0077128468 0.1539950112
| 25> H 3.3167874814 -2.8738594391 -2.5297176375
| 26> H 2.3520976677 -4.171318712 -1.8067497732
| 27> H 1.6232742122 -2.5878271506 -2.1209839371
| 28> H 3.8640736397 -3.1758475306 -0.1094008684
| 29> H 2.1606965997 -2.8302610391 0.3052254943
| 30> H 1.5464059327 1.0485144302 2.3658693006
| 31> H 0.5025221252 -0.3077545529 2.8753622923
| 32> H 3.5638060832 -0.3579279797 2.7039042505
| 33> H 2.6392373316 -0.2156906255 4.2066656469
| 34> H 2.5531331175 -1.7066368703 3.2519271536
| 35> H -0.3582902158 1.8106784097 -2.2776856631
| 36> H 1.2066044471 2.3178875559 -1.5437043077
| 37> H -4.738627824 0.4898498085 0.2610815531
| 38> H -4.1489541918 -0.3072871942 1.7440721283
| 39> H -5.0831384099 2.6029931789 1.540164967
| 40> H -5.9988099895 1.2775447185 2.2773954288
| 41> H -4.4784400781 1.8261693507 3.0062734596
| 42> H -1.3451558564 -1.8817773802 -1.2440613243
| 43> H -0.4392066076 -2.488138114 0.1709430767
| 44> H -3.4781338349 -2.5826778465 -0.217602659
| 45> H -2.3799799822 -3.9653558709 -0.3277827265
| 46> H -2.6266094076 -3.1531645818 1.2277975621
| 47> *
| 48>
| 49>                          ****END OF INPUT****

CARTESIAN COORDINATES (ANGSTROEM)
---------------------------------
  C      2.532363   -3.100891   -1.813249
  C      2.954582   -2.662335   -0.425852
  O      3.324534   -1.261088   -0.401485
  P      2.336778   -0.065621   -0.091216
  S      3.305209    1.601137    0.212411
  O      1.403504   -0.583948    1.101450
  C      1.463503   -0.040926    2.431970
  C      2.631355   -0.623876    3.201086
  S      0.952637   -0.067517   -1.703500
  C      0.364700    1.629011   -1.482917
  S     -0.412790    1.905940    0.133946
  P     -2.000529    0.540143   -0.127115
  S     -2.772023    0.359126   -1.921742
  O     -2.923681    1.178487    0.989001
  C     -4.249601    0.651185    1.228107
  C     -5.003933    1.658427    2.070726
  O     -1.553272   -0.837775    0.537340
  C     -1.392935   -2.080580   -0.168933
  C     -2.547876   -3.007713    0.153995
  H      3.316787   -2.873859   -2.529718
  H      2.352098   -4.171319   -1.806750
  H      1.623274   -2.587827   -2.120984
  H      3.864074   -3.175848   -0.109401
  H      2.160697   -2.830261    0.305225
  H      1.546406    1.048514    2.365869
  H      0.502522   -0.307755    2.875362
  H      3.563806   -0.357928    2.703904
  H      2.639237   -0.215691    4.206666
  H      2.553133   -1.706637    3.251927
  H     -0.358290    1.810678   -2.277686
  H      1.206604    2.317888   -1.543704
  H     -4.738628    0.489850    0.261082
  H     -4.148954   -0.307287    1.744072
  H     -5.083138    2.602993    1.540165
  H     -5.998810    1.277545    2.277395
  H     -4.478440    1.826169    3.006273
  H     -1.345156   -1.881777   -1.244061
  H     -0.439207   -2.488138    0.170943
  H     -3.478134   -2.582678   -0.217603
  H     -2.379980   -3.965356   -0.327783
  H     -2.626609   -3.153165    1.227798

 Total Charge           Charge          ....    0
 Multiplicity           Mult            ....    1
 Number of Electrons    NEL             ....  202
 Basis Dimension        Dim             ....  334

ORBITAL ENERGIES
----------------

  NO   OCC          E(Eh)            E(eV)
   0   2.0000     -88.043139     -2395.7756
   1   2.0000     -88.041130     -2395.7209
   2   2.0000     -87.989531     -2394.3169
   3   2.0000     -87.987565     -2394.2634
   4   2.0000     -76.427922     -2079.7095
   5   2.0000     -76.426099     -2079.6599
   6   2.0000     -18.797780      -511.5136
   7   2.0000     -18.793688      -511.4022
   8   2.0000     -18.790488      -511.3152
   9   2.0000     -18.790457      -511.3143
  10   2.0000      -9.964017      -271.1347
  11   2.0000      -9.956738      -270.9366
  12   2.0000      -9.953717      -270.8544
  13   2.0000      -9.950093      -270.7558
  14   2.0000      -9.948170      -270.7035
  15   2.0000      -9.894946      -269.2552
  16   2.0000      -9.890178      -269.1254
  17   2.0000      -9.887654      -269.0568
  18   2.0000      -9.884106      -268.9602
  19   2.0000      -7.687717      -209.1934
  20   2.0000      -7.686147      -209.1507
  21   2.0000      -7.634504      -207.7454
  22   2.0000      -7.632849      -207.7004
  23   2.0000      -6.425456      -174.8455
  24   2.0000      -6.423916      -174.8037
  25   2.0000      -5.715546      -155.5279
  26   2.0000      -5.714107      -155.4887
  27   2.0000      -5.712362      -155.4413
  28   2.0000      -5.710834      -155.3997
  29   2.0000      -5.704648      -155.2314
  30   2.0000      -5.702825      -155.1818
  31   2.0000      -5.663282      -154.1057
  32   2.0000      -5.661945      -154.0694
  33   2.0000      -5.655430      -153.8921
  34   2.0000      -5.654501      -153.8668
  35   2.0000      -5.653354      -153.8356
  36   2.0000      -5.652890      -153.8230
  37   2.0000      -4.648389      -126.4891
  38   2.0000      -4.646797      -126.4458
  39   2.0000      -4.646405      -126.4351
  40   2.0000      -4.646022      -126.4247
  41   2.0000      -4.645508      -126.4107
  42   2.0000      -4.644568      -126.3851
  43   2.0000      -0.987858       -26.8810
  44   2.0000      -0.986425       -26.8420
  45   2.0000      -0.945757       -25.7354
  46   2.0000      -0.943935       -25.6858
  47   2.0000      -0.766076       -20.8460
  48   2.0000      -0.725928       -19.7535
  49   2.0000      -0.713849       -19.4248
  50   2.0000      -0.692794       -18.8519
  51   2.0000      -0.690385       -18.7863
  52   2.0000      -0.673322       -18.3220
  53   2.0000      -0.651962       -17.7408
  54   2.0000      -0.640190       -17.4205
  55   2.0000      -0.599136       -16.3033
  56   2.0000      -0.589546       -16.0424
  57   2.0000      -0.582298       -15.8451
  58   2.0000      -0.574926       -15.6445
  59   2.0000      -0.558058       -15.1855
  60   2.0000      -0.507786       -13.8176
  61   2.0000      -0.500317       -13.6143
  62   2.0000      -0.483184       -13.1481
  63   2.0000      -0.479778       -13.0554
  64   2.0000      -0.455002       -12.3812
  65   2.0000      -0.449162       -12.2223
  66   2.0000      -0.442864       -12.0509
  67   2.0000      -0.437787       -11.9128
  68   2.0000      -0.429403       -11.6847
  69   2.0000      -0.415252       -11.2996
  70   2.0000      -0.406558       -11.0630
  71   2.0000      -0.397614       -10.8196
  72   2.0000      -0.393538       -10.7087
  73   2.0000      -0.386873       -10.5274
  74   2.0000      -0.378485       -10.2991
  75   2.0000      -0.377968       -10.2850
  76   2.0000      -0.365366        -9.9421
  77   2.0000      -0.362123        -9.8539
  78   2.0000      -0.360175        -9.8009
  79   2.0000      -0.358498        -9.7552
  80   2.0000      -0.354108        -9.6358
  81   2.0000      -0.350629        -9.5411
  82   2.0000      -0.345954        -9.4139
  83   2.0000      -0.340323        -9.2606
  84   2.0000      -0.333748        -9.0818
  85   2.0000      -0.324523        -8.8307
  86   2.0000      -0.315547        -8.5865
  87   2.0000      -0.305103        -8.3023
  88   2.0000      -0.298808        -8.1310
  89   2.0000      -0.290004        -7.8914
  90   2.0000      -0.283128        -7.7043
  91   2.0000      -0.278096        -7.5674
  92   2.0000      -0.274595        -7.4721
  93   2.0000      -0.272336        -7.4106
  94   2.0000      -0.257416        -7.0046
  95   2.0000      -0.231983        -6.3126
  96   2.0000      -0.217405        -5.9159
  97   2.0000      -0.214364        -5.8331
  98   2.0000      -0.208409        -5.6711
  99   2.0000      -0.200804        -5.4641
 100   2.0000      -0.199234        -5.4214
 101   0.0000      -0.048179        -1.3110
 102   0.0000      -0.025844        -0.7032
 103   0.0000      -0.000890        -0.0242
 104   0.0000       0.004020         0.1094
 105   0.0000       0.007866         0.2140

MULLIKEN ATOMIC CHARGES
-----------------------
   0 C :   -0.311952
   1 C :   -0.035801
   2 O :   -0.364335
   3 P :    0.634578
   4 S :   -0.310353
   5 O :   -0.386880
   6 C :   -0.006839
   7 C :   -0.301697
   8 S :   -0.121508
   9 C :   -0.343143
  10 S :   -0.074948
  11 P :    0.638011
  12 S :   -0.339184
  13 O :   -0.378595
  14 C :   -0.021345
  15 C :   -0.273858
  16 O :   -0.377031
  17 C :   -0.029358
  18 C :   -0.281729
  19 H :    0.127857
  20 H :    0.113154
  21 H :    0.139811
  22 H :    0.113376
  23 H :    0.121794
  24 H :    0.117479
  25 H :    0.102075
  26 H :    0.125120
  27 H :    0.112243
  28 H :    0.106549
  29 H :    0.193369
  30 H :    0.192905
  31 H :    0.108703
  32 H :    0.103366
  33 H :    0.123721
  34 H :    0.111194
  35 H :    0.117484
  36 H :    0.118915
  37 H :    0.104836
  38 H :    0.113620
  39 H :    0.107760
  40 H :    0.110635
Sum of atomic charges:    0.0000000

LOEWDIN ATOMIC CHARGES
----------------------
   0 C :   -0.363502
   1 C :   -0.115297
   2 O :   -0.241352
   3 P :    0.572721
   4 S :   -0.304284
   5 O :   -0.248271
   6 C :   -0.123327
   7 C :   -0.363817
   8 S :    0.086093
   9 C :   -0.479014
  10 S :    0.103026
  11 P :    0.570081
  12 S :   -0.324397
  13 O :   -0.250421
  14 C :   -0.117282
  15 C :   -0.349214
  16 O :   -0.242261
  17 C :   -0.128545
  18 C :   -0.357579
  19 H :    0.133037
  20 H :    0.131951
  21 H :    0.118160
  22 H :    0.123493
  23 H :    0.109264
  24 H :    0.107915
  25 H :    0.115988
  26 H :    0.124599
  27 H :    0.130840
  28 H :    0.120040
  29 H :    0.132164
  30 H :    0.132643
  31 H :    0.110010
  32 H :    0.110580
  33 H :    0.130914
  34 H :    0.130746
  35 H :    0.127708
  36 H :    0.103506
  37 H :    0.108287
  38 H :    0.123438
  39 H :    0.129138
  40 H :    0.122221

  Mayer bond orders larger than 0.100000
B(  0-C ,  1-C ) :   1.1701 B(  0-C , 19-H ) :   0.9454 B(  0-C , 20-H ) :   0.9377
B(  0-C , 21-H ) :   0.9291 B(  1-C ,  2-O ) :   0.9039 B(  1-C , 22-H ) :   0.9325
B(  1-C , 23-H ) :   0.9114 B(  2-O ,  3-P ) :   1.1323 B(  3-P ,  4-S ) :   1.6356
B(  3-P ,  5-O ) :   1.0664 B(  3-P ,  8-S ) :   0.9421 B(  4-S ,  8-S ) :   0.1016
B(  5-O ,  6-C ) :   0.8973 B(  6-C ,  7-C ) :   1.1614 B(  6-C , 24-H ) :   0.9094
B(  6-C , 25-H ) :   0.9320 B(  7-C , 26-H ) :   0.9374 B(  7-C , 27-H ) :   0.9411
B(  7-C , 28-H ) :   0.9476 B(  8-S ,  9-C ) :   0.9996 B(  9-C , 10-S ) :   1.0077
B(  9-C , 29-H ) :   0.8845 B(  9-C , 30-H ) :   0.8856 B( 10-S , 11-P ) :   0.9510
B( 10-S , 12-S ) :   0.1053 B( 11-P , 12-S ) :   1.6067 B( 11-P , 13-O ) :   1.1279
B( 11-P , 16-O ) :   1.0956 B( 13-O , 14-C ) :   0.9030 B( 14-C , 15-C ) :   1.1628
B( 14-C , 31-H ) :   0.9140 B( 14-C , 32-H ) :   0.9279 B( 15-C , 33-H ) :   0.9503
B( 15-C , 34-H ) :   0.9414 B( 15-C , 35-H ) :   0.9504 B( 16-O , 17-C ) :   0.9042
B( 17-C , 18-C ) :   1.1616 B( 17-C , 36-H ) :   0.8991 B( 17-C , 37-H ) :   0.9230
B( 18-C , 38-H ) :   0.9431 B( 18-C , 39-H ) :   0.9413 B( 18-C , 40-H ) :   0.9475

Dispersion correction           -0.066597674
FINAL SINGLE POINT ENERGY     -2929.523580219808

DIPOLE MOMENT
-------------

Method             : SCF
Type of density    : Electron Density
Multiplicity       :   1
Irrep              :   0
Energy             : -2929.6424019569572010 Eh
Relativity type    :
Basis              : AO
                                X                 Y                 Z
Electronic contribution:      8.800894609      18.773145285     -12.223005713
Nuclear contribution   :     -9.471869345     -20.475387230      13.231266455
                        -----------------------------------------
Total Dipole Moment    :     -0.670974737      -1.702241945       1.008260742
                        -----------------------------------------
Magnitude (a.u.)       :      2.089120499
Magnitude (Debye)      :      5.310122306

Rotational constants in cm-1:             0.011556             0.005401             0.005068
Rotational constants in MHz :           346.453062           161.908104           151.938529

                             ****ORCA TERMINATED NORMALLY****
TOTAL RUN TIME: 0 days 0 hours 0 minutes 21 seconds 965 msec
