                         Program Version 6.0.0  -   RELEASE  -
|  1> ! r2scan-3c def2/J RI DEFGRID2 scfconv6 printgap
|  2> %output
|  3>     printlevel normal
|  4> end
|  5> * xyz 0 1
|  6> C 5.0730210921 -2.6206272097 -0.7419663404
|  7> C 4.0954127267 -1.5813923355 -1.253052487
|  8> O 2.9923893462 -1.5122533721 -0.3270882365
|  9> P 2.0885807058 -0.2136517383 -0.1717437141
| 10> S 3.1047829707 1.464912684 -0.1001281141
| 11> O 1.2199644762 -0.6068524393 1.089698049
| 12> C 1.6750389615 -0.341267007 2.4399343409
| 13> C 1.0457239872 0.9297251757 2.9727483254
| 14> S 0.673242489 -0.4108565537 -1.7248867286
| 15> C 0.10570671 1.3132934401 -1.7174296056
| 16> S -0.6532976136 1.7948684272 -0.153045233
| 17> P -2.3192987998 0.4588409571 -0.252387788
| 18> S -3.0145420608 0.0682735261 -2.0342139489
| 19> O -3.3866673501 1.1824110688 0.6530952653
| 20> C -3.1340707416 1.7885122613 1.9439705675
| 21> C -3.1604003593 0.7628537586 3.0584516684
| 22> O -1.8771076987 -0.8143794759 0.6006872244
| 23> C -1.6602134291 -2.1313575588 0.0703589537
| 24> C -2.7118436456 -3.0731603085 0.6226270144
| 25> H 5.4652263424 -2.3232302057 0.2265159086
| 26> H 4.5740840274 -3.5800583357 -0.6411635059
| 27> H 5.8930547336 -2.7133635194 -1.4463901985
| 28> H 3.6959923412 -1.8560008023 -2.2325307441
| 29> H 4.5601924466 -0.591660854 -1.3180815365
| 30> H 1.3616864139 -1.2156985973 3.0122806339
| 31> H 2.7658756144 -0.2701701432 2.4436897431
| 32> H 1.3778820953 1.7871367182 2.3910029404
| 33> H -0.0367617456 0.8657133303 2.9069916864
| 34> H 1.3373970134 1.0668504 4.0089157039
| 35> H -0.6204181222 1.4003929854 -2.5252328688
| 36> H 0.9555675992 1.9786545657 -1.8665397846
| 37> H -2.1742166877 2.3113338862 1.9025610929
| 38> H -3.9413878917 2.5151007048 2.0507367955
| 39> H -3.0244539206 1.2694553742 4.0090412182
| 40> H -4.1140479587 0.2419575058 3.0625138389
| 41> H -2.3658750461 0.0338077907 2.9219323886
| 42> H -1.709045331 -2.0935358171 -1.0230080259
| 43> H -0.6526242631 -2.4211543493 0.3778832141
| 44> H -3.6989049622 -2.7568419691 0.2925735296
| 45> H -2.5186686696 -4.0760960349 0.2560244185
| 46> H -2.6850300522 -3.0740716479 1.708513801
| 47> *
| 48>
| 49>                          ****END OF INPUT****

CARTESIAN COORDINATES (ANGSTROEM)
---------------------------------
  C      5.073021   -2.620627   -0.741966
  C      4.095413   -1.581392   -1.253052
  O      2.992389   -1.512253   -0.327088
  P      2.088581   -0.213652   -0.171744
  S      3.104783    1.464913   -0.100128
  O      1.219964   -0.606852    1.089698
  C      1.675039   -0.341267    2.439934
  C      1.045724    0.929725    2.972748
  S      0.673242   -0.410857   -1.724887
  C      0.105707    1.313293   -1.717430
  S     -0.653298    1.794868   -0.153045
  P     -2.319299    0.458841   -0.252388
  S     -3.014542    0.068274   -2.034214
  O     -3.386667    1.182411    0.653095
  C     -3.134071    1.788512    1.943971
  C     -3.160400    0.762854    3.058452
  O     -1.877108   -0.814379    0.600687
  C     -1.660213   -2.131358    0.070359
  C     -2.711844   -3.073160    0.622627
  H      5.465226   -2.323230    0.226516
  H      4.574084   -3.580058   -0.641164
  H      5.893055   -2.713364   -1.446390
  H      3.695992   -1.856001   -2.232531
  H      4.560192   -0.591661   -1.318082
  H      1.361686   -1.215699    3.012281
  H      2.765876   -0.270170    2.443690
  H      1.377882    1.787137    2.391003
  H     -0.036762    0.865713    2.906992
  H      1.337397    1.066850    4.008916
  H     -0.620418    1.400393   -2.525233
  H      0.955568    1.978655   -1.866540
  H     -2.174217    2.311334    1.902561
  H     -3.941388    2.515101    2.050737
  H     -3.024454    1.269455    4.009041
  H     -4.114048    0.241958    3.062514
  H     -2.365875    0.033808    2.921932
  H     -1.709045   -2.093536   -1.023008
  H     -0.652624   -2.421154    0.377883
  H     -3.698905   -2.756842    0.292574
  H     -2.518669   -4.076096    0.256024
  H     -2.685030   -3.074072    1.708514

 Total Charge           Charge          ....    0
 Multiplicity           Mult            ....    1
 Number of Electrons    NEL             ....  202
 Basis Dimension        Dim             ....  539

ORBITAL ENERGIES
----------------

  NO   OCC          E(Eh)            E(eV)
   0   2.0000     -88.578389     -2410.3405
   1   2.0000     -88.572221     -2410.1727
   2   2.0000     -88.523261     -2408.8404
   3   2.0000     -88.518495     -2408.7107
   4   2.0000     -76.916562     -2093.0061
   5   2.0000     -76.913851     -2092.9323
   6   2.0000     -18.994713      -516.8724
   7   2.0000     -18.992745      -516.8189
   8   2.0000     -18.992629      -516.8157
   9   2.0000     -18.986487      -516.6486
  10   2.0000     -10.109010      -275.0801
  11   2.0000     -10.106071      -275.0002
  12   2.0000     -10.103995      -274.9437
  13   2.0000     -10.100184      -274.8400
  14   2.0000     -10.090036      -274.5638
  15   2.0000     -10.036414      -273.1047
  16   2.0000     -10.035350      -273.0758
  17   2.0000     -10.029452      -272.9153
  18   2.0000     -10.026279      -272.8289
  19   2.0000      -7.872699      -214.2270
  20   2.0000      -7.866695      -214.0636
  21   2.0000      -7.818075      -212.7406
  22   2.0000      -7.813386      -212.6130
  23   2.0000      -6.595118      -179.4623
  24   2.0000      -6.591905      -179.3749
  25   2.0000      -5.819563      -158.3584
  26   2.0000      -5.816562      -158.2767
  27   2.0000      -5.813574      -158.1954
  28   2.0000      -5.810597      -158.1144
  29   2.0000      -5.809834      -158.0936
  30   2.0000      -5.803718      -157.9272
  31   2.0000      -5.765694      -156.8925
  32   2.0000      -5.761161      -156.7691
  33   2.0000      -5.758453      -156.6955
  34   2.0000      -5.758000      -156.6831
  35   2.0000      -5.753706      -156.5663
  36   2.0000      -5.753189      -156.5522
  37   2.0000      -4.740586      -128.9979
  38   2.0000      -4.740014      -128.9823
  39   2.0000      -4.738896      -128.9519
  40   2.0000      -4.737687      -128.9190
  41   2.0000      -4.736682      -128.8917
  42   2.0000      -4.735582      -128.8617
  43   2.0000      -1.052440       -28.6384
  44   2.0000      -1.047583       -28.5062
  45   2.0000      -1.012445       -27.5500
  46   2.0000      -1.008318       -27.4377
  47   2.0000      -0.803688       -21.8695
  48   2.0000      -0.762223       -20.7411
  49   2.0000      -0.754158       -20.5217
  50   2.0000      -0.735389       -20.0110
  51   2.0000      -0.733650       -19.9636
  52   2.0000      -0.708821       -19.2880
  53   2.0000      -0.685510       -18.6537
  54   2.0000      -0.671271       -18.2662
  55   2.0000      -0.629620       -17.1328
  56   2.0000      -0.624262       -16.9870
  57   2.0000      -0.607773       -16.5383
  58   2.0000      -0.605555       -16.4780
  59   2.0000      -0.593514       -16.1503
  60   2.0000      -0.537126       -14.6159
  61   2.0000      -0.523648       -14.2492
  62   2.0000      -0.501088       -13.6353
  63   2.0000      -0.498154       -13.5555
  64   2.0000      -0.475631       -12.9426
  65   2.0000      -0.467229       -12.7139
  66   2.0000      -0.460286       -12.5250
  67   2.0000      -0.455659       -12.3991
  68   2.0000      -0.446266       -12.1435
  69   2.0000      -0.433511       -11.7964
  70   2.0000      -0.423362       -11.5203
  71   2.0000      -0.409055       -11.1310
  72   2.0000      -0.406896       -11.0722
  73   2.0000      -0.401851       -10.9349
  74   2.0000      -0.399393       -10.8680
  75   2.0000      -0.393179       -10.6989
  76   2.0000      -0.386719       -10.5232
  77   2.0000      -0.374220       -10.1830
  78   2.0000      -0.372175       -10.1274
  79   2.0000      -0.370682       -10.0868
  80   2.0000      -0.366733        -9.9793
  81   2.0000      -0.363900        -9.9022
  82   2.0000      -0.360850        -9.8192
  83   2.0000      -0.357338        -9.7237
  84   2.0000      -0.349931        -9.5221
  85   2.0000      -0.331083        -9.0092
  86   2.0000      -0.324721        -8.8361
  87   2.0000      -0.317462        -8.6386
  88   2.0000      -0.313313        -8.5257
  89   2.0000      -0.307353        -8.3635
  90   2.0000      -0.299707        -8.1555
  91   2.0000      -0.297468        -8.0945
  92   2.0000      -0.289981        -7.8908
  93   2.0000      -0.280201        -7.6247
  94   2.0000      -0.269688        -7.3386
  95   2.0000      -0.247768        -6.7421
  96   2.0000      -0.229333        -6.2405
  97   2.0000      -0.227521        -6.1912
  98   2.0000      -0.220630        -6.0037
  99   2.0000      -0.214006        -5.8234
 100   2.0000      -0.211297        -5.7497
 101   0.0000      -0.049706        -1.3526
 102   0.0000      -0.027980        -0.7614
 103   0.0000      -0.003227        -0.0878
 104   0.0000       0.004856         0.1321
 105   0.0000       0.006803         0.1851

MULLIKEN ATOMIC CHARGES
-----------------------
   0 C :   -0.444661
   1 C :   -0.145998
   2 O :   -0.284862
   3 P :    0.683954
   4 S :   -0.480925
   5 O :   -0.258955
   6 C :   -0.126814
   7 C :   -0.458648
   8 S :   -0.140721
   9 C :   -0.237584
  10 S :   -0.161763
  11 P :    0.667020
  12 S :   -0.456021
  13 O :   -0.287427
  14 C :   -0.150728
  15 C :   -0.433046
  16 O :   -0.240949
  17 C :   -0.127605
  18 C :   -0.479789
  19 H :    0.155703
  20 H :    0.153432
  21 H :    0.147633
  22 H :    0.150959
  23 H :    0.170762
  24 H :    0.149935
  25 H :    0.156176
  26 H :    0.185695
  27 H :    0.146979
  28 H :    0.144749
  29 H :    0.212080
  30 H :    0.211320
  31 H :    0.151923
  32 H :    0.158431
  33 H :    0.150264
  34 H :    0.156978
  35 H :    0.161588
  36 H :    0.178000
  37 H :    0.164065
  38 H :    0.165094
  39 H :    0.146026
  40 H :    0.147734
Sum of atomic charges:    0.0000000

LOEWDIN ATOMIC CHARGES
----------------------
   0 C :   -0.386339
   1 C :    0.020389
   2 O :   -0.665721
   3 P :    0.373876
   4 S :   -0.131743
   5 O :   -0.671780
   6 C :    0.028026
   7 C :   -0.403635
   8 S :    0.173799
   9 C :   -0.419904
  10 S :    0.140289
  11 P :    0.391381
  12 S :   -0.101037
  13 O :   -0.652278
  14 C :    0.026211
  15 C :   -0.400082
  16 O :   -0.676580
  17 C :    0.002284
  18 C :   -0.392355
  19 H :    0.160048
  20 H :    0.159531
  21 H :    0.160354
  22 H :    0.171775
  23 H :    0.181413
  24 H :    0.178102
  25 H :    0.177272
  26 H :    0.169788
  27 H :    0.158112
  28 H :    0.157499
  29 H :    0.191248
  30 H :    0.190578
  31 H :    0.174979
  32 H :    0.183797
  33 H :    0.159654
  34 H :    0.163170
  35 H :    0.166483
  36 H :    0.183841
  37 H :    0.179630
  38 H :    0.162993
  39 H :    0.159028
  40 H :    0.155904

  Mayer bond orders larger than 0.100000
B(  0-C ,  1-C ) :   0.9589 B(  0-C , 19-H ) :   0.9724 B(  0-C , 20-H ) :   0.9718
B(  0-C , 21-H ) :   0.9645 B(  1-C ,  2-O ) :   0.7745 B(  1-C , 22-H ) :   0.9451
B(  1-C , 23-H ) :   0.9509 B(  2-O ,  3-P ) :   1.0884 B(  3-P ,  4-S ) :   1.7480
B(  3-P ,  5-O ) :   1.1634 B(  3-P ,  8-S ) :   1.0684 B(  5-O ,  6-C ) :   0.7573
B(  6-C ,  7-C ) :   0.9456 B(  6-C , 24-H ) :   0.9619 B(  6-C , 25-H ) :   0.9650
B(  7-C , 26-H ) :   0.9595 B(  7-C , 27-H ) :   0.9676 B(  7-C , 28-H ) :   0.9634
B(  8-S ,  9-C ) :   0.8936 B(  9-C , 10-S ) :   0.9111 B(  9-C , 29-H ) :   0.9093
B(  9-C , 30-H ) :   0.9109 B( 10-S , 11-P ) :   0.9936 B( 11-P , 12-S ) :   1.8304
B( 11-P , 13-O ) :   1.1810 B( 11-P , 16-O ) :   1.0435 B( 13-O , 14-C ) :   0.7715
B( 14-C , 15-C ) :   0.9415 B( 14-C , 31-H ) :   0.9641 B( 14-C , 32-H ) :   0.9630
B( 15-C , 33-H ) :   0.9665 B( 15-C , 34-H ) :   0.9659 B( 15-C , 35-H ) :   0.9599
B( 16-O , 17-C ) :   0.7270 B( 17-C , 18-C ) :   0.9385 B( 17-C , 36-H ) :   0.9498
B( 17-C , 37-H ) :   0.9557 B( 18-C , 38-H ) :   0.9725 B( 18-C , 39-H ) :   0.9667
B( 18-C , 40-H ) :   0.9787

Dispersion correction           -0.021982406
FINAL SINGLE POINT ENERGY     -2932.461214402957

DIPOLE MOMENT
-------------

Method             : SCF
Type of density    : Electron Density
Multiplicity       :   1
Irrep              :   0
Energy             : -2932.4857602625861546 Eh
Relativity type    :
Basis              : AO
                                X                 Y                 Z
Electronic contribution:     -3.679899305      12.101537235     -18.314369307
Nuclear contribution   :      4.358051785     -12.996163266      19.774596118
                        -----------------------------------------
Total Dipole Moment    :      0.678152480      -0.894626030       1.460226811
                        -----------------------------------------
Magnitude (a.u.)       :      1.841876451
Magnitude (Debye)      :      4.681677879

Rotational constants in cm-1:             0.011822             0.005327             0.005033
Rotational constants in MHz :           354.426585           159.694689           150.885285

                             ****ORCA TERMINATED NORMALLY****
TOTAL RUN TIME: 0 days 0 hours 1 minutes 23 seconds 998 msec
