                         Program Version 6.0.0  -   RELEASE  -
|  1> ! r2scan-3c def2/J RI DEFGRID2 scfconv6 printgap
|  2> %output
|  3>     printlevel normal
|  4> end
|  5> %cpcm
|  6>     smd true
|  7>     smdsolvent "water"
|  8> end
|  9> * xyz 0 1
| 10> C 5.0730210921 -2.6206272097 -0.7419663404
| 11> C 4.0954127267 -1.5813923355 -1.253052487
| 12> O 2.9923893462 -1.5122533721 -0.3270882365
| 13> P 2.0885807058 -0.2136517383 -0.1717437141
| 14> S 3.1047829707 1.464912684 -0.1001281141
| 15> O 1.2199644762 -0.6068524393 1.089698049
| 16> C 1.6750389615 -0.341267007 2.4399343409
| 17> C 1.0457239872 0.9297251757 2.9727483254
| 18> S 0.673242489 -0.4108565537 -1.7248867286
| 19> C 0.10570671 1.3132934401 -1.7174296056
| 20> S -0.6532976136 1.7948684272 -0.153045233
| 21> P -2.3192987998 0.4588409571 -0.252387788
| 22> S -3.0145420608 0.0682735261 -2.0342139489
| 23> O -3.3866673501 1.1824110688 0.6530952653
| 24> C -3.1340707416 1.7885122613 1.9439705675
| 25> C -3.1604003593 0.7628537586 3.0584516684
| 26> O -1.8771076987 -0.8143794759 0.6006872244
| 27> C -1.6602134291 -2.1313575588 0.0703589537
| 28> C -2.7118436456 -3.0731603085 0.6226270144
| 29> H 5.4652263424 -2.3232302057 0.2265159086
| 30> H 4.5740840274 -3.5800583357 -0.6411635059
| 31> H 5.8930547336 -2.7133635194 -1.4463901985
| 32> H 3.6959923412 -1.8560008023 -2.2325307441
| 33> H 4.5601924466 -0.591660854 -1.3180815365
| 34> H 1.3616864139 -1.2156985973 3.0122806339
| 35> H 2.7658756144 -0.2701701432 2.4436897431
| 36> H 1.3778820953 1.7871367182 2.3910029404
| 37> H -0.0367617456 0.8657133303 2.9069916864
| 38> H 1.3373970134 1.0668504 4.0089157039
| 39> H -0.6204181222 1.4003929854 -2.5252328688
| 40> H 0.9555675992 1.9786545657 -1.8665397846
| 41> H -2.1742166877 2.3113338862 1.9025610929
| 42> H -3.9413878917 2.5151007048 2.0507367955
| 43> H -3.0244539206 1.2694553742 4.0090412182
| 44> H -4.1140479587 0.2419575058 3.0625138389
| 45> H -2.3658750461 0.0338077907 2.9219323886
| 46> H -1.709045331 -2.0935358171 -1.0230080259
| 47> H -0.6526242631 -2.4211543493 0.3778832141
| 48> H -3.6989049622 -2.7568419691 0.2925735296
| 49> H -2.5186686696 -4.0760960349 0.2560244185
| 50> H -2.6850300522 -3.0740716479 1.708513801
| 51> *
| 52>
| 53>                          ****END OF INPUT****

CARTESIAN COORDINATES (ANGSTROEM)
---------------------------------
  C      5.073021   -2.620627   -0.741966
  C      4.095413   -1.581392   -1.253052
  O      2.992389   -1.512253   -0.327088
  P      2.088581   -0.213652   -0.171744
  S      3.104783    1.464913   -0.100128
  O      1.219964   -0.606852    1.089698
  C      1.675039   -0.341267    2.439934
  C      1.045724    0.929725    2.972748
  S      0.673242   -0.410857   -1.724887
  C      0.105707    1.313293   -1.717430
  S     -0.653298    1.794868   -0.153045
  P     -2.319299    0.458841   -0.252388
  S     -3.014542    0.068274   -2.034214
  O     -3.386667    1.182411    0.653095
  C     -3.134071    1.788512    1.943971
  C     -3.160400    0.762854    3.058452
  O     -1.877108   -0.814379    0.600687
  C     -1.660213   -2.131358    0.070359
  C     -2.711844   -3.073160    0.622627
  H      5.465226   -2.323230    0.226516
  H      4.574084   -3.580058   -0.641164
  H      5.893055   -2.713364   -1.446390
  H      3.695992   -1.856001   -2.232531
  H      4.560192   -0.591661   -1.318082
  H      1.361686   -1.215699    3.012281
  H      2.765876   -0.270170    2.443690
  H      1.377882    1.787137    2.391003
  H     -0.036762    0.865713    2.906992
  H      1.337397    1.066850    4.008916
  H     -0.620418    1.400393   -2.525233
  H      0.955568    1.978655   -1.866540
  H     -2.174217    2.311334    1.902561
  H     -3.941388    2.515101    2.050737
  H     -3.024454    1.269455    4.009041
  H     -4.114048    0.241958    3.062514
  H     -2.365875    0.033808    2.921932
  H     -1.709045   -2.093536   -1.023008
  H     -0.652624   -2.421154    0.377883
  H     -3.698905   -2.756842    0.292574
  H     -2.518669   -4.076096    0.256024
  H     -2.685030   -3.074072    1.708514

 Total Charge           Charge          ....    0
 Multiplicity           Mult            ....    1
 Number of Electrons    NEL             ....  202
 Basis Dimension        Dim             ....  539

ORBITAL ENERGIES
----------------

  NO   OCC          E(Eh)            E(eV)
   0   2.0000     -88.580922     -2410.4094
   1   2.0000     -88.576745     -2410.2958
   2   2.0000     -88.530154     -2409.0280
   3   2.0000     -88.527940     -2408.9677
   4   2.0000     -76.921418     -2093.1382
   5   2.0000     -76.919229     -2093.0786
   6   2.0000     -18.996470      -516.9202
   7   2.0000     -18.994578      -516.8688
   8   2.0000     -18.992170      -516.8032
   9   2.0000     -18.991159      -516.7757
  10   2.0000     -10.105427      -274.9827
  11   2.0000     -10.096186      -274.7312
  12   2.0000     -10.090762      -274.5836
  13   2.0000     -10.089061      -274.5373
  14   2.0000     -10.086260      -274.4611
  15   2.0000     -10.019325      -272.6397
  16   2.0000     -10.019282      -272.6385
  17   2.0000     -10.017014      -272.5768
  18   2.0000     -10.015794      -272.5436
  19   2.0000      -7.875290      -214.2975
  20   2.0000      -7.871160      -214.1852
  21   2.0000      -7.825405      -212.9401
  22   2.0000      -7.823032      -212.8755
  23   2.0000      -6.599523      -179.5821
  24   2.0000      -6.597786      -179.5349
  25   2.0000      -5.822127      -158.4281
  26   2.0000      -5.819143      -158.3469
  27   2.0000      -5.818022      -158.3164
  28   2.0000      -5.815043      -158.2354
  29   2.0000      -5.812459      -158.1650
  30   2.0000      -5.808232      -158.0500
  31   2.0000      -5.773063      -157.0930
  32   2.0000      -5.770598      -157.0260
  33   2.0000      -5.765706      -156.8928
  34   2.0000      -5.765273      -156.8810
  35   2.0000      -5.763411      -156.8304
  36   2.0000      -5.762959      -156.8181
  37   2.0000      -4.745268      -129.1253
  38   2.0000      -4.744277      -129.0983
  39   2.0000      -4.743299      -129.0717
  40   2.0000      -4.743191      -129.0688
  41   2.0000      -4.742692      -129.0552
  42   2.0000      -4.741653      -129.0269
  43   2.0000      -1.052070       -28.6283
  44   2.0000      -1.051129       -28.6027
  45   2.0000      -1.012134       -27.5416
  46   2.0000      -1.010773       -27.5045
  47   2.0000      -0.805578       -21.9209
  48   2.0000      -0.757804       -20.6209
  49   2.0000      -0.746177       -20.3045
  50   2.0000      -0.726462       -19.7680
  51   2.0000      -0.722758       -19.6672
  52   2.0000      -0.707489       -19.2517
  53   2.0000      -0.688457       -18.7339
  54   2.0000      -0.676451       -18.4072
  55   2.0000      -0.626818       -17.0566
  56   2.0000      -0.619056       -16.8454
  57   2.0000      -0.600507       -16.3406
  58   2.0000      -0.596687       -16.2367
  59   2.0000      -0.590028       -16.0555
  60   2.0000      -0.531827       -14.4717
  61   2.0000      -0.520624       -14.1669
  62   2.0000      -0.498111       -13.5543
  63   2.0000      -0.491971       -13.3872
  64   2.0000      -0.474691       -12.9170
  65   2.0000      -0.461774       -12.5655
  66   2.0000      -0.455038       -12.3822
  67   2.0000      -0.446590       -12.1523
  68   2.0000      -0.440882       -11.9970
  69   2.0000      -0.433000       -11.7825
  70   2.0000      -0.419624       -11.4185
  71   2.0000      -0.404872       -11.0171
  72   2.0000      -0.403100       -10.9689
  73   2.0000      -0.397604       -10.8193
  74   2.0000      -0.393084       -10.6964
  75   2.0000      -0.387614       -10.5475
  76   2.0000      -0.383541       -10.4367
  77   2.0000      -0.371281       -10.1031
  78   2.0000      -0.362451        -9.8628
  79   2.0000      -0.357644        -9.7320
  80   2.0000      -0.356112        -9.6903
  81   2.0000      -0.354713        -9.6522
  82   2.0000      -0.352279        -9.5860
  83   2.0000      -0.348815        -9.4917
  84   2.0000      -0.344490        -9.3741
  85   2.0000      -0.328505        -8.9391
  86   2.0000      -0.318212        -8.6590
  87   2.0000      -0.311579        -8.4785
  88   2.0000      -0.308179        -8.3860
  89   2.0000      -0.302186        -8.2229
  90   2.0000      -0.299152        -8.1403
  91   2.0000      -0.294153        -8.0043
  92   2.0000      -0.289288        -7.8719
  93   2.0000      -0.278227        -7.5709
  94   2.0000      -0.271626        -7.3913
  95   2.0000      -0.250430        -6.8145
  96   2.0000      -0.238468        -6.4890
  97   2.0000      -0.234810        -6.3895
  98   2.0000      -0.228130        -6.2077
  99   2.0000      -0.222219        -6.0469
 100   2.0000      -0.219205        -5.9649
 101   0.0000      -0.053861        -1.4656
 102   0.0000      -0.033779        -0.9192
 103   0.0000      -0.004915        -0.1338
 104   0.0000       0.000159         0.0043
 105   0.0000       0.006697         0.1822

MULLIKEN ATOMIC CHARGES
-----------------------
   0 C :   -0.485769
   1 C :   -0.140326
   2 O :   -0.311036
   3 P :    0.717269
   4 S :   -0.525407
   5 O :   -0.284363
   6 C :   -0.131560
   7 C :   -0.488115
   8 S :   -0.151658
   9 C :   -0.249069
  10 S :   -0.171422
  11 P :    0.679132
  12 S :   -0.509253
  13 O :   -0.326685
  14 C :   -0.128360
  15 C :   -0.475347
  16 O :   -0.266568
  17 C :   -0.102974
  18 C :   -0.520641
  19 H :    0.166260
  20 H :    0.165695
  21 H :    0.169326
  22 H :    0.171337
  23 H :    0.170938
  24 H :    0.177125
  25 H :    0.170527
  26 H :    0.172541
  27 H :    0.165245
  28 H :    0.168934
  29 H :    0.231014
  30 H :    0.233855
  31 H :    0.162684
  32 H :    0.181227
  33 H :    0.173721
  34 H :    0.168243
  35 H :    0.169102
  36 H :    0.175123
  37 H :    0.176861
  38 H :    0.166611
  39 H :    0.168980
  40 H :    0.166805
Sum of atomic charges:   -0.0000000

LOEWDIN ATOMIC CHARGES
----------------------
   0 C :   -0.390388
   1 C :    0.024573
   2 O :   -0.676760
   3 P :    0.379349
   4 S :   -0.159790
   5 O :   -0.683662
   6 C :    0.032835
   7 C :   -0.406229
   8 S :    0.168424
   9 C :   -0.415527
  10 S :    0.140045
  11 P :    0.391079
  12 S :   -0.142003
  13 O :   -0.674189
  14 C :    0.034778
  15 C :   -0.400565
  16 O :   -0.684033
  17 C :    0.007007
  18 C :   -0.395642
  19 H :    0.162310
  20 H :    0.162999
  21 H :    0.168747
  22 H :    0.179809
  23 H :    0.181702
  24 H :    0.189682
  25 H :    0.181747
  26 H :    0.163149
  27 H :    0.163683
  28 H :    0.166339
  29 H :    0.196521
  30 H :    0.197479
  31 H :    0.181115
  32 H :    0.193601
  33 H :    0.169848
  34 H :    0.164852
  35 H :    0.167291
  36 H :    0.182820
  37 H :    0.185144
  38 H :    0.161945
  39 H :    0.167558
  40 H :    0.162355

  Mayer bond orders larger than 0.100000
B(  0-C ,  1-C ) :   0.9543 B(  0-C , 19-H ) :   0.9698 B(  0-C , 20-H ) :   0.9689
B(  0-C , 21-H ) :   0.9589 B(  1-C ,  2-O ) :   0.7673 B(  1-C , 22-H ) :   0.9368
B(  1-C , 23-H ) :   0.9486 B(  2-O ,  3-P ) :   1.0954 B(  3-P ,  4-S ) :   1.7113
B(  3-P ,  5-O ) :   1.1726 B(  3-P ,  8-S ) :   1.0786 B(  5-O ,  6-C ) :   0.7422
B(  6-C ,  7-C ) :   0.9324 B(  6-C , 24-H ) :   0.9512 B(  6-C , 25-H ) :   0.9608
B(  7-C , 26-H ) :   0.9637 B(  7-C , 27-H ) :   0.9640 B(  7-C , 28-H ) :   0.9592
B(  8-S ,  9-C ) :   0.8853 B(  9-C , 10-S ) :   0.8969 B(  9-C , 29-H ) :   0.9044
B(  9-C , 30-H ) :   0.9045 B( 10-S , 11-P ) :   1.0110 B( 11-P , 12-S ) :   1.8101
B( 11-P , 13-O ) :   1.1863 B( 11-P , 16-O ) :   1.0465 B( 13-O , 14-C ) :   0.7644
B( 14-C , 15-C ) :   0.9300 B( 14-C , 31-H ) :   0.9527 B( 14-C , 32-H ) :   0.9530
B( 15-C , 33-H ) :   0.9595 B( 15-C , 34-H ) :   0.9661 B( 15-C , 35-H ) :   0.9584
B( 16-O , 17-C ) :   0.7167 B( 17-C , 18-C ) :   0.9372 B( 17-C , 36-H ) :   0.9484
B( 17-C , 37-H ) :   0.9459 B( 18-C , 38-H ) :   0.9718 B( 18-C , 39-H ) :   0.9608
B( 18-C , 40-H ) :   0.9737

Dispersion correction           -0.021982406
FINAL SINGLE POINT ENERGY     -2932.471077348640

DIPOLE MOMENT
-------------

Method             : SCF
Type of density    : Electron Density
Multiplicity       :   1
Irrep              :   0
Energy             : -2932.4956232082695351 Eh
Relativity type    :
Basis              : AO
                                X                 Y                 Z
Electronic contribution:     -3.355970167      11.868752378     -17.805864081
Nuclear contribution   :      4.358051785     -12.996163266      19.774596118
                        -----------------------------------------
Total Dipole Moment    :      1.002081618      -1.127410888       1.968732037
                        -----------------------------------------
Magnitude (a.u.)       :      2.480146913
Magnitude (Debye)      :      6.304032464

Rotational constants in cm-1:             0.011822             0.005327             0.005033
Rotational constants in MHz :           354.426585           159.694689           150.885285

                             ****ORCA TERMINATED NORMALLY****
TOTAL RUN TIME: 0 days 0 hours 1 minutes 52 seconds 778 msec
