                         Program Version 6.0.0  -   RELEASE  -
|  1> ! pbe def2-sv(p) def2/J RI DEFGRID1 loosescf d4 GCP(DFT/SV(P)) printgap
|  2> %output
|  3>     printlevel normal
|  4> end
|  5> * xyz 0 1
|  6> C 4.397181268 -0.1460827677 -2.1746714785
|  7> C 4.407758261 0.9516376524 -1.1305270949
|  8> O 3.6742276212 0.5921713715 0.0528259469
|  9> P 2.0993369802 0.3608237556 0.062227951
| 10> S 1.0587804217 1.6139202099 -1.0269393979
| 11> O 1.7734591001 0.4931184078 1.6002869647
| 12> C 2.4776097919 -0.2770060182 2.6165837636
| 13> C 1.5327518001 -1.2578448668 3.2801266583
| 14> S 1.9161324675 -1.7062271207 -0.4019377215
| 15> C 0.1547322708 -1.7328053672 -0.8019736947
| 16> S -0.8886327121 -1.2004411736 0.5898498613
| 17> P -2.142851919 0.2403161092 -0.3524777951
| 18> S -2.0543097111 0.2352001611 -2.3092612136
| 19> O -1.8726864942 1.6791581672 0.2263289092
| 20> C -2.2383364097 2.155774616 1.5435489166
| 21> C -1.5193708206 1.4120200996 2.6492718747
| 22> O -3.5560602984 -0.0743516101 0.3134007598
| 23> C -4.2305379755 -1.3443397512 0.251891866
| 24> C -4.933703036 -1.5554810448 -1.0742913856
| 25> H 5.0734342289 0.1211436222 -2.9803849402
| 26> H 4.7106762522 -1.0904213638 -1.736770431
| 27> H 3.3944005631 -0.261961435 -2.5837025073
| 28> H 3.976395963 1.8720320155 -1.5361578624
| 29> H 5.4152316997 1.1455225306 -0.7594345701
| 30> H 3.3212210419 -0.7900131233 2.1506621923
| 31> H 2.8470798265 0.4653105668 3.3254187365
| 32> H 0.6832224933 -0.7336236004 3.7076280225
| 33> H 1.1643303098 -1.9833457027 2.5588575387
| 34> H 2.0671929857 -1.7786589199 4.0680605787
| 35> H -0.0809463812 -2.7667402683 -1.0416847333
| 36> H -0.0532424559 -1.0750950892 -1.6512266611
| 37> H -1.9463357249 3.2070164349 1.5119605334
| 38> H -3.3218206159 2.0716322599 1.6475797851
| 39> H -0.4458186777 1.4296623532 2.4716155241
| 40> H -1.7342334769 1.8938188464 3.598107826
| 41> H -1.8539126109 0.376396462 2.6904657341
| 42> H -3.5040597002 -2.1392414013 0.4431830628
| 43> H -4.9469100909 -1.2971647959 1.0746096099
| 44> H -5.6234643554 -0.7381154996 -1.2678591102
| 45> H -4.2114778281 -1.5947362918 -1.8867950646
| 46> H -5.4843220108 -2.4900184747 -1.0411417204
| 47> *
| 48>
| 49>                          ****END OF INPUT****

CARTESIAN COORDINATES (ANGSTROEM)
---------------------------------
  C      4.397181   -0.146083   -2.174671
  C      4.407758    0.951638   -1.130527
  O      3.674228    0.592171    0.052826
  P      2.099337    0.360824    0.062228
  S      1.058780    1.613920   -1.026939
  O      1.773459    0.493118    1.600287
  C      2.477610   -0.277006    2.616584
  C      1.532752   -1.257845    3.280127
  S      1.916132   -1.706227   -0.401938
  C      0.154732   -1.732805   -0.801974
  S     -0.888633   -1.200441    0.589850
  P     -2.142852    0.240316   -0.352478
  S     -2.054310    0.235200   -2.309261
  O     -1.872686    1.679158    0.226329
  C     -2.238336    2.155775    1.543549
  C     -1.519371    1.412020    2.649272
  O     -3.556060   -0.074352    0.313401
  C     -4.230538   -1.344340    0.251892
  C     -4.933703   -1.555481   -1.074291
  H      5.073434    0.121144   -2.980385
  H      4.710676   -1.090421   -1.736770
  H      3.394401   -0.261961   -2.583703
  H      3.976396    1.872032   -1.536158
  H      5.415232    1.145523   -0.759435
  H      3.321221   -0.790013    2.150662
  H      2.847080    0.465311    3.325419
  H      0.683222   -0.733624    3.707628
  H      1.164330   -1.983346    2.558858
  H      2.067193   -1.778659    4.068061
  H     -0.080946   -2.766740   -1.041685
  H     -0.053242   -1.075095   -1.651227
  H     -1.946336    3.207016    1.511961
  H     -3.321821    2.071632    1.647580
  H     -0.445819    1.429662    2.471616
  H     -1.734233    1.893819    3.598108
  H     -1.853913    0.376396    2.690466
  H     -3.504060   -2.139241    0.443183
  H     -4.946910   -1.297165    1.074610
  H     -5.623464   -0.738115   -1.267859
  H     -4.211478   -1.594736   -1.886795
  H     -5.484322   -2.490018   -1.041142

 Total Charge           Charge          ....    0
 Multiplicity           Mult            ....    1
 Number of Electrons    NEL             ....  202
 Basis Dimension        Dim             ....  334

ORBITAL ENERGIES
----------------

  NO   OCC          E(Eh)            E(eV)
   0   2.0000     -88.043809     -2395.7938
   1   2.0000     -88.041152     -2395.7215
   2   2.0000     -87.979554     -2394.0454
   3   2.0000     -87.976183     -2393.9536
   4   2.0000     -76.422852     -2079.5715
   5   2.0000     -76.421674     -2079.5395
   6   2.0000     -18.790689      -511.3207
   7   2.0000     -18.790141      -511.3057
   8   2.0000     -18.789248      -511.2814
   9   2.0000     -18.782314      -511.0927
  10   2.0000      -9.956904      -270.9411
  11   2.0000      -9.952431      -270.8194
  12   2.0000      -9.951872      -270.8042
  13   2.0000      -9.951567      -270.7959
  14   2.0000      -9.949336      -270.7352
  15   2.0000      -9.886470      -269.0245
  16   2.0000      -9.882647      -268.9205
  17   2.0000      -9.882092      -268.9054
  18   2.0000      -9.877676      -268.7852
  19   2.0000      -7.688719      -209.2207
  20   2.0000      -7.685101      -209.1222
  21   2.0000      -7.624348      -207.4691
  22   2.0000      -7.621385      -207.3884
  23   2.0000      -6.420177      -174.7019
  24   2.0000      -6.418518      -174.6568
  25   2.0000      -5.716555      -155.5554
  26   2.0000      -5.713095      -155.4612
  27   2.0000      -5.712932      -155.4568
  28   2.0000      -5.709507      -155.3636
  29   2.0000      -5.705891      -155.2652
  30   2.0000      -5.702346      -155.1687
  31   2.0000      -5.653481      -153.8390
  32   2.0000      -5.650488      -153.7576
  33   2.0000      -5.644774      -153.6021
  34   2.0000      -5.644534      -153.5956
  35   2.0000      -5.641817      -153.5216
  36   2.0000      -5.641478      -153.5124
  37   2.0000      -4.643007      -126.3426
  38   2.0000      -4.641956      -126.3141
  39   2.0000      -4.641411      -126.2992
  40   2.0000      -4.640404      -126.2718
  41   2.0000      -4.640297      -126.2689
  42   2.0000      -4.638797      -126.2281
  43   2.0000      -0.986212       -26.8362
  44   2.0000      -0.982847       -26.7446
  45   2.0000      -0.942356       -25.6428
  46   2.0000      -0.936929       -25.4951
  47   2.0000      -0.760482       -20.6938
  48   2.0000      -0.717288       -19.5184
  49   2.0000      -0.709164       -19.2973
  50   2.0000      -0.688414       -18.7327
  51   2.0000      -0.686089       -18.6694
  52   2.0000      -0.676000       -18.3949
  53   2.0000      -0.647532       -17.6202
  54   2.0000      -0.630576       -17.1588
  55   2.0000      -0.592912       -16.1340
  56   2.0000      -0.584832       -15.9141
  57   2.0000      -0.575016       -15.6470
  58   2.0000      -0.574550       -15.6343
  59   2.0000      -0.560112       -15.2414
  60   2.0000      -0.502366       -13.6701
  61   2.0000      -0.495978       -13.4962
  62   2.0000      -0.470945       -12.8151
  63   2.0000      -0.468462       -12.7475
  64   2.0000      -0.446671       -12.1545
  65   2.0000      -0.445240       -12.1156
  66   2.0000      -0.442306       -12.0358
  67   2.0000      -0.435814       -11.8591
  68   2.0000      -0.428674       -11.6648
  69   2.0000      -0.421525       -11.4703
  70   2.0000      -0.409176       -11.1342
  71   2.0000      -0.397599       -10.8192
  72   2.0000      -0.394215       -10.7271
  73   2.0000      -0.387677       -10.5492
  74   2.0000      -0.375493       -10.2177
  75   2.0000      -0.365247        -9.9389
  76   2.0000      -0.359656        -9.7867
  77   2.0000      -0.355840        -9.6829
  78   2.0000      -0.350945        -9.5497
  79   2.0000      -0.350000        -9.5240
  80   2.0000      -0.345289        -9.3958
  81   2.0000      -0.344396        -9.3715
  82   2.0000      -0.338921        -9.2225
  83   2.0000      -0.335153        -9.1200
  84   2.0000      -0.330261        -8.9869
  85   2.0000      -0.316401        -8.6097
  86   2.0000      -0.310419        -8.4469
  87   2.0000      -0.301647        -8.2082
  88   2.0000      -0.293028        -7.9737
  89   2.0000      -0.291317        -7.9271
  90   2.0000      -0.284181        -7.7330
  91   2.0000      -0.272636        -7.4188
  92   2.0000      -0.268373        -7.3028
  93   2.0000      -0.260421        -7.0864
  94   2.0000      -0.254435        -6.9235
  95   2.0000      -0.231667        -6.3040
  96   2.0000      -0.222106        -6.0438
  97   2.0000      -0.207564        -5.6481
  98   2.0000      -0.196456        -5.3458
  99   2.0000      -0.189498        -5.1565
 100   2.0000      -0.180789        -4.9195
 101   0.0000      -0.041042        -1.1168
 102   0.0000      -0.033717        -0.9175
 103   0.0000      -0.005405        -0.1471
 104   0.0000       0.008601         0.2340
 105   0.0000       0.014948         0.4068

MULLIKEN ATOMIC CHARGES
-----------------------
   0 C :   -0.320322
   1 C :    0.003000
   2 O :   -0.381956
   3 P :    0.585031
   4 S :   -0.277838
   5 O :   -0.354448
   6 C :   -0.012788
   7 C :   -0.287756
   8 S :   -0.116658
   9 C :   -0.327875
  10 S :   -0.143141
  11 P :    0.633638
  12 S :   -0.297130
  13 O :   -0.347665
  14 C :    0.015028
  15 C :   -0.357979
  16 O :   -0.384771
  17 C :   -0.008400
  18 C :   -0.298270
  19 H :    0.113901
  20 H :    0.115309
  21 H :    0.133078
  22 H :    0.112535
  23 H :    0.103136
  24 H :    0.106929
  25 H :    0.110663
  26 H :    0.123595
  27 H :    0.121037
  28 H :    0.107638
  29 H :    0.174912
  30 H :    0.207680
  31 H :    0.110629
  32 H :    0.106462
  33 H :    0.153799
  34 H :    0.109395
  35 H :    0.119329
  36 H :    0.100033
  37 H :    0.101754
  38 H :    0.115904
  39 H :    0.127842
  40 H :    0.104741
Sum of atomic charges:   -0.0000000

LOEWDIN ATOMIC CHARGES
----------------------
   0 C :   -0.371518
   1 C :   -0.116097
   2 O :   -0.251896
   3 P :    0.558982
   4 S :   -0.285113
   5 O :   -0.236428
   6 C :   -0.111809
   7 C :   -0.359624
   8 S :    0.071617
   9 C :   -0.481187
  10 S :    0.073051
  11 P :    0.570787
  12 S :   -0.292324
  13 O :   -0.224661
  14 C :   -0.106526
  15 C :   -0.376192
  16 O :   -0.248409
  17 C :   -0.119068
  18 C :   -0.367010
  19 H :    0.131489
  20 H :    0.121951
  21 H :    0.123599
  22 H :    0.113267
  23 H :    0.117811
  24 H :    0.108480
  25 H :    0.121009
  26 H :    0.127741
  27 H :    0.116156
  28 H :    0.128601
  29 H :    0.134023
  30 H :    0.124738
  31 H :    0.123814
  32 H :    0.112152
  33 H :    0.132111
  34 H :    0.129316
  35 H :    0.112988
  36 H :    0.100744
  37 H :    0.116492
  38 H :    0.127425
  39 H :    0.122252
  40 H :    0.127266

  Mayer bond orders larger than 0.100000
B(  0-C ,  1-C ) :   1.1664 B(  0-C , 19-H ) :   0.9371 B(  0-C , 20-H ) :   0.9436
B(  0-C , 21-H ) :   0.9346 B(  1-C ,  2-O ) :   0.9072 B(  1-C , 22-H ) :   0.9175
B(  1-C , 23-H ) :   0.9346 B(  2-O ,  3-P ) :   1.0824 B(  3-P ,  4-S ) :   1.6705
B(  3-P ,  5-O ) :   1.1154 B(  3-P ,  8-S ) :   0.9326 B(  4-S ,  8-S ) :   0.1081
B(  5-O ,  6-C ) :   0.8835 B(  6-C ,  7-C ) :   1.1658 B(  6-C , 24-H ) :   0.9168
B(  6-C , 25-H ) :   0.9348 B(  7-C , 26-H ) :   0.9446 B(  7-C , 27-H ) :   0.9332
B(  7-C , 28-H ) :   0.9386 B(  8-S ,  9-C ) :   1.0025 B(  9-C , 10-S ) :   0.9981
B(  9-C , 29-H ) :   0.9104 B(  9-C , 30-H ) :   0.8427 B( 10-S , 11-P ) :   0.9327
B( 10-S , 12-S ) :   0.1180 B( 11-P , 12-S ) :   1.6424 B( 11-P , 13-O ) :   1.1423
B( 11-P , 16-O ) :   1.0644 B( 12-S , 30-H ) :   0.1085 B( 13-O , 14-C ) :   0.9023
B( 14-C , 15-C ) :   1.1688 B( 14-C , 31-H ) :   0.9319 B( 14-C , 32-H ) :   0.9270
B( 15-C , 33-H ) :   0.9249 B( 15-C , 34-H ) :   0.9354 B( 15-C , 35-H ) :   0.9358
B( 16-O , 17-C ) :   0.9169 B( 17-C , 18-C ) :   1.1652 B( 17-C , 36-H ) :   0.9129
B( 17-C , 37-H ) :   0.9357 B( 18-C , 38-H ) :   0.9473 B( 18-C , 39-H ) :   0.9294
B( 18-C , 40-H ) :   0.9379

Dispersion correction           -0.068104378
FINAL SINGLE POINT ENERGY     -2929.514653907864

DIPOLE MOMENT
-------------

Method             : SCF
Type of density    : Electron Density
Multiplicity       :   1
Irrep              :   0
Energy             : -2929.6325647958551599 Eh
Relativity type    :
Basis              : AO
                                X                 Y                 Z
Electronic contribution:      0.933054158       5.330218046     -10.726178530
Nuclear contribution   :     -0.480909452      -6.242616998      12.356829247
                        -----------------------------------------
Total Dipole Moment    :      0.452144706      -0.912398952       1.630650716
                        -----------------------------------------
Magnitude (a.u.)       :      1.922479764
Magnitude (Debye)      :      4.886555219

Rotational constants in cm-1:             0.012547             0.005449             0.005018
Rotational constants in MHz :           376.141060           163.363789           150.444745

                             ****ORCA TERMINATED NORMALLY****
TOTAL RUN TIME: 0 days 0 hours 0 minutes 21 seconds 545 msec
