                         Program Version 6.0.1  -  RELEASE   -
|  1> ! pbe def2-sv(p) def2/J RI DEFGRID1 loosescf d4 GCP(DFT/SV(P)) printgap
|  2> %output
|  3>     printlevel normal
|  4> end
|  5> * xyz 0 1
|  6> C 5.487602309 -1.6991022693 -1.2901965099
|  7> C 4.7251935714 -1.2855175031 -0.041549613
|  8> O 3.3262222437 -1.6110006409 -0.1600026894
|  9> C 2.5245949213 -0.7440118834 -0.7413168482
| 10> O 2.871926805 0.3348108371 -1.1764289713
| 11> C 1.0987622463 -1.2512958024 -0.7840890193
| 12> C 0.2078495885 -0.1993460589 -1.4217088249
| 13> H 0.4469098919 -0.0586144677 -2.4790518056
| 14> C 0.2917198358 1.1587375936 -0.7511708519
| 15> O 0.0019540876 2.1864073582 -1.3241824965
| 16> O 0.6437629843 1.0661813232 0.5117116124
| 17> C 0.829025745 2.2688000061 1.2812966757
| 18> C 2.3031405697 2.4337301237 1.6078540004
| 19> S -1.5523305191 -0.6828600392 -1.4231103151
| 20> P -2.1484659494 -0.1744843883 0.5610172361
| 21> S -1.1784619507 -0.9357048378 2.0773966496
| 22> O -2.266715752 1.402100053 0.6478574348
| 23> C -3.0521825489 2.1981538502 -0.2645970267
| 24> O -3.6875346656 -0.593109518 0.4949706386
| 25> C -4.07940933 -1.9727160216 0.4989894725
| 26> H 5.3371521164 -2.7568958686 -1.4867732134
| 27> H 5.1416308632 -1.1252180541 -2.1470043433
| 28> H 6.5455779839 -1.5086894242 -1.1434148576
| 29> H 4.8202168109 -0.2098615468 0.1322497647
| 30> H 5.059600467 -1.8434883169 0.8329849276
| 31> H 0.7866890989 -1.4688701179 0.2410292325
| 32> H 1.0601558466 -2.1811681721 -1.3525338606
| 33> H 0.4486931863 3.1133899704 0.7004199493
| 34> H 0.2297654718 2.1326935641 2.1844301368
| 35> H 2.881124256 2.4775292757 0.6869028784
| 36> H 2.4463947372 3.3522328332 2.1667695276
| 37> H 2.6486362111 1.5917565512 2.2014091663
| 38> H -2.4075854105 2.538568313 -1.0758373898
| 39> H -3.4073124678 3.0438028283 0.3187483608
| 40> H -3.8883186982 1.6217090261 -0.6534934755
| 41> H -5.1436861316 -1.9731737263 0.7201697488
| 42> H -3.5289502099 -2.5153299137 1.268848711
| 43> H -3.8871557512 -2.412829365 -0.4786982807
| 44> *
| 45>
| 46>                          ****END OF INPUT****

CARTESIAN COORDINATES (ANGSTROEM)
---------------------------------
  C      5.487602   -1.699102   -1.290197
  C      4.725194   -1.285518   -0.041550
  O      3.326222   -1.611001   -0.160003
  C      2.524595   -0.744012   -0.741317
  O      2.871927    0.334811   -1.176429
  C      1.098762   -1.251296   -0.784089
  C      0.207850   -0.199346   -1.421709
  H      0.446910   -0.058614   -2.479052
  C      0.291720    1.158738   -0.751171
  O      0.001954    2.186407   -1.324182
  O      0.643763    1.066181    0.511712
  C      0.829026    2.268800    1.281297
  C      2.303141    2.433730    1.607854
  S     -1.552331   -0.682860   -1.423110
  P     -2.148466   -0.174484    0.561017
  S     -1.178462   -0.935705    2.077397
  O     -2.266716    1.402100    0.647857
  C     -3.052183    2.198154   -0.264597
  O     -3.687535   -0.593110    0.494971
  C     -4.079409   -1.972716    0.498989
  H      5.337152   -2.756896   -1.486773
  H      5.141631   -1.125218   -2.147004
  H      6.545578   -1.508689   -1.143415
  H      4.820217   -0.209862    0.132250
  H      5.059600   -1.843488    0.832985
  H      0.786689   -1.468870    0.241029
  H      1.060156   -2.181168   -1.352534
  H      0.448693    3.113390    0.700420
  H      0.229765    2.132694    2.184430
  H      2.881124    2.477529    0.686903
  H      2.446395    3.352233    2.166770
  H      2.648636    1.591757    2.201409
  H     -2.407585    2.538568   -1.075837
  H     -3.407312    3.043803    0.318748
  H     -3.888319    1.621709   -0.653493
  H     -5.143686   -1.973174    0.720170
  H     -3.528950   -2.515330    1.268849
  H     -3.887156   -2.412829   -0.478698

 Total Charge           Charge          ....    0
 Multiplicity           Mult            ....    1
 Number of Electrons    NEL             ....  174
 Basis Dimension        Dim             ....  316

ORBITAL ENERGIES
----------------

  NO   OCC          E(Eh)            E(eV)
   0   2.0000     -88.043571     -2395.7874
   1   2.0000     -87.983891     -2394.1634
   2   2.0000     -76.429071     -2079.7408
   3   2.0000     -18.805354      -511.7197
   4   2.0000     -18.798911      -511.5444
   5   2.0000     -18.798463      -511.5322
   6   2.0000     -18.796651      -511.4829
   7   2.0000     -18.745465      -510.0900
   8   2.0000     -18.729457      -509.6544
   9   2.0000     -10.014285      -272.5026
  10   2.0000     -10.011284      -272.4209
  11   2.0000      -9.951437      -270.7924
  12   2.0000      -9.949922      -270.7512
  13   2.0000      -9.946111      -270.6474
  14   2.0000      -9.942770      -270.5565
  15   2.0000      -9.936344      -270.3817
  16   2.0000      -9.904661      -269.5195
  17   2.0000      -9.890361      -269.1304
  18   2.0000      -9.878534      -268.8086
  19   2.0000      -7.688441      -209.2131
  20   2.0000      -7.629154      -207.5998
  21   2.0000      -6.426103      -174.8631
  22   2.0000      -5.716263      -155.5474
  23   2.0000      -5.713113      -155.4617
  24   2.0000      -5.705354      -155.2506
  25   2.0000      -5.658276      -153.9695
  26   2.0000      -5.649504      -153.7308
  27   2.0000      -5.649298      -153.7252
  28   2.0000      -4.649112      -126.5088
  29   2.0000      -4.647977      -126.4779
  30   2.0000      -4.646183      -126.4291
  31   2.0000      -1.015176       -27.6243
  32   2.0000      -1.007333       -27.4109
  33   2.0000      -0.989798       -26.9338
  34   2.0000      -0.946435       -25.7538
  35   2.0000      -0.921208       -25.0674
  36   2.0000      -0.910453       -24.7747
  37   2.0000      -0.765175       -20.8215
  38   2.0000      -0.714683       -19.4475
  39   2.0000      -0.701301       -19.0834
  40   2.0000      -0.690811       -18.7979
  41   2.0000      -0.660915       -17.9844
  42   2.0000      -0.641071       -17.4444
  43   2.0000      -0.623015       -16.9531
  44   2.0000      -0.612772       -16.6744
  45   2.0000      -0.593019       -16.1369
  46   2.0000      -0.564224       -15.3533
  47   2.0000      -0.515521       -14.0281
  48   2.0000      -0.503136       -13.6910
  49   2.0000      -0.496837       -13.5196
  50   2.0000      -0.478640       -13.0245
  51   2.0000      -0.473526       -12.8853
  52   2.0000      -0.459699       -12.5090
  53   2.0000      -0.443395       -12.0654
  54   2.0000      -0.437446       -11.9035
  55   2.0000      -0.433140       -11.7863
  56   2.0000      -0.425835       -11.5876
  57   2.0000      -0.418587       -11.3903
  58   2.0000      -0.417377       -11.3574
  59   2.0000      -0.404166       -10.9979
  60   2.0000      -0.401327       -10.9207
  61   2.0000      -0.400578       -10.9003
  62   2.0000      -0.392661       -10.6849
  63   2.0000      -0.384453       -10.4615
  64   2.0000      -0.371767       -10.1163
  65   2.0000      -0.368660       -10.0317
  66   2.0000      -0.356001        -9.6873
  67   2.0000      -0.351200        -9.5566
  68   2.0000      -0.345605        -9.4044
  69   2.0000      -0.336122        -9.1463
  70   2.0000      -0.334227        -9.0948
  71   2.0000      -0.328319        -8.9340
  72   2.0000      -0.322323        -8.7708
  73   2.0000      -0.312484        -8.5031
  74   2.0000      -0.308872        -8.4048
  75   2.0000      -0.301527        -8.2050
  76   2.0000      -0.296016        -8.0550
  77   2.0000      -0.287752        -7.8301
  78   2.0000      -0.272427        -7.4131
  79   2.0000      -0.265879        -7.2349
  80   2.0000      -0.263260        -7.1637
  81   2.0000      -0.251452        -6.8424
  82   2.0000      -0.239448        -6.5157
  83   2.0000      -0.227739        -6.1971
  84   2.0000      -0.216260        -5.8847
  85   2.0000      -0.201381        -5.4799
  86   2.0000      -0.196126        -5.3369
  87   0.0000      -0.043962        -1.1963
  88   0.0000      -0.031227        -0.8497
  89   0.0000      -0.023423        -0.6374
  90   0.0000      -0.001018        -0.0277
  91   0.0000       0.023835         0.6486

MULLIKEN ATOMIC CHARGES
-----------------------
   0 C :   -0.305238
   1 C :   -0.015552
   2 O :   -0.225498
   3 C :    0.127379
   4 O :   -0.216813
   5 C :   -0.042048
   6 C :   -0.304054
   7 H :    0.148214
   8 C :    0.167582
   9 O :   -0.189116
  10 O :   -0.229383
  11 C :   -0.016660
  12 C :   -0.302518
  13 S :   -0.089391
  14 P :    0.594242
  15 S :   -0.297039
  16 O :   -0.367579
  17 C :   -0.120513
  18 O :   -0.383585
  19 C :   -0.103382
  20 H :    0.115441
  21 H :    0.126697
  22 H :    0.114787
  23 H :    0.112490
  24 H :    0.106391
  25 H :    0.140530
  26 H :    0.114479
  27 H :    0.109685
  28 H :    0.109277
  29 H :    0.130523
  30 H :    0.108757
  31 H :    0.112851
  32 H :    0.151645
  33 H :    0.126383
  34 H :    0.120369
  35 H :    0.128837
  36 H :    0.121873
  37 H :    0.119937
Sum of atomic charges:   -0.0000000

LOEWDIN ATOMIC CHARGES
----------------------
   0 C :   -0.355897
   1 C :   -0.109807
   2 O :   -0.054461
   3 C :    0.039753
   4 O :   -0.166605
   5 C :   -0.268131
   6 C :   -0.254843
   7 H :    0.150522
   8 C :   -0.000190
   9 O :   -0.164310
  10 O :   -0.042000
  11 C :   -0.110840
  12 C :   -0.355205
  13 S :    0.098917
  14 P :    0.567439
  15 S :   -0.299114
  16 O :   -0.236655
  17 C :   -0.212937
  18 O :   -0.256834
  19 C :   -0.213850
  20 H :    0.125481
  21 H :    0.130391
  22 H :    0.131601
  23 H :    0.120567
  24 H :    0.119665
  25 H :    0.143743
  26 H :    0.143169
  27 H :    0.118873
  28 H :    0.118142
  29 H :    0.130760
  30 H :    0.128151
  31 H :    0.123484
  32 H :    0.124739
  33 H :    0.124460
  34 H :    0.112561
  35 H :    0.124332
  36 H :    0.113282
  37 H :    0.111651

  Mayer bond orders larger than 0.100000
B(  0-C ,  1-C ) :   1.1733 B(  0-C , 20-H ) :   0.9487 B(  0-C , 21-H ) :   0.9465
B(  0-C , 22-H ) :   0.9440 B(  1-C ,  2-O ) :   0.9134 B(  1-C , 23-H ) :   0.9149
B(  1-C , 24-H ) :   0.9370 B(  2-O ,  3-C ) :   1.2485 B(  3-C ,  4-O ) :   1.9868
B(  3-C ,  5-C ) :   1.0121 B(  5-C ,  6-C ) :   1.0061 B(  5-C , 25-H ) :   0.8479
B(  5-C , 26-H ) :   0.8852 B(  6-C ,  7-H ) :   0.8849 B(  6-C ,  8-C ) :   0.9068
B(  6-C , 13-S ) :   1.0038 B(  8-C ,  9-O ) :   2.0438 B(  8-C , 10-O ) :   1.2101
B( 10-O , 11-C ) :   0.9021 B( 11-C , 12-C ) :   1.1730 B( 11-C , 27-H ) :   0.9087
B( 11-C , 28-H ) :   0.9274 B( 12-C , 29-H ) :   0.9418 B( 12-C , 30-H ) :   0.9444
B( 12-C , 31-H ) :   0.9498 B( 13-S , 14-P ) :   0.9626 B( 13-S , 15-S ) :   0.1170
B( 14-P , 15-S ) :   1.6615 B( 14-P , 16-O ) :   1.1110 B( 14-P , 18-O ) :   1.0761
B( 16-O , 17-C ) :   0.9009 B( 17-C , 32-H ) :   0.9335 B( 17-C , 33-H ) :   0.9579
B( 17-C , 34-H ) :   0.9414 B( 18-O , 19-C ) :   0.9267 B( 19-C , 35-H ) :   0.9585
B( 19-C , 36-H ) :   0.9325 B( 19-C , 37-H ) :   0.9499

Dispersion correction           -0.053501601
FINAL SINGLE POINT ENERGY     -1979.021510028504

DIPOLE MOMENT
-------------

Method             : SCF
Type of density    : Electron Density
Multiplicity       :   1
Irrep              :   0
Energy             : -1979.1530052102366426 Eh
Relativity type    :
Basis              : AO
                                X                 Y                 Z
Electronic contribution:    -16.592441628      -2.527377353      -0.216766641
Nuclear contribution   :     16.637554199       1.949177314       0.062647415
                        -----------------------------------------
Total Dipole Moment    :      0.045112571      -0.578200039      -0.154119226
                        -----------------------------------------
Magnitude (a.u.)       :      0.600085964
Magnitude (Debye)      :      1.525297304

Rotational constants in cm-1:             0.016308             0.006283             0.005752
Rotational constants in MHz :           488.892154           188.368955           172.437305

                             ****ORCA TERMINATED NORMALLY****
TOTAL RUN TIME: 0 days 0 hours 0 minutes 27 seconds 547 msec
