                         Program Version 6.0.0  -   RELEASE  -
|  1> ! pbe def2-sv(p) def2/J RI DEFGRID1 loosescf d4 GCP(DFT/SV(P)) printgap
|  2> %output
|  3>     printlevel normal
|  4> end
|  5> * xyz 0 1
|  6> C 2.1159727104 -1.2461023064 -2.7544899033
|  7> C 2.7118388537 0.0258980334 -2.1858531244
|  8> O 3.2417213533 -0.2066249863 -0.8675522128
|  9> P 2.5071652873 0.1342608295 0.4948056071
| 10> S 1.975271987 1.9990854519 0.7888001954
| 11> O 3.611432065 -0.2669623013 1.5485003839
| 12> C 4.5723156789 -1.3428559245 1.404244895
| 13> C 3.9181843222 -2.7033667582 1.2888429949
| 14> S 0.9327796561 -1.2840359422 0.7017786324
| 15> C -0.2073116425 -0.2988404989 1.7262911819
| 16> S -1.9296086712 -0.6795143255 1.3638217218
| 17> P -2.197884715 0.5297955369 -0.3805906427
| 18> S -0.6583300037 0.8710714501 -1.5347170608
| 19> O -2.7430034569 1.9152918791 0.141258297
| 20> C -3.9224782993 2.0555943321 0.9698296591
| 21> C -5.1302244593 2.4105067977 0.1263878356
| 22> O -3.4846844454 -0.1211743036 -1.0436376883
| 23> C -3.6374423143 -1.5240650624 -1.3428161695
| 24> C -2.4247310859 -2.1197604708 -2.0255308437
| 25> H 2.8519096089 -2.0448222885 -2.7399937644
| 26> H 1.2468448329 -1.5460896865 -2.174565875
| 27> H 1.8029364253 -1.0586893815 -3.7760925385
| 28> H 1.9669658712 0.8257561938 -2.1461201205
| 29> H 3.5708172311 0.3596413058 -2.7712165113
| 30> H 5.1900430249 -1.1300133558 0.5301294865
| 31> H 5.1716467629 -1.2596563966 2.3122555944
| 32> H 3.3284134463 -2.7644992075 0.3761149777
| 33> H 4.6921805156 -3.4640826023 1.2615429526
| 34> H 3.2654491242 -2.8869886395 2.1381888041
| 35> H -0.0048792272 0.7601185721 1.5401987032
| 36> H -0.0532884163 -0.5525534802 2.7721025769
| 37> H -4.0818467561 1.1243907843 1.5213388134
| 38> H -3.6735407604 2.8590476258 1.6657170562
| 39> H -5.3511565044 1.6082706207 -0.5724146404
| 40> H -5.9844034289 2.5667540068 0.7777192027
| 41> H -4.9359834543 3.3196788613 -0.4361718083
| 42> H -3.8472062454 -2.0446288492 -0.404663574
| 43> H -4.5149665878 -1.5549736878 -1.9908892584
| 44> H -2.1733529021 -1.5509823498 -2.9178269983
| 45> H -1.5673660021 -2.1029391186 -1.352673899
| 46> H -2.6348247396 -3.1483707369 -2.300155278
| 47> *
| 48>
| 49>                          ****END OF INPUT****

CARTESIAN COORDINATES (ANGSTROEM)
---------------------------------
  C      2.115973   -1.246102   -2.754490
  C      2.711839    0.025898   -2.185853
  O      3.241721   -0.206625   -0.867552
  P      2.507165    0.134261    0.494806
  S      1.975272    1.999085    0.788800
  O      3.611432   -0.266962    1.548500
  C      4.572316   -1.342856    1.404245
  C      3.918184   -2.703367    1.288843
  S      0.932780   -1.284036    0.701779
  C     -0.207312   -0.298840    1.726291
  S     -1.929609   -0.679514    1.363822
  P     -2.197885    0.529796   -0.380591
  S     -0.658330    0.871071   -1.534717
  O     -2.743003    1.915292    0.141258
  C     -3.922478    2.055594    0.969830
  C     -5.130224    2.410507    0.126388
  O     -3.484684   -0.121174   -1.043638
  C     -3.637442   -1.524065   -1.342816
  C     -2.424731   -2.119760   -2.025531
  H      2.851910   -2.044822   -2.739994
  H      1.246845   -1.546090   -2.174566
  H      1.802936   -1.058689   -3.776093
  H      1.966966    0.825756   -2.146120
  H      3.570817    0.359641   -2.771217
  H      5.190043   -1.130013    0.530129
  H      5.171647   -1.259656    2.312256
  H      3.328413   -2.764499    0.376115
  H      4.692181   -3.464083    1.261543
  H      3.265449   -2.886989    2.138189
  H     -0.004879    0.760119    1.540199
  H     -0.053288   -0.552553    2.772103
  H     -4.081847    1.124391    1.521339
  H     -3.673541    2.859048    1.665717
  H     -5.351157    1.608271   -0.572415
  H     -5.984403    2.566754    0.777719
  H     -4.935983    3.319679   -0.436172
  H     -3.847206   -2.044629   -0.404664
  H     -4.514967   -1.554974   -1.990889
  H     -2.173353   -1.550982   -2.917827
  H     -1.567366   -2.102939   -1.352674
  H     -2.634825   -3.148371   -2.300155

 Total Charge           Charge          ....    0
 Multiplicity           Mult            ....    1
 Number of Electrons    NEL             ....  202
 Basis Dimension        Dim             ....  334

ORBITAL ENERGIES
----------------

  NO   OCC          E(Eh)            E(eV)
   0   2.0000     -88.047499     -2395.8942
   1   2.0000     -88.035699     -2395.5732
   2   2.0000     -87.978701     -2394.0222
   3   2.0000     -87.973690     -2393.8858
   4   2.0000     -76.424841     -2079.6256
   5   2.0000     -76.419475     -2079.4796
   6   2.0000     -18.795284      -511.4457
   7   2.0000     -18.791383      -511.3395
   8   2.0000     -18.787653      -511.2380
   9   2.0000     -18.780819      -511.0521
  10   2.0000      -9.960575      -271.0410
  11   2.0000      -9.954016      -270.8625
  12   2.0000      -9.952318      -270.8163
  13   2.0000      -9.951163      -270.7849
  14   2.0000      -9.948564      -270.7142
  15   2.0000      -9.886914      -269.0366
  16   2.0000      -9.884940      -268.9829
  17   2.0000      -9.884362      -268.9672
  18   2.0000      -9.879458      -268.8337
  19   2.0000      -7.692159      -209.3143
  20   2.0000      -7.680240      -208.9900
  21   2.0000      -7.623762      -207.4531
  22   2.0000      -7.618876      -207.3202
  23   2.0000      -6.421923      -174.7494
  24   2.0000      -6.416772      -174.6092
  25   2.0000      -5.719821      -155.6442
  26   2.0000      -5.716529      -155.5547
  27   2.0000      -5.709561      -155.3650
  28   2.0000      -5.708135      -155.3263
  29   2.0000      -5.704880      -155.2377
  30   2.0000      -5.697153      -155.0274
  31   2.0000      -5.652889      -153.8229
  32   2.0000      -5.647906      -153.6873
  33   2.0000      -5.644228      -153.5873
  34   2.0000      -5.643824      -153.5763
  35   2.0000      -5.639586      -153.4609
  36   2.0000      -5.638788      -153.4392
  37   2.0000      -4.644794      -126.3913
  38   2.0000      -4.643981      -126.3692
  39   2.0000      -4.641904      -126.3126
  40   2.0000      -4.639824      -126.2560
  41   2.0000      -4.638388      -126.2170
  42   2.0000      -4.636949      -126.1778
  43   2.0000      -0.987974       -26.8841
  44   2.0000      -0.983105       -26.7516
  45   2.0000      -0.944596       -25.7038
  46   2.0000      -0.937452       -25.5094
  47   2.0000      -0.759824       -20.6759
  48   2.0000      -0.718884       -19.5618
  49   2.0000      -0.710216       -19.3259
  50   2.0000      -0.691717       -18.8226
  51   2.0000      -0.687805       -18.7161
  52   2.0000      -0.675268       -18.3750
  53   2.0000      -0.648907       -17.6577
  54   2.0000      -0.628910       -17.1135
  55   2.0000      -0.592675       -16.1275
  56   2.0000      -0.587395       -15.9838
  57   2.0000      -0.574457       -15.6318
  58   2.0000      -0.573517       -15.6062
  59   2.0000      -0.561257       -15.2726
  60   2.0000      -0.502963       -13.6863
  61   2.0000      -0.494544       -13.4572
  62   2.0000      -0.472115       -12.8469
  63   2.0000      -0.469828       -12.7847
  64   2.0000      -0.453622       -12.3437
  65   2.0000      -0.448547       -12.2056
  66   2.0000      -0.438630       -11.9357
  67   2.0000      -0.437728       -11.9112
  68   2.0000      -0.430356       -11.7106
  69   2.0000      -0.421731       -11.4759
  70   2.0000      -0.413532       -11.2528
  71   2.0000      -0.398606       -10.8466
  72   2.0000      -0.390585       -10.6284
  73   2.0000      -0.385204       -10.4819
  74   2.0000      -0.383915       -10.4469
  75   2.0000      -0.366259        -9.9664
  76   2.0000      -0.357519        -9.7286
  77   2.0000      -0.354852        -9.6560
  78   2.0000      -0.353923        -9.6307
  79   2.0000      -0.348584        -9.4855
  80   2.0000      -0.346534        -9.4297
  81   2.0000      -0.345051        -9.3893
  82   2.0000      -0.339386        -9.2352
  83   2.0000      -0.338623        -9.2144
  84   2.0000      -0.329972        -8.9790
  85   2.0000      -0.319889        -8.7046
  86   2.0000      -0.312921        -8.5150
  87   2.0000      -0.298739        -8.1291
  88   2.0000      -0.290932        -7.9167
  89   2.0000      -0.287823        -7.8321
  90   2.0000      -0.286913        -7.8073
  91   2.0000      -0.276828        -7.5329
  92   2.0000      -0.271224        -7.3804
  93   2.0000      -0.261906        -7.1268
  94   2.0000      -0.253460        -6.8970
  95   2.0000      -0.239101        -6.5063
  96   2.0000      -0.218850        -5.9552
  97   2.0000      -0.203440        -5.5359
  98   2.0000      -0.194393        -5.2897
  99   2.0000      -0.186860        -5.0847
 100   2.0000      -0.178502        -4.8573
 101   0.0000      -0.041243        -1.1223
 102   0.0000      -0.029706        -0.8083
 103   0.0000      -0.017241        -0.4692
 104   0.0000       0.004597         0.1251
 105   0.0000       0.018496         0.5033

MULLIKEN ATOMIC CHARGES
-----------------------
   0 C :   -0.314769
   1 C :   -0.012229
   2 O :   -0.385547
   3 P :    0.618686
   4 S :   -0.298861
   5 O :   -0.365416
   6 C :    0.007887
   7 C :   -0.321931
   8 S :   -0.122602
   9 C :   -0.332623
  10 S :   -0.126295
  11 P :    0.593917
  12 S :   -0.302897
  13 O :   -0.349712
  14 C :   -0.011514
  15 C :   -0.288458
  16 O :   -0.380867
  17 C :   -0.000808
  18 C :   -0.334862
  19 H :    0.108521
  20 H :    0.145941
  21 H :    0.111436
  22 H :    0.132383
  23 H :    0.104972
  24 H :    0.108577
  25 H :    0.108323
  26 H :    0.125449
  27 H :    0.112227
  28 H :    0.122581
  29 H :    0.205338
  30 H :    0.180638
  31 H :    0.095683
  32 H :    0.112165
  33 H :    0.120086
  34 H :    0.108091
  35 H :    0.122048
  36 H :    0.111066
  37 H :    0.109438
  38 H :    0.129209
  39 H :    0.143465
  40 H :    0.111263
Sum of atomic charges:    0.0000000

LOEWDIN ATOMIC CHARGES
----------------------
   0 C :   -0.366009
   1 C :   -0.113059
   2 O :   -0.241714
   3 P :    0.567399
   4 S :   -0.296802
   5 O :   -0.244789
   6 C :   -0.108893
   7 C :   -0.369583
   8 S :    0.065750
   9 C :   -0.480619
  10 S :    0.065005
  11 P :    0.566126
  12 S :   -0.287554
  13 O :   -0.233810
  14 C :   -0.116075
  15 C :   -0.359313
  16 O :   -0.245991
  17 C :   -0.113405
  18 C :   -0.375077
  19 H :    0.120888
  20 H :    0.122455
  21 H :    0.131779
  22 H :    0.110793
  23 H :    0.118725
  24 H :    0.114018
  25 H :    0.121474
  26 H :    0.116424
  27 H :    0.130418
  28 H :    0.126187
  29 H :    0.123553
  30 H :    0.134505
  31 H :    0.100705
  32 H :    0.122305
  33 H :    0.125644
  34 H :    0.128456
  35 H :    0.129860
  36 H :    0.109168
  37 H :    0.121214
  38 H :    0.129758
  39 H :    0.119860
  40 H :    0.130226

  Mayer bond orders larger than 0.100000
B(  0-C ,  1-C ) :   1.1720 B(  0-C , 19-H ) :   0.9446 B(  0-C , 20-H ) :   0.9304
B(  0-C , 21-H ) :   0.9399 B(  1-C ,  2-O ) :   0.8964 B(  1-C , 22-H ) :   0.9046
B(  1-C , 23-H ) :   0.9342 B(  2-O ,  3-P ) :   1.0907 B(  3-P ,  4-S ) :   1.6610
B(  3-P ,  5-O ) :   1.1239 B(  3-P ,  8-S ) :   0.9380 B(  4-S ,  8-S ) :   0.1198
B(  4-S , 29-H ) :   0.1230 B(  5-O ,  6-C ) :   0.9074 B(  6-C ,  7-C ) :   1.1688
B(  6-C , 24-H ) :   0.9278 B(  6-C , 25-H ) :   0.9350 B(  7-C , 26-H ) :   0.9373
B(  7-C , 27-H ) :   0.9357 B(  7-C , 28-H ) :   0.9424 B(  8-S ,  9-C ) :   0.9891
B(  9-C , 10-S ) :   1.0006 B(  9-C , 29-H ) :   0.8416 B(  9-C , 30-H ) :   0.9102
B( 10-S , 11-P ) :   0.9317 B( 10-S , 12-S ) :   0.1163 B( 11-P , 12-S ) :   1.6773
B( 11-P , 13-O ) :   1.1352 B( 11-P , 16-O ) :   1.0811 B( 13-O , 14-C ) :   0.8971
B( 14-C , 15-C ) :   1.1641 B( 14-C , 31-H ) :   0.9133 B( 14-C , 32-H ) :   0.9358
B( 15-C , 33-H ) :   0.9426 B( 15-C , 34-H ) :   0.9403 B( 15-C , 35-H ) :   0.9469
B( 16-O , 17-C ) :   0.9080 B( 17-C , 18-C ) :   1.1686 B( 17-C , 36-H ) :   0.9283
B( 17-C , 37-H ) :   0.9329 B( 18-C , 38-H ) :   0.9398 B( 18-C , 39-H ) :   0.9246
B( 18-C , 40-H ) :   0.9326

Dispersion correction           -0.065656622
FINAL SINGLE POINT ENERGY     -2929.508058874926

DIPOLE MOMENT
-------------

Method             : SCF
Type of density    : Electron Density
Multiplicity       :   1
Irrep              :   0
Energy             : -2929.6274700800745450 Eh
Relativity type    :
Basis              : AO
                                X                 Y                 Z
Electronic contribution:      4.907577090      11.803105426       8.295569782
Nuclear contribution   :     -5.657332815     -13.439498228      -8.293877437
                        -----------------------------------------
Total Dipole Moment    :     -0.749755725      -1.636392802       0.001692345
                        -----------------------------------------
Magnitude (a.u.)       :      1.799977198
Magnitude (Debye)      :      4.575178442

Rotational constants in cm-1:             0.013431             0.004710             0.004493
Rotational constants in MHz :           402.654388           141.216694           134.706685

                             ****ORCA TERMINATED NORMALLY****
TOTAL RUN TIME: 0 days 0 hours 0 minutes 20 seconds 979 msec
