                         Program Version 6.0.0  -   RELEASE  -
|  1> ! pbe def2-sv(p) def2/J RI DEFGRID1 loosescf d4 GCP(DFT/SV(P)) printgap
|  2> %output
|  3>     printlevel normal
|  4> end
|  5> * xyz 0 1
|  6> C 4.5294022785 -1.5320970639 -1.0524448321
|  7> C 4.6582583045 -0.0469897027 -0.7829177759
|  8> O 3.5830936132 0.4640753591 0.025712
|  9> P 2.0717990002 0.5180185719 -0.4785859193
| 10> S 1.8519598437 0.9687373613 -2.3672395035
| 11> O 1.4707994185 1.5831318478 0.5175629423
| 12> C 1.7264057545 1.5306874867 1.944540345
| 13> C 0.7962090571 2.5181859741 2.6155927371
| 14> S 1.3150696766 -1.376237679 0.1376030755
| 15> C 0.1203454505 -1.7040770278 -1.1974422089
| 16> S -1.5589331383 -1.9838689791 -0.5958461538
| 17> P -1.9260775458 -0.0316443937 0.1686595469
| 18> S -1.4263347853 1.4731653083 -0.979165495
| 19> O -1.1832321614 0.0057416424 1.56033371
| 20> C -1.4283255642 -0.9596102393 2.6172214448
| 21> C -2.3546453405 -0.3775359693 3.6641472385
| 22> O -3.4546735499 -0.0896893467 0.5997052652
| 23> C -4.5306626457 0.2166370926 -0.30423383
| 24> C -4.6380964087 -0.7856042709 -1.4348845285
| 25> H 5.4316850444 -1.8833240141 -1.5425475642
| 26> H 4.3864313676 -2.0764738583 -0.1224968913
| 27> H 3.6794145325 -1.717552679 -1.7071840104
| 28> H 4.676083358 0.5131787313 -1.7227399168
| 29> H 5.5497685764 0.1806112839 -0.1967284012
| 30> H 1.5449148496 0.5076750012 2.2874565466
| 31> H 2.7753827942 1.7857828451 2.1073814868
| 32> H 0.9825894739 3.5199099878 2.2387530841
| 33> H -0.2365428281 2.2556669838 2.4008262701
| 34> H 0.9641074989 2.4954045126 3.6874839962
| 35> H 0.414876297 -2.6232239591 -1.6974040891
| 36> H 0.1357485707 -0.8568282279 -1.8892213928
| 37> H -1.8478657973 -1.8682168092 2.1772330564
| 38> H -0.4409430288 -1.1765724234 3.0298210155
| 39> H -1.9369776511 0.5408431938 4.0674160479
| 40> H -3.3254401582 -0.1599512483 3.2270714821
| 41> H -2.4761672418 -1.0982327627 4.4666310384
| 42> H -5.416379616 0.2010642761 0.3325519762
| 43> H -4.371881872 1.2251840288 -0.6981087253
| 44> H -4.669227052 -1.7989543682 -1.0424654706
| 45> H -5.5423718121 -0.5893160238 -2.0020082351
| 46> H -3.7802553236 -0.6912911926 -2.0991185834
| 47> *
| 48>
| 49>                          ****END OF INPUT****

CARTESIAN COORDINATES (ANGSTROEM)
---------------------------------
  C      4.529402   -1.532097   -1.052445
  C      4.658258   -0.046990   -0.782918
  O      3.583094    0.464075    0.025712
  P      2.071799    0.518019   -0.478586
  S      1.851960    0.968737   -2.367240
  O      1.470799    1.583132    0.517563
  C      1.726406    1.530687    1.944540
  C      0.796209    2.518186    2.615593
  S      1.315070   -1.376238    0.137603
  C      0.120345   -1.704077   -1.197442
  S     -1.558933   -1.983869   -0.595846
  P     -1.926078   -0.031644    0.168660
  S     -1.426335    1.473165   -0.979165
  O     -1.183232    0.005742    1.560334
  C     -1.428326   -0.959610    2.617221
  C     -2.354645   -0.377536    3.664147
  O     -3.454674   -0.089689    0.599705
  C     -4.530663    0.216637   -0.304234
  C     -4.638096   -0.785604   -1.434885
  H      5.431685   -1.883324   -1.542548
  H      4.386431   -2.076474   -0.122497
  H      3.679415   -1.717553   -1.707184
  H      4.676083    0.513179   -1.722740
  H      5.549769    0.180611   -0.196728
  H      1.544915    0.507675    2.287457
  H      2.775383    1.785783    2.107381
  H      0.982589    3.519910    2.238753
  H     -0.236543    2.255667    2.400826
  H      0.964107    2.495405    3.687484
  H      0.414876   -2.623224   -1.697404
  H      0.135749   -0.856828   -1.889221
  H     -1.847866   -1.868217    2.177233
  H     -0.440943   -1.176572    3.029821
  H     -1.936978    0.540843    4.067416
  H     -3.325440   -0.159951    3.227071
  H     -2.476167   -1.098233    4.466631
  H     -5.416380    0.201064    0.332552
  H     -4.371882    1.225184   -0.698109
  H     -4.669227   -1.798954   -1.042465
  H     -5.542372   -0.589316   -2.002008
  H     -3.780255   -0.691291   -2.099119

 Total Charge           Charge          ....    0
 Multiplicity           Mult            ....    1
 Number of Electrons    NEL             ....  202
 Basis Dimension        Dim             ....  334

ORBITAL ENERGIES
----------------

  NO   OCC          E(Eh)            E(eV)
   0   2.0000     -88.042878     -2395.7685
   1   2.0000     -88.038598     -2395.6520
   2   2.0000     -87.980442     -2394.0695
   3   2.0000     -87.980252     -2394.0644
   4   2.0000     -76.423999     -2079.6027
   5   2.0000     -76.419968     -2079.4930
   6   2.0000     -18.794892      -511.4350
   7   2.0000     -18.792137      -511.3601
   8   2.0000     -18.787326      -511.2291
   9   2.0000     -18.781489      -511.0703
  10   2.0000      -9.956610      -270.9331
  11   2.0000      -9.954391      -270.8727
  12   2.0000      -9.952758      -270.8283
  13   2.0000      -9.949150      -270.7301
  14   2.0000      -9.947957      -270.6977
  15   2.0000      -9.889015      -269.0938
  16   2.0000      -9.884965      -268.9836
  17   2.0000      -9.881091      -268.8782
  18   2.0000      -9.877775      -268.7879
  19   2.0000      -7.687914      -209.1988
  20   2.0000      -7.683311      -209.0735
  21   2.0000      -7.625611      -207.5034
  22   2.0000      -7.625188      -207.4919
  23   2.0000      -6.421433      -174.7361
  24   2.0000      -6.417405      -174.6265
  25   2.0000      -5.715746      -155.5334
  26   2.0000      -5.712273      -155.4389
  27   2.0000      -5.711151      -155.4083
  28   2.0000      -5.707826      -155.3179
  29   2.0000      -5.705091      -155.2434
  30   2.0000      -5.700328      -155.1138
  31   2.0000      -5.654642      -153.8706
  32   2.0000      -5.654235      -153.8596
  33   2.0000      -5.646139      -153.6392
  34   2.0000      -5.645716      -153.6277
  35   2.0000      -5.645660      -153.6262
  36   2.0000      -5.645387      -153.6188
  37   2.0000      -4.644371      -126.3798
  38   2.0000      -4.643198      -126.3478
  39   2.0000      -4.641524      -126.3023
  40   2.0000      -4.640202      -126.2663
  41   2.0000      -4.638981      -126.2331
  42   2.0000      -4.637871      -126.2029
  43   2.0000      -0.989397       -26.9229
  44   2.0000      -0.981354       -26.7040
  45   2.0000      -0.946521       -25.7562
  46   2.0000      -0.935961       -25.4688
  47   2.0000      -0.760109       -20.6836
  48   2.0000      -0.718037       -19.5388
  49   2.0000      -0.708678       -19.2841
  50   2.0000      -0.691794       -18.8247
  51   2.0000      -0.684108       -18.6155
  52   2.0000      -0.675391       -18.3783
  53   2.0000      -0.648258       -17.6400
  54   2.0000      -0.631128       -17.1739
  55   2.0000      -0.596243       -16.2246
  56   2.0000      -0.586667       -15.9640
  57   2.0000      -0.576479       -15.6868
  58   2.0000      -0.563864       -15.3435
  59   2.0000      -0.559728       -15.2310
  60   2.0000      -0.503641       -13.7048
  61   2.0000      -0.497781       -13.5453
  62   2.0000      -0.475548       -12.9403
  63   2.0000      -0.468339       -12.7442
  64   2.0000      -0.451940       -12.2979
  65   2.0000      -0.447466       -12.1762
  66   2.0000      -0.442665       -12.0455
  67   2.0000      -0.433037       -11.7835
  68   2.0000      -0.429533       -11.6882
  69   2.0000      -0.419985       -11.4284
  70   2.0000      -0.412444       -11.2232
  71   2.0000      -0.395022       -10.7491
  72   2.0000      -0.385686       -10.4951
  73   2.0000      -0.384485       -10.4624
  74   2.0000      -0.379469       -10.3259
  75   2.0000      -0.365479        -9.9452
  76   2.0000      -0.361018        -9.8238
  77   2.0000      -0.358044        -9.7429
  78   2.0000      -0.354454        -9.6452
  79   2.0000      -0.349386        -9.5073
  80   2.0000      -0.349117        -9.4999
  81   2.0000      -0.344924        -9.3859
  82   2.0000      -0.340827        -9.2744
  83   2.0000      -0.334494        -9.1021
  84   2.0000      -0.329619        -8.9694
  85   2.0000      -0.316003        -8.5989
  86   2.0000      -0.308588        -8.3971
  87   2.0000      -0.299125        -8.1396
  88   2.0000      -0.295104        -8.0302
  89   2.0000      -0.292668        -7.9639
  90   2.0000      -0.290656        -7.9092
  91   2.0000      -0.272592        -7.4176
  92   2.0000      -0.262837        -7.1521
  93   2.0000      -0.261058        -7.1037
  94   2.0000      -0.255057        -6.9405
  95   2.0000      -0.234020        -6.3680
  96   2.0000      -0.218165        -5.9366
  97   2.0000      -0.212837        -5.7916
  98   2.0000      -0.200544        -5.4571
  99   2.0000      -0.190208        -5.1758
 100   2.0000      -0.183450        -4.9919
 101   0.0000      -0.038308        -1.0424
 102   0.0000      -0.029996        -0.8162
 103   0.0000      -0.009488        -0.2582
 104   0.0000       0.011613         0.3160
 105   0.0000       0.020118         0.5474

MULLIKEN ATOMIC CHARGES
-----------------------
   0 C :   -0.310175
   1 C :    0.002384
   2 O :   -0.391438
   3 P :    0.612932
   4 S :   -0.288403
   5 O :   -0.348024
   6 C :   -0.015979
   7 C :   -0.290460
   8 S :   -0.124408
   9 C :   -0.346709
  10 S :   -0.103836
  11 P :    0.582630
  12 S :   -0.272863
  13 O :   -0.352035
  14 C :   -0.014373
  15 C :   -0.288429
  16 O :   -0.382572
  17 C :    0.001170
  18 C :   -0.323282
  19 H :    0.110797
  20 H :    0.115201
  21 H :    0.120047
  22 H :    0.111183
  23 H :    0.101392
  24 H :    0.099380
  25 H :    0.105972
  26 H :    0.118873
  27 H :    0.138650
  28 H :    0.099927
  29 H :    0.180464
  30 H :    0.205425
  31 H :    0.103443
  32 H :    0.109535
  33 H :    0.119247
  34 H :    0.121779
  35 H :    0.109577
  36 H :    0.103621
  37 H :    0.113133
  38 H :    0.117014
  39 H :    0.115432
  40 H :    0.133782
Sum of atomic charges:    0.0000000

LOEWDIN ATOMIC CHARGES
----------------------
   0 C :   -0.370677
   1 C :   -0.116775
   2 O :   -0.252510
   3 P :    0.574132
   4 S :   -0.291757
   5 O :   -0.229172
   6 C :   -0.113613
   7 C :   -0.355090
   8 S :    0.062603
   9 C :   -0.481224
  10 S :    0.073134
  11 P :    0.559336
  12 S :   -0.282958
  13 O :   -0.231348
  14 C :   -0.118390
  15 C :   -0.358091
  16 O :   -0.249341
  17 C :   -0.117003
  18 C :   -0.372293
  19 H :    0.129548
  20 H :    0.122090
  21 H :    0.119314
  22 H :    0.111805
  23 H :    0.116952
  24 H :    0.101572
  25 H :    0.111850
  26 H :    0.129680
  27 H :    0.129088
  28 H :    0.124986
  29 H :    0.136103
  30 H :    0.125454
  31 H :    0.104228
  32 H :    0.114567
  33 H :    0.126838
  34 H :    0.127233
  35 H :    0.129572
  36 H :    0.117747
  37 H :    0.113615
  38 H :    0.122605
  39 H :    0.132387
  40 H :    0.123801

  Mayer bond orders larger than 0.100000
B(  0-C ,  1-C ) :   1.1669 B(  0-C , 19-H ) :   0.9372 B(  0-C , 20-H ) :   0.9429
B(  0-C , 21-H ) :   0.9370 B(  1-C ,  2-O ) :   0.9137 B(  1-C , 22-H ) :   0.9176
B(  1-C , 23-H ) :   0.9346 B(  2-O ,  3-P ) :   1.0699 B(  3-P ,  4-S ) :   1.6341
B(  3-P ,  5-O ) :   1.1406 B(  3-P ,  8-S ) :   0.9434 B(  4-S ,  8-S ) :   0.1144
B(  5-O ,  6-C ) :   0.8960 B(  6-C ,  7-C ) :   1.1655 B(  6-C , 24-H ) :   0.9125
B(  6-C , 25-H ) :   0.9277 B(  7-C , 26-H ) :   0.9476 B(  7-C , 27-H ) :   0.9351
B(  7-C , 28-H ) :   0.9402 B(  8-S ,  9-C ) :   0.9969 B(  9-C , 10-S ) :   0.9982
B(  9-C , 29-H ) :   0.9112 B(  9-C , 30-H ) :   0.8458 B( 10-S , 11-P ) :   0.9420
B( 10-S , 12-S ) :   0.1077 B( 11-P , 12-S ) :   1.6768 B( 11-P , 13-O ) :   1.1149
B( 11-P , 16-O ) :   1.0755 B( 13-O , 14-C ) :   0.8865 B( 14-C , 15-C ) :   1.1642
B( 14-C , 31-H ) :   0.9102 B( 14-C , 32-H ) :   0.9279 B( 15-C , 33-H ) :   0.9474
B( 15-C , 34-H ) :   0.9422 B( 15-C , 35-H ) :   0.9400 B( 16-O , 17-C ) :   0.9057
B( 17-C , 18-C ) :   1.1669 B( 17-C , 36-H ) :   0.9340 B( 17-C , 37-H ) :   0.9171
B( 18-C , 38-H ) :   0.9433 B( 18-C , 39-H ) :   0.9370 B( 18-C , 40-H ) :   0.9336

Dispersion correction           -0.068169679
FINAL SINGLE POINT ENERGY     -2929.517197766315

DIPOLE MOMENT
-------------

Method             : SCF
Type of density    : Electron Density
Multiplicity       :   1
Irrep              :   0
Energy             : -2929.6358855300845789 Eh
Relativity type    :
Basis              : AO
                                X                 Y                 Z
Electronic contribution:      3.199922685       2.353719952     -13.322681514
Nuclear contribution   :     -3.415766289      -3.488602127      14.783561854
                        -----------------------------------------
Total Dipole Moment    :     -0.215843603      -1.134882175       1.460880340
                        -----------------------------------------
Magnitude (a.u.)       :      1.862449296
Magnitude (Debye)      :      4.733969896

Rotational constants in cm-1:             0.012335             0.005592             0.005093
Rotational constants in MHz :           369.800862           167.638046           152.695887

                             ****ORCA TERMINATED NORMALLY****
TOTAL RUN TIME: 0 days 0 hours 0 minutes 21 seconds 705 msec
