                         Program Version 6.0.0  -   RELEASE  -
|  1> ! pbe def2-sv(p) def2/J RI DEFGRID1 loosescf d4 GCP(DFT/SV(P)) printgap
|  2> %output
|  3>     printlevel normal
|  4> end
|  5> * xyz 0 1
|  6> C 3.5210626079 -0.4415506845 -2.45795419
|  7> C 2.0620035081 -0.054433291 -2.3653641541
|  8> O 1.7320775144 0.6431383325 -1.1344549265
|  9> P 2.0289058655 0.1583333131 0.3375626531
| 10> S 1.0098970552 1.2021958723 1.6487202833
| 11> O 3.6048833202 0.3139939999 0.4532897095
| 12> C 4.2861157124 0.3896298182 1.7164668375
| 13> C 4.2064375037 -0.9094341911 2.4922304307
| 14> S 1.7081987101 -1.9442910548 0.3532289123
| 15> C -0.0830473871 -1.9218079236 0.5684021591
| 16> S -0.9537077762 -1.2631906502 -0.8890220507
| 17> P -2.1276339407 0.2744542142 0.0025980456
| 18> S -2.4406872591 0.0949064992 1.9234884842
| 19> O -3.3945022951 0.2886338045 -0.9611174166
| 20> C -4.2434335417 -0.8398994106 -1.2421501903
| 21> C -5.1078685455 -1.2256254832 -0.0590826815
| 22> O -1.4695230823 1.6593073201 -0.3532931844
| 23> C -1.1895564068 2.0837640284 -1.708784572
| 24> C -2.2368665206 3.0700854645 -2.1818571217
| 25> H 3.7634069306 -1.1890883376 -1.7057387116
| 26> H 3.7105902784 -0.8570873398 -3.4429227692
| 27> H 4.1535655444 0.4289629633 -2.3059224359
| 28> H 1.4172736087 -0.9351922557 -2.4385622635
| 29> H 1.7877986095 0.6672290036 -3.1363705675
| 30> H 5.3135201512 0.6329599161 1.4421409603
| 31> H 3.8507000569 1.2099256209 2.2959049979
| 32> H 4.5257067425 -1.7428807009 1.8717534562
| 33> H 4.8461943332 -0.8440423895 3.3664951331
| 34> H 3.1827385239 -1.0848952251 2.8199236438
| 35> H -0.3559613366 -1.3107033246 1.4339866618
| 36> H -0.3860576714 -2.9565062223 0.7069761633
| 37> H -4.8524291525 -0.4982376289 -2.0813481718
| 38> H -3.6171449647 -1.6783155044 -1.5593714414
| 39> H -5.7859117247 -2.0192380842 -0.3560173723
| 40> H -4.4908603489 -1.573101975 0.7669894023
| 41> H -5.6834056685 -0.3687217557 0.2818270053
| 42> H -0.1994894868 2.5421041447 -1.6531794527
| 43> H -1.1504187484 1.2023554518 -2.3558234415
| 44> H -2.2782370393 3.9189413029 -1.5047240198
| 45> H -1.9756834397 3.4154615478 -3.1771878765
| 46> H -3.2142082607 2.5954574662 -2.2073985508
| 47> *
| 48>
| 49>                          ****END OF INPUT****

CARTESIAN COORDINATES (ANGSTROEM)
---------------------------------
  C      3.521063   -0.441551   -2.457954
  C      2.062004   -0.054433   -2.365364
  O      1.732078    0.643138   -1.134455
  P      2.028906    0.158333    0.337563
  S      1.009897    1.202196    1.648720
  O      3.604883    0.313994    0.453290
  C      4.286116    0.389630    1.716467
  C      4.206438   -0.909434    2.492230
  S      1.708199   -1.944291    0.353229
  C     -0.083047   -1.921808    0.568402
  S     -0.953708   -1.263191   -0.889022
  P     -2.127634    0.274454    0.002598
  S     -2.440687    0.094906    1.923488
  O     -3.394502    0.288634   -0.961117
  C     -4.243434   -0.839899   -1.242150
  C     -5.107869   -1.225625   -0.059083
  O     -1.469523    1.659307   -0.353293
  C     -1.189556    2.083764   -1.708785
  C     -2.236867    3.070085   -2.181857
  H      3.763407   -1.189088   -1.705739
  H      3.710590   -0.857087   -3.442923
  H      4.153566    0.428963   -2.305922
  H      1.417274   -0.935192   -2.438562
  H      1.787799    0.667229   -3.136371
  H      5.313520    0.632960    1.442141
  H      3.850700    1.209926    2.295905
  H      4.525707   -1.742881    1.871753
  H      4.846194   -0.844042    3.366495
  H      3.182739   -1.084895    2.819924
  H     -0.355961   -1.310703    1.433987
  H     -0.386058   -2.956506    0.706976
  H     -4.852429   -0.498238   -2.081348
  H     -3.617145   -1.678316   -1.559371
  H     -5.785912   -2.019238   -0.356017
  H     -4.490860   -1.573102    0.766989
  H     -5.683406   -0.368722    0.281827
  H     -0.199489    2.542104   -1.653179
  H     -1.150419    1.202355   -2.355823
  H     -2.278237    3.918941   -1.504724
  H     -1.975683    3.415462   -3.177188
  H     -3.214208    2.595457   -2.207399

 Total Charge           Charge          ....    0
 Multiplicity           Mult            ....    1
 Number of Electrons    NEL             ....  202
 Basis Dimension        Dim             ....  334

ORBITAL ENERGIES
----------------

  NO   OCC          E(Eh)            E(eV)
   0   2.0000     -88.046069     -2395.8553
   1   2.0000     -88.042992     -2395.7716
   2   2.0000     -87.977940     -2394.0015
   3   2.0000     -87.977145     -2393.9798
   4   2.0000     -76.423639     -2079.5929
   5   2.0000     -76.421712     -2079.5405
   6   2.0000     -18.791987      -511.3560
   7   2.0000     -18.791899      -511.3536
   8   2.0000     -18.790949      -511.3277
   9   2.0000     -18.782060      -511.0858
  10   2.0000      -9.956605      -270.9330
  11   2.0000      -9.954875      -270.8859
  12   2.0000      -9.954236      -270.8685
  13   2.0000      -9.951770      -270.8014
  14   2.0000      -9.948269      -270.7061
  15   2.0000      -9.888958      -269.0922
  16   2.0000      -9.883409      -268.9412
  17   2.0000      -9.881193      -268.8809
  18   2.0000      -9.879176      -268.8260
  19   2.0000      -7.690904      -209.2801
  20   2.0000      -7.687474      -209.1868
  21   2.0000      -7.623180      -207.4373
  22   2.0000      -7.622039      -207.4062
  23   2.0000      -6.420878      -174.7210
  24   2.0000      -6.418926      -174.6678
  25   2.0000      -5.718730      -155.6146
  26   2.0000      -5.715246      -155.5197
  27   2.0000      -5.715222      -155.5191
  28   2.0000      -5.711835      -155.4269
  29   2.0000      -5.708132      -155.3262
  30   2.0000      -5.704781      -155.2350
  31   2.0000      -5.652345      -153.8081
  32   2.0000      -5.651107      -153.7744
  33   2.0000      -5.643708      -153.5731
  34   2.0000      -5.643122      -153.5572
  35   2.0000      -5.642478      -153.5396
  36   2.0000      -5.642256      -153.5336
  37   2.0000      -4.643680      -126.3610
  38   2.0000      -4.642753      -126.3357
  39   2.0000      -4.641650      -126.3057
  40   2.0000      -4.641027      -126.2888
  41   2.0000      -4.640902      -126.2854
  42   2.0000      -4.639107      -126.2365
  43   2.0000      -0.985999       -26.8304
  44   2.0000      -0.984031       -26.7769
  45   2.0000      -0.944843       -25.7105
  46   2.0000      -0.938718       -25.5438
  47   2.0000      -0.762593       -20.7512
  48   2.0000      -0.718435       -19.5496
  49   2.0000      -0.710009       -19.3203
  50   2.0000      -0.690784       -18.7972
  51   2.0000      -0.686721       -18.6866
  52   2.0000      -0.676884       -18.4189
  53   2.0000      -0.647631       -17.6229
  54   2.0000      -0.632462       -17.2102
  55   2.0000      -0.595900       -16.2153
  56   2.0000      -0.585162       -15.9231
  57   2.0000      -0.578023       -15.7288
  58   2.0000      -0.568613       -15.4727
  59   2.0000      -0.565374       -15.3846
  60   2.0000      -0.502949       -13.6859
  61   2.0000      -0.490744       -13.3538
  62   2.0000      -0.473607       -12.8875
  63   2.0000      -0.470320       -12.7981
  64   2.0000      -0.449245       -12.2246
  65   2.0000      -0.448766       -12.2115
  66   2.0000      -0.442180       -12.0323
  67   2.0000      -0.436211       -11.8699
  68   2.0000      -0.429640       -11.6911
  69   2.0000      -0.419256       -11.4085
  70   2.0000      -0.409428       -11.1411
  71   2.0000      -0.402622       -10.9559
  72   2.0000      -0.399147       -10.8613
  73   2.0000      -0.381639       -10.3849
  74   2.0000      -0.379330       -10.3221
  75   2.0000      -0.365877        -9.9560
  76   2.0000      -0.362029        -9.8513
  77   2.0000      -0.355241        -9.6666
  78   2.0000      -0.354325        -9.6417
  79   2.0000      -0.351709        -9.5705
  80   2.0000      -0.346716        -9.4346
  81   2.0000      -0.345443        -9.4000
  82   2.0000      -0.338705        -9.2166
  83   2.0000      -0.336193        -9.1483
  84   2.0000      -0.333110        -9.0644
  85   2.0000      -0.316471        -8.6116
  86   2.0000      -0.312782        -8.5112
  87   2.0000      -0.294740        -8.0203
  88   2.0000      -0.292932        -7.9711
  89   2.0000      -0.290157        -7.8956
  90   2.0000      -0.284230        -7.7343
  91   2.0000      -0.274245        -7.4626
  92   2.0000      -0.269926        -7.3451
  93   2.0000      -0.260990        -7.1019
  94   2.0000      -0.257881        -7.0173
  95   2.0000      -0.237273        -6.4565
  96   2.0000      -0.222165        -6.0454
  97   2.0000      -0.208702        -5.6791
  98   2.0000      -0.197370        -5.3707
  99   2.0000      -0.189238        -5.1494
 100   2.0000      -0.180834        -4.9207
 101   0.0000      -0.041071        -1.1176
 102   0.0000      -0.031265        -0.8508
 103   0.0000      -0.009275        -0.2524
 104   0.0000       0.008395         0.2284
 105   0.0000       0.018927         0.5150

MULLIKEN ATOMIC CHARGES
-----------------------
   0 C :   -0.299880
   1 C :   -0.008286
   2 O :   -0.357853
   3 P :    0.584662
   4 S :   -0.278778
   5 O :   -0.374727
   6 C :    0.000102
   7 C :   -0.320363
   8 S :   -0.115542
   9 C :   -0.336633
  10 S :   -0.139048
  11 P :    0.608696
  12 S :   -0.285807
  13 O :   -0.381064
  14 C :   -0.010454
  15 C :   -0.302643
  16 O :   -0.337822
  17 C :   -0.018469
  18 C :   -0.282078
  19 H :    0.119091
  20 H :    0.112228
  21 H :    0.121971
  22 H :    0.113178
  23 H :    0.103803
  24 H :    0.103257
  25 H :    0.114019
  26 H :    0.114616
  27 H :    0.114478
  28 H :    0.131688
  29 H :    0.209546
  30 H :    0.180166
  31 H :    0.103325
  32 H :    0.105567
  33 H :    0.106188
  34 H :    0.126756
  35 H :    0.119882
  36 H :    0.119763
  37 H :    0.093375
  38 H :    0.122223
  39 H :    0.104097
  40 H :    0.116770
Sum of atomic charges:   -0.0000000

LOEWDIN ATOMIC CHARGES
----------------------
   0 C :   -0.366297
   1 C :   -0.117353
   2 O :   -0.235745
   3 P :    0.562309
   4 S :   -0.287742
   5 O :   -0.242998
   6 C :   -0.118181
   7 C :   -0.371489
   8 S :    0.073625
   9 C :   -0.478793
  10 S :    0.060457
  11 P :    0.566789
  12 S :   -0.287619
  13 O :   -0.246363
  14 C :   -0.118803
  15 C :   -0.367655
  16 O :   -0.222028
  17 C :   -0.114414
  18 C :   -0.358172
  19 H :    0.118129
  20 H :    0.131060
  21 H :    0.128610
  22 H :    0.101852
  23 H :    0.118520
  24 H :    0.117864
  25 H :    0.113200
  26 H :    0.121923
  27 H :    0.131850
  28 H :    0.123093
  29 H :    0.126229
  30 H :    0.136434
  31 H :    0.117461
  32 H :    0.102458
  33 H :    0.127841
  34 H :    0.121823
  35 H :    0.129022
  36 H :    0.121921
  37 H :    0.099428
  38 H :    0.130166
  39 H :    0.126712
  40 H :    0.124876

  Mayer bond orders larger than 0.100000
B(  0-C ,  1-C ) :   1.1736 B(  0-C , 19-H ) :   0.9376 B(  0-C , 20-H ) :   0.9353
B(  0-C , 21-H ) :   0.9426 B(  1-C ,  2-O ) :   0.8978 B(  1-C , 22-H ) :   0.9097
B(  1-C , 23-H ) :   0.9330 B(  2-O ,  3-P ) :   1.1268 B(  3-P ,  4-S ) :   1.6635
B(  3-P ,  5-O ) :   1.0879 B(  3-P ,  8-S ) :   0.9274 B(  4-S ,  8-S ) :   0.1071
B(  5-O ,  6-C ) :   0.9053 B(  6-C ,  7-C ) :   1.1657 B(  6-C , 24-H ) :   0.9339
B(  6-C , 25-H ) :   0.9146 B(  7-C , 26-H ) :   0.9448 B(  7-C , 27-H ) :   0.9376
B(  7-C , 28-H ) :   0.9338 B(  8-S ,  9-C ) :   1.0047 B(  9-C , 10-S ) :   0.9933
B(  9-C , 29-H ) :   0.8428 B(  9-C , 30-H ) :   0.9106 B( 10-S , 11-P ) :   0.9365
B( 10-S , 12-S ) :   0.1143 B( 11-P , 12-S ) :   1.6528 B( 11-P , 13-O ) :   1.0683
B( 11-P , 16-O ) :   1.1458 B( 13-O , 14-C ) :   0.9172 B( 14-C , 15-C ) :   1.1645
B( 14-C , 31-H ) :   0.9346 B( 14-C , 32-H ) :   0.9173 B( 15-C , 33-H ) :   0.9368
B( 15-C , 34-H ) :   0.9310 B( 15-C , 35-H ) :   0.9468 B( 16-O , 17-C ) :   0.8959
B( 17-C , 18-C ) :   1.1591 B( 17-C , 36-H ) :   0.9277 B( 17-C , 37-H ) :   0.9164
B( 18-C , 38-H ) :   0.9467 B( 18-C , 39-H ) :   0.9408 B( 18-C , 40-H ) :   0.9428

Dispersion correction           -0.067886460
FINAL SINGLE POINT ENERGY     -2929.514928808360

DIPOLE MOMENT
-------------

Method             : SCF
Type of density    : Electron Density
Multiplicity       :   1
Irrep              :   0
Energy             : -2929.6335729333459312 Eh
Relativity type    :
Basis              : AO
                                X                 Y                 Z
Electronic contribution:     -1.879193559      -0.068310283      10.759943945
Nuclear contribution   :      2.518097832      -0.705496755     -12.559987325
                        -----------------------------------------
Total Dipole Moment    :      0.638904272      -0.773807037      -1.800043379
                        -----------------------------------------
Magnitude (a.u.)       :      2.060857144
Magnitude (Debye)      :      5.238282567

Rotational constants in cm-1:             0.012974             0.005238             0.004933
Rotational constants in MHz :           388.935940           157.042526           147.876031

                             ****ORCA TERMINATED NORMALLY****
TOTAL RUN TIME: 0 days 0 hours 0 minutes 21 seconds 463 msec
