                         Program Version 6.0.0  -   RELEASE  -
|  1> ! pbe def2-sv(p) def2/J RI DEFGRID1 loosescf d4 GCP(DFT/SV(P)) printgap
|  2> %output
|  3>     printlevel normal
|  4> end
|  5> * xyz 0 1
|  6> C 4.4612869971 -0.3065169114 -2.499397613
|  7> C 3.7422534029 -1.595202284 -2.1577287753
|  8> O 3.3100541745 -1.6499723079 -0.7857982444
|  9> P 2.4515684206 -0.5411409319 -0.0398667122
| 10> S 3.3967437874 1.0671675791 0.5791920083
| 11> O 1.8427069462 -1.4228945342 1.1274325903
| 12> C 2.2650404062 -1.3489729447 2.5060714351
| 13> C 1.2165797491 -0.6516456245 3.3494279515
| 14> S 0.810911535 -0.2429487386 -1.3396251446
| 15> C 0.1824713119 1.2635066499 -0.5524483842
| 16> S -0.8187061961 0.9295688957 0.9183868853
| 17> P -2.6447132804 0.4060483973 -0.052525088
| 18> S -2.808030259 0.9983546185 -1.9196898038
| 19> O -3.7698873458 0.890167385 0.9441388088
| 20> C -4.3500509194 2.205147285 0.8620940887
| 21> C -3.3661188361 3.2952530351 1.2376813671
| 22> O -2.8746255764 -1.1400681133 0.2043023623
| 23> C -2.2498387542 -2.1794253999 -0.5730396625
| 24> C -1.2337301949 -2.9289617964 0.2667088829
| 25> H 5.2873985548 -0.1389389636 -1.8121850467
| 26> H 4.8441158111 -0.3654916121 -3.5132024352
| 27> H 3.7767225187 0.5377967448 -2.428671446
| 28> H 4.4038969778 -2.4581000812 -2.2522131544
| 29> H 2.8645564856 -1.7299964452 -2.7960483166
| 30> H 2.4022777345 -2.386613958 2.8140181692
| 31> H 3.2200163781 -0.8182243608 2.5609043851
| 32> H 1.1180275666 0.3880976718 3.0441603606
| 33> H 0.2523118315 -1.1389128043 3.2352193227
| 34> H 1.5176580191 -0.6892780246 4.391253498
| 35> H -0.4289615895 1.770550289 -1.2994366566
| 36> H 1.0255133175 1.878378996 -0.2345116885
| 37> H -4.7234224024 2.3573369351 -0.1557092231
| 38> H -5.187283024 2.1623704261 1.5601446113
| 39> H -2.911611282 3.0788304087 2.2012200577
| 40> H -2.5813645813 3.3672778288 0.485811034
| 41> H -3.8882497959 4.2453143609 1.2906302459
| 42> H -3.0659409796 -2.8384241354 -0.8775661651
| 43> H -1.7899144819 -1.7445967785 -1.4675298551
| 44> H -1.7071758971 -3.303400419 1.1699365121
| 45> H -0.8439815199 -3.7626711756 -0.308549688
| 46> H -0.4064641925 -2.2812739383 0.5471033225
| 47> *
| 48>
| 49>                          ****END OF INPUT****

CARTESIAN COORDINATES (ANGSTROEM)
---------------------------------
  C      4.461287   -0.306517   -2.499398
  C      3.742253   -1.595202   -2.157729
  O      3.310054   -1.649972   -0.785798
  P      2.451568   -0.541141   -0.039867
  S      3.396744    1.067168    0.579192
  O      1.842707   -1.422895    1.127433
  C      2.265040   -1.348973    2.506071
  C      1.216580   -0.651646    3.349428
  S      0.810912   -0.242949   -1.339625
  C      0.182471    1.263507   -0.552448
  S     -0.818706    0.929569    0.918387
  P     -2.644713    0.406048   -0.052525
  S     -2.808030    0.998355   -1.919690
  O     -3.769887    0.890167    0.944139
  C     -4.350051    2.205147    0.862094
  C     -3.366119    3.295253    1.237681
  O     -2.874626   -1.140068    0.204302
  C     -2.249839   -2.179425   -0.573040
  C     -1.233730   -2.928962    0.266709
  H      5.287399   -0.138939   -1.812185
  H      4.844116   -0.365492   -3.513202
  H      3.776723    0.537797   -2.428671
  H      4.403897   -2.458100   -2.252213
  H      2.864556   -1.729996   -2.796048
  H      2.402278   -2.386614    2.814018
  H      3.220016   -0.818224    2.560904
  H      1.118028    0.388098    3.044160
  H      0.252312   -1.138913    3.235219
  H      1.517658   -0.689278    4.391253
  H     -0.428962    1.770550   -1.299437
  H      1.025513    1.878379   -0.234512
  H     -4.723422    2.357337   -0.155709
  H     -5.187283    2.162370    1.560145
  H     -2.911611    3.078830    2.201220
  H     -2.581365    3.367278    0.485811
  H     -3.888250    4.245314    1.290630
  H     -3.065941   -2.838424   -0.877566
  H     -1.789914   -1.744597   -1.467530
  H     -1.707176   -3.303400    1.169937
  H     -0.843982   -3.762671   -0.308550
  H     -0.406464   -2.281274    0.547103

 Total Charge           Charge          ....    0
 Multiplicity           Mult            ....    1
 Number of Electrons    NEL             ....  202
 Basis Dimension        Dim             ....  334

ORBITAL ENERGIES
----------------

  NO   OCC          E(Eh)            E(eV)
   0   2.0000     -88.049808     -2395.9571
   1   2.0000     -88.044917     -2395.8240
   2   2.0000     -87.993627     -2394.4283
   3   2.0000     -87.991983     -2394.3836
   4   2.0000     -76.431730     -2079.8131
   5   2.0000     -76.428978     -2079.7382
   6   2.0000     -18.795692      -511.4568
   7   2.0000     -18.793244      -511.3902
   8   2.0000     -18.792274      -511.3638
   9   2.0000     -18.787197      -511.2256
  10   2.0000      -9.960678      -271.0438
  11   2.0000      -9.955313      -270.8979
  12   2.0000      -9.954642      -270.8796
  13   2.0000      -9.952039      -270.8087
  14   2.0000      -9.948070      -270.7007
  15   2.0000      -9.885537      -268.9991
  16   2.0000      -9.885226      -268.9907
  17   2.0000      -9.881069      -268.8776
  18   2.0000      -9.875808      -268.7344
  19   2.0000      -7.694668      -209.3826
  20   2.0000      -7.689622      -209.2453
  21   2.0000      -7.638541      -207.8553
  22   2.0000      -7.636898      -207.8106
  23   2.0000      -6.429065      -174.9438
  24   2.0000      -6.426415      -174.8716
  25   2.0000      -5.722342      -155.7128
  26   2.0000      -5.719209      -155.6276
  27   2.0000      -5.717434      -155.5793
  28   2.0000      -5.714123      -155.4892
  29   2.0000      -5.711827      -155.4267
  30   2.0000      -5.706703      -155.2873
  31   2.0000      -5.667296      -154.2150
  32   2.0000      -5.665723      -154.1721
  33   2.0000      -5.659227      -153.9954
  34   2.0000      -5.658834      -153.9847
  35   2.0000      -5.657691      -153.9536
  36   2.0000      -5.656999      -153.9348
  37   2.0000      -4.651525      -126.5744
  38   2.0000      -4.651018      -126.5606
  39   2.0000      -4.649471      -126.5185
  40   2.0000      -4.648608      -126.4950
  41   2.0000      -4.648365      -126.4884
  42   2.0000      -4.646999      -126.4513
  43   2.0000      -0.989470       -26.9249
  44   2.0000      -0.989266       -26.9193
  45   2.0000      -0.947384       -25.7796
  46   2.0000      -0.944109       -25.6905
  47   2.0000      -0.767260       -20.8782
  48   2.0000      -0.724042       -19.7022
  49   2.0000      -0.712433       -19.3863
  50   2.0000      -0.688600       -18.7378
  51   2.0000      -0.683152       -18.5895
  52   2.0000      -0.677596       -18.4383
  53   2.0000      -0.653865       -17.7926
  54   2.0000      -0.642221       -17.4757
  55   2.0000      -0.604792       -16.4572
  56   2.0000      -0.596408       -16.2291
  57   2.0000      -0.577575       -15.7166
  58   2.0000      -0.563742       -15.3402
  59   2.0000      -0.561481       -15.2787
  60   2.0000      -0.503560       -13.7026
  61   2.0000      -0.498007       -13.5515
  62   2.0000      -0.473378       -12.8813
  63   2.0000      -0.470618       -12.8062
  64   2.0000      -0.463349       -12.6084
  65   2.0000      -0.445390       -12.1197
  66   2.0000      -0.440227       -11.9792
  67   2.0000      -0.435985       -11.8638
  68   2.0000      -0.426767       -11.6129
  69   2.0000      -0.421331       -11.4650
  70   2.0000      -0.415560       -11.3080
  71   2.0000      -0.399696       -10.8763
  72   2.0000      -0.394116       -10.7245
  73   2.0000      -0.387959       -10.5569
  74   2.0000      -0.384772       -10.4702
  75   2.0000      -0.375427       -10.2159
  76   2.0000      -0.368867       -10.0374
  77   2.0000      -0.358628        -9.7588
  78   2.0000      -0.353418        -9.6170
  79   2.0000      -0.348927        -9.4948
  80   2.0000      -0.346945        -9.4409
  81   2.0000      -0.344628        -9.3778
  82   2.0000      -0.341462        -9.2916
  83   2.0000      -0.339954        -9.2506
  84   2.0000      -0.331132        -9.0106
  85   2.0000      -0.323260        -8.7964
  86   2.0000      -0.310037        -8.4365
  87   2.0000      -0.300863        -8.1869
  88   2.0000      -0.297839        -8.1046
  89   2.0000      -0.291401        -7.9294
  90   2.0000      -0.286721        -7.8021
  91   2.0000      -0.280065        -7.6210
  92   2.0000      -0.269919        -7.3449
  93   2.0000      -0.267365        -7.2754
  94   2.0000      -0.257271        -7.0007
  95   2.0000      -0.237979        -6.4757
  96   2.0000      -0.223138        -6.0719
  97   2.0000      -0.215418        -5.8618
  98   2.0000      -0.209602        -5.7036
  99   2.0000      -0.205984        -5.6051
 100   2.0000      -0.205294        -5.5863
 101   0.0000      -0.049559        -1.3486
 102   0.0000      -0.033571        -0.9135
 103   0.0000      -0.012668        -0.3447
 104   0.0000      -0.004490        -0.1222
 105   0.0000       0.009977         0.2715

MULLIKEN ATOMIC CHARGES
-----------------------
   0 C :   -0.310972
   1 C :   -0.011105
   2 O :   -0.369944
   3 P :    0.613834
   4 S :   -0.329455
   5 O :   -0.359339
   6 C :   -0.005206
   7 C :   -0.291779
   8 S :   -0.092781
   9 C :   -0.366550
  10 S :   -0.091510
  11 P :    0.600144
  12 S :   -0.330271
  13 O :   -0.358298
  14 C :   -0.000964
  15 C :   -0.313774
  16 O :   -0.355265
  17 C :   -0.006696
  18 C :   -0.320386
  19 H :    0.127448
  20 H :    0.112944
  21 H :    0.125128
  22 H :    0.110713
  23 H :    0.114327
  24 H :    0.105398
  25 H :    0.110188
  26 H :    0.122646
  27 H :    0.121183
  28 H :    0.107933
  29 H :    0.195924
  30 H :    0.192952
  31 H :    0.113285
  32 H :    0.108937
  33 H :    0.119989
  34 H :    0.123133
  35 H :    0.113587
  36 H :    0.105327
  37 H :    0.105193
  38 H :    0.109037
  39 H :    0.103223
  40 H :    0.151824
Sum of atomic charges:    0.0000000

LOEWDIN ATOMIC CHARGES
----------------------
   0 C :   -0.369567
   1 C :   -0.114020
   2 O :   -0.244456
   3 P :    0.573688
   4 S :   -0.314492
   5 O :   -0.236214
   6 C :   -0.115666
   7 C :   -0.360175
   8 S :    0.093601
   9 C :   -0.489707
  10 S :    0.092637
  11 P :    0.572535
  12 S :   -0.314262
  13 O :   -0.233817
  14 C :   -0.115521
  15 C :   -0.368952
  16 O :   -0.237300
  17 C :   -0.116728
  18 C :   -0.368229
  19 H :    0.130079
  20 H :    0.130794
  21 H :    0.121070
  22 H :    0.122250
  23 H :    0.109579
  24 H :    0.117981
  25 H :    0.108317
  26 H :    0.119096
  27 H :    0.125368
  28 H :    0.128702
  29 H :    0.127103
  30 H :    0.127850
  31 H :    0.112076
  32 H :    0.120770
  33 H :    0.125370
  34 H :    0.119879
  35 H :    0.131115
  36 H :    0.117743
  37 H :    0.100567
  38 H :    0.123501
  39 H :    0.127915
  40 H :    0.119518

  Mayer bond orders larger than 0.100000
B(  0-C ,  1-C ) :   1.1640 B(  0-C , 19-H ) :   0.9426 B(  0-C , 20-H ) :   0.9351
B(  0-C , 21-H ) :   0.9336 B(  1-C ,  2-O ) :   0.9133 B(  1-C , 22-H ) :   0.9340
B(  1-C , 23-H ) :   0.9278 B(  2-O ,  3-P ) :   1.1257 B(  3-P ,  4-S ) :   1.5915
B(  3-P ,  5-O ) :   1.1252 B(  3-P ,  8-S ) :   0.9536 B(  4-S ,  8-S ) :   0.1068
B(  5-O ,  6-C ) :   0.8889 B(  6-C ,  7-C ) :   1.1707 B(  6-C , 24-H ) :   0.9325
B(  6-C , 25-H ) :   0.9061 B(  7-C , 26-H ) :   0.9379 B(  7-C , 27-H ) :   0.9480
B(  7-C , 28-H ) :   0.9383 B(  8-S ,  9-C ) :   1.0038 B(  9-C , 10-S ) :   1.0136
B(  9-C , 29-H ) :   0.8653 B(  9-C , 30-H ) :   0.8632 B( 10-S , 11-P ) :   0.9342
B( 10-S , 12-S ) :   0.1204 B( 11-P , 12-S ) :   1.5973 B( 11-P , 13-O ) :   1.1359
B( 11-P , 16-O ) :   1.1379 B( 13-O , 14-C ) :   0.9099 B( 14-C , 15-C ) :   1.1645
B( 14-C , 31-H ) :   0.9184 B( 14-C , 32-H ) :   0.9344 B( 15-C , 33-H ) :   0.9438
B( 15-C , 34-H ) :   0.9381 B( 15-C , 35-H ) :   0.9374 B( 16-O , 17-C ) :   0.9041
B( 17-C , 18-C ) :   1.1651 B( 17-C , 36-H ) :   0.9350 B( 17-C , 37-H ) :   0.9031
B( 18-C , 38-H ) :   0.9459 B( 18-C , 39-H ) :   0.9398 B( 18-C , 40-H ) :   0.9201

Dispersion correction           -0.065484088
FINAL SINGLE POINT ENERGY     -2929.523546001319

DIPOLE MOMENT
-------------

Method             : SCF
Type of density    : Electron Density
Multiplicity       :   1
Irrep              :   0
Energy             : -2929.6424512340449837 Eh
Relativity type    :
Basis              : AO
                                X                 Y                 Z
Electronic contribution:     -2.961646791       3.090592640      -5.687507668
Nuclear contribution   :      3.115294511      -3.638867701       5.929857193
                        -----------------------------------------
Total Dipole Moment    :      0.153647720      -0.548275061       0.242349525
                        -----------------------------------------
Magnitude (a.u.)       :      0.618826677
Magnitude (Debye)      :      1.572932411

Rotational constants in cm-1:             0.012430             0.004728             0.004576
Rotational constants in MHz :           372.638751           141.742081           137.179773

                             ****ORCA TERMINATED NORMALLY****
TOTAL RUN TIME: 0 days 0 hours 0 minutes 21 seconds 248 msec
