                         Program Version 6.0.0  -   RELEASE  -
|  1> ! pbe def2-sv(p) def2/J RI DEFGRID1 loosescf d4 GCP(DFT/SV(P)) printgap
|  2> %output
|  3>     printlevel normal
|  4> end
|  5> * xyz 0 1
|  6> C 3.184876111 -2.761594681 -1.5822610765
|  7> C 3.8253787745 -1.455484503 -1.9984162799
|  8> O 3.8888545686 -0.4813426592 -0.9276527202
|  9> P 2.7060059996 0.0186558002 -0.0220489611
| 10> S 3.1706326938 1.7449270262 0.77500393
| 11> O 2.5224353586 -1.2139223204 0.9694742493
| 12> C 1.4643992327 -1.393885229 1.9239320388
| 13> C 1.5666270565 -0.4412708188 3.098358552
| 14> S 0.9754237082 0.0128938508 -1.2849741543
| 15> C 0.2415835071 1.5725466832 -0.7471664057
| 16> S -0.7257802207 1.4182246961 0.7804398514
| 17> P -2.2517371901 0.2080530529 -0.0401029435
| 18> S -2.7959742982 0.5748954899 -1.8919711843
| 19> O -3.420578002 0.2589093969 1.0339023815
| 20> C -4.477811161 1.2315275108 0.976456313
| 21> C -3.9770347681 2.6364125192 1.243204671
| 22> O -1.6251510269 -1.2227777473 0.2336498475
| 23> C -2.0414405481 -2.3960218496 -0.496169034
| 24> C -3.4639351076 -2.7912065593 -0.160938553
| 25> H 2.1302580707 -2.6089853732 -1.3600707598
| 26> H 3.2720061924 -3.47218645 -2.3984967719
| 27> H 3.6807097543 -3.1607305292 -0.7014545055
| 28> H 3.2805286652 -1.0033337489 -2.8310811521
| 29> H 4.8732982762 -1.5895721413 -2.2711318259
| 30> H 0.5011734889 -1.2819402577 1.416771122
| 31> H 1.5865068551 -2.4295962689 2.2476257421
| 32> H 0.8128007574 -0.7017288961 3.8344484048
| 33> H 2.5526494879 -0.5082615015 3.5510400016
| 34> H 1.4022028385 0.5853317549 2.7763724082
| 35> H -0.409473073 1.9055625413 -1.5547079831
| 36> H 1.0337861379 2.2936377257 -0.5407963615
| 37> H -4.9478050228 1.1737521869 -0.0107253583
| 38> H -5.180028856 0.9015942724 1.7430838033
| 39> H -3.3255562456 2.9605171346 0.4323064117
| 40> H -4.8222149005 3.3144065394 1.3059032913
| 41> H -3.4171886069 2.6687192414 2.1746091635
| 42> H -1.9346885738 -2.1916967406 -1.5662749053
| 43> H -1.3263890044 -3.1615803857 -0.1920677064
| 44> H -3.5810039708 -2.896549843 0.9144342576
| 45> H -4.1541079319 -2.027306216 -0.5170653323
| 46> H -3.700202435 -3.7329922343 -0.6461995886
| 47> *
| 48>
| 49>                          ****END OF INPUT****

CARTESIAN COORDINATES (ANGSTROEM)
---------------------------------
  C      3.184876   -2.761595   -1.582261
  C      3.825379   -1.455485   -1.998416
  O      3.888855   -0.481343   -0.927653
  P      2.706006    0.018656   -0.022049
  S      3.170633    1.744927    0.775004
  O      2.522435   -1.213922    0.969474
  C      1.464399   -1.393885    1.923932
  C      1.566627   -0.441271    3.098359
  S      0.975424    0.012894   -1.284974
  C      0.241584    1.572547   -0.747166
  S     -0.725780    1.418225    0.780440
  P     -2.251737    0.208053   -0.040103
  S     -2.795974    0.574895   -1.891971
  O     -3.420578    0.258909    1.033902
  C     -4.477811    1.231528    0.976456
  C     -3.977035    2.636413    1.243205
  O     -1.625151   -1.222778    0.233650
  C     -2.041441   -2.396022   -0.496169
  C     -3.463935   -2.791207   -0.160939
  H      2.130258   -2.608985   -1.360071
  H      3.272006   -3.472186   -2.398497
  H      3.680710   -3.160731   -0.701455
  H      3.280529   -1.003334   -2.831081
  H      4.873298   -1.589572   -2.271132
  H      0.501173   -1.281940    1.416771
  H      1.586507   -2.429596    2.247626
  H      0.812801   -0.701729    3.834448
  H      2.552649   -0.508262    3.551040
  H      1.402203    0.585332    2.776372
  H     -0.409473    1.905563   -1.554708
  H      1.033786    2.293638   -0.540796
  H     -4.947805    1.173752   -0.010725
  H     -5.180029    0.901594    1.743084
  H     -3.325556    2.960517    0.432306
  H     -4.822215    3.314407    1.305903
  H     -3.417189    2.668719    2.174609
  H     -1.934689   -2.191697   -1.566275
  H     -1.326389   -3.161580   -0.192068
  H     -3.581004   -2.896550    0.914434
  H     -4.154108   -2.027306   -0.517065
  H     -3.700202   -3.732992   -0.646200

 Total Charge           Charge          ....    0
 Multiplicity           Mult            ....    1
 Number of Electrons    NEL             ....  202
 Basis Dimension        Dim             ....  334

ORBITAL ENERGIES
----------------

  NO   OCC          E(Eh)            E(eV)
   0   2.0000     -88.047321     -2395.8894
   1   2.0000     -88.043735     -2395.7918
   2   2.0000     -87.996925     -2394.5181
   3   2.0000     -87.981773     -2394.1057
   4   2.0000     -76.433024     -2079.8483
   5   2.0000     -76.425005     -2079.6301
   6   2.0000     -18.800338      -511.5832
   7   2.0000     -18.797223      -511.4984
   8   2.0000     -18.790408      -511.3130
   9   2.0000     -18.787154      -511.2244
  10   2.0000      -9.959178      -271.0030
  11   2.0000      -9.958363      -270.9808
  12   2.0000      -9.957442      -270.9558
  13   2.0000      -9.953878      -270.8588
  14   2.0000      -9.946119      -270.6477
  15   2.0000      -9.891845      -269.1708
  16   2.0000      -9.889599      -269.1097
  17   2.0000      -9.888282      -269.0738
  18   2.0000      -9.872464      -268.6434
  19   2.0000      -7.692153      -209.3141
  20   2.0000      -7.688311      -209.2096
  21   2.0000      -7.641741      -207.9423
  22   2.0000      -7.626995      -207.5411
  23   2.0000      -6.430656      -174.9870
  24   2.0000      -6.422152      -174.7556
  25   2.0000      -5.719939      -155.6474
  26   2.0000      -5.716815      -155.5624
  27   2.0000      -5.716129      -155.5438
  28   2.0000      -5.712757      -155.4520
  29   2.0000      -5.709077      -155.3519
  30   2.0000      -5.705512      -155.2549
  31   2.0000      -5.670505      -154.3023
  32   2.0000      -5.662423      -154.0824
  33   2.0000      -5.662048      -154.0721
  34   2.0000      -5.656044      -153.9088
  35   2.0000      -5.647685      -153.6813
  36   2.0000      -5.646894      -153.6598
  37   2.0000      -4.653058      -126.6162
  38   2.0000      -4.652400      -126.5983
  39   2.0000      -4.651262      -126.5673
  40   2.0000      -4.644847      -126.3927
  41   2.0000      -4.644144      -126.3736
  42   2.0000      -4.642357      -126.3250
  43   2.0000      -0.994163       -27.0526
  44   2.0000      -0.984040       -26.7771
  45   2.0000      -0.953333       -25.9415
  46   2.0000      -0.941389       -25.6165
  47   2.0000      -0.766400       -20.8548
  48   2.0000      -0.723917       -19.6988
  49   2.0000      -0.713092       -19.4042
  50   2.0000      -0.692814       -18.8524
  51   2.0000      -0.687893       -18.7185
  52   2.0000      -0.677180       -18.4270
  53   2.0000      -0.653830       -17.7916
  54   2.0000      -0.640676       -17.4337
  55   2.0000      -0.607049       -16.5186
  56   2.0000      -0.592401       -16.1200
  57   2.0000      -0.578430       -15.7399
  58   2.0000      -0.572917       -15.5899
  59   2.0000      -0.565039       -15.3755
  60   2.0000      -0.501433       -13.6447
  61   2.0000      -0.491436       -13.3727
  62   2.0000      -0.479045       -13.0355
  63   2.0000      -0.471515       -12.8306
  64   2.0000      -0.461963       -12.5706
  65   2.0000      -0.447244       -12.1701
  66   2.0000      -0.445797       -12.1308
  67   2.0000      -0.438991       -11.9455
  68   2.0000      -0.430063       -11.7026
  69   2.0000      -0.419779       -11.4228
  70   2.0000      -0.402989       -10.9659
  71   2.0000      -0.400832       -10.9072
  72   2.0000      -0.397856       -10.8262
  73   2.0000      -0.396287       -10.7835
  74   2.0000      -0.391242       -10.6462
  75   2.0000      -0.377974       -10.2852
  76   2.0000      -0.366151        -9.9635
  77   2.0000      -0.359181        -9.7738
  78   2.0000      -0.356332        -9.6963
  79   2.0000      -0.353802        -9.6274
  80   2.0000      -0.352030        -9.5792
  81   2.0000      -0.349048        -9.4981
  82   2.0000      -0.342936        -9.3318
  83   2.0000      -0.339603        -9.2411
  84   2.0000      -0.330593        -8.9959
  85   2.0000      -0.323875        -8.8131
  86   2.0000      -0.314109        -8.5473
  87   2.0000      -0.301391        -8.2013
  88   2.0000      -0.293744        -7.9932
  89   2.0000      -0.287447        -7.8218
  90   2.0000      -0.285221        -7.7613
  91   2.0000      -0.279442        -7.6040
  92   2.0000      -0.274670        -7.4741
  93   2.0000      -0.269965        -7.3461
  94   2.0000      -0.257894        -7.0176
  95   2.0000      -0.238215        -6.4822
  96   2.0000      -0.220204        -5.9921
  97   2.0000      -0.217738        -5.9250
  98   2.0000      -0.210656        -5.7322
  99   2.0000      -0.202189        -5.5018
 100   2.0000      -0.194479        -5.2920
 101   0.0000      -0.048460        -1.3187
 102   0.0000      -0.029898        -0.8136
 103   0.0000      -0.005676        -0.1544
 104   0.0000       0.000212         0.0058
 105   0.0000       0.008061         0.2193

MULLIKEN ATOMIC CHARGES
-----------------------
   0 C :   -0.318252
   1 C :   -0.003164
   2 O :   -0.360131
   3 P :    0.606445
   4 S :   -0.311172
   5 O :   -0.372163
   6 C :   -0.041328
   7 C :   -0.302545
   8 S :   -0.120835
   9 C :   -0.351650
  10 S :   -0.072875
  11 P :    0.611311
  12 S :   -0.332218
  13 O :   -0.369933
  14 C :   -0.006083
  15 C :   -0.316720
  16 O :   -0.356440
  17 C :   -0.001280
  18 C :   -0.308183
  19 H :    0.123621
  20 H :    0.115525
  21 H :    0.127535
  22 H :    0.115017
  23 H :    0.114128
  24 H :    0.137236
  25 H :    0.096910
  26 H :    0.102790
  27 H :    0.113582
  28 H :    0.133043
  29 H :    0.193239
  30 H :    0.195784
  31 H :    0.112316
  32 H :    0.107768
  33 H :    0.127986
  34 H :    0.115718
  35 H :    0.121059
  36 H :    0.113890
  37 H :    0.104580
  38 H :    0.117768
  39 H :    0.123673
  40 H :    0.114045
Sum of atomic charges:   -0.0000000

LOEWDIN ATOMIC CHARGES
----------------------
   0 C :   -0.367767
   1 C :   -0.111493
   2 O :   -0.234908
   3 P :    0.568244
   4 S :   -0.301600
   5 O :   -0.242602
   6 C :   -0.124780
   7 C :   -0.367756
   8 S :    0.068195
   9 C :   -0.485754
  10 S :    0.106800
  11 P :    0.573490
  12 S :   -0.320084
  13 O :   -0.242057
  14 C :   -0.118908
  15 C :   -0.369231
  16 O :   -0.236426
  17 C :   -0.116798
  18 C :   -0.364872
  19 H :    0.117052
  20 H :    0.132198
  21 H :    0.131123
  22 H :    0.112233
  23 H :    0.124608
  24 H :    0.106307
  25 H :    0.115343
  26 H :    0.127057
  27 H :    0.125545
  28 H :    0.116094
  29 H :    0.130032
  30 H :    0.129214
  31 H :    0.111105
  32 H :    0.119934
  33 H :    0.121780
  34 H :    0.132505
  35 H :    0.125811
  36 H :    0.111671
  37 H :    0.117521
  38 H :    0.126980
  39 H :    0.122850
  40 H :    0.131345

  Mayer bond orders larger than 0.100000
B(  0-C ,  1-C ) :   1.1673 B(  0-C , 19-H ) :   0.9389 B(  0-C , 20-H ) :   0.9346
B(  0-C , 21-H ) :   0.9418 B(  1-C ,  2-O ) :   0.9049 B(  1-C , 22-H ) :   0.9243
B(  1-C , 23-H ) :   0.9347 B(  2-O ,  3-P ) :   1.1467 B(  3-P ,  4-S ) :   1.6437
B(  3-P ,  5-O ) :   1.0932 B(  3-P ,  8-S ) :   0.9246 B(  4-S ,  8-S ) :   0.1113
B(  5-O ,  6-C ) :   0.9093 B(  6-C ,  7-C ) :   1.1675 B(  6-C , 24-H ) :   0.8983
B(  6-C , 25-H ) :   0.9346 B(  7-C , 26-H ) :   0.9379 B(  7-C , 27-H ) :   0.9453
B(  7-C , 28-H ) :   0.9286 B(  8-S ,  9-C ) :   1.0165 B(  9-C , 10-S ) :   1.0005
B(  9-C , 29-H ) :   0.8775 B(  9-C , 30-H ) :   0.8615 B( 10-S , 11-P ) :   0.9633
B( 10-S , 12-S ) :   0.1088 B( 11-P , 12-S ) :   1.5890 B( 11-P , 13-O ) :   1.1135
B( 11-P , 16-O ) :   1.1158 B( 13-O , 14-C ) :   0.9053 B( 14-C , 15-C ) :   1.1663
B( 14-C , 31-H ) :   0.9167 B( 14-C , 32-H ) :   0.9336 B( 15-C , 33-H ) :   0.9354
B( 15-C , 34-H ) :   0.9375 B( 15-C , 35-H ) :   0.9443 B( 16-O , 17-C ) :   0.9010
B( 17-C , 18-C ) :   1.1642 B( 17-C , 36-H ) :   0.9179 B( 17-C , 37-H ) :   0.9334
B( 18-C , 38-H ) :   0.9456 B( 18-C , 39-H ) :   0.9364 B( 18-C , 40-H ) :   0.9389

Dispersion correction           -0.066331405
FINAL SINGLE POINT ENERGY     -2929.522123304610

DIPOLE MOMENT
-------------

Method             : SCF
Type of density    : Electron Density
Multiplicity       :   1
Irrep              :   0
Energy             : -2929.6416091843161666 Eh
Relativity type    :
Basis              : AO
                                X                 Y                 Z
Electronic contribution:     10.238148121      12.939365261      -5.517215151
Nuclear contribution   :    -11.354772937     -14.388334840       5.569378622
                        -----------------------------------------
Total Dipole Moment    :     -1.116624816      -1.448969579       0.052163471
                        -----------------------------------------
Magnitude (a.u.)       :      1.830050505
Magnitude (Debye)      :      4.651618712

Rotational constants in cm-1:             0.012385             0.005054             0.004611
Rotational constants in MHz :           371.283304           151.526217           138.223680

                             ****ORCA TERMINATED NORMALLY****
TOTAL RUN TIME: 0 days 0 hours 0 minutes 21 seconds 243 msec
