                         Program Version 6.0.1  -  RELEASE   -
|  1> ! pbe def2-sv(p) def2/J RI DEFGRID1 loosescf d4 GCP(DFT/SV(P)) printgap
|  2> %output
|  3>     printlevel normal
|  4> end
|  5> * xyz 0 1
|  6> C 3.8481494359 -3.7865514616 -0.0501003461
|  7> C 4.0087228887 -2.8862413023 -1.2642539051
|  8> O 2.7293891575 -2.3943917469 -1.7154926671
|  9> C 2.241248279 -1.3060282423 -1.1647951632
| 10> O 2.802785617 -0.6484323071 -0.3116752467
| 11> C 0.8697867839 -0.9709069758 -1.7081127204
| 12> C 0.523348334 0.4882393439 -1.4263296149
| 13> H 0.986943852 1.1692344219 -2.1404558889
| 14> C 0.8989247532 0.8997551498 -0.0170927594
| 15> O 0.3954357009 0.3544118449 0.9495516827
| 16> O 1.6977732858 1.9284104711 0.013158066
| 17> C 2.0912652447 2.4612726871 1.2958435236
| 18> C 1.1283047979 3.5488878741 1.7427379934
| 19> S -1.2749875812 0.7586624654 -1.5474962086
| 20> P -2.0530391131 0.1489631156 0.3483849383
| 21> S -2.1252613218 1.3746024351 1.8863674546
| 22> O -3.5443743099 -0.151565915 -0.1645764352
| 23> C -4.4472004066 0.8978172195 -0.5189532061
| 24> O -1.6569989882 -1.3761678242 0.5682807505
| 25> C -1.13611949 -1.8889373488 1.7971769434
| 26> H 3.1635942827 -4.5999797214 -0.2739761799
| 27> H 4.8149477264 -4.1969511927 0.2217601901
| 28> H 3.4595274905 -3.2165370279 0.7912714042
| 29> H 4.4016429658 -3.4366439079 -2.1188413362
| 30> H 4.6483084793 -2.0304288276 -1.0313443966
| 31> H 0.1580779006 -1.6290290626 -1.1994386757
| 32> H 0.8204654077 -1.1876310224 -2.7741738398
| 33> H 2.1222381258 1.640576816 2.0169786511
| 34> H 3.0926994144 2.8569330601 1.1261875989
| 35> H 0.137130056 3.1327670318 1.9155006045
| 36> H 1.4876880467 3.985042632 2.6686682132
| 37> H 1.0583999015 4.3225951905 0.9833382232
| 38> H -4.1709609446 1.3178935337 -1.4862649057
| 39> H -4.4326986342 1.6786169618 0.244349055
| 40> H -5.4295934217 0.4350491735 -0.5687376299
| 41> H -0.0575283122 -2.0133548489 1.7046076074
| 42> H -1.6287135636 -2.844138419 1.9626799429
| 43> H -1.3449881008 -1.201793544 2.6187359531
| 44> *
| 45>
| 46>                          ****END OF INPUT****

CARTESIAN COORDINATES (ANGSTROEM)
---------------------------------
  C      3.848149   -3.786551   -0.050100
  C      4.008723   -2.886241   -1.264254
  O      2.729389   -2.394392   -1.715493
  C      2.241248   -1.306028   -1.164795
  O      2.802786   -0.648432   -0.311675
  C      0.869787   -0.970907   -1.708113
  C      0.523348    0.488239   -1.426330
  H      0.986944    1.169234   -2.140456
  C      0.898925    0.899755   -0.017093
  O      0.395436    0.354412    0.949552
  O      1.697773    1.928410    0.013158
  C      2.091265    2.461273    1.295844
  C      1.128305    3.548888    1.742738
  S     -1.274988    0.758662   -1.547496
  P     -2.053039    0.148963    0.348385
  S     -2.125261    1.374602    1.886367
  O     -3.544374   -0.151566   -0.164576
  C     -4.447200    0.897817   -0.518953
  O     -1.656999   -1.376168    0.568281
  C     -1.136119   -1.888937    1.797177
  H      3.163594   -4.599980   -0.273976
  H      4.814948   -4.196951    0.221760
  H      3.459527   -3.216537    0.791271
  H      4.401643   -3.436644   -2.118841
  H      4.648308   -2.030429   -1.031344
  H      0.158078   -1.629029   -1.199439
  H      0.820465   -1.187631   -2.774174
  H      2.122238    1.640577    2.016979
  H      3.092699    2.856933    1.126188
  H      0.137130    3.132767    1.915501
  H      1.487688    3.985043    2.668668
  H      1.058400    4.322595    0.983338
  H     -4.170961    1.317894   -1.486265
  H     -4.432699    1.678617    0.244349
  H     -5.429593    0.435049   -0.568738
  H     -0.057528   -2.013355    1.704608
  H     -1.628714   -2.844138    1.962680
  H     -1.344988   -1.201794    2.618736

 Total Charge           Charge          ....    0
 Multiplicity           Mult            ....    1
 Number of Electrons    NEL             ....  174
 Basis Dimension        Dim             ....  316

ORBITAL ENERGIES
----------------

  NO   OCC          E(Eh)            E(eV)
   0   2.0000     -88.035575     -2395.5698
   1   2.0000     -87.968912     -2393.7558
   2   2.0000     -76.418291     -2079.4474
   3   2.0000     -18.817092      -512.0391
   4   2.0000     -18.805812      -511.7322
   5   2.0000     -18.783799      -511.1332
   6   2.0000     -18.772817      -510.8343
   7   2.0000     -18.754276      -510.3298
   8   2.0000     -18.742868      -510.0194
   9   2.0000     -10.024665      -272.7850
  10   2.0000     -10.018070      -272.6056
  11   2.0000      -9.959413      -271.0094
  12   2.0000      -9.948614      -270.7155
  13   2.0000      -9.942666      -270.5537
  14   2.0000      -9.932759      -270.2841
  15   2.0000      -9.931889      -270.2604
  16   2.0000      -9.917106      -269.8582
  17   2.0000      -9.896688      -269.3026
  18   2.0000      -9.874093      -268.6877
  19   2.0000      -7.680553      -208.9985
  20   2.0000      -7.613936      -207.1857
  21   2.0000      -6.414065      -174.5356
  22   2.0000      -5.708794      -155.3442
  23   2.0000      -5.704881      -155.2377
  24   2.0000      -5.697338      -155.0324
  25   2.0000      -5.642984      -153.5534
  26   2.0000      -5.634733      -153.3289
  27   2.0000      -5.633743      -153.3019
  28   2.0000      -4.636625      -126.1690
  29   2.0000      -4.636289      -126.1598
  30   2.0000      -4.634453      -126.1099
  31   2.0000      -1.026011       -27.9192
  32   2.0000      -1.015490       -27.6329
  33   2.0000      -0.972609       -26.4660
  34   2.0000      -0.932454       -25.3734
  35   2.0000      -0.929736       -25.2994
  36   2.0000      -0.921851       -25.0848
  37   2.0000      -0.764974       -20.8160
  38   2.0000      -0.721310       -19.6279
  39   2.0000      -0.700031       -19.0488
  40   2.0000      -0.688400       -18.7323
  41   2.0000      -0.658639       -17.9225
  42   2.0000      -0.622964       -16.9517
  43   2.0000      -0.615574       -16.7506
  44   2.0000      -0.610807       -16.6209
  45   2.0000      -0.602341       -16.3905
  46   2.0000      -0.560311       -15.2468
  47   2.0000      -0.510703       -13.8969
  48   2.0000      -0.506976       -13.7955
  49   2.0000      -0.494843       -13.4654
  50   2.0000      -0.484124       -13.1737
  51   2.0000      -0.466529       -12.6949
  52   2.0000      -0.460969       -12.5436
  53   2.0000      -0.443788       -12.0761
  54   2.0000      -0.438943       -11.9442
  55   2.0000      -0.433507       -11.7963
  56   2.0000      -0.428521       -11.6606
  57   2.0000      -0.419059       -11.4032
  58   2.0000      -0.413440       -11.2503
  59   2.0000      -0.408891       -11.1265
  60   2.0000      -0.401422       -10.9232
  61   2.0000      -0.397641       -10.8204
  62   2.0000      -0.388777       -10.5792
  63   2.0000      -0.384388       -10.4597
  64   2.0000      -0.375937       -10.2298
  65   2.0000      -0.368580       -10.0296
  66   2.0000      -0.362157        -9.8548
  67   2.0000      -0.356755        -9.7078
  68   2.0000      -0.346961        -9.4413
  69   2.0000      -0.341944        -9.3048
  70   2.0000      -0.335714        -9.1352
  71   2.0000      -0.329146        -8.9565
  72   2.0000      -0.321074        -8.7369
  73   2.0000      -0.308991        -8.4081
  74   2.0000      -0.298142        -8.1129
  75   2.0000      -0.293631        -7.9901
  76   2.0000      -0.290437        -7.9032
  77   2.0000      -0.281617        -7.6632
  78   2.0000      -0.275869        -7.5068
  79   2.0000      -0.264808        -7.2058
  80   2.0000      -0.256997        -6.9932
  81   2.0000      -0.247656        -6.7391
  82   2.0000      -0.239736        -6.5235
  83   2.0000      -0.231798        -6.3076
  84   2.0000      -0.222062        -6.0426
  85   2.0000      -0.187399        -5.0994
  86   2.0000      -0.178612        -4.8603
  87   0.0000      -0.049471        -1.3462
  88   0.0000      -0.038086        -1.0364
  89   0.0000      -0.018325        -0.4987
  90   0.0000       0.005564         0.1514
  91   0.0000       0.031552         0.8586

MULLIKEN ATOMIC CHARGES
-----------------------
   0 C :   -0.308555
   1 C :   -0.013913
   2 O :   -0.223869
   3 C :    0.126795
   4 O :   -0.204955
   5 C :   -0.075014
   6 C :   -0.276030
   7 H :    0.130924
   8 C :    0.204088
   9 O :   -0.217935
  10 O :   -0.207501
  11 C :   -0.008134
  12 C :   -0.315926
  13 S :   -0.099945
  14 P :    0.610800
  15 S :   -0.317031
  16 O :   -0.374915
  17 C :   -0.105299
  18 O :   -0.372453
  19 C :   -0.092830
  20 H :    0.118428
  21 H :    0.117606
  22 H :    0.129987
  23 H :    0.108005
  24 H :    0.112344
  25 H :    0.149722
  26 H :    0.121886
  27 H :    0.113176
  28 H :    0.101822
  29 H :    0.148213
  30 H :    0.106883
  31 H :    0.108492
  32 H :    0.112429
  33 H :    0.113912
  34 H :    0.121529
  35 H :    0.116160
  36 H :    0.117696
  37 H :    0.123407
Sum of atomic charges:   -0.0000000

LOEWDIN ATOMIC CHARGES
----------------------
   0 C :   -0.355835
   1 C :   -0.109122
   2 O :   -0.053331
   3 C :    0.040550
   4 O :   -0.153787
   5 C :   -0.256769
   6 C :   -0.257041
   7 H :    0.141228
   8 C :    0.012395
   9 O :   -0.171466
  10 O :   -0.031483
  11 C :   -0.103390
  12 C :   -0.362274
  13 S :    0.100112
  14 P :    0.583927
  15 S :   -0.312067
  16 O :   -0.261576
  17 C :   -0.221034
  18 O :   -0.243181
  19 C :   -0.212174
  20 H :    0.126927
  21 H :    0.133168
  22 H :    0.131343
  23 H :    0.120477
  24 H :    0.121543
  25 H :    0.154630
  26 H :    0.144291
  27 H :    0.123217
  28 H :    0.117865
  29 H :    0.127504
  30 H :    0.128820
  31 H :    0.123238
  32 H :    0.105719
  33 H :    0.106925
  34 H :    0.120611
  35 H :    0.110531
  36 H :    0.116949
  37 H :    0.112562

  Mayer bond orders larger than 0.100000
B(  0-C ,  1-C ) :   1.1753 B(  0-C , 20-H ) :   0.9484 B(  0-C , 21-H ) :   0.9433
B(  0-C , 22-H ) :   0.9457 B(  1-C ,  2-O ) :   0.9076 B(  1-C , 23-H ) :   0.9367
B(  1-C , 24-H ) :   0.9148 B(  2-O ,  3-C ) :   1.2533 B(  3-C ,  4-O ) :   1.9753
B(  3-C ,  5-C ) :   1.0082 B(  4-O ,  8-C ) :   0.1076 B(  5-C ,  6-C ) :   1.0047
B(  5-C , 25-H ) :   0.8657 B(  5-C , 26-H ) :   0.9027 B(  6-C ,  7-H ) :   0.8851
B(  6-C ,  8-C ) :   0.9118 B(  6-C , 13-S ) :   1.0252 B(  8-C ,  9-O ) :   1.8738
B(  8-C , 10-O ) :   1.2899 B(  9-O , 14-P ) :   0.1302 B( 10-O , 11-C ) :   0.9000
B( 11-C , 12-C ) :   1.1757 B( 11-C , 27-H ) :   0.9135 B( 11-C , 28-H ) :   0.9376
B( 12-C , 29-H ) :   0.9227 B( 12-C , 30-H ) :   0.9419 B( 12-C , 31-H ) :   0.9474
B( 13-S , 14-P ) :   0.9325 B( 13-S , 15-S ) :   0.1094 B( 14-P , 15-S ) :   1.5845
B( 14-P , 16-O ) :   1.0742 B( 14-P , 18-O ) :   1.0999 B( 16-O , 17-C ) :   0.9442
B( 17-C , 32-H ) :   0.9472 B( 17-C , 33-H ) :   0.9288 B( 17-C , 34-H ) :   0.9598
B( 18-O , 19-C ) :   0.9194 B( 19-C , 35-H ) :   0.9502 B( 19-C , 36-H ) :   0.9545
B( 19-C , 37-H ) :   0.9315

Dispersion correction           -0.052025032
FINAL SINGLE POINT ENERGY     -1979.009013235729

DIPOLE MOMENT
-------------

Method             : SCF
Type of density    : Electron Density
Multiplicity       :   1
Irrep              :   0
Energy             : -1979.1412292970326234 Eh
Relativity type    :
Basis              : AO
                                X                 Y                 Z
Electronic contribution:    -13.047437444       4.845524070      -4.812636044
Nuclear contribution   :     14.434388358      -5.686809851       4.041790718
                        -----------------------------------------
Total Dipole Moment    :      1.386950914      -0.841285781      -0.770845327
                        -----------------------------------------
Magnitude (a.u.)       :      1.795994744
Magnitude (Debye)      :      4.565055849

Rotational constants in cm-1:             0.013777             0.006739             0.005716
Rotational constants in MHz :           413.031908           202.017122           171.367264

                             ****ORCA TERMINATED NORMALLY****
TOTAL RUN TIME: 0 days 0 hours 0 minutes 40 seconds 436 msec
