                         Program Version 6.0.0  -   RELEASE  -
|  1> ! r2scan-3c def2/J RI DEFGRID2 scfconv6 printgap
|  2> %output
|  3>     printlevel normal
|  4> end
|  5> * xyz 0 1
|  6> C 5.5208840589 -1.270144199 -1.1661104712
|  7> C 4.1592064899 -1.2522533948 -1.8332168264
|  8> O 3.1222671492 -1.5391670492 -0.8713335022
|  9> P 2.2555955565 -0.3906182814 -0.1929460408
| 10> S 3.2716981315 1.1509559284 0.4750524144
| 11> O 1.4305863646 -1.2255046866 0.8666784179
| 12> C 1.9448243576 -1.4828797235 2.1987390887
| 13> C 1.3953379333 -0.4788537703 3.1919227237
| 14> S 0.779074847 0.0286246199 -1.6426828645
| 15> C 0.195556075 1.5726971397 -0.8860389286
| 16> S -0.7163912922 1.2985021484 0.6446026254
| 17> P -2.3926920643 0.3301612549 -0.2639400195
| 18> S -2.8962642608 0.9916076175 -2.0337021818
| 19> O -3.4742516501 0.354716563 0.8993436071
| 20> C -3.8680383614 1.5241388583 1.6433849465
| 21> C -4.3271414887 2.6595595647 0.7535411747
| 22> O -2.051152368 -1.2057179702 -0.3575487478
| 23> C -1.7364526204 -2.0328429759 0.7871747993
| 24> C -2.9397205211 -2.8610765917 1.1872939642
| 25> H 5.6816873797 -2.2239720883 -0.6716816374
| 26> H 6.2887818726 -1.1205108328 -1.9181125473
| 27> H 5.587510596 -0.473179672 -0.4285582631
| 28> H 4.070564564 -2.0392938252 -2.58413234
| 29> H 3.9641806011 -0.2819220241 -2.2983476412
| 30> H 1.615264603 -2.4974157417 2.427278988
| 31> H 3.0368714024 -1.447410658 2.1739033789
| 32> H 1.7549190929 -0.7283998284 4.1849585953
| 33> H 1.7271246288 0.5249109504 2.9354527397
| 34> H 0.3093194882 -0.4940113099 3.1878662347
| 35> H -0.4591449194 2.0458868566 -1.6183852088
| 36> H 1.049773293 2.2038546509 -0.6397131589
| 37> H -4.679167809 1.1626278828 2.2778757707
| 38> H -3.0214556685 1.8360157446 2.2612480968
| 39> H -4.6958583436 3.4736128372 1.3692236427
| 40> H -3.4985933207 3.0207518305 0.1461165746
| 41> H -5.11806092 2.3239650494 0.0869894717
| 42> H -0.9058859601 -2.6601581667 0.4567119789
| 43> H -1.4038280354 -1.3918804845 1.6081049117
| 44> H -2.6676638672 -3.5104658668 2.0134545252
| 45> H -3.7565115175 -2.2116579734 1.4913391459
| 46> H -3.2692367097 -3.4658962388 0.3470185324
| 47> *
| 48>
| 49>                          ****END OF INPUT****

CARTESIAN COORDINATES (ANGSTROEM)
---------------------------------
  C      5.520884   -1.270144   -1.166110
  C      4.159206   -1.252253   -1.833217
  O      3.122267   -1.539167   -0.871334
  P      2.255596   -0.390618   -0.192946
  S      3.271698    1.150956    0.475052
  O      1.430586   -1.225505    0.866678
  C      1.944824   -1.482880    2.198739
  C      1.395338   -0.478854    3.191923
  S      0.779075    0.028625   -1.642683
  C      0.195556    1.572697   -0.886039
  S     -0.716391    1.298502    0.644603
  P     -2.392692    0.330161   -0.263940
  S     -2.896264    0.991608   -2.033702
  O     -3.474252    0.354717    0.899344
  C     -3.868038    1.524139    1.643385
  C     -4.327141    2.659560    0.753541
  O     -2.051152   -1.205718   -0.357549
  C     -1.736453   -2.032843    0.787175
  C     -2.939721   -2.861077    1.187294
  H      5.681687   -2.223972   -0.671682
  H      6.288782   -1.120511   -1.918113
  H      5.587511   -0.473180   -0.428558
  H      4.070565   -2.039294   -2.584132
  H      3.964181   -0.281922   -2.298348
  H      1.615265   -2.497416    2.427279
  H      3.036871   -1.447411    2.173903
  H      1.754919   -0.728400    4.184959
  H      1.727125    0.524911    2.935453
  H      0.309319   -0.494011    3.187866
  H     -0.459145    2.045887   -1.618385
  H      1.049773    2.203855   -0.639713
  H     -4.679168    1.162628    2.277876
  H     -3.021456    1.836016    2.261248
  H     -4.695858    3.473613    1.369224
  H     -3.498593    3.020752    0.146117
  H     -5.118061    2.323965    0.086989
  H     -0.905886   -2.660158    0.456712
  H     -1.403828   -1.391880    1.608105
  H     -2.667664   -3.510466    2.013455
  H     -3.756512   -2.211658    1.491339
  H     -3.269237   -3.465896    0.347019

 Total Charge           Charge          ....    0
 Multiplicity           Mult            ....    1
 Number of Electrons    NEL             ....  202
 Basis Dimension        Dim             ....  539

ORBITAL ENERGIES
----------------

  NO   OCC          E(Eh)            E(eV)
   0   2.0000     -88.575567     -2410.2637
   1   2.0000     -88.574897     -2410.2455
   2   2.0000     -88.522811     -2408.8281
   3   2.0000     -88.515566     -2408.6310
   4   2.0000     -76.916107     -2092.9937
   5   2.0000     -76.913197     -2092.9145
   6   2.0000     -18.996637      -516.9248
   7   2.0000     -18.993675      -516.8442
   8   2.0000     -18.993465      -516.8385
   9   2.0000     -18.987028      -516.6633
  10   2.0000     -10.106925      -275.0234
  11   2.0000     -10.105205      -274.9766
  12   2.0000     -10.102979      -274.9160
  13   2.0000     -10.101416      -274.8735
  14   2.0000     -10.098378      -274.7908
  15   2.0000     -10.030352      -272.9398
  16   2.0000     -10.030052      -272.9316
  17   2.0000     -10.028624      -272.8927
  18   2.0000     -10.028146      -272.8797
  19   2.0000      -7.869590      -214.1424
  20   2.0000      -7.869340      -214.1356
  21   2.0000      -7.817772      -212.7324
  22   2.0000      -7.810395      -212.5316
  23   2.0000      -6.594586      -179.4478
  24   2.0000      -6.591445      -179.3623
  25   2.0000      -5.816506      -158.2752
  26   2.0000      -5.816078      -158.2635
  27   2.0000      -5.813468      -158.1925
  28   2.0000      -5.813105      -158.1826
  29   2.0000      -5.806695      -158.0082
  30   2.0000      -5.806668      -158.0075
  31   2.0000      -5.765351      -156.8832
  32   2.0000      -5.758218      -156.6891
  33   2.0000      -5.758091      -156.6856
  34   2.0000      -5.757775      -156.6770
  35   2.0000      -5.750644      -156.4830
  36   2.0000      -5.750250      -156.4723
  37   2.0000      -4.740130      -128.9855
  38   2.0000      -4.739441      -128.9667
  39   2.0000      -4.738354      -128.9372
  40   2.0000      -4.737298      -128.9084
  41   2.0000      -4.736639      -128.8905
  42   2.0000      -4.734642      -128.8361
  43   2.0000      -1.052156       -28.6306
  44   2.0000      -1.051701       -28.6182
  45   2.0000      -1.012247       -27.5446
  46   2.0000      -1.009774       -27.4773
  47   2.0000      -0.802517       -21.8376
  48   2.0000      -0.759984       -20.6802
  49   2.0000      -0.751600       -20.4521
  50   2.0000      -0.735871       -20.0241
  51   2.0000      -0.732942       -19.9444
  52   2.0000      -0.711490       -19.3606
  53   2.0000      -0.686306       -18.6753
  54   2.0000      -0.670009       -18.2319
  55   2.0000      -0.627711       -17.0809
  56   2.0000      -0.621421       -16.9097
  57   2.0000      -0.608951       -16.5704
  58   2.0000      -0.606889       -16.5143
  59   2.0000      -0.594823       -16.1860
  60   2.0000      -0.535620       -14.5750
  61   2.0000      -0.523525       -14.2458
  62   2.0000      -0.498594       -13.5674
  63   2.0000      -0.493763       -13.4360
  64   2.0000      -0.477893       -13.0041
  65   2.0000      -0.465822       -12.6757
  66   2.0000      -0.458668       -12.4810
  67   2.0000      -0.452877       -12.3234
  68   2.0000      -0.450586       -12.2611
  69   2.0000      -0.431812       -11.7502
  70   2.0000      -0.425535       -11.5794
  71   2.0000      -0.417920       -11.3722
  72   2.0000      -0.413249       -11.2451
  73   2.0000      -0.405322       -11.0294
  74   2.0000      -0.397296       -10.8110
  75   2.0000      -0.386795       -10.5252
  76   2.0000      -0.381938       -10.3931
  77   2.0000      -0.373048       -10.1511
  78   2.0000      -0.371700       -10.1145
  79   2.0000      -0.365003        -9.9322
  80   2.0000      -0.363977        -9.9043
  81   2.0000      -0.360838        -9.8189
  82   2.0000      -0.358583        -9.7575
  83   2.0000      -0.353895        -9.6300
  84   2.0000      -0.349328        -9.5057
  85   2.0000      -0.336174        -9.1477
  86   2.0000      -0.325518        -8.8578
  87   2.0000      -0.314992        -8.5714
  88   2.0000      -0.313147        -8.5212
  89   2.0000      -0.308126        -8.3845
  90   2.0000      -0.303267        -8.2523
  91   2.0000      -0.297529        -8.0962
  92   2.0000      -0.292006        -7.9459
  93   2.0000      -0.280856        -7.6425
  94   2.0000      -0.271987        -7.4011
  95   2.0000      -0.246929        -6.7193
  96   2.0000      -0.232364        -6.3229
  97   2.0000      -0.224751        -6.1158
  98   2.0000      -0.216807        -5.8996
  99   2.0000      -0.212013        -5.7692
 100   2.0000      -0.210563        -5.7297
 101   0.0000      -0.046380        -1.2621
 102   0.0000      -0.024882        -0.6771
 103   0.0000      -0.003626        -0.0987
 104   0.0000      -0.002428        -0.0661
 105   0.0000       0.012594         0.3427

MULLIKEN ATOMIC CHARGES
-----------------------
   0 C :   -0.459281
   1 C :   -0.119051
   2 O :   -0.303908
   3 P :    0.650359
   4 S :   -0.482129
   5 O :   -0.250911
   6 C :   -0.128312
   7 C :   -0.451409
   8 S :   -0.104979
   9 C :   -0.238550
  10 S :   -0.175786
  11 P :    0.647307
  12 S :   -0.428748
  13 O :   -0.294370
  14 C :   -0.161525
  15 C :   -0.426628
  16 O :   -0.252432
  17 C :   -0.097488
  18 C :   -0.485052
  19 H :    0.150999
  20 H :    0.146118
  21 H :    0.179768
  22 H :    0.151409
  23 H :    0.155193
  24 H :    0.150371
  25 H :    0.155997
  26 H :    0.146199
  27 H :    0.184860
  28 H :    0.143294
  29 H :    0.218873
  30 H :    0.214009
  31 H :    0.149293
  32 H :    0.151937
  33 H :    0.146404
  34 H :    0.170166
  35 H :    0.165205
  36 H :    0.167687
  37 H :    0.146444
  38 H :    0.143813
  39 H :    0.164640
  40 H :    0.160214
Sum of atomic charges:    0.0000000

LOEWDIN ATOMIC CHARGES
----------------------
   0 C :   -0.400230
   1 C :    0.022383
   2 O :   -0.661429
   3 P :    0.372541
   4 S :   -0.136558
   5 O :   -0.674227
   6 C :    0.023714
   7 C :   -0.405404
   8 S :    0.188097
   9 C :   -0.424344
  10 S :    0.136620
  11 P :    0.381377
  12 S :   -0.098791
  13 O :   -0.669950
  14 C :    0.022976
  15 C :   -0.405589
  16 O :   -0.651258
  17 C :    0.020270
  18 C :   -0.392419
  19 H :    0.157677
  20 H :    0.158984
  21 H :    0.167621
  22 H :    0.178382
  23 H :    0.177424
  24 H :    0.177766
  25 H :    0.177910
  26 H :    0.158123
  27 H :    0.169952
  28 H :    0.154562
  29 H :    0.192822
  30 H :    0.191605
  31 H :    0.180743
  32 H :    0.171781
  33 H :    0.158412
  34 H :    0.167268
  35 H :    0.166069
  36 H :    0.186352
  37 H :    0.173515
  38 H :    0.157433
  39 H :    0.165079
  40 H :    0.162740

  Mayer bond orders larger than 0.100000
B(  0-C ,  1-C ) :   0.9553 B(  0-C , 19-H ) :   0.9754 B(  0-C , 20-H ) :   0.9644
B(  0-C , 21-H ) :   0.9599 B(  1-C ,  2-O ) :   0.7695 B(  1-C , 22-H ) :   0.9622
B(  1-C , 23-H ) :   0.9626 B(  2-O ,  3-P ) :   1.0712 B(  3-P ,  4-S ) :   1.7405
B(  3-P ,  5-O ) :   1.1504 B(  3-P ,  8-S ) :   1.1278 B(  5-O ,  6-C ) :   0.7369
B(  6-C ,  7-C ) :   0.9375 B(  6-C , 24-H ) :   0.9637 B(  6-C , 25-H ) :   0.9622
B(  7-C , 26-H ) :   0.9651 B(  7-C , 27-H ) :   0.9597 B(  7-C , 28-H ) :   0.9708
B(  8-S ,  9-C ) :   0.9118 B(  9-C , 10-S ) :   0.9134 B(  9-C , 29-H ) :   0.9047
B(  9-C , 30-H ) :   0.9052 B( 10-S , 11-P ) :   0.9887 B( 11-P , 12-S ) :   1.8618
B( 11-P , 13-O ) :   1.0351 B( 11-P , 16-O ) :   1.1390 B( 13-O , 14-C ) :   0.8046
B( 14-C , 15-C ) :   0.9439 B( 14-C , 31-H ) :   0.9585 B( 14-C , 32-H ) :   0.9606
B( 15-C , 33-H ) :   0.9616 B( 15-C , 34-H ) :   0.9542 B( 15-C , 35-H ) :   0.9655
B( 16-O , 17-C ) :   0.7417 B( 17-C , 18-C ) :   0.9344 B( 17-C , 36-H ) :   0.9545
B( 17-C , 37-H ) :   0.9682 B( 18-C , 38-H ) :   0.9669 B( 18-C , 39-H ) :   0.9710
B( 18-C , 40-H ) :   0.9733

Dispersion correction           -0.021657656
FINAL SINGLE POINT ENERGY     -2932.460929309977

DIPOLE MOMENT
-------------

Method             : SCF
Type of density    : Electron Density
Multiplicity       :   1
Irrep              :   0
Energy             : -2932.4856361636175279 Eh
Relativity type    :
Basis              : AO
                                X                 Y                 Z
Electronic contribution:     -1.319143030       6.766716267     -14.742301102
Nuclear contribution   :      1.606421064      -7.562701563      16.259561121
                        -----------------------------------------
Total Dipole Moment    :      0.287278033      -0.795985296       1.517260019
                        -----------------------------------------
Magnitude (a.u.)       :      1.737296528
Magnitude (Debye)      :      4.415856840

Rotational constants in cm-1:             0.013323             0.004759             0.004530
Rotational constants in MHz :           399.410121           142.675069           135.815508

                             ****ORCA TERMINATED NORMALLY****
TOTAL RUN TIME: 0 days 0 hours 1 minutes 20 seconds 708 msec
