                         Program Version 6.0.0  -   RELEASE  -
|  1> ! r2scan-3c def2/J RI DEFGRID2 scfconv6 printgap
|  2> %output
|  3>     printlevel normal
|  4> end
|  5> %cpcm
|  6>     smd true
|  7>     smdsolvent "water"
|  8> end
|  9> * xyz 0 1
| 10> C 5.5208840589 -1.270144199 -1.1661104712
| 11> C 4.1592064899 -1.2522533948 -1.8332168264
| 12> O 3.1222671492 -1.5391670492 -0.8713335022
| 13> P 2.2555955565 -0.3906182814 -0.1929460408
| 14> S 3.2716981315 1.1509559284 0.4750524144
| 15> O 1.4305863646 -1.2255046866 0.8666784179
| 16> C 1.9448243576 -1.4828797235 2.1987390887
| 17> C 1.3953379333 -0.4788537703 3.1919227237
| 18> S 0.779074847 0.0286246199 -1.6426828645
| 19> C 0.195556075 1.5726971397 -0.8860389286
| 20> S -0.7163912922 1.2985021484 0.6446026254
| 21> P -2.3926920643 0.3301612549 -0.2639400195
| 22> S -2.8962642608 0.9916076175 -2.0337021818
| 23> O -3.4742516501 0.354716563 0.8993436071
| 24> C -3.8680383614 1.5241388583 1.6433849465
| 25> C -4.3271414887 2.6595595647 0.7535411747
| 26> O -2.051152368 -1.2057179702 -0.3575487478
| 27> C -1.7364526204 -2.0328429759 0.7871747993
| 28> C -2.9397205211 -2.8610765917 1.1872939642
| 29> H 5.6816873797 -2.2239720883 -0.6716816374
| 30> H 6.2887818726 -1.1205108328 -1.9181125473
| 31> H 5.587510596 -0.473179672 -0.4285582631
| 32> H 4.070564564 -2.0392938252 -2.58413234
| 33> H 3.9641806011 -0.2819220241 -2.2983476412
| 34> H 1.615264603 -2.4974157417 2.427278988
| 35> H 3.0368714024 -1.447410658 2.1739033789
| 36> H 1.7549190929 -0.7283998284 4.1849585953
| 37> H 1.7271246288 0.5249109504 2.9354527397
| 38> H 0.3093194882 -0.4940113099 3.1878662347
| 39> H -0.4591449194 2.0458868566 -1.6183852088
| 40> H 1.049773293 2.2038546509 -0.6397131589
| 41> H -4.679167809 1.1626278828 2.2778757707
| 42> H -3.0214556685 1.8360157446 2.2612480968
| 43> H -4.6958583436 3.4736128372 1.3692236427
| 44> H -3.4985933207 3.0207518305 0.1461165746
| 45> H -5.11806092 2.3239650494 0.0869894717
| 46> H -0.9058859601 -2.6601581667 0.4567119789
| 47> H -1.4038280354 -1.3918804845 1.6081049117
| 48> H -2.6676638672 -3.5104658668 2.0134545252
| 49> H -3.7565115175 -2.2116579734 1.4913391459
| 50> H -3.2692367097 -3.4658962388 0.3470185324
| 51> *
| 52>
| 53>                          ****END OF INPUT****

CARTESIAN COORDINATES (ANGSTROEM)
---------------------------------
  C      5.520884   -1.270144   -1.166110
  C      4.159206   -1.252253   -1.833217
  O      3.122267   -1.539167   -0.871334
  P      2.255596   -0.390618   -0.192946
  S      3.271698    1.150956    0.475052
  O      1.430586   -1.225505    0.866678
  C      1.944824   -1.482880    2.198739
  C      1.395338   -0.478854    3.191923
  S      0.779075    0.028625   -1.642683
  C      0.195556    1.572697   -0.886039
  S     -0.716391    1.298502    0.644603
  P     -2.392692    0.330161   -0.263940
  S     -2.896264    0.991608   -2.033702
  O     -3.474252    0.354717    0.899344
  C     -3.868038    1.524139    1.643385
  C     -4.327141    2.659560    0.753541
  O     -2.051152   -1.205718   -0.357549
  C     -1.736453   -2.032843    0.787175
  C     -2.939721   -2.861077    1.187294
  H      5.681687   -2.223972   -0.671682
  H      6.288782   -1.120511   -1.918113
  H      5.587511   -0.473180   -0.428558
  H      4.070565   -2.039294   -2.584132
  H      3.964181   -0.281922   -2.298348
  H      1.615265   -2.497416    2.427279
  H      3.036871   -1.447411    2.173903
  H      1.754919   -0.728400    4.184959
  H      1.727125    0.524911    2.935453
  H      0.309319   -0.494011    3.187866
  H     -0.459145    2.045887   -1.618385
  H      1.049773    2.203855   -0.639713
  H     -4.679168    1.162628    2.277876
  H     -3.021456    1.836016    2.261248
  H     -4.695858    3.473613    1.369224
  H     -3.498593    3.020752    0.146117
  H     -5.118061    2.323965    0.086989
  H     -0.905886   -2.660158    0.456712
  H     -1.403828   -1.391880    1.608105
  H     -2.667664   -3.510466    2.013455
  H     -3.756512   -2.211658    1.491339
  H     -3.269237   -3.465896    0.347019

 Total Charge           Charge          ....    0
 Multiplicity           Mult            ....    1
 Number of Electrons    NEL             ....  202
 Basis Dimension        Dim             ....  539

ORBITAL ENERGIES
----------------

  NO   OCC          E(Eh)            E(eV)
   0   2.0000     -88.580397     -2410.3951
   1   2.0000     -88.577793     -2410.3243
   2   2.0000     -88.527417     -2408.9535
   3   2.0000     -88.527275     -2408.9496
   4   2.0000     -76.920093     -2093.1021
   5   2.0000     -76.919270     -2093.0798
   6   2.0000     -18.996863      -516.9309
   7   2.0000     -18.994602      -516.8694
   8   2.0000     -18.992633      -516.8158
   9   2.0000     -18.992056      -516.8001
  10   2.0000     -10.103707      -274.9359
  11   2.0000     -10.093564      -274.6598
  12   2.0000     -10.090938      -274.5884
  13   2.0000     -10.090864      -274.5864
  14   2.0000     -10.090058      -274.5644
  15   2.0000     -10.018713      -272.6230
  16   2.0000     -10.018048      -272.6050
  17   2.0000     -10.016968      -272.5755
  18   2.0000     -10.015869      -272.5456
  19   2.0000      -7.874573      -214.2780
  20   2.0000      -7.872151      -214.2121
  21   2.0000      -7.822631      -212.8646
  22   2.0000      -7.822512      -212.8614
  23   2.0000      -6.598383      -179.5511
  24   2.0000      -6.597741      -179.5336
  25   2.0000      -5.821426      -158.4091
  26   2.0000      -5.818928      -158.3411
  27   2.0000      -5.818419      -158.3272
  28   2.0000      -5.815953      -158.2601
  29   2.0000      -5.811770      -158.1463
  30   2.0000      -5.809409      -158.0821
  31   2.0000      -5.770190      -157.0149
  32   2.0000      -5.770178      -157.0145
  33   2.0000      -5.762955      -156.8180
  34   2.0000      -5.762772      -156.8130
  35   2.0000      -5.762615      -156.8087
  36   2.0000      -5.762421      -156.8035
  37   2.0000      -4.744157      -129.0951
  38   2.0000      -4.743537      -129.0782
  39   2.0000      -4.743210      -129.0693
  40   2.0000      -4.742601      -129.0527
  41   2.0000      -4.741739      -129.0293
  42   2.0000      -4.741609      -129.0258
  43   2.0000      -1.054068       -28.6827
  44   2.0000      -1.051407       -28.6102
  45   2.0000      -1.011980       -27.5374
  46   2.0000      -1.010796       -27.5052
  47   2.0000      -0.805087       -21.9075
  48   2.0000      -0.755982       -20.5713
  49   2.0000      -0.744810       -20.2673
  50   2.0000      -0.726708       -19.7747
  51   2.0000      -0.721879       -19.6433
  52   2.0000      -0.710137       -19.3238
  53   2.0000      -0.689077       -18.7507
  54   2.0000      -0.675221       -18.3737
  55   2.0000      -0.624509       -16.9938
  56   2.0000      -0.617698       -16.8084
  57   2.0000      -0.601792       -16.3756
  58   2.0000      -0.600728       -16.3467
  59   2.0000      -0.591693       -16.1008
  60   2.0000      -0.530292       -14.4300
  61   2.0000      -0.518594       -14.1117
  62   2.0000      -0.492301       -13.3962
  63   2.0000      -0.488675       -13.2975
  64   2.0000      -0.476979       -12.9793
  65   2.0000      -0.460414       -12.5285
  66   2.0000      -0.454116       -12.3571
  67   2.0000      -0.447131       -12.1671
  68   2.0000      -0.442757       -12.0480
  69   2.0000      -0.427529       -11.6336
  70   2.0000      -0.421225       -11.4621
  71   2.0000      -0.413639       -11.2557
  72   2.0000      -0.409978       -11.1561
  73   2.0000      -0.400664       -10.9026
  74   2.0000      -0.392545       -10.6817
  75   2.0000      -0.383938       -10.4475
  76   2.0000      -0.378097       -10.2885
  77   2.0000      -0.369739       -10.0611
  78   2.0000      -0.363074        -9.8798
  79   2.0000      -0.358579        -9.7574
  80   2.0000      -0.355952        -9.6860
  81   2.0000      -0.351989        -9.5781
  82   2.0000      -0.350493        -9.5374
  83   2.0000      -0.347379        -9.4527
  84   2.0000      -0.344081        -9.3629
  85   2.0000      -0.333451        -9.0737
  86   2.0000      -0.321423        -8.7464
  87   2.0000      -0.308230        -8.3874
  88   2.0000      -0.307220        -8.3599
  89   2.0000      -0.303108        -8.2480
  90   2.0000      -0.300269        -8.1707
  91   2.0000      -0.293695        -7.9919
  92   2.0000      -0.289454        -7.8764
  93   2.0000      -0.280720        -7.6388
  94   2.0000      -0.273675        -7.4471
  95   2.0000      -0.250694        -6.8217
  96   2.0000      -0.237898        -6.4735
  97   2.0000      -0.232066        -6.3148
  98   2.0000      -0.223140        -6.0719
  99   2.0000      -0.221765        -6.0345
 100   2.0000      -0.220664        -6.0046
 101   0.0000      -0.051339        -1.3970
 102   0.0000      -0.031086        -0.8459
 103   0.0000      -0.007496        -0.2040
 104   0.0000      -0.005868        -0.1597
 105   0.0000       0.012794         0.3482

MULLIKEN ATOMIC CHARGES
-----------------------
   0 C :   -0.493579
   1 C :   -0.119233
   2 O :   -0.328299
   3 P :    0.684410
   4 S :   -0.520190
   5 O :   -0.273641
   6 C :   -0.125585
   7 C :   -0.492837
   8 S :   -0.139221
   9 C :   -0.245560
  10 S :   -0.165405
  11 P :    0.667074
  12 S :   -0.494617
  13 O :   -0.312219
  14 C :   -0.161080
  15 C :   -0.465261
  16 O :   -0.285551
  17 C :   -0.092835
  18 C :   -0.530815
  19 H :    0.166559
  20 H :    0.169809
  21 H :    0.171019
  22 H :    0.176187
  23 H :    0.164807
  24 H :    0.177739
  25 H :    0.170536
  26 H :    0.169471
  27 H :    0.172391
  28 H :    0.166026
  29 H :    0.234310
  30 H :    0.233948
  31 H :    0.177962
  32 H :    0.172472
  33 H :    0.173452
  34 H :    0.165023
  35 H :    0.170287
  36 H :    0.179785
  37 H :    0.173431
  38 H :    0.171110
  39 H :    0.169724
  40 H :    0.168397
Sum of atomic charges:    0.0000000

LOEWDIN ATOMIC CHARGES
----------------------
   0 C :   -0.404071
   1 C :    0.026543
   2 O :   -0.673640
   3 P :    0.377921
   4 S :   -0.159495
   5 O :   -0.682547
   6 C :    0.030393
   7 C :   -0.408812
   8 S :    0.166653
   9 C :   -0.419861
  10 S :    0.149090
  11 P :    0.384326
  12 S :   -0.148144
  13 O :   -0.674140
  14 C :    0.030931
  15 C :   -0.409537
  16 O :   -0.676398
  17 C :    0.025714
  18 C :   -0.394617
  19 H :    0.162446
  20 H :    0.167663
  21 H :    0.162416
  22 H :    0.188789
  23 H :    0.180482
  24 H :    0.190027
  25 H :    0.182180
  26 H :    0.166527
  27 H :    0.162873
  28 H :    0.161172
  29 H :    0.197184
  30 H :    0.197407
  31 H :    0.193089
  32 H :    0.179751
  33 H :    0.168609
  34 H :    0.162058
  35 H :    0.164413
  36 H :    0.191273
  37 H :    0.183579
  38 H :    0.168733
  39 H :    0.165235
  40 H :    0.163785

  Mayer bond orders larger than 0.100000
B(  0-C ,  1-C ) :   0.9470 B(  0-C , 19-H ) :   0.9716 B(  0-C , 20-H ) :   0.9597
B(  0-C , 21-H ) :   0.9634 B(  1-C ,  2-O ) :   0.7561 B(  1-C , 22-H ) :   0.9523
B(  1-C , 23-H ) :   0.9572 B(  2-O ,  3-P ) :   1.0763 B(  3-P ,  4-S ) :   1.7122
B(  3-P ,  5-O ) :   1.1633 B(  3-P ,  8-S ) :   1.1270 B(  5-O ,  6-C ) :   0.7239
B(  6-C ,  7-C ) :   0.9230 B(  6-C , 24-H ) :   0.9519 B(  6-C , 25-H ) :   0.9591
B(  7-C , 26-H ) :   0.9605 B(  7-C , 27-H ) :   0.9644 B(  7-C , 28-H ) :   0.9673
B(  8-S ,  9-C ) :   0.8990 B(  9-C , 10-S ) :   0.9026 B(  9-C , 29-H ) :   0.9001
B(  9-C , 30-H ) :   0.9018 B( 10-S , 11-P ) :   1.0033 B( 11-P , 12-S ) :   1.8245
B( 11-P , 13-O ) :   1.0562 B( 11-P , 16-O ) :   1.1460 B( 13-O , 14-C ) :   0.7929
B( 14-C , 15-C ) :   0.9213 B( 14-C , 31-H ) :   0.9488 B( 14-C , 32-H ) :   0.9570
B( 15-C , 33-H ) :   0.9558 B( 15-C , 34-H ) :   0.9577 B( 15-C , 35-H ) :   0.9668
B( 16-O , 17-C ) :   0.7273 B( 17-C , 18-C ) :   0.9305 B( 17-C , 36-H ) :   0.9460
B( 17-C , 37-H ) :   0.9551 B( 18-C , 38-H ) :   0.9594 B( 18-C , 39-H ) :   0.9700
B( 18-C , 40-H ) :   0.9724

Dispersion correction           -0.021657656
FINAL SINGLE POINT ENERGY     -2932.471130144183

DIPOLE MOMENT
-------------

Method             : SCF
Type of density    : Electron Density
Multiplicity       :   1
Irrep              :   0
Energy             : -2932.4958369978235169 Eh
Relativity type    :
Basis              : AO
                                X                 Y                 Z
Electronic contribution:     -1.137195116       6.590658692     -13.936707689
Nuclear contribution   :      1.606421064      -7.562701563      16.259561121
                        -----------------------------------------
Total Dipole Moment    :      0.469225947      -0.972042871       2.322853431
                        -----------------------------------------
Magnitude (a.u.)       :      2.561384078
Magnitude (Debye)      :      6.510520927

Rotational constants in cm-1:             0.013323             0.004759             0.004530
Rotational constants in MHz :           399.410121           142.675069           135.815508

                             ****ORCA TERMINATED NORMALLY****
TOTAL RUN TIME: 0 days 0 hours 1 minutes 49 seconds 176 msec
