                         Program Version 6.0.1  -  RELEASE   -
|  1> ! r2scan-3c def2/J RI DEFGRID2 scfconv6 printgap
|  2> %output
|  3>     printlevel normal
|  4> end
|  5> * xyz 0 1
|  6> C 5.76321496 -1.5203777404 -0.6086591126
|  7> C 4.7039593146 -2.5507051168 -0.9657096684
|  8> O 3.5689332544 -2.4482468492 -0.0825404575
|  9> C 2.6163997851 -1.5894903129 -0.3755387021
| 10> O 2.5955840801 -0.8894072144 -1.367460818
| 11> C 1.5323968158 -1.5756138034 0.6824037348
| 12> C 0.3473739843 -0.7929663926 0.1511497381
| 13> H -0.1432226082 -1.3028860745 -0.6838260079
| 14> C 0.6986546625 0.6124550127 -0.2891151064
| 15> O 0.0724093424 1.1880934145 -1.1557040697
| 16> O 1.6531224997 1.1464907382 0.4344772763
| 17> C 1.9559097293 2.5422067404 0.2391673319
| 18> C 1.1234638096 3.3925827292 1.1858223543
| 19> S -0.9156897205 -0.5195044402 1.4508917373
| 20> P -2.4029624854 0.2788573821 0.2001234611
| 21> S -2.6565257707 -0.5393153528 -1.5671012573
| 22> O -3.7075267001 0.1858201079 1.1199803869
| 23> C -4.4098670566 -1.0503013966 1.2988828745
| 24> O -2.1535769985 1.8473902986 0.2916303252
| 25> C -2.6476328075 2.7383690888 -0.7217513943
| 26> H 6.053929433 -1.6281845651 0.4324594949
| 27> H 6.6326549529 -1.665914596 -1.2411366652
| 28> H 5.375617556 -0.5166893813 -0.7682309733
| 29> H 5.0704549936 -3.5665222787 -0.8185709464
| 30> H 4.359614222 -2.4132396393 -1.9946679561
| 31> H 1.9338779441 -1.0962979612 1.5773197489
| 32> H 1.24920447 -2.5958251506 0.9377127408
| 33> H 3.0209699213 2.6276315979 0.4549143716
| 34> H 1.75726372 2.798371474 -0.8050426929
| 35> H 1.3350739534 3.1215853381 2.2163799437
| 36> H 1.3597359066 4.4400200566 1.0315320296
| 37> H 0.0640490556 3.2337766343 0.9935390774
| 38> H -3.8767782734 -1.6767667716 2.0128401869
| 39> H -4.5028948154 -1.568004816 0.3424301935
| 40> H -5.3899143301 -0.778609748 1.6824608708
| 41> H -3.7305374727 2.6570097887 -0.8021938957
| 42> H -2.1798372854 2.4970718682 -1.6771480348
| 43> H -2.3588012713 3.7343945959 -0.3963421521
| 44> *
| 45>
| 46>                          ****END OF INPUT****

CARTESIAN COORDINATES (ANGSTROEM)
---------------------------------
  C      5.763215   -1.520378   -0.608659
  C      4.703959   -2.550705   -0.965710
  O      3.568933   -2.448247   -0.082540
  C      2.616400   -1.589490   -0.375539
  O      2.595584   -0.889407   -1.367461
  C      1.532397   -1.575614    0.682404
  C      0.347374   -0.792966    0.151150
  H     -0.143223   -1.302886   -0.683826
  C      0.698655    0.612455   -0.289115
  O      0.072409    1.188093   -1.155704
  O      1.653122    1.146491    0.434477
  C      1.955910    2.542207    0.239167
  C      1.123464    3.392583    1.185822
  S     -0.915690   -0.519504    1.450892
  P     -2.402962    0.278857    0.200123
  S     -2.656526   -0.539315   -1.567101
  O     -3.707527    0.185820    1.119980
  C     -4.409867   -1.050301    1.298883
  O     -2.153577    1.847390    0.291630
  C     -2.647633    2.738369   -0.721751
  H      6.053929   -1.628185    0.432459
  H      6.632655   -1.665915   -1.241137
  H      5.375618   -0.516689   -0.768231
  H      5.070455   -3.566522   -0.818571
  H      4.359614   -2.413240   -1.994668
  H      1.933878   -1.096298    1.577320
  H      1.249204   -2.595825    0.937713
  H      3.020970    2.627632    0.454914
  H      1.757264    2.798371   -0.805043
  H      1.335074    3.121585    2.216380
  H      1.359736    4.440020    1.031532
  H      0.064049    3.233777    0.993539
  H     -3.876778   -1.676767    2.012840
  H     -4.502895   -1.568005    0.342430
  H     -5.389914   -0.778610    1.682461
  H     -3.730537    2.657010   -0.802194
  H     -2.179837    2.497072   -1.677148
  H     -2.358801    3.734395   -0.396342

 Total Charge           Charge          ....    0
 Multiplicity           Mult            ....    1
 Number of Electrons    NEL             ....  174
 Basis Dimension        Dim             ....  510

ORBITAL ENERGIES
----------------

  NO   OCC          E(Eh)            E(eV)
   0   2.0000     -88.579196     -2410.3625
   1   2.0000     -88.509948     -2408.4781
   2   2.0000     -76.908044     -2092.7743
   3   2.0000     -19.010909      -517.3131
   4   2.0000     -18.997519      -516.9488
   5   2.0000     -18.985355      -516.6178
   6   2.0000     -18.983342      -516.5630
   7   2.0000     -18.943796      -515.4869
   8   2.0000     -18.923242      -514.9276
   9   2.0000     -10.169477      -276.7255
  10   2.0000     -10.155158      -276.3359
  11   2.0000     -10.101615      -274.8789
  12   2.0000     -10.090654      -274.5807
  13   2.0000     -10.090464      -274.5755
  14   2.0000     -10.085889      -274.4510
  15   2.0000     -10.082562      -274.3605
  16   2.0000     -10.065454      -273.8949
  17   2.0000     -10.036961      -273.1196
  18   2.0000     -10.026171      -272.8260
  19   2.0000      -7.873393      -214.2459
  20   2.0000      -7.804555      -212.3727
  21   2.0000      -6.586316      -179.2228
  22   2.0000      -5.820072      -158.3722
  23   2.0000      -5.817453      -158.3009
  24   2.0000      -5.810536      -158.1127
  25   2.0000      -5.752376      -156.5301
  26   2.0000      -5.745051      -156.3308
  27   2.0000      -5.744209      -156.3079
  28   2.0000      -4.731664      -128.7551
  29   2.0000      -4.731291      -128.7450
  30   2.0000      -4.730153      -128.7140
  31   2.0000      -1.088125       -29.6094
  32   2.0000      -1.075451       -29.2645
  33   2.0000      -1.041339       -28.3363
  34   2.0000      -1.001244       -27.2452
  35   2.0000      -0.992225       -26.9998
  36   2.0000      -0.975320       -26.5398
  37   2.0000      -0.812872       -22.1194
  38   2.0000      -0.761018       -20.7083
  39   2.0000      -0.742418       -20.2022
  40   2.0000      -0.730173       -19.8690
  41   2.0000      -0.695765       -18.9327
  42   2.0000      -0.662158       -18.0182
  43   2.0000      -0.659680       -17.9508
  44   2.0000      -0.647313       -17.6143
  45   2.0000      -0.632688       -17.2163
  46   2.0000      -0.596988       -16.2449
  47   2.0000      -0.537280       -14.6201
  48   2.0000      -0.532545       -14.4913
  49   2.0000      -0.521686       -14.1958
  50   2.0000      -0.497780       -13.5453
  51   2.0000      -0.488837       -13.3019
  52   2.0000      -0.482464       -13.1285
  53   2.0000      -0.464059       -12.6277
  54   2.0000      -0.455567       -12.3966
  55   2.0000      -0.451937       -12.2978
  56   2.0000      -0.444982       -12.1086
  57   2.0000      -0.440535       -11.9876
  58   2.0000      -0.433150       -11.7866
  59   2.0000      -0.425230       -11.5711
  60   2.0000      -0.419805       -11.4235
  61   2.0000      -0.416966       -11.3462
  62   2.0000      -0.408628       -11.1193
  63   2.0000      -0.401940       -10.9373
  64   2.0000      -0.392075       -10.6689
  65   2.0000      -0.386374       -10.5138
  66   2.0000      -0.374079       -10.1792
  67   2.0000      -0.372065       -10.1244
  68   2.0000      -0.365569        -9.9476
  69   2.0000      -0.354804        -9.6547
  70   2.0000      -0.348681        -9.4881
  71   2.0000      -0.345470        -9.4007
  72   2.0000      -0.339174        -9.2294
  73   2.0000      -0.321353        -8.7445
  74   2.0000      -0.317055        -8.6275
  75   2.0000      -0.316006        -8.5990
  76   2.0000      -0.307007        -8.3541
  77   2.0000      -0.301825        -8.2131
  78   2.0000      -0.286343        -7.7918
  79   2.0000      -0.282477        -7.6866
  80   2.0000      -0.274935        -7.4814
  81   2.0000      -0.264623        -7.2008
  82   2.0000      -0.252582        -6.8731
  83   2.0000      -0.248828        -6.7709
  84   2.0000      -0.234290        -6.3754
  85   2.0000      -0.210153        -5.7186
  86   2.0000      -0.199635        -5.4323
  87   0.0000      -0.048419        -1.3175
  88   0.0000      -0.026823        -0.7299
  89   0.0000      -0.009847        -0.2679
  90   0.0000       0.019216         0.5229
  91   0.0000       0.021011         0.5717

MULLIKEN ATOMIC CHARGES
-----------------------
   0 C :   -0.467455
   1 C :   -0.136858
   2 O :   -0.166937
   3 C :    0.383174
   4 O :   -0.412233
   5 C :   -0.369151
   6 C :   -0.098849
   7 H :    0.248854
   8 C :    0.313723
   9 O :   -0.382160
  10 O :   -0.132965
  11 C :   -0.151816
  12 C :   -0.462417
  13 S :   -0.169706
  14 P :    0.739650
  15 S :   -0.455203
  16 O :   -0.326713
  17 C :   -0.292453
  18 O :   -0.316203
  19 C :   -0.294757
  20 H :    0.154067
  21 H :    0.150480
  22 H :    0.170980
  23 H :    0.151627
  24 H :    0.171018
  25 H :    0.196741
  26 H :    0.180383
  27 H :    0.147919
  28 H :    0.179076
  29 H :    0.151126
  30 H :    0.146300
  31 H :    0.175944
  32 H :    0.152880
  33 H :    0.179441
  34 H :    0.150850
  35 H :    0.151751
  36 H :    0.194371
  37 H :    0.145520
Sum of atomic charges:   -0.0000000

LOEWDIN ATOMIC CHARGES
----------------------
   0 C :   -0.387995
   1 C :    0.032024
   2 O :   -0.576947
   3 C :    0.374926
   4 O :   -0.417744
   5 C :   -0.209119
   6 C :   -0.186963
   7 H :    0.209733
   8 C :    0.338971
   9 O :   -0.429284
  10 O :   -0.586212
  11 C :    0.036056
  12 C :   -0.388579
  13 S :    0.219190
  14 P :    0.386718
  15 S :   -0.105158
  16 O :   -0.674871
  17 C :   -0.060925
  18 O :   -0.671221
  19 C :   -0.053977
  20 H :    0.158152
  21 H :    0.160925
  22 H :    0.165037
  23 H :    0.179847
  24 H :    0.189570
  25 H :    0.201132
  26 H :    0.188651
  27 H :    0.177186
  28 H :    0.192478
  29 H :    0.157893
  30 H :    0.157873
  31 H :    0.171699
  32 H :    0.166438
  33 H :    0.178020
  34 H :    0.176365
  35 H :    0.168795
  36 H :    0.185529
  37 H :    0.175785

  Mayer bond orders larger than 0.100000
B(  0-C ,  1-C ) :   0.9402 B(  0-C , 20-H ) :   0.9732 B(  0-C , 21-H ) :   0.9636
B(  0-C , 22-H ) :   0.9707 B(  1-C ,  2-O ) :   0.7985 B(  1-C , 23-H ) :   0.9611
B(  1-C , 24-H ) :   0.9666 B(  2-O ,  3-C ) :   1.1316 B(  3-C ,  4-O ) :   1.7800
B(  3-C ,  5-C ) :   1.0015 B(  4-O ,  8-C ) :   0.1087 B(  5-C ,  6-C ) :   0.9683
B(  5-C , 10-O ) :   0.1220 B(  5-C , 25-H ) :   0.9479 B(  5-C , 26-H ) :   0.9342
B(  6-C ,  7-H ) :   0.9580 B(  6-C ,  8-C ) :   0.8671 B(  6-C , 13-S ) :   0.8506
B(  8-C ,  9-O ) :   1.8242 B(  8-C , 10-O ) :   1.1052 B( 10-O , 11-C ) :   0.7939
B( 11-C , 12-C ) :   0.9299 B( 11-C , 27-H ) :   0.9628 B( 11-C , 28-H ) :   0.9758
B( 12-C , 29-H ) :   0.9713 B( 12-C , 30-H ) :   0.9680 B( 12-C , 31-H ) :   0.9671
B( 13-S , 14-P ) :   1.0634 B( 14-P , 15-S ) :   1.7764 B( 14-P , 16-O ) :   1.0676
B( 14-P , 18-O ) :   1.1690 B( 16-O , 17-C ) :   0.8328 B( 17-C , 32-H ) :   0.9608
B( 17-C , 33-H ) :   0.9589 B( 17-C , 34-H ) :   0.9674 B( 18-O , 19-C ) :   0.8072
B( 19-C , 35-H ) :   0.9608 B( 19-C , 36-H ) :   0.9537 B( 19-C , 37-H ) :   0.9668

Dispersion correction           -0.017128442
FINAL SINGLE POINT ENERGY     -1981.453717822149

DIPOLE MOMENT
-------------

Method             : SCF
Type of density    : Electron Density
Multiplicity       :   1
Irrep              :   0
Energy             : -1981.4737712491109960 Eh
Relativity type    :
Basis              : AO
                                X                 Y                 Z
Electronic contribution:    -16.114971102      -5.780140944      -1.038876927
Nuclear contribution   :     17.319840462       5.708090012       2.153504786
                        -----------------------------------------
Total Dipole Moment    :      1.204869360      -0.072050932       1.114627859
                        -----------------------------------------
Magnitude (a.u.)       :      1.642953674
Magnitude (Debye)      :      4.176056363

Rotational constants in cm-1:             0.016457             0.005708             0.004991
Rotational constants in MHz :           493.370461           171.110098           149.633331

                             ****ORCA TERMINATED NORMALLY****
TOTAL RUN TIME: 0 days 0 hours 1 minutes 22 seconds 412 msec
