                         Program Version 6.0.1  -  RELEASE   -
|  1> ! r2scan-3c def2/J RI DEFGRID2 scfconv6 printgap
|  2> %output
|  3>     printlevel normal
|  4> end
|  5> %cpcm
|  6>     smd true
|  7>     smdsolvent "water"
|  8> end
|  9> * xyz 0 1
| 10> C 5.76321496 -1.5203777404 -0.6086591126
| 11> C 4.7039593146 -2.5507051168 -0.9657096684
| 12> O 3.5689332544 -2.4482468492 -0.0825404575
| 13> C 2.6163997851 -1.5894903129 -0.3755387021
| 14> O 2.5955840801 -0.8894072144 -1.367460818
| 15> C 1.5323968158 -1.5756138034 0.6824037348
| 16> C 0.3473739843 -0.7929663926 0.1511497381
| 17> H -0.1432226082 -1.3028860745 -0.6838260079
| 18> C 0.6986546625 0.6124550127 -0.2891151064
| 19> O 0.0724093424 1.1880934145 -1.1557040697
| 20> O 1.6531224997 1.1464907382 0.4344772763
| 21> C 1.9559097293 2.5422067404 0.2391673319
| 22> C 1.1234638096 3.3925827292 1.1858223543
| 23> S -0.9156897205 -0.5195044402 1.4508917373
| 24> P -2.4029624854 0.2788573821 0.2001234611
| 25> S -2.6565257707 -0.5393153528 -1.5671012573
| 26> O -3.7075267001 0.1858201079 1.1199803869
| 27> C -4.4098670566 -1.0503013966 1.2988828745
| 28> O -2.1535769985 1.8473902986 0.2916303252
| 29> C -2.6476328075 2.7383690888 -0.7217513943
| 30> H 6.053929433 -1.6281845651 0.4324594949
| 31> H 6.6326549529 -1.665914596 -1.2411366652
| 32> H 5.375617556 -0.5166893813 -0.7682309733
| 33> H 5.0704549936 -3.5665222787 -0.8185709464
| 34> H 4.359614222 -2.4132396393 -1.9946679561
| 35> H 1.9338779441 -1.0962979612 1.5773197489
| 36> H 1.24920447 -2.5958251506 0.9377127408
| 37> H 3.0209699213 2.6276315979 0.4549143716
| 38> H 1.75726372 2.798371474 -0.8050426929
| 39> H 1.3350739534 3.1215853381 2.2163799437
| 40> H 1.3597359066 4.4400200566 1.0315320296
| 41> H 0.0640490556 3.2337766343 0.9935390774
| 42> H -3.8767782734 -1.6767667716 2.0128401869
| 43> H -4.5028948154 -1.568004816 0.3424301935
| 44> H -5.3899143301 -0.778609748 1.6824608708
| 45> H -3.7305374727 2.6570097887 -0.8021938957
| 46> H -2.1798372854 2.4970718682 -1.6771480348
| 47> H -2.3588012713 3.7343945959 -0.3963421521
| 48> *
| 49>
| 50>                          ****END OF INPUT****

CARTESIAN COORDINATES (ANGSTROEM)
---------------------------------
  C      5.763215   -1.520378   -0.608659
  C      4.703959   -2.550705   -0.965710
  O      3.568933   -2.448247   -0.082540
  C      2.616400   -1.589490   -0.375539
  O      2.595584   -0.889407   -1.367461
  C      1.532397   -1.575614    0.682404
  C      0.347374   -0.792966    0.151150
  H     -0.143223   -1.302886   -0.683826
  C      0.698655    0.612455   -0.289115
  O      0.072409    1.188093   -1.155704
  O      1.653122    1.146491    0.434477
  C      1.955910    2.542207    0.239167
  C      1.123464    3.392583    1.185822
  S     -0.915690   -0.519504    1.450892
  P     -2.402962    0.278857    0.200123
  S     -2.656526   -0.539315   -1.567101
  O     -3.707527    0.185820    1.119980
  C     -4.409867   -1.050301    1.298883
  O     -2.153577    1.847390    0.291630
  C     -2.647633    2.738369   -0.721751
  H      6.053929   -1.628185    0.432459
  H      6.632655   -1.665915   -1.241137
  H      5.375618   -0.516689   -0.768231
  H      5.070455   -3.566522   -0.818571
  H      4.359614   -2.413240   -1.994668
  H      1.933878   -1.096298    1.577320
  H      1.249204   -2.595825    0.937713
  H      3.020970    2.627632    0.454914
  H      1.757264    2.798371   -0.805043
  H      1.335074    3.121585    2.216380
  H      1.359736    4.440020    1.031532
  H      0.064049    3.233777    0.993539
  H     -3.876778   -1.676767    2.012840
  H     -4.502895   -1.568005    0.342430
  H     -5.389914   -0.778610    1.682461
  H     -3.730537    2.657010   -0.802194
  H     -2.179837    2.497072   -1.677148
  H     -2.358801    3.734395   -0.396342

 Total Charge           Charge          ....    0
 Multiplicity           Mult            ....    1
 Number of Electrons    NEL             ....  174
 Basis Dimension        Dim             ....  510

ORBITAL ENERGIES
----------------

  NO   OCC          E(Eh)            E(eV)
   0   2.0000     -88.589192     -2410.6345
   1   2.0000     -88.526566     -2408.9303
   2   2.0000     -76.920895     -2093.1240
   3   2.0000     -19.010187      -517.2935
   4   2.0000     -19.007596      -517.2230
   5   2.0000     -18.995084      -516.8825
   6   2.0000     -18.994817      -516.8752
   7   2.0000     -18.953088      -515.7397
   8   2.0000     -18.944025      -515.4931
   9   2.0000     -10.175222      -276.8819
  10   2.0000     -10.171514      -276.7810
  11   2.0000     -10.096618      -274.7429
  12   2.0000     -10.087135      -274.4849
  13   2.0000     -10.086230      -274.4603
  14   2.0000     -10.082025      -274.3458
  15   2.0000     -10.080961      -274.3169
  16   2.0000     -10.059798      -273.7410
  17   2.0000     -10.019692      -272.6497
  18   2.0000     -10.019243      -272.6375
  19   2.0000      -7.883288      -214.5152
  20   2.0000      -7.821525      -212.8345
  21   2.0000      -6.599295      -179.5760
  22   2.0000      -5.829975      -158.6417
  23   2.0000      -5.827365      -158.5707
  24   2.0000      -5.820422      -158.3817
  25   2.0000      -5.769248      -156.9892
  26   2.0000      -5.761980      -156.7914
  27   2.0000      -5.761251      -156.7716
  28   2.0000      -4.744621      -129.1077
  29   2.0000      -4.744239      -129.0973
  30   2.0000      -4.743219      -129.0695
  31   2.0000      -1.090717       -29.6799
  32   2.0000      -1.086181       -29.5565
  33   2.0000      -1.051700       -28.6182
  34   2.0000      -1.010928       -27.5088
  35   2.0000      -0.999302       -27.1924
  36   2.0000      -0.994085       -27.0504
  37   2.0000      -0.817640       -22.2491
  38   2.0000      -0.755373       -20.5547
  39   2.0000      -0.743000       -20.2181
  40   2.0000      -0.728144       -19.8138
  41   2.0000      -0.696085       -18.9414
  42   2.0000      -0.670999       -18.2588
  43   2.0000      -0.662156       -18.0182
  44   2.0000      -0.650049       -17.6887
  45   2.0000      -0.626732       -17.0542
  46   2.0000      -0.597128       -16.2487
  47   2.0000      -0.539348       -14.6764
  48   2.0000      -0.527548       -14.3553
  49   2.0000      -0.524165       -14.2633
  50   2.0000      -0.499659       -13.5964
  51   2.0000      -0.492731       -13.4079
  52   2.0000      -0.486198       -13.2301
  53   2.0000      -0.469812       -12.7842
  54   2.0000      -0.462205       -12.5772
  55   2.0000      -0.458271       -12.4702
  56   2.0000      -0.452615       -12.3163
  57   2.0000      -0.444617       -12.0987
  58   2.0000      -0.439175       -11.9506
  59   2.0000      -0.426207       -11.5977
  60   2.0000      -0.417864       -11.3707
  61   2.0000      -0.415548       -11.3076
  62   2.0000      -0.411703       -11.2030
  63   2.0000      -0.404668       -11.0116
  64   2.0000      -0.391381       -10.6500
  65   2.0000      -0.383659       -10.4399
  66   2.0000      -0.374724       -10.1968
  67   2.0000      -0.365330        -9.9411
  68   2.0000      -0.362480        -9.8636
  69   2.0000      -0.357209        -9.7202
  70   2.0000      -0.346797        -9.4368
  71   2.0000      -0.340168        -9.2564
  72   2.0000      -0.339790        -9.2462
  73   2.0000      -0.325393        -8.8544
  74   2.0000      -0.321317        -8.7435
  75   2.0000      -0.311749        -8.4831
  76   2.0000      -0.308649        -8.3988
  77   2.0000      -0.307218        -8.3598
  78   2.0000      -0.293473        -7.9858
  79   2.0000      -0.284987        -7.7549
  80   2.0000      -0.283067        -7.7026
  81   2.0000      -0.277099        -7.5403
  82   2.0000      -0.264869        -7.2075
  83   2.0000      -0.262079        -7.1315
  84   2.0000      -0.248925        -6.7736
  85   2.0000      -0.227045        -6.1782
  86   2.0000      -0.218090        -5.9345
  87   0.0000      -0.059980        -1.6321
  88   0.0000      -0.030411        -0.8275
  89   0.0000      -0.023470        -0.6387
  90   0.0000       0.007808         0.2125
  91   0.0000       0.011417         0.3107

MULLIKEN ATOMIC CHARGES
-----------------------
   0 C :   -0.494545
   1 C :   -0.141425
   2 O :   -0.178740
   3 C :    0.412884
   4 O :   -0.481113
   5 C :   -0.367221
   6 C :   -0.112678
   7 H :    0.268608
   8 C :    0.293637
   9 O :   -0.438205
  10 O :   -0.149610
  11 C :   -0.139424
  12 C :   -0.499121
  13 S :   -0.158848
  14 P :    0.783301
  15 S :   -0.520557
  16 O :   -0.358347
  17 C :   -0.306407
  18 O :   -0.345592
  19 C :   -0.315041
  20 H :    0.167445
  21 H :    0.172424
  22 H :    0.169636
  23 H :    0.177298
  24 H :    0.175682
  25 H :    0.228045
  26 H :    0.211480
  27 H :    0.177853
  28 H :    0.179419
  29 H :    0.169202
  30 H :    0.172697
  31 H :    0.170609
  32 H :    0.176643
  33 H :    0.178715
  34 H :    0.179307
  35 H :    0.176973
  36 H :    0.183677
  37 H :    0.181341
Sum of atomic charges:   -0.0000000

LOEWDIN ATOMIC CHARGES
----------------------
   0 C :   -0.390795
   1 C :    0.037586
   2 O :   -0.574856
   3 C :    0.386938
   4 O :   -0.468038
   5 C :   -0.200746
   6 C :   -0.184128
   7 H :    0.211864
   8 C :    0.335093
   9 O :   -0.478657
  10 O :   -0.587306
  11 C :    0.042142
  12 C :   -0.390477
  13 S :    0.230387
  14 P :    0.391301
  15 S :   -0.146896
  16 O :   -0.688550
  17 C :   -0.055014
  18 O :   -0.686187
  19 C :   -0.051347
  20 H :    0.162865
  21 H :    0.168926
  22 H :    0.163072
  23 H :    0.191019
  24 H :    0.191110
  25 H :    0.212420
  26 H :    0.203791
  27 H :    0.190487
  28 H :    0.192911
  29 H :    0.162819
  30 H :    0.168729
  31 H :    0.167355
  32 H :    0.176264
  33 H :    0.178361
  34 H :    0.188505
  35 H :    0.177916
  36 H :    0.181192
  37 H :    0.189943

  Mayer bond orders larger than 0.100000
B(  0-C ,  1-C ) :   0.9373 B(  0-C , 20-H ) :   0.9694 B(  0-C , 21-H ) :   0.9588
B(  0-C , 22-H ) :   0.9684 B(  1-C ,  2-O ) :   0.7809 B(  1-C , 23-H ) :   0.9516
B(  1-C , 24-H ) :   0.9629 B(  2-O ,  3-C ) :   1.1539 B(  3-C ,  4-O ) :   1.7308
B(  3-C ,  5-C ) :   1.0104 B(  4-O ,  8-C ) :   0.1100 B(  5-C ,  6-C ) :   0.9749
B(  5-C , 10-O ) :   0.1087 B(  5-C , 25-H ) :   0.9421 B(  5-C , 26-H ) :   0.9125
B(  6-C ,  7-H ) :   0.9497 B(  6-C ,  8-C ) :   0.8660 B(  6-C , 13-S ) :   0.8396
B(  8-C ,  9-O ) :   1.7813 B(  8-C , 10-O ) :   1.1122 B( 10-O , 11-C ) :   0.7786
B( 11-C , 12-C ) :   0.9250 B( 11-C , 27-H ) :   0.9510 B( 11-C , 28-H ) :   0.9661
B( 12-C , 29-H ) :   0.9705 B( 12-C , 30-H ) :   0.9602 B( 12-C , 31-H ) :   0.9653
B( 13-S , 14-P ) :   1.0884 B( 14-P , 15-S ) :   1.7155 B( 14-P , 16-O ) :   1.0752
B( 14-P , 18-O ) :   1.1657 B( 16-O , 17-C ) :   0.8230 B( 17-C , 32-H ) :   0.9520
B( 17-C , 33-H ) :   0.9559 B( 17-C , 34-H ) :   0.9572 B( 18-O , 19-C ) :   0.7940
B( 19-C , 35-H ) :   0.9536 B( 19-C , 36-H ) :   0.9519 B( 19-C , 37-H ) :   0.9556

Dispersion correction           -0.017128442
FINAL SINGLE POINT ENERGY     -1981.468671653256

DIPOLE MOMENT
-------------

Method             : SCF
Type of density    : Electron Density
Multiplicity       :   1
Irrep              :   0
Energy             : -1981.4887250802187282 Eh
Relativity type    :
Basis              : AO
                                X                 Y                 Z
Electronic contribution:    -15.795422073      -6.012737746      -0.298662332
Nuclear contribution   :     17.319840462       5.708090012       2.153504786
                        -----------------------------------------
Total Dipole Moment    :      1.524418390      -0.304647735       1.854842455
                        -----------------------------------------
Magnitude (a.u.)       :      2.420145078
Magnitude (Debye)      :      6.151519920

Rotational constants in cm-1:             0.016457             0.005708             0.004991
Rotational constants in MHz :           493.370461           171.110098           149.633331

                             ****ORCA TERMINATED NORMALLY****
TOTAL RUN TIME: 0 days 0 hours 1 minutes 50 seconds 688 msec
