                         Program Version 6.0.0  -   RELEASE  -
|  1> ! pbe def2-sv(p) def2/J RI DEFGRID1 loosescf d4 GCP(DFT/SV(P)) printgap
|  2> %output
|  3>     printlevel normal
|  4> end
|  5> * xyz 0 1
|  6> C 3.6575491874 0.0952083796 -2.6521173368
|  7> C 2.2657206286 0.1020923339 -2.0569188638
|  8> O 2.2753250745 0.6964792041 -0.7365519082
|  9> P 2.3581257984 -0.1396193897 0.5989934842
| 10> S 2.6887244812 0.9978695894 2.1512742384
| 11> O 3.4816297157 -1.2144561623 0.2706812923
| 12> C 4.1749119747 -1.9452406356 1.3003891616
| 13> C 3.2611131207 -2.8781727631 2.0676113708
| 14> S 0.5639142064 -1.2979504817 0.6621841615
| 15> C -0.3923214225 -0.1555279246 1.685281238
| 16> S -0.8717416867 1.375773201 0.8324950519
| 17> P -2.046263725 0.5352447518 -0.7257289637
| 18> S -1.1960991895 -0.1564160615 -2.3425420651
| 19> O -3.0038014856 1.7285075077 -1.1345342616
| 20> C -3.6326203477 2.6888633789 -0.2547919054
| 21> C -4.5850209961 2.0413124031 0.7279476889
| 22> O -2.881145836 -0.54363402 0.1042125693
| 23> C -3.291061027 -1.8005691607 -0.4655918265
| 24> C -4.516644793 -1.6228647898 -1.3378548287
| 25> H 4.0624729045 1.1035737219 -2.6574958434
| 26> H 4.314752168 -0.5463387275 -2.0713766926
| 27> H 3.600572912 -0.2749795673 -3.6708745277
| 28> H 1.8499980829 -0.9073036689 -1.9940299867
| 29> H 1.5846375746 0.7276927623 -2.63761173
| 30> H 4.9429316428 -2.4945049451 0.7539730899
| 31> H 4.6421198165 -1.2228327313 1.9763828872
| 32> H 2.5564048442 -2.3021435065 2.665138977
| 33> H 2.7054889584 -3.5140725775 1.3828168063
| 34> H 3.8588756245 -3.4964563898 2.7295594377
| 35> H 0.2157054587 0.1673677803 2.5318202204
| 36> H -1.2814347427 -0.6876184586 2.0112724757
| 37> H -2.848252846 3.2434955566 0.2663709372
| 38> H -4.1557918214 3.3529773896 -0.9450058018
| 39> H -4.0402315292 1.3933217257 1.4107857787
| 40> H -5.0840776072 2.8178113087 1.2994362644
| 41> H -5.3294734613 1.4531143843 0.19774819
| 42> H -2.4599100225 -2.2130287118 -1.0461057501
| 43> H -3.4932613433 -2.4368243871 0.3969440601
| 44> H -4.8135523553 -2.5845132327 -1.7438333806
| 45> H -5.3371958092 -1.2069332253 -0.7595824946
| 46> H -4.2835445314 -0.9471955165 -2.1603525606
| 47> *
| 48>
| 49>                          ****END OF INPUT****

CARTESIAN COORDINATES (ANGSTROEM)
---------------------------------
  C      3.657549    0.095208   -2.652117
  C      2.265721    0.102092   -2.056919
  O      2.275325    0.696479   -0.736552
  P      2.358126   -0.139619    0.598993
  S      2.688724    0.997870    2.151274
  O      3.481630   -1.214456    0.270681
  C      4.174912   -1.945241    1.300389
  C      3.261113   -2.878173    2.067611
  S      0.563914   -1.297950    0.662184
  C     -0.392321   -0.155528    1.685281
  S     -0.871742    1.375773    0.832495
  P     -2.046264    0.535245   -0.725729
  S     -1.196099   -0.156416   -2.342542
  O     -3.003801    1.728508   -1.134534
  C     -3.632620    2.688863   -0.254792
  C     -4.585021    2.041312    0.727948
  O     -2.881146   -0.543634    0.104213
  C     -3.291061   -1.800569   -0.465592
  C     -4.516645   -1.622865   -1.337855
  H      4.062473    1.103574   -2.657496
  H      4.314752   -0.546339   -2.071377
  H      3.600573   -0.274980   -3.670875
  H      1.849998   -0.907304   -1.994030
  H      1.584638    0.727693   -2.637612
  H      4.942932   -2.494505    0.753973
  H      4.642120   -1.222833    1.976383
  H      2.556405   -2.302144    2.665139
  H      2.705489   -3.514073    1.382817
  H      3.858876   -3.496456    2.729559
  H      0.215705    0.167368    2.531820
  H     -1.281435   -0.687618    2.011272
  H     -2.848253    3.243496    0.266371
  H     -4.155792    3.352977   -0.945006
  H     -4.040232    1.393322    1.410786
  H     -5.084078    2.817811    1.299436
  H     -5.329473    1.453114    0.197748
  H     -2.459910   -2.213029   -1.046106
  H     -3.493261   -2.436824    0.396944
  H     -4.813552   -2.584513   -1.743833
  H     -5.337196   -1.206933   -0.759582
  H     -4.283545   -0.947196   -2.160353

 Total Charge           Charge          ....    0
 Multiplicity           Mult            ....    1
 Number of Electrons    NEL             ....  202
 Basis Dimension        Dim             ....  334

ORBITAL ENERGIES
----------------

  NO   OCC          E(Eh)            E(eV)
   0   2.0000     -88.041109     -2395.7204
   1   2.0000     -88.040161     -2395.6946
   2   2.0000     -87.985577     -2394.2093
   3   2.0000     -87.980493     -2394.0709
   4   2.0000     -76.426028     -2079.6580
   5   2.0000     -76.424364     -2079.6127
   6   2.0000     -18.797073      -511.4944
   7   2.0000     -18.794782      -511.4320
   8   2.0000     -18.792742      -511.3765
   9   2.0000     -18.782928      -511.1095
  10   2.0000      -9.958831      -270.9936
  11   2.0000      -9.955735      -270.9093
  12   2.0000      -9.954701      -270.8812
  13   2.0000      -9.953765      -270.8557
  14   2.0000      -9.941639      -270.5257
  15   2.0000      -9.890258      -269.1276
  16   2.0000      -9.886549      -269.0267
  17   2.0000      -9.885077      -268.9866
  18   2.0000      -9.876695      -268.7585
  19   2.0000      -7.686123      -209.1500
  20   2.0000      -7.684995      -209.1193
  21   2.0000      -7.630882      -207.6469
  22   2.0000      -7.625783      -207.5081
  23   2.0000      -6.423471      -174.7915
  24   2.0000      -6.421890      -174.7485
  25   2.0000      -5.714096      -155.4884
  26   2.0000      -5.712757      -155.4520
  27   2.0000      -5.710558      -155.3922
  28   2.0000      -5.709604      -155.3662
  29   2.0000      -5.703077      -155.1886
  30   2.0000      -5.701990      -155.1590
  31   2.0000      -5.659841      -154.0121
  32   2.0000      -5.654796      -153.8748
  33   2.0000      -5.651360      -153.7813
  34   2.0000      -5.651089      -153.7739
  35   2.0000      -5.646211      -153.6412
  36   2.0000      -5.645929      -153.6335
  37   2.0000      -4.646521      -126.4383
  38   2.0000      -4.645190      -126.4020
  39   2.0000      -4.644796      -126.3913
  40   2.0000      -4.643580      -126.3582
  41   2.0000      -4.643454      -126.3548
  42   2.0000      -4.642259      -126.3223
  43   2.0000      -0.985929       -26.8285
  44   2.0000      -0.985485       -26.8164
  45   2.0000      -0.949015       -25.8240
  46   2.0000      -0.940752       -25.5992
  47   2.0000      -0.762613       -20.7517
  48   2.0000      -0.720650       -19.6099
  49   2.0000      -0.708213       -19.2714
  50   2.0000      -0.694454       -18.8971
  51   2.0000      -0.687411       -18.7054
  52   2.0000      -0.671447       -18.2710
  53   2.0000      -0.650510       -17.7013
  54   2.0000      -0.638235       -17.3673
  55   2.0000      -0.597132       -16.2488
  56   2.0000      -0.592224       -16.1152
  57   2.0000      -0.578307       -15.7365
  58   2.0000      -0.567336       -15.4380
  59   2.0000      -0.563389       -15.3306
  60   2.0000      -0.502248       -13.6669
  61   2.0000      -0.492621       -13.4049
  62   2.0000      -0.479992       -13.0613
  63   2.0000      -0.470923       -12.8145
  64   2.0000      -0.459638       -12.5074
  65   2.0000      -0.447156       -12.1677
  66   2.0000      -0.441339       -12.0094
  67   2.0000      -0.435633       -11.8542
  68   2.0000      -0.419931       -11.4269
  69   2.0000      -0.418333       -11.3834
  70   2.0000      -0.409828       -11.1520
  71   2.0000      -0.399530       -10.8718
  72   2.0000      -0.389722       -10.6049
  73   2.0000      -0.387333       -10.5399
  74   2.0000      -0.379776       -10.3342
  75   2.0000      -0.374915       -10.2020
  76   2.0000      -0.365984        -9.9589
  77   2.0000      -0.358302        -9.7499
  78   2.0000      -0.354533        -9.6473
  79   2.0000      -0.349970        -9.5232
  80   2.0000      -0.349384        -9.5072
  81   2.0000      -0.347481        -9.4554
  82   2.0000      -0.341378        -9.2894
  83   2.0000      -0.340450        -9.2641
  84   2.0000      -0.331590        -9.0230
  85   2.0000      -0.319008        -8.6806
  86   2.0000      -0.311409        -8.4739
  87   2.0000      -0.307603        -8.3703
  88   2.0000      -0.295110        -8.0304
  89   2.0000      -0.288036        -7.8379
  90   2.0000      -0.284441        -7.7400
  91   2.0000      -0.274487        -7.4692
  92   2.0000      -0.266163        -7.2427
  93   2.0000      -0.264038        -7.1848
  94   2.0000      -0.258576        -7.0362
  95   2.0000      -0.238682        -6.4949
  96   2.0000      -0.215768        -5.8713
  97   2.0000      -0.206370        -5.6156
  98   2.0000      -0.205664        -5.5964
  99   2.0000      -0.196423        -5.3450
 100   2.0000      -0.190427        -5.1818
 101   0.0000      -0.046042        -1.2529
 102   0.0000      -0.020336        -0.5534
 103   0.0000      -0.010753        -0.2926
 104   0.0000       0.001472         0.0400
 105   0.0000       0.015110         0.4112

MULLIKEN ATOMIC CHARGES
-----------------------
   0 C :   -0.281965
   1 C :   -0.019694
   2 O :   -0.349396
   3 P :    0.614052
   4 S :   -0.318324
   5 O :   -0.382621
   6 C :   -0.001110
   7 C :   -0.314187
   8 S :   -0.094582
   9 C :   -0.357937
  10 S :   -0.088646
  11 P :    0.625461
  12 S :   -0.310905
  13 O :   -0.368093
  14 C :   -0.016184
  15 C :   -0.313613
  16 O :   -0.392507
  17 C :   -0.013741
  18 C :   -0.307823
  19 H :    0.116588
  20 H :    0.114551
  21 H :    0.108190
  22 H :    0.105206
  23 H :    0.122480
  24 H :    0.105512
  25 H :    0.114120
  26 H :    0.124585
  27 H :    0.118148
  28 H :    0.113392
  29 H :    0.192904
  30 H :    0.187072
  31 H :    0.122185
  32 H :    0.112512
  33 H :    0.124362
  34 H :    0.113929
  35 H :    0.120747
  36 H :    0.117012
  37 H :    0.101033
  38 H :    0.113119
  39 H :    0.115956
  40 H :    0.128213
Sum of atomic charges:   -0.0000000

LOEWDIN ATOMIC CHARGES
----------------------
   0 C :   -0.359795
   1 C :   -0.117267
   2 O :   -0.230180
   3 P :    0.576698
   4 S :   -0.309263
   5 O :   -0.246012
   6 C :   -0.115791
   7 C :   -0.371157
   8 S :    0.076303
   9 C :   -0.482610
  10 S :    0.084715
  11 P :    0.567823
  12 S :   -0.302156
  13 O :   -0.242126
  14 C :   -0.115194
  15 C :   -0.366506
  16 O :   -0.250357
  17 C :   -0.123855
  18 C :   -0.363258
  19 H :    0.127440
  20 H :    0.122482
  21 H :    0.129013
  22 H :    0.104827
  23 H :    0.119154
  24 H :    0.118713
  25 H :    0.113571
  26 H :    0.120183
  27 H :    0.123523
  28 H :    0.131197
  29 H :    0.127790
  30 H :    0.131798
  31 H :    0.111342
  32 H :    0.123171
  33 H :    0.122186
  34 H :    0.131703
  35 H :    0.125680
  36 H :    0.110199
  37 H :    0.115425
  38 H :    0.131514
  39 H :    0.122500
  40 H :    0.126577

  Mayer bond orders larger than 0.100000
B(  0-C ,  1-C ) :   1.1557 B(  0-C , 19-H ) :   0.9465 B(  0-C , 20-H ) :   0.9426
B(  0-C , 21-H ) :   0.9409 B(  1-C ,  2-O ) :   0.8852 B(  1-C , 22-H ) :   0.9187
B(  1-C , 23-H ) :   0.9255 B(  2-O ,  3-P ) :   1.1581 B(  3-P ,  4-S ) :   1.6259
B(  3-P ,  5-O ) :   1.0804 B(  3-P ,  8-S ) :   0.9392 B(  4-S ,  8-S ) :   0.1098
B(  5-O ,  6-C ) :   0.9055 B(  6-C ,  7-C ) :   1.1675 B(  6-C , 24-H ) :   0.9339
B(  6-C , 25-H ) :   0.9190 B(  7-C , 26-H ) :   0.9349 B(  7-C , 27-H ) :   0.9431
B(  7-C , 28-H ) :   0.9366 B(  8-S ,  9-C ) :   1.0181 B(  9-C , 10-S ) :   0.9983
B(  9-C , 29-H ) :   0.8719 B(  9-C , 30-H ) :   0.8983 B( 10-S , 11-P ) :   0.9627
B( 10-S , 12-S ) :   0.1007 B( 11-P , 12-S ) :   1.6380 B( 11-P , 13-O ) :   1.1308
B( 11-P , 16-O ) :   1.0573 B( 13-O , 14-C ) :   0.9037 B( 14-C , 15-C ) :   1.1649
B( 14-C , 31-H ) :   0.9224 B( 14-C , 32-H ) :   0.9340 B( 15-C , 33-H ) :   0.9361
B( 15-C , 34-H ) :   0.9364 B( 15-C , 35-H ) :   0.9429 B( 16-O , 17-C ) :   0.8996
B( 17-C , 18-C ) :   1.1658 B( 17-C , 36-H ) :   0.9064 B( 17-C , 37-H ) :   0.9321
B( 18-C , 38-H ) :   0.9396 B( 18-C , 39-H ) :   0.9439 B( 18-C , 40-H ) :   0.9365

Dispersion correction           -0.065798516
FINAL SINGLE POINT ENERGY     -2929.517855988121

DIPOLE MOMENT
-------------

Method             : SCF
Type of density    : Electron Density
Multiplicity       :   1
Irrep              :   0
Energy             : -2929.6374125611737327 Eh
Relativity type    :
Basis              : AO
                                X                 Y                 Z
Electronic contribution:      7.637378890       9.292640892       2.228288191
Nuclear contribution   :     -8.563967738     -10.291760612      -1.883055295
                        -----------------------------------------
Total Dipole Moment    :     -0.926588848      -0.999119721       0.345232895
                        -----------------------------------------
Magnitude (a.u.)       :      1.405700132
Magnitude (Debye)      :      3.573005784

Rotational constants in cm-1:             0.013052             0.004693             0.004549
Rotational constants in MHz :           391.299230           140.707227           136.362686

                             ****ORCA TERMINATED NORMALLY****
TOTAL RUN TIME: 0 days 0 hours 0 minutes 21 seconds 139 msec
