                         Program Version 6.0.0  -   RELEASE  -
|  1> ! pbe def2-sv(p) def2/J RI DEFGRID1 loosescf d4 GCP(DFT/SV(P)) printgap
|  2> %output
|  3>     printlevel normal
|  4> end
|  5> * xyz 0 1
|  6> C 3.0244018105 0.6727570644 -2.8192418787
|  7> C 2.5019575499 -0.7246426903 -2.5548796337
|  8> O 1.6364035546 -0.7730298604 -1.4017828422
|  9> P 2.1191222647 -0.5910034558 0.0976646553
| 10> S 2.7799560635 1.144028889 0.7494812106
| 11> O 3.2170868591 -1.7437815251 0.1755139111
| 12> C 4.1724204091 -1.8284366876 1.2451931134
| 13> C 3.5188987509 -2.1941026827 2.5622355092
| 14> S 0.4282715637 -1.3733613958 1.0727314473
| 15> C -0.2245217503 0.1259874101 1.8952727823
| 16> S -1.9945378191 0.3447192729 1.6429743743
| 17> P -2.0365079217 1.0558860223 -0.369069762
| 18> S -0.3250149634 1.754346839 -1.0208720766
| 19> O -3.15344272 2.160839909 -0.4057828635
| 20> C -4.5832888699 1.9146384939 -0.4020152822
| 21> C -5.0468321406 1.2041110595 0.8508314276
| 22> O -2.6938884175 -0.0838620222 -1.2675204513
| 23> C -2.0197353672 -1.292528705 -1.6603852599
| 24> C -2.4572596789 -2.4569530148 -0.7927177337
| 25> H 2.1964959256 1.3792754048 -2.8429047237
| 26> H 3.7101536552 0.9798535338 -2.0315872087
| 27> H 3.5443654406 0.6926842257 -3.7715940055
| 28> H 3.320370501 -1.4329231818 -2.4053661576
| 29> H 1.858067592 -1.0647864737 -3.3679434386
| 30> H 4.8707209857 -2.5977272368 0.9128390331
| 31> H 4.6860813017 -0.8650260646 1.326526395
| 32> H 4.2877110734 -2.372862043 3.3069241633
| 33> H 2.8858805552 -1.3743466917 2.8994605313
| 34> H 2.9093409063 -3.0867132215 2.4473497124
| 35> H 0.32382445 0.9924342124 1.5162553834
| 36> H -0.0935504766 0.0144461289 2.9684971905
| 37> H -5.0046185108 2.9182360881 -0.4764951198
| 38> H -4.8303658919 1.3390188389 -1.2955915614
| 39> H -6.1298087007 1.1298909712 0.8350672044
| 40> H -4.6235053693 0.2025592677 0.897644226
| 41> H -4.7378806874 1.7534685632 1.7362685964
| 42> H -2.3097956843 -1.4457067282 -2.7019664924
| 43> H -0.9368549234 -1.1370633199 -1.6116673578
| 44> H -1.9905579465 -3.3649257085 -1.160359612
| 45> H -2.1540893378 -2.3040947191 0.2405177898
| 46> H -3.5372900346 -2.5645820621 -0.8348802058
| 47> *
| 48>
| 49>                          ****END OF INPUT****

CARTESIAN COORDINATES (ANGSTROEM)
---------------------------------
  C      3.024402    0.672757   -2.819242
  C      2.501958   -0.724643   -2.554880
  O      1.636404   -0.773030   -1.401783
  P      2.119122   -0.591003    0.097665
  S      2.779956    1.144029    0.749481
  O      3.217087   -1.743782    0.175514
  C      4.172420   -1.828437    1.245193
  C      3.518899   -2.194103    2.562236
  S      0.428272   -1.373361    1.072731
  C     -0.224522    0.125987    1.895273
  S     -1.994538    0.344719    1.642974
  P     -2.036508    1.055886   -0.369070
  S     -0.325015    1.754347   -1.020872
  O     -3.153443    2.160840   -0.405783
  C     -4.583289    1.914638   -0.402015
  C     -5.046832    1.204111    0.850831
  O     -2.693888   -0.083862   -1.267520
  C     -2.019735   -1.292529   -1.660385
  C     -2.457260   -2.456953   -0.792718
  H      2.196496    1.379275   -2.842905
  H      3.710154    0.979854   -2.031587
  H      3.544365    0.692684   -3.771594
  H      3.320371   -1.432923   -2.405366
  H      1.858068   -1.064786   -3.367943
  H      4.870721   -2.597727    0.912839
  H      4.686081   -0.865026    1.326526
  H      4.287711   -2.372862    3.306924
  H      2.885881   -1.374347    2.899461
  H      2.909341   -3.086713    2.447350
  H      0.323824    0.992434    1.516255
  H     -0.093550    0.014446    2.968497
  H     -5.004619    2.918236   -0.476495
  H     -4.830366    1.339019   -1.295592
  H     -6.129809    1.129891    0.835067
  H     -4.623505    0.202559    0.897644
  H     -4.737881    1.753469    1.736269
  H     -2.309796   -1.445707   -2.701966
  H     -0.936855   -1.137063   -1.611667
  H     -1.990558   -3.364926   -1.160360
  H     -2.154089   -2.304095    0.240518
  H     -3.537290   -2.564582   -0.834880

 Total Charge           Charge          ....    0
 Multiplicity           Mult            ....    1
 Number of Electrons    NEL             ....  202
 Basis Dimension        Dim             ....  334

ORBITAL ENERGIES
----------------

  NO   OCC          E(Eh)            E(eV)
   0   2.0000     -88.043086     -2395.7742
   1   2.0000     -88.041662     -2395.7354
   2   2.0000     -87.984410     -2394.1775
   3   2.0000     -87.975805     -2393.9434
   4   2.0000     -76.425262     -2079.6371
   5   2.0000     -76.421870     -2079.5448
   6   2.0000     -18.790545      -511.3167
   7   2.0000     -18.789895      -511.2990
   8   2.0000     -18.787665      -511.2384
   9   2.0000     -18.786546      -511.2079
  10   2.0000      -9.957061      -270.9454
  11   2.0000      -9.952098      -270.8104
  12   2.0000      -9.950545      -270.7681
  13   2.0000      -9.950198      -270.7586
  14   2.0000      -9.946738      -270.6645
  15   2.0000      -9.891753      -269.1683
  16   2.0000      -9.883026      -268.9308
  17   2.0000      -9.879710      -268.8406
  18   2.0000      -9.874999      -268.7124
  19   2.0000      -7.687789      -209.1954
  20   2.0000      -7.686549      -209.1616
  21   2.0000      -7.629225      -207.6018
  22   2.0000      -7.620729      -207.3706
  23   2.0000      -6.422346      -174.7609
  24   2.0000      -6.419278      -174.6774
  25   2.0000      -5.715840      -155.5359
  26   2.0000      -5.714413      -155.4971
  27   2.0000      -5.712002      -155.4315
  28   2.0000      -5.711083      -155.4065
  29   2.0000      -5.704966      -155.2400
  30   2.0000      -5.703465      -155.1992
  31   2.0000      -5.658175      -153.9668
  32   2.0000      -5.649979      -153.7437
  33   2.0000      -5.649819      -153.7394
  34   2.0000      -5.649240      -153.7236
  35   2.0000      -5.641126      -153.5028
  36   2.0000      -5.640914      -153.4971
  37   2.0000      -4.645004      -126.3970
  38   2.0000      -4.643918      -126.3674
  39   2.0000      -4.642972      -126.3417
  40   2.0000      -4.642164      -126.3197
  41   2.0000      -4.640968      -126.2872
  42   2.0000      -4.639518      -126.2477
  43   2.0000      -0.985282       -26.8109
  44   2.0000      -0.985008       -26.8034
  45   2.0000      -0.940762       -25.5994
  46   2.0000      -0.940175       -25.5835
  47   2.0000      -0.760092       -20.6831
  48   2.0000      -0.720049       -19.5935
  49   2.0000      -0.709222       -19.2989
  50   2.0000      -0.689379       -18.7590
  51   2.0000      -0.684727       -18.6324
  52   2.0000      -0.673704       -18.3324
  53   2.0000      -0.648713       -17.6524
  54   2.0000      -0.630912       -17.1680
  55   2.0000      -0.597265       -16.2524
  56   2.0000      -0.588819       -16.0226
  57   2.0000      -0.575553       -15.6616
  58   2.0000      -0.574040       -15.6204
  59   2.0000      -0.557410       -15.1679
  60   2.0000      -0.496652       -13.5146
  61   2.0000      -0.493987       -13.4421
  62   2.0000      -0.472007       -12.8440
  63   2.0000      -0.466137       -12.6842
  64   2.0000      -0.452371       -12.3096
  65   2.0000      -0.449062       -12.2196
  66   2.0000      -0.442301       -12.0356
  67   2.0000      -0.431145       -11.7321
  68   2.0000      -0.426519       -11.6062
  69   2.0000      -0.415408       -11.3038
  70   2.0000      -0.412936       -11.2366
  71   2.0000      -0.404763       -11.0142
  72   2.0000      -0.390395       -10.6232
  73   2.0000      -0.385881       -10.5004
  74   2.0000      -0.381605       -10.3840
  75   2.0000      -0.368518       -10.0279
  76   2.0000      -0.363391        -9.8884
  77   2.0000      -0.358952        -9.7676
  78   2.0000      -0.351241        -9.5577
  79   2.0000      -0.348265        -9.4768
  80   2.0000      -0.345198        -9.3933
  81   2.0000      -0.341564        -9.2944
  82   2.0000      -0.339563        -9.2400
  83   2.0000      -0.333867        -9.0850
  84   2.0000      -0.330778        -9.0009
  85   2.0000      -0.313869        -8.5408
  86   2.0000      -0.309086        -8.4106
  87   2.0000      -0.296231        -8.0609
  88   2.0000      -0.293177        -7.9777
  89   2.0000      -0.290666        -7.9094
  90   2.0000      -0.284300        -7.7362
  91   2.0000      -0.273989        -7.4556
  92   2.0000      -0.272041        -7.4026
  93   2.0000      -0.261157        -7.1064
  94   2.0000      -0.255359        -6.9487
  95   2.0000      -0.235119        -6.3979
  96   2.0000      -0.216279        -5.8853
  97   2.0000      -0.211413        -5.7529
  98   2.0000      -0.198339        -5.3971
  99   2.0000      -0.192209        -5.2303
 100   2.0000      -0.183808        -5.0017
 101   0.0000      -0.039641        -1.0787
 102   0.0000      -0.034572        -0.9408
 103   0.0000      -0.011537        -0.3139
 104   0.0000       0.007499         0.2041
 105   0.0000       0.014086         0.3833

MULLIKEN ATOMIC CHARGES
-----------------------
   0 C :   -0.319188
   1 C :    0.002404
   2 O :   -0.357932
   3 P :    0.638423
   4 S :   -0.312101
   5 O :   -0.380960
   6 C :   -0.002627
   7 C :   -0.309420
   8 S :   -0.113719
   9 C :   -0.330337
  10 S :   -0.133195
  11 P :    0.607656
  12 S :   -0.296057
  13 O :   -0.360591
  14 C :    0.007721
  15 C :   -0.339724
  16 O :   -0.386193
  17 C :   -0.028991
  18 C :   -0.295563
  19 H :    0.136429
  20 H :    0.126181
  21 H :    0.106066
  22 H :    0.103833
  23 H :    0.103193
  24 H :    0.101737
  25 H :    0.109911
  26 H :    0.111869
  27 H :    0.118821
  28 H :    0.116685
  29 H :    0.215331
  30 H :    0.179220
  31 H :    0.112022
  32 H :    0.111694
  33 H :    0.118703
  34 H :    0.133647
  35 H :    0.131188
  36 H :    0.101179
  37 H :    0.132818
  38 H :    0.106487
  39 H :    0.126562
  40 H :    0.106816
Sum of atomic charges:   -0.0000000

LOEWDIN ATOMIC CHARGES
----------------------
   0 C :   -0.368595
   1 C :   -0.109755
   2 O :   -0.235470
   3 P :    0.572895
   4 S :   -0.298773
   5 O :   -0.248505
   6 C :   -0.121601
   7 C :   -0.368310
   8 S :    0.087943
   9 C :   -0.479013
  10 S :    0.074873
  11 P :    0.561979
  12 S :   -0.292669
  13 O :   -0.235969
  14 C :   -0.108184
  15 C :   -0.373522
  16 O :   -0.250994
  17 C :   -0.121902
  18 C :   -0.363985
  19 H :    0.131583
  20 H :    0.121335
  21 H :    0.127302
  22 H :    0.109940
  23 H :    0.118169
  24 H :    0.116752
  25 H :    0.109037
  26 H :    0.130098
  27 H :    0.119123
  28 H :    0.124052
  29 H :    0.127420
  30 H :    0.134803
  31 H :    0.123431
  32 H :    0.115560
  33 H :    0.134372
  34 H :    0.118594
  35 H :    0.129277
  36 H :    0.116757
  37 H :    0.109712
  38 H :    0.129096
  39 H :    0.112137
  40 H :    0.121005

  Mayer bond orders larger than 0.100000
B(  0-C ,  1-C ) :   1.1648 B(  0-C , 19-H ) :   0.9412 B(  0-C , 20-H ) :   0.9357
B(  0-C , 21-H ) :   0.9372 B(  1-C ,  2-O ) :   0.9067 B(  1-C , 22-H ) :   0.9280
B(  1-C , 23-H ) :   0.9349 B(  2-O ,  3-P ) :   1.1206 B(  3-P ,  4-S ) :   1.6043
B(  3-P ,  5-O ) :   1.0843 B(  3-P ,  8-S ) :   0.9642 B(  4-S ,  8-S ) :   0.1189
B(  5-O ,  6-C ) :   0.9138 B(  6-C ,  7-C ) :   1.1657 B(  6-C , 24-H ) :   0.9333
B(  6-C , 25-H ) :   0.9124 B(  7-C , 26-H ) :   0.9384 B(  7-C , 27-H ) :   0.9369
B(  7-C , 28-H ) :   0.9446 B(  8-S ,  9-C ) :   0.9842 B(  9-C , 10-S ) :   1.0207
B(  9-C , 29-H ) :   0.8444 B(  9-C , 30-H ) :   0.9074 B( 10-S , 11-P ) :   0.9197
B( 10-S , 12-S ) :   0.1103 B( 11-P , 12-S ) :   1.6822 B( 11-P , 13-O ) :   1.1426
B( 11-P , 16-O ) :   1.0691 B( 13-O , 14-C ) :   0.8990 B( 14-C , 15-C ) :   1.1699
B( 14-C , 31-H ) :   0.9338 B( 14-C , 32-H ) :   0.9266 B( 15-C , 33-H ) :   0.9350
B( 15-C , 34-H ) :   0.9304 B( 15-C , 35-H ) :   0.9413 B( 16-O , 17-C ) :   0.9018
B( 17-C , 18-C ) :   1.1688 B( 17-C , 36-H ) :   0.9351 B( 17-C , 37-H ) :   0.8949
B( 18-C , 38-H ) :   0.9410 B( 18-C , 39-H ) :   0.9301 B( 18-C , 40-H ) :   0.9458

Dispersion correction           -0.067316102
FINAL SINGLE POINT ENERGY     -2929.516023404133

DIPOLE MOMENT
-------------

Method             : SCF
Type of density    : Electron Density
Multiplicity       :   1
Irrep              :   0
Energy             : -2929.6345655778841319 Eh
Relativity type    :
Basis              : AO
                                X                 Y                 Z
Electronic contribution:      1.195680005      10.520363251       2.957760448
Nuclear contribution   :     -1.761037840     -11.930049195      -3.073183211
                        -----------------------------------------
Total Dipole Moment    :     -0.565357835      -1.409685944      -0.115422763
                        -----------------------------------------
Magnitude (a.u.)       :      1.523209229
Magnitude (Debye)      :      3.871690172

Rotational constants in cm-1:             0.013397             0.005070             0.004731
Rotational constants in MHz :           401.633890           151.992706           141.823855

                             ****ORCA TERMINATED NORMALLY****
TOTAL RUN TIME: 0 days 0 hours 0 minutes 21 seconds 324 msec
