                         Program Version 6.0.0  -   RELEASE  -
|  1> ! pbe def2-sv(p) def2/J RI DEFGRID1 loosescf d4 GCP(DFT/SV(P)) printgap
|  2> %output
|  3>     printlevel normal
|  4> end
|  5> * xyz 0 1
|  6> C 0.8930408173 1.4483434598 -0.4781315992
|  7> C 1.4027939015 0.1889776753 0.2419419177
|  8> H 2.4898626138 0.1081674453 0.1097676198
|  9> C 0.7271976068 -1.0498243224 -0.3818903744
| 10> H 1.0761663866 -1.958572663 0.1212862518
| 11> C -0.8011104708 -0.9701363478 -0.1777334119
| 12> H -1.2699038596 -1.5623467015 -0.9787251966
| 13> C -1.2829174682 0.5092255047 -0.2921588641
| 14> H -2.2298388373 0.5686753018 -0.8402421495
| 15> O -0.3752366509 1.2388624922 -1.0934739631
| 16> O -1.5136508716 1.0777464787 0.9470315504
| 17> O -1.0927031758 -1.5224011063 1.07895542
| 18> O 1.0788431842 -1.2024044212 -1.7305831546
| 19> O 1.0880989102 0.3241347553 1.6117479129
| 20> H 1.5564171448 1.7399908298 -1.2909687599
| 21> H 0.8302167748 2.2669451503 0.2482649816
| 22> H -0.7222829604 0.935130123 1.510273005
| 23> H -2.0086163089 -1.3219529107 1.3215307222
| 24> H 0.7243341053 -0.4561690898 -2.2377252222
| 25> H 1.2953923229 -0.4939777114 2.0854321257
| 26> *
| 27>
| 28>                          ****END OF INPUT****

CARTESIAN COORDINATES (ANGSTROEM)
---------------------------------
  C      0.893041    1.448343   -0.478132
  C      1.402794    0.188978    0.241942
  H      2.489863    0.108167    0.109768
  C      0.727198   -1.049824   -0.381890
  H      1.076166   -1.958573    0.121286
  C     -0.801110   -0.970136   -0.177733
  H     -1.269904   -1.562347   -0.978725
  C     -1.282917    0.509226   -0.292159
  H     -2.229839    0.568675   -0.840242
  O     -0.375237    1.238862   -1.093474
  O     -1.513651    1.077746    0.947032
  O     -1.092703   -1.522401    1.078955
  O      1.078843   -1.202404   -1.730583
  O      1.088099    0.324135    1.611748
  H      1.556417    1.739991   -1.290969
  H      0.830217    2.266945    0.248265
  H     -0.722283    0.935130    1.510273
  H     -2.008616   -1.321953    1.321531
  H      0.724334   -0.456169   -2.237725
  H      1.295392   -0.493978    2.085432

 Total Charge           Charge          ....    0
 Multiplicity           Mult            ....    1
 Number of Electrons    NEL             ....   80
 Basis Dimension        Dim             ....  160

ORBITAL ENERGIES
----------------

  NO   OCC          E(Eh)            E(eV)
   0   2.0000     -18.780025      -511.0305
   1   2.0000     -18.771785      -510.8062
   2   2.0000     -18.757477      -510.4169
   3   2.0000     -18.754567      -510.3377
   4   2.0000     -18.750502      -510.2271
   5   2.0000      -9.983063      -271.6529
   6   2.0000      -9.954700      -270.8812
   7   2.0000      -9.948017      -270.6993
   8   2.0000      -9.944750      -270.6104
   9   2.0000      -9.941319      -270.5170
  10   2.0000      -0.984922       -26.8011
  11   2.0000      -0.950008       -25.8510
  12   2.0000      -0.934897       -25.4398
  13   2.0000      -0.932593       -25.3771
  14   2.0000      -0.903333       -24.5809
  15   2.0000      -0.698384       -19.0040
  16   2.0000      -0.684436       -18.6245
  17   2.0000      -0.597088       -16.2476
  18   2.0000      -0.583809       -15.8862
  19   2.0000      -0.534201       -14.5364
  20   2.0000      -0.498436       -13.5631
  21   2.0000      -0.492342       -13.3973
  22   2.0000      -0.475179       -12.9303
  23   2.0000      -0.458230       -12.4691
  24   2.0000      -0.432737       -11.7754
  25   2.0000      -0.418098       -11.3770
  26   2.0000      -0.408009       -11.1025
  27   2.0000      -0.385834       -10.4991
  28   2.0000      -0.362615        -9.8673
  29   2.0000      -0.347808        -9.4643
  30   2.0000      -0.341974        -9.3056
  31   2.0000      -0.323021        -8.7899
  32   2.0000      -0.303393        -8.2557
  33   2.0000      -0.293764        -7.9937
  34   2.0000      -0.288120        -7.8401
  35   2.0000      -0.256986        -6.9930
  36   2.0000      -0.240084        -6.5330
  37   2.0000      -0.236950        -6.4477
  38   2.0000      -0.217194        -5.9101
  39   2.0000      -0.210161        -5.7188
  40   0.0000       0.010415         0.2834
  41   0.0000       0.025922         0.7054
  42   0.0000       0.037403         1.0178
  43   0.0000       0.062006         1.6873
  44   0.0000       0.069197         1.8829

MULLIKEN ATOMIC CHARGES
-----------------------
   0 C :    0.026778
   1 C :   -0.016976
   2 H :    0.081684
   3 C :    0.037748
   4 H :    0.077189
   5 C :    0.055515
   6 H :    0.067122
   7 C :    0.143029
   8 H :    0.070779
   9 O :   -0.318542
  10 O :   -0.409157
  11 O :   -0.416273
  12 O :   -0.419617
  13 O :   -0.418250
  14 H :    0.104800
  15 H :    0.103241
  16 H :    0.308781
  17 H :    0.300644
  18 H :    0.304851
  19 H :    0.316655
Sum of atomic charges:   -0.0000000

LOEWDIN ATOMIC CHARGES
----------------------
   0 C :   -0.125443
   1 C :   -0.089160
   2 H :    0.110839
   3 C :   -0.071688
   4 H :    0.116925
   5 C :   -0.097658
   6 H :    0.104771
   7 C :   -0.014276
   8 H :    0.107324
   9 O :   -0.164995
  10 O :   -0.305941
  11 O :   -0.320463
  12 O :   -0.309948
  13 O :   -0.306492
  14 H :    0.121436
  15 H :    0.116950
  16 H :    0.270339
  17 H :    0.283991
  18 H :    0.279922
  19 H :    0.293569

  Mayer bond orders larger than 0.100000
B(  0-C ,  1-C ) :   1.0268 B(  0-C ,  9-O ) :   0.9960 B(  0-C , 14-H ) :   0.9253
B(  0-C , 15-H ) :   0.9150 B(  1-C ,  2-H ) :   0.8961 B(  1-C ,  3-C ) :   1.0095
B(  1-C , 13-O ) :   1.0271 B(  3-C ,  4-H ) :   0.8936 B(  3-C ,  5-C ) :   0.9740
B(  3-C , 12-O ) :   1.0580 B(  5-C ,  6-H ) :   0.8941 B(  5-C ,  7-C ) :   0.9722
B(  5-C , 11-O ) :   1.0991 B(  7-C ,  8-H ) :   0.9089 B(  7-C ,  9-O ) :   1.0479
B(  7-C , 10-O ) :   1.1543 B( 10-O , 16-H ) :   0.7820 B( 11-O , 17-H ) :   0.8357
B( 12-O , 18-H ) :   0.8333 B( 13-O , 16-H ) :   0.1183 B( 13-O , 19-H ) :   0.8328

Dispersion correction           -0.020606887
FINAL SINGLE POINT ENERGY      -571.413787333180

DIPOLE MOMENT
-------------

Method             : SCF
Type of density    : Electron Density
Multiplicity       :   1
Irrep              :   0
Energy             :  -571.5258065763806599 Eh
Relativity type    :
Basis              : AO
                                X                 Y                 Z
Electronic contribution:     -1.355118859      -0.022843405       0.195606530
Nuclear contribution   :      1.621986742      -0.164590344       0.057924528
                        -----------------------------------------
Total Dipole Moment    :      0.266867884      -0.187433749       0.253531058
                        -----------------------------------------
Magnitude (a.u.)       :      0.413071271
Magnitude (Debye)      :      1.049943731

Rotational constants in cm-1:             0.053955             0.047658             0.043230
Rotational constants in MHz :          1617.530299          1428.764358          1296.016257

                             ****ORCA TERMINATED NORMALLY****
TOTAL RUN TIME: 0 days 0 hours 0 minutes 12 seconds 574 msec
