                         Program Version 6.0.0  -   RELEASE  -
|  1> ! r2scan-3c def2/J RI DEFGRID2 scfconv6 printgap
|  2> %output
|  3>     printlevel normal
|  4> end
|  5> * xyz 0 1
|  6> C 5.4170483579 -1.5868301599 -0.1246260686
|  7> C 4.8028182318 -1.029267872 -1.3914442793
|  8> O 3.3654041012 -1.1481714817 -1.3813518285
|  9> P 2.46032568 -0.2793197246 -0.4201158541
| 10> S 3.153540329 1.5165139181 -0.0301763796
| 11> O 2.2931948645 -1.294472003 0.7954385454
| 12> C 1.4107054866 -1.1823235073 1.9239073626
| 13> C 1.774193733 -0.035026121 2.8455451436
| 14> S 0.6547090317 -0.3810392625 -1.5327097052
| 15> C 0.0460810718 1.293078808 -1.1809448405
| 16> S -0.6778166253 1.4548830147 0.4732404779
| 17> P -2.3695882675 0.2454179873 0.1031327808
| 18> S -3.2189177665 0.4119811569 -1.6600565526
| 19> O -3.3210989809 0.4986059005 1.3480006064
| 20> C -4.3229956055 1.5307104674 1.3590557912
| 21> C -3.7136521846 2.9178684921 1.3620202726
| 22> O -1.7616883721 -1.1774110229 0.4546391041
| 23> C -2.3279708907 -2.3995962513 -0.0599337979
| 24> C -3.6779765072 -2.6935500561 0.5591880371
| 25> H 5.0869349456 -2.6100345791 0.0336384057
| 26> H 6.4991756715 -1.5618240284 -0.2057231608
| 27> H 5.109872025 -0.9823396999 0.7278688443
| 28> H 5.1058165503 -1.5934211447 -2.2743145443
| 29> H 5.0641091344 0.0265887048 -1.5156720914
| 30> H 0.3819121525 -1.0824939292 1.5657617502
| 31> H 1.526621685 -2.1439747852 2.4282846467
| 32> H 2.8186500389 -0.1028095147 3.139031022
| 33> H 1.6105859324 0.9213912438 2.3531071273
| 34> H 1.1488615694 -0.0816822921 3.7312665027
| 35> H -0.7140938248 1.5108201768 -1.9304990896
| 36> H 0.8728259128 2.001854189 -1.2297391411
| 37> H -4.9671941372 1.3965296054 0.4840975979
| 38> H -4.8882850237 1.3362956469 2.2715047032
| 39> H -2.9892807668 3.0115744819 2.1671730076
| 40> H -3.2093067638 3.1059513478 0.4149173925
| 41> H -4.4986716303 3.6554778379 1.4941269198
| 42> H -2.4073966228 -2.3119804159 -1.148374701
| 43> H -1.5883610818 -3.1602448749 0.1935284628
| 44> H -4.398231466 -1.9368628619 0.2503721958
| 45> H -4.0235635595 -3.6665839596 0.2244882241
| 46> H -3.6034870844 -2.6866363272 1.6433761595
| 47> *
| 48>
| 49>                          ****END OF INPUT****

CARTESIAN COORDINATES (ANGSTROEM)
---------------------------------
  C      5.417048   -1.586830   -0.124626
  C      4.802818   -1.029268   -1.391444
  O      3.365404   -1.148171   -1.381352
  P      2.460326   -0.279320   -0.420116
  S      3.153540    1.516514   -0.030176
  O      2.293195   -1.294472    0.795439
  C      1.410705   -1.182324    1.923907
  C      1.774194   -0.035026    2.845545
  S      0.654709   -0.381039   -1.532710
  C      0.046081    1.293079   -1.180945
  S     -0.677817    1.454883    0.473240
  P     -2.369588    0.245418    0.103133
  S     -3.218918    0.411981   -1.660057
  O     -3.321099    0.498606    1.348001
  C     -4.322996    1.530710    1.359056
  C     -3.713652    2.917868    1.362020
  O     -1.761688   -1.177411    0.454639
  C     -2.327971   -2.399596   -0.059934
  C     -3.677977   -2.693550    0.559188
  H      5.086935   -2.610035    0.033638
  H      6.499176   -1.561824   -0.205723
  H      5.109872   -0.982340    0.727869
  H      5.105817   -1.593421   -2.274315
  H      5.064109    0.026589   -1.515672
  H      0.381912   -1.082494    1.565762
  H      1.526622   -2.143975    2.428285
  H      2.818650   -0.102810    3.139031
  H      1.610586    0.921391    2.353107
  H      1.148862   -0.081682    3.731267
  H     -0.714094    1.510820   -1.930499
  H      0.872826    2.001854   -1.229739
  H     -4.967194    1.396530    0.484098
  H     -4.888285    1.336296    2.271505
  H     -2.989281    3.011574    2.167173
  H     -3.209307    3.105951    0.414917
  H     -4.498672    3.655478    1.494127
  H     -2.407397   -2.311980   -1.148375
  H     -1.588361   -3.160245    0.193528
  H     -4.398231   -1.936863    0.250372
  H     -4.023564   -3.666584    0.224488
  H     -3.603487   -2.686636    1.643376

 Total Charge           Charge          ....    0
 Multiplicity           Mult            ....    1
 Number of Electrons    NEL             ....  202
 Basis Dimension        Dim             ....  539

ORBITAL ENERGIES
----------------

  NO   OCC          E(Eh)            E(eV)
   0   2.0000     -88.577556     -2410.3178
   1   2.0000     -88.572615     -2410.1834
   2   2.0000     -88.526419     -2408.9263
   3   2.0000     -88.521464     -2408.7915
   4   2.0000     -76.917876     -2093.0418
   5   2.0000     -76.913392     -2092.9198
   6   2.0000     -18.998354      -516.9715
   7   2.0000     -18.992965      -516.8249
   8   2.0000     -18.987087      -516.6649
   9   2.0000     -18.986755      -516.6559
  10   2.0000     -10.103651      -274.9343
  11   2.0000     -10.103304      -274.9249
  12   2.0000     -10.099499      -274.8213
  13   2.0000     -10.096058      -274.7277
  14   2.0000     -10.093147      -274.6485
  15   2.0000     -10.032036      -272.9856
  16   2.0000     -10.031470      -272.9702
  17   2.0000     -10.026793      -272.8429
  18   2.0000     -10.020048      -272.6594
  19   2.0000      -7.872003      -214.2081
  20   2.0000      -7.866748      -214.0651
  21   2.0000      -7.821088      -212.8226
  22   2.0000      -7.816329      -212.6931
  23   2.0000      -6.596551      -179.5013
  24   2.0000      -6.591621      -179.3671
  25   2.0000      -5.818811      -158.3379
  26   2.0000      -5.815881      -158.2582
  27   2.0000      -5.813694      -158.1987
  28   2.0000      -5.810706      -158.1173
  29   2.0000      -5.809147      -158.0749
  30   2.0000      -5.803723      -157.9273
  31   2.0000      -5.768675      -156.9736
  32   2.0000      -5.763969      -156.8456
  33   2.0000      -5.761381      -156.7751
  34   2.0000      -5.761162      -156.7692
  35   2.0000      -5.756810      -156.6508
  36   2.0000      -5.756127      -156.6322
  37   2.0000      -4.741921      -129.0342
  38   2.0000      -4.741439      -129.0211
  39   2.0000      -4.740408      -128.9931
  40   2.0000      -4.736965      -128.8994
  41   2.0000      -4.736647      -128.8907
  42   2.0000      -4.735448      -128.8581
  43   2.0000      -1.054714       -28.7002
  44   2.0000      -1.046346       -28.4725
  45   2.0000      -1.015782       -27.6408
  46   2.0000      -1.005900       -27.3719
  47   2.0000      -0.801453       -21.8087
  48   2.0000      -0.759530       -20.6678
  49   2.0000      -0.748191       -20.3593
  50   2.0000      -0.734613       -19.9898
  51   2.0000      -0.727239       -19.7892
  52   2.0000      -0.711501       -19.3609
  53   2.0000      -0.688312       -18.7299
  54   2.0000      -0.671041       -18.2599
  55   2.0000      -0.636981       -17.3331
  56   2.0000      -0.626565       -17.0497
  57   2.0000      -0.609035       -16.5727
  58   2.0000      -0.602140       -16.3851
  59   2.0000      -0.590832       -16.0774
  60   2.0000      -0.524663       -14.2768
  61   2.0000      -0.514697       -14.0056
  62   2.0000      -0.496242       -13.5034
  63   2.0000      -0.487610       -13.2685
  64   2.0000      -0.478053       -13.0085
  65   2.0000      -0.462311       -12.5801
  66   2.0000      -0.461374       -12.5546
  67   2.0000      -0.452711       -12.3189
  68   2.0000      -0.445353       -12.1187
  69   2.0000      -0.434155       -11.8139
  70   2.0000      -0.423532       -11.5249
  71   2.0000      -0.414015       -11.2659
  72   2.0000      -0.409713       -11.1489
  73   2.0000      -0.406830       -11.0704
  74   2.0000      -0.400985       -10.9114
  75   2.0000      -0.390792       -10.6340
  76   2.0000      -0.386964       -10.5298
  77   2.0000      -0.376148       -10.2355
  78   2.0000      -0.371570       -10.1109
  79   2.0000      -0.366197        -9.9647
  80   2.0000      -0.362455        -9.8629
  81   2.0000      -0.357076        -9.7165
  82   2.0000      -0.355112        -9.6631
  83   2.0000      -0.351698        -9.5702
  84   2.0000      -0.347795        -9.4640
  85   2.0000      -0.333992        -9.0884
  86   2.0000      -0.323577        -8.8050
  87   2.0000      -0.313835        -8.5399
  88   2.0000      -0.307641        -8.3713
  89   2.0000      -0.304663        -8.2903
  90   2.0000      -0.297166        -8.0863
  91   2.0000      -0.291132        -7.9221
  92   2.0000      -0.287284        -7.8174
  93   2.0000      -0.283088        -7.7032
  94   2.0000      -0.272031        -7.4023
  95   2.0000      -0.248119        -6.7517
  96   2.0000      -0.231228        -6.2920
  97   2.0000      -0.228278        -6.2117
  98   2.0000      -0.221239        -6.0202
  99   2.0000      -0.218097        -5.9347
 100   2.0000      -0.213142        -5.7999
 101   0.0000      -0.049524        -1.3476
 102   0.0000      -0.029959        -0.8152
 103   0.0000      -0.003726        -0.1014
 104   0.0000       0.000382         0.0104
 105   0.0000       0.013175         0.3585

MULLIKEN ATOMIC CHARGES
-----------------------
   0 C :   -0.440081
   1 C :   -0.156634
   2 O :   -0.300965
   3 P :    0.658544
   4 S :   -0.473976
   5 O :   -0.242295
   6 C :   -0.172672
   7 C :   -0.425436
   8 S :   -0.121111
   9 C :   -0.240344
  10 S :   -0.128156
  11 P :    0.672914
  12 S :   -0.476413
  13 O :   -0.304184
  14 C :   -0.150970
  15 C :   -0.451917
  16 O :   -0.274106
  17 C :   -0.150998
  18 C :   -0.439963
  19 H :    0.155405
  20 H :    0.147012
  21 H :    0.167429
  22 H :    0.149552
  23 H :    0.172956
  24 H :    0.179041
  25 H :    0.145820
  26 H :    0.148847
  27 H :    0.175161
  28 H :    0.143137
  29 H :    0.216126
  30 H :    0.215730
  31 H :    0.171389
  32 H :    0.149272
  33 H :    0.156900
  34 H :    0.178050
  35 H :    0.149339
  36 H :    0.174718
  37 H :    0.152717
  38 H :    0.166697
  39 H :    0.148140
  40 H :    0.155322
Sum of atomic charges:   -0.0000000

LOEWDIN ATOMIC CHARGES
----------------------
   0 C :   -0.399902
   1 C :    0.023088
   2 O :   -0.665271
   3 P :    0.392535
   4 S :   -0.128880
   5 O :   -0.660887
   6 C :    0.021349
   7 C :   -0.411834
   8 S :    0.182553
   9 C :   -0.422140
  10 S :    0.163804
  11 P :    0.376422
  12 S :   -0.128507
  13 O :   -0.660004
  14 C :    0.021062
  15 C :   -0.406170
  16 O :   -0.696406
  17 C :    0.018438
  18 C :   -0.398579
  19 H :    0.160788
  20 H :    0.159184
  21 H :    0.165201
  22 H :    0.179972
  23 H :    0.179787
  24 H :    0.191932
  25 H :    0.178751
  26 H :    0.159232
  27 H :    0.166434
  28 H :    0.158378
  29 H :    0.191533
  30 H :    0.193815
  31 H :    0.179581
  32 H :    0.180119
  33 H :    0.160810
  34 H :    0.166106
  35 H :    0.160071
  36 H :    0.181936
  37 H :    0.180588
  38 H :    0.164517
  39 H :    0.159985
  40 H :    0.160611

  Mayer bond orders larger than 0.100000
B(  0-C ,  1-C ) :   0.9255 B(  0-C , 19-H ) :   0.9703 B(  0-C , 20-H ) :   0.9625
B(  0-C , 21-H ) :   0.9604 B(  1-C ,  2-O ) :   0.8078 B(  1-C , 22-H ) :   0.9611
B(  1-C , 23-H ) :   0.9658 B(  2-O ,  3-P ) :   1.1799 B(  3-P ,  4-S ) :   1.7350
B(  3-P ,  5-O ) :   1.0850 B(  3-P ,  8-S ) :   1.0745 B(  5-O ,  6-C ) :   0.7990
B(  6-C ,  7-C ) :   0.9221 B(  6-C , 24-H ) :   0.9512 B(  6-C , 25-H ) :   0.9672
B(  7-C , 26-H ) :   0.9697 B(  7-C , 27-H ) :   0.9536 B(  7-C , 28-H ) :   0.9639
B(  8-S ,  9-C ) :   0.9163 B(  9-C , 10-S ) :   0.8964 B(  9-C , 29-H ) :   0.9074
B(  9-C , 30-H ) :   0.9013 B( 10-S , 11-P ) :   1.0896 B( 11-P , 12-S ) :   1.7582
B( 11-P , 13-O ) :   1.0711 B( 11-P , 16-O ) :   1.1336 B( 13-O , 14-C ) :   0.8128
B( 14-C , 15-C ) :   0.9221 B( 14-C , 31-H ) :   0.9666 B( 14-C , 32-H ) :   0.9578
B( 15-C , 33-H ) :   0.9685 B( 15-C , 34-H ) :   0.9617 B( 15-C , 35-H ) :   0.9579
B( 16-O , 17-C ) :   0.7931 B( 17-C , 18-C ) :   0.9235 B( 17-C , 36-H ) :   0.9634
B( 17-C , 37-H ) :   0.9613 B( 18-C , 38-H ) :   0.9600 B( 18-C , 39-H ) :   0.9621
B( 18-C , 40-H ) :   0.9717

Dispersion correction           -0.021651054
FINAL SINGLE POINT ENERGY     -2932.463252809729

DIPOLE MOMENT
-------------

Method             : SCF
Type of density    : Electron Density
Multiplicity       :   1
Irrep              :   0
Energy             : -2932.4882299604560103 Eh
Relativity type    :
Basis              : AO
                                X                 Y                 Z
Electronic contribution:      1.596895025       5.842503782     -13.289627484
Nuclear contribution   :     -2.004970425      -6.627274112      14.282878634
                        -----------------------------------------
Total Dipole Moment    :     -0.408075400      -0.784770330       0.993251151
                        -----------------------------------------
Magnitude (a.u.)       :      1.330014229
Magnitude (Debye)      :      3.380627508

Rotational constants in cm-1:             0.014219             0.004521             0.004346
Rotational constants in MHz :           426.273431           135.531554           130.278740

                             ****ORCA TERMINATED NORMALLY****
TOTAL RUN TIME: 0 days 0 hours 1 minutes 20 seconds 164 msec
