                         Program Version 6.0.0  -   RELEASE  -
|  1> ! r2scan-3c def2/J RI DEFGRID2 scfconv6 printgap
|  2> %output
|  3>     printlevel normal
|  4> end
|  5> %cpcm
|  6>     smd true
|  7>     smdsolvent "water"
|  8> end
|  9> * xyz 0 1
| 10> C 5.4170483579 -1.5868301599 -0.1246260686
| 11> C 4.8028182318 -1.029267872 -1.3914442793
| 12> O 3.3654041012 -1.1481714817 -1.3813518285
| 13> P 2.46032568 -0.2793197246 -0.4201158541
| 14> S 3.153540329 1.5165139181 -0.0301763796
| 15> O 2.2931948645 -1.294472003 0.7954385454
| 16> C 1.4107054866 -1.1823235073 1.9239073626
| 17> C 1.774193733 -0.035026121 2.8455451436
| 18> S 0.6547090317 -0.3810392625 -1.5327097052
| 19> C 0.0460810718 1.293078808 -1.1809448405
| 20> S -0.6778166253 1.4548830147 0.4732404779
| 21> P -2.3695882675 0.2454179873 0.1031327808
| 22> S -3.2189177665 0.4119811569 -1.6600565526
| 23> O -3.3210989809 0.4986059005 1.3480006064
| 24> C -4.3229956055 1.5307104674 1.3590557912
| 25> C -3.7136521846 2.9178684921 1.3620202726
| 26> O -1.7616883721 -1.1774110229 0.4546391041
| 27> C -2.3279708907 -2.3995962513 -0.0599337979
| 28> C -3.6779765072 -2.6935500561 0.5591880371
| 29> H 5.0869349456 -2.6100345791 0.0336384057
| 30> H 6.4991756715 -1.5618240284 -0.2057231608
| 31> H 5.109872025 -0.9823396999 0.7278688443
| 32> H 5.1058165503 -1.5934211447 -2.2743145443
| 33> H 5.0641091344 0.0265887048 -1.5156720914
| 34> H 0.3819121525 -1.0824939292 1.5657617502
| 35> H 1.526621685 -2.1439747852 2.4282846467
| 36> H 2.8186500389 -0.1028095147 3.139031022
| 37> H 1.6105859324 0.9213912438 2.3531071273
| 38> H 1.1488615694 -0.0816822921 3.7312665027
| 39> H -0.7140938248 1.5108201768 -1.9304990896
| 40> H 0.8728259128 2.001854189 -1.2297391411
| 41> H -4.9671941372 1.3965296054 0.4840975979
| 42> H -4.8882850237 1.3362956469 2.2715047032
| 43> H -2.9892807668 3.0115744819 2.1671730076
| 44> H -3.2093067638 3.1059513478 0.4149173925
| 45> H -4.4986716303 3.6554778379 1.4941269198
| 46> H -2.4073966228 -2.3119804159 -1.148374701
| 47> H -1.5883610818 -3.1602448749 0.1935284628
| 48> H -4.398231466 -1.9368628619 0.2503721958
| 49> H -4.0235635595 -3.6665839596 0.2244882241
| 50> H -3.6034870844 -2.6866363272 1.6433761595
| 51> *
| 52>
| 53>                          ****END OF INPUT****

CARTESIAN COORDINATES (ANGSTROEM)
---------------------------------
  C      5.417048   -1.586830   -0.124626
  C      4.802818   -1.029268   -1.391444
  O      3.365404   -1.148171   -1.381352
  P      2.460326   -0.279320   -0.420116
  S      3.153540    1.516514   -0.030176
  O      2.293195   -1.294472    0.795439
  C      1.410705   -1.182324    1.923907
  C      1.774194   -0.035026    2.845545
  S      0.654709   -0.381039   -1.532710
  C      0.046081    1.293079   -1.180945
  S     -0.677817    1.454883    0.473240
  P     -2.369588    0.245418    0.103133
  S     -3.218918    0.411981   -1.660057
  O     -3.321099    0.498606    1.348001
  C     -4.322996    1.530710    1.359056
  C     -3.713652    2.917868    1.362020
  O     -1.761688   -1.177411    0.454639
  C     -2.327971   -2.399596   -0.059934
  C     -3.677977   -2.693550    0.559188
  H      5.086935   -2.610035    0.033638
  H      6.499176   -1.561824   -0.205723
  H      5.109872   -0.982340    0.727869
  H      5.105817   -1.593421   -2.274315
  H      5.064109    0.026589   -1.515672
  H      0.381912   -1.082494    1.565762
  H      1.526622   -2.143975    2.428285
  H      2.818650   -0.102810    3.139031
  H      1.610586    0.921391    2.353107
  H      1.148862   -0.081682    3.731267
  H     -0.714094    1.510820   -1.930499
  H      0.872826    2.001854   -1.229739
  H     -4.967194    1.396530    0.484098
  H     -4.888285    1.336296    2.271505
  H     -2.989281    3.011574    2.167173
  H     -3.209307    3.105951    0.414917
  H     -4.498672    3.655478    1.494127
  H     -2.407397   -2.311980   -1.148375
  H     -1.588361   -3.160245    0.193528
  H     -4.398231   -1.936863    0.250372
  H     -4.023564   -3.666584    0.224488
  H     -3.603487   -2.686636    1.643376

 Total Charge           Charge          ....    0
 Multiplicity           Mult            ....    1
 Number of Electrons    NEL             ....  202
 Basis Dimension        Dim             ....  539

ORBITAL ENERGIES
----------------

  NO   OCC          E(Eh)            E(eV)
   0   2.0000     -88.579812     -2410.3792
   1   2.0000     -88.579298     -2410.3652
   2   2.0000     -88.530538     -2409.0384
   3   2.0000     -88.530348     -2409.0332
   4   2.0000     -76.920833     -2093.1223
   5   2.0000     -76.919857     -2093.0957
   6   2.0000     -18.997424      -516.9462
   7   2.0000     -18.993044      -516.8270
   8   2.0000     -18.992884      -516.8226
   9   2.0000     -18.992188      -516.8037
  10   2.0000     -10.104948      -274.9696
  11   2.0000     -10.090693      -274.5817
  12   2.0000     -10.090021      -274.5634
  13   2.0000     -10.088998      -274.5356
  14   2.0000     -10.088408      -274.5195
  15   2.0000     -10.019136      -272.6346
  16   2.0000     -10.018687      -272.6223
  17   2.0000     -10.018649      -272.6213
  18   2.0000     -10.015230      -272.5283
  19   2.0000      -7.874291      -214.2704
  20   2.0000      -7.873501      -214.2489
  21   2.0000      -7.825489      -212.9424
  22   2.0000      -7.825447      -212.9412
  23   2.0000      -6.599145      -179.5719
  24   2.0000      -6.598561      -179.5560
  25   2.0000      -5.821096      -158.4001
  26   2.0000      -5.820408      -158.3814
  27   2.0000      -5.818184      -158.3208
  28   2.0000      -5.817408      -158.2997
  29   2.0000      -5.811420      -158.1368
  30   2.0000      -5.810570      -158.1137
  31   2.0000      -5.773043      -157.0925
  32   2.0000      -5.773018      -157.0918
  33   2.0000      -5.765860      -156.8970
  34   2.0000      -5.765768      -156.8945
  35   2.0000      -5.765580      -156.8894
  36   2.0000      -5.765309      -156.8820
  37   2.0000      -4.744488      -129.1041
  38   2.0000      -4.744144      -129.0947
  39   2.0000      -4.743875      -129.0874
  40   2.0000      -4.743442      -129.0756
  41   2.0000      -4.743011      -129.0639
  42   2.0000      -4.742512      -129.0503
  43   2.0000      -1.053524       -28.6678
  44   2.0000      -1.052162       -28.6308
  45   2.0000      -1.013900       -27.5896
  46   2.0000      -1.010979       -27.5101
  47   2.0000      -0.804340       -21.8872
  48   2.0000      -0.757245       -20.6057
  49   2.0000      -0.743081       -20.2203
  50   2.0000      -0.723797       -19.6955
  51   2.0000      -0.722785       -19.6680
  52   2.0000      -0.710586       -19.3360
  53   2.0000      -0.691618       -18.8199
  54   2.0000      -0.676557       -18.4101
  55   2.0000      -0.634579       -17.2678
  56   2.0000      -0.625004       -17.0072
  57   2.0000      -0.600055       -16.3283
  58   2.0000      -0.599579       -16.3154
  59   2.0000      -0.590131       -16.0583
  60   2.0000      -0.521093       -14.1797
  61   2.0000      -0.511572       -13.9206
  62   2.0000      -0.490629       -13.3507
  63   2.0000      -0.487614       -13.2686
  64   2.0000      -0.477529       -12.9942
  65   2.0000      -0.458528       -12.4772
  66   2.0000      -0.455071       -12.3831
  67   2.0000      -0.451446       -12.2845
  68   2.0000      -0.442543       -12.0422
  69   2.0000      -0.431117       -11.7313
  70   2.0000      -0.422466       -11.4959
  71   2.0000      -0.409190       -11.1346
  72   2.0000      -0.405535       -11.0352
  73   2.0000      -0.404588       -11.0094
  74   2.0000      -0.400295       -10.8926
  75   2.0000      -0.389910       -10.6100
  76   2.0000      -0.386880       -10.5275
  77   2.0000      -0.371527       -10.1098
  78   2.0000      -0.365400        -9.9430
  79   2.0000      -0.357060        -9.7161
  80   2.0000      -0.353620        -9.6225
  81   2.0000      -0.351686        -9.5699
  82   2.0000      -0.349506        -9.5105
  83   2.0000      -0.348542        -9.4843
  84   2.0000      -0.344850        -9.3839
  85   2.0000      -0.332027        -9.0349
  86   2.0000      -0.320879        -8.7316
  87   2.0000      -0.307015        -8.3543
  88   2.0000      -0.305233        -8.3058
  89   2.0000      -0.302066        -8.2196
  90   2.0000      -0.296629        -8.0717
  91   2.0000      -0.290951        -7.9172
  92   2.0000      -0.286997        -7.8096
  93   2.0000      -0.280859        -7.6426
  94   2.0000      -0.275540        -7.4978
  95   2.0000      -0.251107        -6.8330
  96   2.0000      -0.237835        -6.4718
  97   2.0000      -0.234502        -6.3811
  98   2.0000      -0.228066        -6.2060
  99   2.0000      -0.223983        -6.0949
 100   2.0000      -0.221284        -6.0214
 101   0.0000      -0.055554        -1.5117
 102   0.0000      -0.035501        -0.9660
 103   0.0000      -0.007300        -0.1987
 104   0.0000      -0.003937        -0.1071
 105   0.0000       0.011183         0.3043

MULLIKEN ATOMIC CHARGES
-----------------------
   0 C :   -0.481279
   1 C :   -0.148407
   2 O :   -0.332895
   3 P :    0.676932
   4 S :   -0.506143
   5 O :   -0.270341
   6 C :   -0.156693
   7 C :   -0.470846
   8 S :   -0.142420
   9 C :   -0.252132
  10 S :   -0.132112
  11 P :    0.714626
  12 S :   -0.524692
  13 O :   -0.329106
  14 C :   -0.151345
  15 C :   -0.488455
  16 O :   -0.295024
  17 C :   -0.146520
  18 C :   -0.483132
  19 H :    0.169683
  20 H :    0.172967
  21 H :    0.167398
  22 H :    0.175671
  23 H :    0.177091
  24 H :    0.176470
  25 H :    0.174909
  26 H :    0.164144
  27 H :    0.167955
  28 H :    0.169522
  29 H :    0.236020
  30 H :    0.231692
  31 H :    0.178441
  32 H :    0.176230
  33 H :    0.170395
  34 H :    0.173192
  35 H :    0.173723
  36 H :    0.176581
  37 H :    0.178007
  38 H :    0.167922
  39 H :    0.171914
  40 H :    0.170056
Sum of atomic charges:   -0.0000000

LOEWDIN ATOMIC CHARGES
----------------------
   0 C :   -0.402997
   1 C :    0.027358
   2 O :   -0.682966
   3 P :    0.393329
   4 S :   -0.150941
   5 O :   -0.672433
   6 C :    0.026931
   7 C :   -0.416033
   8 S :    0.169122
   9 C :   -0.417065
  10 S :    0.162548
  11 P :    0.382416
  12 S :   -0.157614
  13 O :   -0.669999
  14 C :    0.026913
  15 C :   -0.409524
  16 O :   -0.703750
  17 C :    0.022436
  18 C :   -0.402084
  19 H :    0.164109
  20 H :    0.169132
  21 H :    0.162584
  22 H :    0.190814
  23 H :    0.181554
  24 H :    0.191727
  25 H :    0.190985
  26 H :    0.162150
  27 H :    0.161276
  28 H :    0.167907
  29 H :    0.197398
  30 H :    0.198399
  31 H :    0.181846
  32 H :    0.191575
  33 H :    0.163905
  34 H :    0.161736
  35 H :    0.168900
  36 H :    0.182073
  37 H :    0.190625
  38 H :    0.162583
  39 H :    0.168733
  40 H :    0.164342

  Mayer bond orders larger than 0.100000
B(  0-C ,  1-C ) :   0.9126 B(  0-C , 19-H ) :   0.9694 B(  0-C , 20-H ) :   0.9559
B(  0-C , 21-H ) :   0.9600 B(  1-C ,  2-O ) :   0.7976 B(  1-C , 22-H ) :   0.9513
B(  1-C , 23-H ) :   0.9606 B(  2-O ,  3-P ) :   1.1777 B(  3-P ,  4-S ) :   1.7204
B(  3-P ,  5-O ) :   1.0865 B(  3-P ,  8-S ) :   1.0863 B(  5-O ,  6-C ) :   0.7911
B(  6-C ,  7-C ) :   0.9091 B(  6-C , 24-H ) :   0.9485 B(  6-C , 25-H ) :   0.9570
B(  7-C , 26-H ) :   0.9695 B(  7-C , 27-H ) :   0.9559 B(  7-C , 28-H ) :   0.9585
B(  8-S ,  9-C ) :   0.9063 B(  9-C , 10-S ) :   0.8940 B(  9-C , 29-H ) :   0.9017
B(  9-C , 30-H ) :   0.8984 B( 10-S , 11-P ) :   1.0960 B( 11-P , 12-S ) :   1.7131
B( 11-P , 13-O ) :   1.0802 B( 11-P , 16-O ) :   1.1445 B( 13-O , 14-C ) :   0.8010
B( 14-C , 15-C ) :   0.9079 B( 14-C , 31-H ) :   0.9656 B( 14-C , 32-H ) :   0.9481
B( 15-C , 33-H ) :   0.9656 B( 15-C , 34-H ) :   0.9632 B( 15-C , 35-H ) :   0.9526
B( 16-O , 17-C ) :   0.7808 B( 17-C , 18-C ) :   0.9144 B( 17-C , 36-H ) :   0.9599
B( 17-C , 37-H ) :   0.9515 B( 18-C , 38-H ) :   0.9595 B( 18-C , 39-H ) :   0.9562
B( 18-C , 40-H ) :   0.9706

Dispersion correction           -0.021651054
FINAL SINGLE POINT ENERGY     -2932.469321900997

DIPOLE MOMENT
-------------

Method             : SCF
Type of density    : Electron Density
Multiplicity       :   1
Irrep              :   0
Energy             : -2932.4942990517247381 Eh
Relativity type    :
Basis              : AO
                                X                 Y                 Z
Electronic contribution:      1.474725524       5.628446289     -12.924211481
Nuclear contribution   :     -2.004970425      -6.627274112      14.282878634
                        -----------------------------------------
Total Dipole Moment    :     -0.530244901      -0.998827823       1.358667153
                        -----------------------------------------
Magnitude (a.u.)       :      1.767708434
Magnitude (Debye)      :      4.493157762

Rotational constants in cm-1:             0.014219             0.004521             0.004346
Rotational constants in MHz :           426.273431           135.531554           130.278740

                             ****ORCA TERMINATED NORMALLY****
TOTAL RUN TIME: 0 days 0 hours 1 minutes 47 seconds 402 msec
