                         Program Version 6.0.0  -   RELEASE  -
|  1> ! pbe def2-sv(p) def2/J RI DEFGRID1 loosescf d4 GCP(DFT/SV(P)) printgap
|  2> %output
|  3>     printlevel normal
|  4> end
|  5> * xyz 0 1
|  6> C 0.6332517539 1.6972413668 -0.0311009909
|  7> C 1.3950426043 0.3921812394 -0.2658635722
|  8> H 1.5952256327 0.2804801643 -1.3460232575
|  9> C 0.5287375098 -0.79480437 0.1959260776
| 10> H 0.3455870684 -0.7220302778 1.2732965293
| 11> C -0.818794992 -0.7345196346 -0.5311423194
| 12> H -0.6370780759 -0.7941226147 -1.6185309441
| 13> C -1.469762273 0.6402128166 -0.254679319
| 14> H -2.3680599952 0.751828786 -0.8817787208
| 15> O -0.6270055497 1.6852400815 -0.6828287833
| 16> O -1.7789194117 0.7235568347 1.0957237546
| 17> O -1.6130578833 -1.8038176505 -0.1002904609
| 18> O 1.2153456097 -2.0067979326 0.0102642239
| 19> O 2.6079223 0.4431377701 0.4406970606
| 20> H 1.1769135566 2.5431625151 -0.449318578
| 21> H 0.5094505896 1.8377058784 1.0485835534
| 22> H -2.3097054139 1.5155599085 1.2724205991
| 23> H -2.4930324894 -1.7533785878 -0.500402136
| 24> H 1.1668935965 -2.2778641636 -0.9178198196
| 25> H 2.9212101083 -0.4671847516 0.5673179562
| 26> *
| 27>
| 28>                          ****END OF INPUT****

CARTESIAN COORDINATES (ANGSTROEM)
---------------------------------
  C      0.633252    1.697241   -0.031101
  C      1.395043    0.392181   -0.265864
  H      1.595226    0.280480   -1.346023
  C      0.528738   -0.794804    0.195926
  H      0.345587   -0.722030    1.273297
  C     -0.818795   -0.734520   -0.531142
  H     -0.637078   -0.794123   -1.618531
  C     -1.469762    0.640213   -0.254679
  H     -2.368060    0.751829   -0.881779
  O     -0.627006    1.685240   -0.682829
  O     -1.778919    0.723557    1.095724
  O     -1.613058   -1.803818   -0.100290
  O      1.215346   -2.006798    0.010264
  O      2.607922    0.443138    0.440697
  H      1.176914    2.543163   -0.449319
  H      0.509451    1.837706    1.048584
  H     -2.309705    1.515560    1.272421
  H     -2.493032   -1.753379   -0.500402
  H      1.166894   -2.277864   -0.917820
  H      2.921210   -0.467185    0.567318

 Total Charge           Charge          ....    0
 Multiplicity           Mult            ....    1
 Number of Electrons    NEL             ....   80
 Basis Dimension        Dim             ....  160

ORBITAL ENERGIES
----------------

  NO   OCC          E(Eh)            E(eV)
   0   2.0000     -18.769590      -510.7465
   1   2.0000     -18.769374      -510.7406
   2   2.0000     -18.756716      -510.3962
   3   2.0000     -18.754603      -510.3387
   4   2.0000     -18.742483      -510.0089
   5   2.0000      -9.991295      -271.8770
   6   2.0000      -9.948189      -270.7040
   7   2.0000      -9.938870      -270.4504
   8   2.0000      -9.935750      -270.3655
   9   2.0000      -9.929244      -270.1885
  10   2.0000      -0.984650       -26.7937
  11   2.0000      -0.944762       -25.7083
  12   2.0000      -0.930559       -25.3218
  13   2.0000      -0.915342       -24.9077
  14   2.0000      -0.911139       -24.7934
  15   2.0000      -0.700415       -19.0593
  16   2.0000      -0.679902       -18.5011
  17   2.0000      -0.586404       -15.9569
  18   2.0000      -0.574811       -15.6414
  19   2.0000      -0.540793       -14.7157
  20   2.0000      -0.497468       -13.5368
  21   2.0000      -0.488146       -13.2831
  22   2.0000      -0.471679       -12.8350
  23   2.0000      -0.440138       -11.9768
  24   2.0000      -0.429862       -11.6971
  25   2.0000      -0.413449       -11.2505
  26   2.0000      -0.411298       -11.1920
  27   2.0000      -0.373656       -10.1677
  28   2.0000      -0.363751        -9.8982
  29   2.0000      -0.349851        -9.5199
  30   2.0000      -0.327945        -8.9238
  31   2.0000      -0.318738        -8.6733
  32   2.0000      -0.298896        -8.1334
  33   2.0000      -0.284461        -7.7406
  34   2.0000      -0.258708        -7.0398
  35   2.0000      -0.256243        -6.9727
  36   2.0000      -0.238827        -6.4988
  37   2.0000      -0.234042        -6.3686
  38   2.0000      -0.215375        -5.8607
  39   2.0000      -0.207104        -5.6356
  40   0.0000       0.007538         0.2051
  41   0.0000       0.023101         0.6286
  42   0.0000       0.037559         1.0220
  43   0.0000       0.046652         1.2695
  44   0.0000       0.068491         1.8637

MULLIKEN ATOMIC CHARGES
-----------------------
   0 C :    0.098441
   1 C :    0.010817
   2 H :    0.038862
   3 C :    0.029982
   4 H :    0.087591
   5 C :    0.066373
   6 H :    0.047618
   7 C :    0.112346
   8 H :    0.053628
   9 O :   -0.316478
  10 O :   -0.381571
  11 O :   -0.394691
  12 O :   -0.410933
  13 O :   -0.419928
  14 H :    0.099803
  15 H :    0.066832
  16 H :    0.309497
  17 H :    0.299222
  18 H :    0.299672
  19 H :    0.302919
Sum of atomic charges:    0.0000000

LOEWDIN ATOMIC CHARGES
----------------------
   0 C :   -0.117532
   1 C :   -0.083765
   2 H :    0.091119
   3 C :   -0.078267
   4 H :    0.126841
   5 C :   -0.090342
   6 H :    0.095846
   7 C :   -0.013282
   8 H :    0.090334
   9 O :   -0.159970
  10 O :   -0.296674
  11 O :   -0.308071
  12 O :   -0.306823
  13 O :   -0.324673
  14 H :    0.120512
  15 H :    0.105931
  16 H :    0.293301
  17 H :    0.286637
  18 H :    0.286198
  19 H :    0.282681

  Mayer bond orders larger than 0.100000
B(  0-C ,  1-C ) :   1.0568 B(  0-C ,  9-O ) :   0.9963 B(  0-C , 14-H ) :   0.9237
B(  0-C , 15-H ) :   0.8892 B(  1-C ,  2-H ) :   0.8681 B(  1-C ,  3-C ) :   1.0142
B(  1-C , 13-O ) :   1.0906 B(  3-C ,  4-H ) :   0.8740 B(  3-C ,  5-C ) :   0.9983
B(  3-C , 12-O ) :   1.0495 B(  5-C ,  6-H ) :   0.8750 B(  5-C ,  7-C ) :   0.9733
B(  5-C , 11-O ) :   1.1014 B(  7-C ,  8-H ) :   0.9010 B(  7-C ,  9-O ) :   1.0625
B(  7-C , 10-O ) :   1.1263 B( 10-O , 16-H ) :   0.8398 B( 11-O , 17-H ) :   0.8474
B( 12-O , 18-H ) :   0.8476 B( 13-O , 19-H ) :   0.8300

Dispersion correction           -0.019160382
FINAL SINGLE POINT ENERGY      -571.413431745416

DIPOLE MOMENT
-------------

Method             : SCF
Type of density    : Electron Density
Multiplicity       :   1
Irrep              :   0
Energy             :  -571.5211321724050322 Eh
Relativity type    :
Basis              : AO
                                X                 Y                 Z
Electronic contribution:     -0.813403631      -0.738142897       0.660323167
Nuclear contribution   :     -0.089769675       0.843432276      -1.444967247
                        -----------------------------------------
Total Dipole Moment    :     -0.903173307       0.105289379      -0.784644080
                        -----------------------------------------
Magnitude (a.u.)       :      1.201030477
Magnitude (Debye)      :      3.052776865

Rotational constants in cm-1:             0.056551             0.044930             0.029057
Rotational constants in MHz :          1695.363061          1346.954948           871.115621

                             ****ORCA TERMINATED NORMALLY****
TOTAL RUN TIME: 0 days 0 hours 0 minutes 11 seconds 510 msec
