                         Program Version 6.0.0  -   RELEASE  -
|  1> ! pbe def2-sv(p) def2/J RI DEFGRID1 loosescf d4 GCP(DFT/SV(P)) printgap
|  2> %output
|  3>     printlevel normal
|  4> end
|  5> * xyz 0 1
|  6> C 3.5447617526 -2.341170698 -1.1333348725
|  7> C 4.0386775613 -0.9133930819 -1.0114141306
|  8> O 3.3689129361 -0.1977815326 0.0356139526
|  9> P 1.8427884603 0.2718294837 -0.0226035517
| 10> S 1.2260903975 0.5723687501 -1.862021041
| 11> O 1.8680642955 1.5085017329 0.9631372024
| 12> C 2.0161235455 2.8647708577 0.5062045987
| 13> C 3.3927569463 3.1221748626 -0.0706379724
| 14> S 0.8747938712 -0.9940953191 1.3748168423
| 15> C 0.122332827 -2.312584532 0.3749702201
| 16> S -1.050602325 -1.7510837547 -0.9032136798
| 17> P -2.0624553515 -0.2134764106 0.1196575643
| 18> S -1.3334289708 1.5965004786 0.3992306436
| 19> O -2.4552223665 -1.0203617342 1.4210287751
| 20> C -2.9866254562 -0.3803127808 2.6044971728
| 21> C -1.8910993013 -0.1537163511 3.6272066215
| 22> O -3.4502326855 -0.1495748992 -0.6602088619
| 23> C -3.6700001186 0.7258260712 -1.7773295166
| 24> C -2.8425838778 0.3192022822 -2.9798853323
| 25> H 4.1798611305 -2.884186202 -1.8259979479
| 26> H 3.5690377853 -2.8312706985 -0.1629257277
| 27> H 2.5264734952 -2.3421158812 -1.5217033419
| 28> H 3.8886472009 -0.3771902637 -1.9538693547
| 29> H 5.089724278 -0.8734392256 -0.7224293356
| 30> H 1.2331013473 3.0676207398 -0.2324945899
| 31> H 1.8297152042 3.4616575079 1.400287039
| 32> H 4.1574752971 2.8350127117 0.6464486464
| 33> H 3.5266301497 2.5420905202 -0.9831342887
| 34> H 3.4911952899 4.1773337878 -0.3052969447
| 35> H -0.4101458234 -2.9338846364 1.0920651523
| 36> H 0.8820349124 -2.8889149359 -0.1480496277
| 37> H -3.4598686952 0.5640419916 2.3220409579
| 38> H -3.7425487821 -1.0753949911 2.9728085273
| 39> H -1.1576906523 0.5521433738 3.2423515207
| 40> H -2.3280329109 0.2500463072 4.5347481086
| 41> H -1.3851752764 -1.088506846 3.8513848007
| 42> H -4.7395672432 0.6402644812 -1.9730686858
| 43> H -3.4261295976 1.7485768233 -1.4702029623
| 44> H -1.7805531654 0.4492398748 -2.7648609533
| 45> H -3.0206849098 -0.7244970835 -3.22665021
| 46> H -3.1037223045 0.9428307604 -3.8287092424
| 47> *
| 48>
| 49>                          ****END OF INPUT****

CARTESIAN COORDINATES (ANGSTROEM)
---------------------------------
  C      3.544762   -2.341171   -1.133335
  C      4.038678   -0.913393   -1.011414
  O      3.368913   -0.197782    0.035614
  P      1.842788    0.271829   -0.022604
  S      1.226090    0.572369   -1.862021
  O      1.868064    1.508502    0.963137
  C      2.016124    2.864771    0.506205
  C      3.392757    3.122175   -0.070638
  S      0.874794   -0.994095    1.374817
  C      0.122333   -2.312585    0.374970
  S     -1.050602   -1.751084   -0.903214
  P     -2.062455   -0.213476    0.119658
  S     -1.333429    1.596500    0.399231
  O     -2.455222   -1.020362    1.421029
  C     -2.986625   -0.380313    2.604497
  C     -1.891099   -0.153716    3.627207
  O     -3.450233   -0.149575   -0.660209
  C     -3.670000    0.725826   -1.777330
  C     -2.842584    0.319202   -2.979885
  H      4.179861   -2.884186   -1.825998
  H      3.569038   -2.831271   -0.162926
  H      2.526473   -2.342116   -1.521703
  H      3.888647   -0.377190   -1.953869
  H      5.089724   -0.873439   -0.722429
  H      1.233101    3.067621   -0.232495
  H      1.829715    3.461658    1.400287
  H      4.157475    2.835013    0.646449
  H      3.526630    2.542091   -0.983134
  H      3.491195    4.177334   -0.305297
  H     -0.410146   -2.933885    1.092065
  H      0.882035   -2.888915   -0.148050
  H     -3.459869    0.564042    2.322041
  H     -3.742549   -1.075395    2.972809
  H     -1.157691    0.552143    3.242352
  H     -2.328033    0.250046    4.534748
  H     -1.385175   -1.088507    3.851385
  H     -4.739567    0.640264   -1.973069
  H     -3.426130    1.748577   -1.470203
  H     -1.780553    0.449240   -2.764861
  H     -3.020685   -0.724497   -3.226650
  H     -3.103722    0.942831   -3.828709

 Total Charge           Charge          ....    0
 Multiplicity           Mult            ....    1
 Number of Electrons    NEL             ....  202
 Basis Dimension        Dim             ....  334

ORBITAL ENERGIES
----------------

  NO   OCC          E(Eh)            E(eV)
   0   2.0000     -88.040661     -2395.7082
   1   2.0000     -88.036742     -2395.6015
   2   2.0000     -87.984432     -2394.1781
   3   2.0000     -87.977531     -2393.9903
   4   2.0000     -76.422721     -2079.5680
   5   2.0000     -76.420694     -2079.5128
   6   2.0000     -18.785881      -511.1898
   7   2.0000     -18.782981      -511.1109
   8   2.0000     -18.782781      -511.1055
   9   2.0000     -18.781864      -511.0805
  10   2.0000      -9.960927      -271.0506
  11   2.0000      -9.949701      -270.7451
  12   2.0000      -9.948875      -270.7226
  13   2.0000      -9.944878      -270.6139
  14   2.0000      -9.943671      -270.5810
  15   2.0000      -9.887935      -269.0644
  16   2.0000      -9.878213      -268.7998
  17   2.0000      -9.876701      -268.7587
  18   2.0000      -9.875980      -268.7391
  19   2.0000      -7.685407      -209.1306
  20   2.0000      -7.682084      -209.0401
  21   2.0000      -7.629018      -207.5961
  22   2.0000      -7.622114      -207.4083
  23   2.0000      -6.419685      -174.6885
  24   2.0000      -6.417919      -174.6404
  25   2.0000      -5.713457      -155.4711
  26   2.0000      -5.710349      -155.3865
  27   2.0000      -5.710071      -155.3789
  28   2.0000      -5.706643      -155.2856
  29   2.0000      -5.701982      -155.1588
  30   2.0000      -5.698514      -155.0644
  31   2.0000      -5.657957      -153.9608
  32   2.0000      -5.651016      -153.7720
  33   2.0000      -5.650021      -153.7449
  34   2.0000      -5.648821      -153.7122
  35   2.0000      -5.642830      -153.5492
  36   2.0000      -5.642239      -153.5331
  37   2.0000      -4.642007      -126.3154
  38   2.0000      -4.641461      -126.3006
  39   2.0000      -4.640639      -126.2782
  40   2.0000      -4.640470      -126.2736
  41   2.0000      -4.639767      -126.2545
  42   2.0000      -4.638227      -126.2126
  43   2.0000      -0.979858       -26.6633
  44   2.0000      -0.978852       -26.6359
  45   2.0000      -0.939057       -25.5530
  46   2.0000      -0.937731       -25.5170
  47   2.0000      -0.760555       -20.6958
  48   2.0000      -0.715993       -19.4832
  49   2.0000      -0.704224       -19.1629
  50   2.0000      -0.684083       -18.6148
  51   2.0000      -0.679210       -18.4822
  52   2.0000      -0.665593       -18.1117
  53   2.0000      -0.651346       -17.7240
  54   2.0000      -0.634848       -17.2751
  55   2.0000      -0.598877       -16.2963
  56   2.0000      -0.586226       -15.9520
  57   2.0000      -0.571073       -15.5397
  58   2.0000      -0.568576       -15.4717
  59   2.0000      -0.559399       -15.2220
  60   2.0000      -0.495199       -13.4751
  61   2.0000      -0.488557       -13.2943
  62   2.0000      -0.468642       -12.7524
  63   2.0000      -0.462757       -12.5923
  64   2.0000      -0.454683       -12.3726
  65   2.0000      -0.436188       -11.8693
  66   2.0000      -0.434687       -11.8284
  67   2.0000      -0.431007       -11.7283
  68   2.0000      -0.423545       -11.5252
  69   2.0000      -0.413041       -11.2394
  70   2.0000      -0.406444       -11.0599
  71   2.0000      -0.394408       -10.7324
  72   2.0000      -0.388196       -10.5633
  73   2.0000      -0.384961       -10.4753
  74   2.0000      -0.377518       -10.2728
  75   2.0000      -0.371203       -10.1009
  76   2.0000      -0.369873       -10.0648
  77   2.0000      -0.356298        -9.6954
  78   2.0000      -0.350835        -9.5467
  79   2.0000      -0.346543        -9.4299
  80   2.0000      -0.344580        -9.3765
  81   2.0000      -0.339613        -9.2413
  82   2.0000      -0.338260        -9.2045
  83   2.0000      -0.335686        -9.1345
  84   2.0000      -0.326409        -8.8820
  85   2.0000      -0.316428        -8.6105
  86   2.0000      -0.299327        -8.1451
  87   2.0000      -0.291865        -7.9421
  88   2.0000      -0.289544        -7.8789
  89   2.0000      -0.280223        -7.6253
  90   2.0000      -0.279014        -7.5924
  91   2.0000      -0.271937        -7.3998
  92   2.0000      -0.266784        -7.2596
  93   2.0000      -0.260176        -7.0798
  94   2.0000      -0.254799        -6.9334
  95   2.0000      -0.240333        -6.5398
  96   2.0000      -0.215044        -5.8517
  97   2.0000      -0.212420        -5.7802
  98   2.0000      -0.188016        -5.1162
  99   2.0000      -0.186485        -5.0745
 100   2.0000      -0.181210        -4.9310
 101   0.0000      -0.052553        -1.4300
 102   0.0000      -0.032169        -0.8754
 103   0.0000      -0.013655        -0.3716
 104   0.0000       0.006306         0.1716
 105   0.0000       0.022022         0.5993

MULLIKEN ATOMIC CHARGES
-----------------------
   0 C :   -0.329341
   1 C :    0.000973
   2 O :   -0.372374
   3 P :    0.628424
   4 S :   -0.302895
   5 O :   -0.373384
   6 C :   -0.001833
   7 C :   -0.304681
   8 S :   -0.096344
   9 C :   -0.325489
  10 S :   -0.092552
  11 P :    0.613001
  12 S :   -0.323437
  13 O :   -0.375100
  14 C :   -0.001061
  15 C :   -0.292040
  16 O :   -0.371307
  17 C :    0.001093
  18 C :   -0.341534
  19 H :    0.113494
  20 H :    0.120866
  21 H :    0.126508
  22 H :    0.109662
  23 H :    0.103229
  24 H :    0.120856
  25 H :    0.104146
  26 H :    0.114729
  27 H :    0.120902
  28 H :    0.109633
  29 H :    0.187253
  30 H :    0.182256
  31 H :    0.103508
  32 H :    0.104326
  33 H :    0.137357
  34 H :    0.105243
  35 H :    0.106577
  36 H :    0.101153
  37 H :    0.108458
  38 H :    0.149622
  39 H :    0.117896
  40 H :    0.112209
Sum of atomic charges:   -0.0000000

LOEWDIN ATOMIC CHARGES
----------------------
   0 C :   -0.368762
   1 C :   -0.120723
   2 O :   -0.251729
   3 P :    0.567258
   4 S :   -0.299979
   5 O :   -0.238684
   6 C :   -0.114753
   7 C :   -0.365606
   8 S :    0.101500
   9 C :   -0.468632
  10 S :    0.091208
  11 P :    0.565890
  12 S :   -0.311332
  13 O :   -0.246412
  14 C :   -0.112093
  15 C :   -0.363122
  16 O :   -0.248028
  17 C :   -0.122415
  18 C :   -0.373913
  19 H :    0.132037
  20 H :    0.125117
  21 H :    0.118875
  22 H :    0.107633
  23 H :    0.118525
  24 H :    0.111777
  25 H :    0.119435
  26 H :    0.125464
  27 H :    0.120812
  28 H :    0.129341
  29 H :    0.136677
  30 H :    0.128788
  31 H :    0.110307
  32 H :    0.117540
  33 H :    0.126510
  34 H :    0.127131
  35 H :    0.120400
  36 H :    0.116783
  37 H :    0.107925
  38 H :    0.124653
  39 H :    0.123392
  40 H :    0.131204

  Mayer bond orders larger than 0.100000
B(  0-C ,  1-C ) :   1.1615 B(  0-C , 19-H ) :   0.9362 B(  0-C , 20-H ) :   0.9437
B(  0-C , 21-H ) :   0.9219 B(  1-C ,  2-O ) :   0.9248 B(  1-C , 22-H ) :   0.9119
B(  1-C , 23-H ) :   0.9330 B(  2-O ,  3-P ) :   1.0840 B(  3-P ,  4-S ) :   1.6047
B(  3-P ,  5-O ) :   1.1273 B(  3-P ,  8-S ) :   0.9302 B(  4-S ,  8-S ) :   0.1192
B(  5-O ,  6-C ) :   0.9043 B(  6-C ,  7-C ) :   1.1618 B(  6-C , 24-H ) :   0.9162
B(  6-C , 25-H ) :   0.9358 B(  7-C , 26-H ) :   0.9455 B(  7-C , 27-H ) :   0.9358
B(  7-C , 28-H ) :   0.9392 B(  8-S ,  9-C ) :   1.0141 B(  9-C , 10-S ) :   0.9944
B(  9-C , 29-H ) :   0.9074 B(  9-C , 30-H ) :   0.8949 B( 10-S , 11-P ) :   0.9701
B( 10-S , 12-S ) :   0.1163 B( 11-P , 12-S ) :   1.5904 B( 11-P , 13-O ) :   1.1175
B( 11-P , 16-O ) :   1.1051 B( 13-O , 14-C ) :   0.8907 B( 14-C , 15-C ) :   1.1725
B( 14-C , 31-H ) :   0.9138 B( 14-C , 32-H ) :   0.9344 B( 15-C , 33-H ) :   0.9336
B( 15-C , 34-H ) :   0.9395 B( 15-C , 35-H ) :   0.9461 B( 16-O , 17-C ) :   0.9127
B( 17-C , 18-C ) :   1.1629 B( 17-C , 36-H ) :   0.9326 B( 17-C , 37-H ) :   0.9110
B( 18-C , 38-H ) :   0.9263 B( 18-C , 39-H ) :   0.9437 B( 18-C , 40-H ) :   0.9381

Dispersion correction           -0.070086576
FINAL SINGLE POINT ENERGY     -2929.510985052852

DIPOLE MOMENT
-------------

Method             : SCF
Type of density    : Electron Density
Multiplicity       :   1
Irrep              :   0
Energy             : -2929.6246857570431530 Eh
Relativity type    :
Basis              : AO
                                X                 Y                 Z
Electronic contribution:     -5.423979790      -3.426523097       1.234920372
Nuclear contribution   :      5.654519926       2.979528357      -1.023856715
                        -----------------------------------------
Total Dipole Moment    :      0.230540136      -0.446994740       0.211063657
                        -----------------------------------------
Magnitude (a.u.)       :      0.545436448
Magnitude (Debye)      :      1.386389274

Rotational constants in cm-1:             0.011139             0.005926             0.005836
Rotational constants in MHz :           333.946638           177.653890           174.968815

                             ****ORCA TERMINATED NORMALLY****
TOTAL RUN TIME: 0 days 0 hours 0 minutes 22 seconds 34 msec
