                         Program Version 6.0.0  -   RELEASE  -
|  1> ! pbe def2-sv(p) def2/J RI DEFGRID1 loosescf d4 GCP(DFT/SV(P)) printgap
|  2> %output
|  3>     printlevel normal
|  4> end
|  5> * xyz 0 1
|  6> C 4.7529104959 1.2851616371 -1.1710252923
|  7> C 4.7246713257 0.9686151706 0.3099603267
|  8> O 3.8080474604 -0.0948100901 0.6271712593
|  9> P 2.2359569212 0.0457187765 0.4460449425
| 10> S 1.4617153118 1.7626851122 0.9689916071
| 11> O 1.6708012421 -1.1378554038 1.3223357743
| 12> C 2.0613141292 -2.5232856002 1.1650056138
| 13> C 3.1635730877 -2.8852947316 2.1385682744
| 14> S 1.8990754809 -0.5494057726 -1.5783265399
| 15> C 0.170210353 -0.0682253029 -1.6400060152
| 16> S -0.8920198662 -1.3198367587 -0.8128270807
| 17> P -2.5344951934 -0.068740693 -0.4040338597
| 18> S -4.1915099707 -0.9130600996 0.2077974784
| 19> O -2.598827291 0.6754187922 -1.8053523359
| 20> C -3.7884791534 1.3675576487 -2.2416797437
| 21> C -4.0777550417 2.5894677671 -1.3957644884
| 22> O -1.9685496581 1.0808519341 0.5497726416
| 23> C -2.1414623443 1.0422465994 1.9735849575
| 24> C -1.444011326 -0.1432879656 2.6083691353
| 25> H 5.5553961216 1.9881418545 -1.3705436104
| 26> H 4.9137507921 0.3788853912 -1.7493964957
| 27> H 3.8087586761 1.7330913205 -1.4762733398
| 28> H 4.4391555615 1.8527329987 0.888080202
| 29> H 5.6876826007 0.5933627167 0.659090483
| 30> H 1.1471370309 -3.0865997954 1.3624364034
| 31> H 2.3744445027 -2.6886892057 0.1304705222
| 32> H 2.8477503955 -2.671440448 3.1559660589
| 33> H 3.3815162872 -3.9446972889 2.0466540601
| 34> H 4.0617549792 -2.3136836234 1.9210898187
| 35> H -0.1109849501 -0.0080173392 -2.6874871234
| 36> H 0.0423778883 0.8886813907 -1.130259735
| 37> H -3.5677894379 1.6331218103 -3.2763242819
| 38> H -4.6275013248 0.6657151217 -2.2061216851
| 39> H -3.2017785792 3.2314347095 -1.3468525282
| 40> H -4.906519631 3.1395331637 -1.8303992619
| 41> H -4.3473901982 2.2853208694 -0.385022638
| 42> H -1.7155856047 1.9870502027 2.3150315972
| 43> H -3.2143862196 1.0092930037 2.1879399836
| 44> H -1.5813896934 -0.1077154479 3.6841620369
| 45> H -1.8701166453 -1.071369326 2.2258219619
| 46> H -0.3797249807 -0.1253474034 2.3839659154
| 47> *
| 48>
| 49>                          ****END OF INPUT****

CARTESIAN COORDINATES (ANGSTROEM)
---------------------------------
  C      4.752910    1.285162   -1.171025
  C      4.724671    0.968615    0.309960
  O      3.808047   -0.094810    0.627171
  P      2.235957    0.045719    0.446045
  S      1.461715    1.762685    0.968992
  O      1.670801   -1.137855    1.322336
  C      2.061314   -2.523286    1.165006
  C      3.163573   -2.885295    2.138568
  S      1.899075   -0.549406   -1.578327
  C      0.170210   -0.068225   -1.640006
  S     -0.892020   -1.319837   -0.812827
  P     -2.534495   -0.068741   -0.404034
  S     -4.191510   -0.913060    0.207797
  O     -2.598827    0.675419   -1.805352
  C     -3.788479    1.367558   -2.241680
  C     -4.077755    2.589468   -1.395764
  O     -1.968550    1.080852    0.549773
  C     -2.141462    1.042247    1.973585
  C     -1.444011   -0.143288    2.608369
  H      5.555396    1.988142   -1.370544
  H      4.913751    0.378885   -1.749396
  H      3.808759    1.733091   -1.476273
  H      4.439156    1.852733    0.888080
  H      5.687683    0.593363    0.659090
  H      1.147137   -3.086600    1.362436
  H      2.374445   -2.688689    0.130471
  H      2.847750   -2.671440    3.155966
  H      3.381516   -3.944697    2.046654
  H      4.061755   -2.313684    1.921090
  H     -0.110985   -0.008017   -2.687487
  H      0.042378    0.888681   -1.130260
  H     -3.567789    1.633122   -3.276324
  H     -4.627501    0.665715   -2.206122
  H     -3.201779    3.231435   -1.346853
  H     -4.906520    3.139533   -1.830399
  H     -4.347390    2.285321   -0.385023
  H     -1.715586    1.987050    2.315032
  H     -3.214386    1.009293    2.187940
  H     -1.581390   -0.107715    3.684162
  H     -1.870117   -1.071369    2.225822
  H     -0.379725   -0.125347    2.383966

 Total Charge           Charge          ....    0
 Multiplicity           Mult            ....    1
 Number of Electrons    NEL             ....  202
 Basis Dimension        Dim             ....  334

ORBITAL ENERGIES
----------------

  NO   OCC          E(Eh)            E(eV)
   0   2.0000     -88.052690     -2396.0355
   1   2.0000     -88.036090     -2395.5838
   2   2.0000     -87.993444     -2394.4233
   3   2.0000     -87.983952     -2394.1650
   4   2.0000     -76.433510     -2079.8615
   5   2.0000     -76.421011     -2079.5214
   6   2.0000     -18.804194      -511.6881
   7   2.0000     -18.796969      -511.4915
   8   2.0000     -18.787943      -511.2459
   9   2.0000     -18.781600      -511.0733
  10   2.0000      -9.961674      -271.0709
  11   2.0000      -9.957435      -270.9556
  12   2.0000      -9.955363      -270.8992
  13   2.0000      -9.950751      -270.7737
  14   2.0000      -9.939096      -270.4566
  15   2.0000      -9.891775      -269.1689
  16   2.0000      -9.888746      -269.0864
  17   2.0000      -9.881822      -268.8980
  18   2.0000      -9.865211      -268.4460
  19   2.0000      -7.697508      -209.4598
  20   2.0000      -7.681537      -209.0252
  21   2.0000      -7.638347      -207.8500
  22   2.0000      -7.629085      -207.5980
  23   2.0000      -6.431005      -174.9965
  24   2.0000      -6.418755      -174.6632
  25   2.0000      -5.725242      -155.7917
  26   2.0000      -5.721990      -155.7033
  27   2.0000      -5.714697      -155.5048
  28   2.0000      -5.709866      -155.3734
  29   2.0000      -5.706046      -155.2694
  30   2.0000      -5.698018      -155.0510
  31   2.0000      -5.667295      -154.2149
  32   2.0000      -5.658833      -153.9847
  33   2.0000      -5.658588      -153.9780
  34   2.0000      -5.658009      -153.9622
  35   2.0000      -5.649904      -153.7417
  36   2.0000      -5.649051      -153.7185
  37   2.0000      -4.653900      -126.6391
  38   2.0000      -4.652716      -126.6068
  39   2.0000      -4.651216      -126.5660
  40   2.0000      -4.641179      -126.2929
  41   2.0000      -4.640608      -126.2774
  42   2.0000      -4.639284      -126.2413
  43   2.0000      -0.996099       -27.1052
  44   2.0000      -0.980180       -26.6721
  45   2.0000      -0.953473       -25.9453
  46   2.0000      -0.938624       -25.5412
  47   2.0000      -0.765053       -20.8181
  48   2.0000      -0.723807       -19.6958
  49   2.0000      -0.709079       -19.2950
  50   2.0000      -0.696618       -18.9559
  51   2.0000      -0.677682       -18.4407
  52   2.0000      -0.672848       -18.3091
  53   2.0000      -0.655142       -17.8273
  54   2.0000      -0.639566       -17.4035
  55   2.0000      -0.602350       -16.3908
  56   2.0000      -0.589764       -16.0483
  57   2.0000      -0.580013       -15.7830
  58   2.0000      -0.565384       -15.3849
  59   2.0000      -0.561079       -15.2677
  60   2.0000      -0.505382       -13.7521
  61   2.0000      -0.487730       -13.2718
  62   2.0000      -0.481479       -13.1017
  63   2.0000      -0.462467       -12.5844
  64   2.0000      -0.456801       -12.4302
  65   2.0000      -0.452188       -12.3047
  66   2.0000      -0.444146       -12.0858
  67   2.0000      -0.434350       -11.8193
  68   2.0000      -0.428633       -11.6637
  69   2.0000      -0.420903       -11.4534
  70   2.0000      -0.413453       -11.2506
  71   2.0000      -0.396888       -10.7999
  72   2.0000      -0.391466       -10.6523
  73   2.0000      -0.387905       -10.5554
  74   2.0000      -0.381898       -10.3920
  75   2.0000      -0.377123       -10.2620
  76   2.0000      -0.369190       -10.0462
  77   2.0000      -0.359099        -9.7716
  78   2.0000      -0.357112        -9.7175
  79   2.0000      -0.353250        -9.6124
  80   2.0000      -0.347272        -9.4497
  81   2.0000      -0.344572        -9.3763
  82   2.0000      -0.339064        -9.2264
  83   2.0000      -0.331637        -9.0243
  84   2.0000      -0.322630        -8.7792
  85   2.0000      -0.321104        -8.7377
  86   2.0000      -0.311533        -8.4772
  87   2.0000      -0.302737        -8.2379
  88   2.0000      -0.297322        -8.0905
  89   2.0000      -0.287941        -7.8353
  90   2.0000      -0.282332        -7.6826
  91   2.0000      -0.277475        -7.5505
  92   2.0000      -0.270676        -7.3655
  93   2.0000      -0.267622        -7.2824
  94   2.0000      -0.255947        -6.9647
  95   2.0000      -0.237568        -6.4646
  96   2.0000      -0.215424        -5.8620
  97   2.0000      -0.212195        -5.7741
  98   2.0000      -0.209341        -5.6965
  99   2.0000      -0.205074        -5.5803
 100   2.0000      -0.197043        -5.3618
 101   0.0000      -0.043553        -1.1851
 102   0.0000      -0.024449        -0.6653
 103   0.0000      -0.022387        -0.6092
 104   0.0000       0.004720         0.1284
 105   0.0000       0.015159         0.4125

MULLIKEN ATOMIC CHARGES
-----------------------
   0 C :   -0.323750
   1 C :   -0.001291
   2 O :   -0.378391
   3 P :    0.608711
   4 S :   -0.303945
   5 O :   -0.345407
   6 C :   -0.014076
   7 C :   -0.289021
   8 S :   -0.094554
   9 C :   -0.359635
  10 S :   -0.082850
  11 P :    0.611105
  12 S :   -0.321002
  13 O :   -0.388347
  14 C :   -0.003099
  15 C :   -0.309675
  16 O :   -0.373401
  17 C :    0.007553
  18 C :   -0.339572
  19 H :    0.118124
  20 H :    0.119680
  21 H :    0.131759
  22 H :    0.115446
  23 H :    0.107923
  24 H :    0.116705
  25 H :    0.102689
  26 H :    0.120676
  27 H :    0.111641
  28 H :    0.120069
  29 H :    0.187544
  30 H :    0.205931
  31 H :    0.103031
  32 H :    0.113411
  33 H :    0.119309
  34 H :    0.111511
  35 H :    0.126231
  36 H :    0.103287
  37 H :    0.103851
  38 H :    0.102447
  39 H :    0.112558
  40 H :    0.146823
Sum of atomic charges:    0.0000000

LOEWDIN ATOMIC CHARGES
----------------------
   0 C :   -0.371838
   1 C :   -0.116067
   2 O :   -0.244638
   3 P :    0.578463
   4 S :   -0.295087
   5 O :   -0.225778
   6 C :   -0.117680
   7 C :   -0.359345
   8 S :    0.088922
   9 C :   -0.477796
  10 S :    0.072382
  11 P :    0.572690
  12 S :   -0.320799
  13 O :   -0.249208
  14 C :   -0.115418
  15 C :   -0.365748
  16 O :   -0.242240
  17 C :   -0.119338
  18 C :   -0.378182
  19 H :    0.133778
  20 H :    0.124066
  21 H :    0.122727
  22 H :    0.114533
  23 H :    0.119930
  24 H :    0.122691
  25 H :    0.102750
  26 H :    0.129119
  27 H :    0.130657
  28 H :    0.125222
  29 H :    0.135838
  30 H :    0.124736
  31 H :    0.117872
  32 H :    0.112439
  33 H :    0.127674
  34 H :    0.130120
  35 H :    0.124115
  36 H :    0.118238
  37 H :    0.105847
  38 H :    0.127444
  39 H :    0.114705
  40 H :    0.122205

  Mayer bond orders larger than 0.100000
B(  0-C ,  1-C ) :   1.1661 B(  0-C , 19-H ) :   0.9368 B(  0-C , 20-H ) :   0.9433
B(  0-C , 21-H ) :   0.9345 B(  1-C ,  2-O ) :   0.9017 B(  1-C , 22-H ) :   0.9188
B(  1-C , 23-H ) :   0.9336 B(  2-O ,  3-P ) :   1.0907 B(  3-P ,  4-S ) :   1.6360
B(  3-P ,  5-O ) :   1.1364 B(  3-P ,  8-S ) :   0.9383 B(  4-S ,  8-S ) :   0.1072
B(  5-O ,  6-C ) :   0.8874 B(  6-C ,  7-C ) :   1.1636 B(  6-C , 24-H ) :   0.9325
B(  6-C , 25-H ) :   0.9104 B(  7-C , 26-H ) :   0.9474 B(  7-C , 27-H ) :   0.9398
B(  7-C , 28-H ) :   0.9420 B(  8-S ,  9-C ) :   1.0152 B(  9-C , 10-S ) :   0.9580
B(  9-C , 29-H ) :   0.9056 B(  9-C , 30-H ) :   0.8568 B( 10-S , 11-P ) :   0.9801
B( 11-P , 12-S ) :   1.6255 B( 11-P , 13-O ) :   1.0846 B( 11-P , 16-O ) :   1.0872
B( 13-O , 14-C ) :   0.9085 B( 14-C , 15-C ) :   1.1635 B( 14-C , 31-H ) :   0.9356
B( 14-C , 32-H ) :   0.9181 B( 15-C , 33-H ) :   0.9455 B( 15-C , 34-H ) :   0.9378
B( 15-C , 35-H ) :   0.9357 B( 16-O , 17-C ) :   0.9040 B( 17-C , 18-C ) :   1.1689
B( 17-C , 36-H ) :   0.9290 B( 17-C , 37-H ) :   0.9192 B( 18-C , 38-H ) :   0.9374
B( 18-C , 39-H ) :   0.9324 B( 18-C , 40-H ) :   0.9225

Dispersion correction           -0.065539147
FINAL SINGLE POINT ENERGY     -2929.520541428163

DIPOLE MOMENT
-------------

Method             : SCF
Type of density    : Electron Density
Multiplicity       :   1
Irrep              :   0
Energy             : -2929.6424898766895240 Eh
Relativity type    :
Basis              : AO
                                X                 Y                 Z
Electronic contribution:     -7.006541174      -4.844252552      -5.579109146
Nuclear contribution   :      8.526505054       5.094701063       5.169740425
                        -----------------------------------------
Total Dipole Moment    :      1.519963880       0.250448511      -0.409368721
                        -----------------------------------------
Magnitude (a.u.)       :      1.593925156
Magnitude (Debye)      :      4.051435775

Rotational constants in cm-1:             0.013380             0.004720             0.004413
Rotational constants in MHz :           401.128446           141.492159           132.283484

                             ****ORCA TERMINATED NORMALLY****
TOTAL RUN TIME: 0 days 0 hours 0 minutes 21 seconds 543 msec
