                         Program Version 6.0.1  -  RELEASE   -
|  1> ! pbe def2-sv(p) def2/J RI DEFGRID1 loosescf d4 GCP(DFT/SV(P)) printgap
|  2> %output
|  3>     printlevel normal
|  4> end
|  5> * xyz 0 1
|  6> C 5.2173214856 -1.0346446343 -2.3168833527
|  7> C 4.616613735 -0.7875599658 -0.9470993291
|  8> O 3.211200216 -1.0991571876 -1.010267702
|  9> C 2.5479620645 -1.1816479971 0.1250583408
| 10> O 3.0471560979 -1.0396218561 1.2181074558
| 11> C 1.0804686369 -1.4970593337 -0.1076160925
| 12> C 0.4478734526 -0.4528287921 -1.0306495557
| 13> H 0.9704285707 -0.4428266646 -1.9906414911
| 14> C 0.5034600394 0.9249622264 -0.4045819351
| 15> O -0.498142757 1.5554946803 -0.1277255661
| 16> O 1.7279063745 1.3281046616 -0.2083882348
| 17> C 1.9382927743 2.5454389684 0.5431324857
| 18> C 1.9200832716 2.2476491595 2.0330278491
| 19> S -1.285613088 -0.8318680784 -1.415406822
| 20> P -2.3058643053 -0.1533102047 0.3414808468
| 21> S -1.4649545801 -0.0656574213 2.1116975168
| 22> O -3.2666303209 1.0484570231 -0.0935526942
| 23> C -3.0780237751 2.4469312168 0.1125662795
| 24> O -3.4010402076 -1.3085925089 0.4409843966
| 25> C -4.3028875513 -1.6478545543 -0.6250385265
| 26> H 6.2771804859 -0.8047367734 -2.2894246622
| 27> H 5.084559686 -2.0741777302 -2.6011830287
| 28> H 4.7331508246 -0.4040497166 -3.0561093703
| 29> H 4.715836691 0.2588166027 -0.6435018836
| 30> H 5.076649052 -1.4154441887 -0.177848314
| 31> H 0.574616219 -1.5199642536 0.8604919343
| 32> H 1.0007465141 -2.4764541759 -0.5814465071
| 33> H 2.9160249272 2.8986790555 0.216404507
| 34> H 1.1588277109 3.2625078513 0.2739174363
| 35> H 0.9357696884 1.8953794131 2.3384891663
| 36> H 2.6446660231 1.4710973051 2.2678066167
| 37> H 2.1616648608 3.1484296408 2.5865788808
| 38> H -2.5313081585 2.623612858 1.0386216783
| 39> H -4.0790023412 2.8691092365 0.1734950652
| 40> H -2.5277831912 2.8710643102 -0.7251371658
| 41> H -4.960059278 -0.806842003 -0.8381016903
| 42> H -4.8707359824 -2.4981385942 -0.2558916356
| 43> H -3.7399916639 -1.9200942717 -1.5182493677
| 44> *
| 45>
| 46>                          ****END OF INPUT****

CARTESIAN COORDINATES (ANGSTROEM)
---------------------------------
  C      5.217321   -1.034645   -2.316883
  C      4.616614   -0.787560   -0.947099
  O      3.211200   -1.099157   -1.010268
  C      2.547962   -1.181648    0.125058
  O      3.047156   -1.039622    1.218107
  C      1.080469   -1.497059   -0.107616
  C      0.447873   -0.452829   -1.030650
  H      0.970429   -0.442827   -1.990641
  C      0.503460    0.924962   -0.404582
  O     -0.498143    1.555495   -0.127726
  O      1.727906    1.328105   -0.208388
  C      1.938293    2.545439    0.543132
  C      1.920083    2.247649    2.033028
  S     -1.285613   -0.831868   -1.415407
  P     -2.305864   -0.153310    0.341481
  S     -1.464955   -0.065657    2.111698
  O     -3.266630    1.048457   -0.093553
  C     -3.078024    2.446931    0.112566
  O     -3.401040   -1.308593    0.440984
  C     -4.302888   -1.647855   -0.625039
  H      6.277180   -0.804737   -2.289425
  H      5.084560   -2.074178   -2.601183
  H      4.733151   -0.404050   -3.056109
  H      4.715837    0.258817   -0.643502
  H      5.076649   -1.415444   -0.177848
  H      0.574616   -1.519964    0.860492
  H      1.000747   -2.476454   -0.581447
  H      2.916025    2.898679    0.216405
  H      1.158828    3.262508    0.273917
  H      0.935770    1.895379    2.338489
  H      2.644666    1.471097    2.267807
  H      2.161665    3.148430    2.586579
  H     -2.531308    2.623613    1.038622
  H     -4.079002    2.869109    0.173495
  H     -2.527783    2.871064   -0.725137
  H     -4.960059   -0.806842   -0.838102
  H     -4.870736   -2.498139   -0.255892
  H     -3.739992   -1.920094   -1.518249

 Total Charge           Charge          ....    0
 Multiplicity           Mult            ....    1
 Number of Electrons    NEL             ....  174
 Basis Dimension        Dim             ....  316

ORBITAL ENERGIES
----------------

  NO   OCC          E(Eh)            E(eV)
   0   2.0000     -88.034146     -2395.5309
   1   2.0000     -87.970893     -2393.8097
   2   2.0000     -76.420051     -2079.4953
   3   2.0000     -18.827286      -512.3165
   4   2.0000     -18.805472      -511.7229
   5   2.0000     -18.782243      -511.0908
   6   2.0000     -18.773291      -510.8472
   7   2.0000     -18.762611      -510.5566
   8   2.0000     -18.738616      -509.9037
   9   2.0000     -10.032407      -272.9957
  10   2.0000     -10.010457      -272.3984
  11   2.0000      -9.958240      -270.9775
  12   2.0000      -9.954951      -270.8880
  13   2.0000      -9.953135      -270.8386
  14   2.0000      -9.939021      -270.4545
  15   2.0000      -9.935109      -270.3481
  16   2.0000      -9.907154      -269.5874
  17   2.0000      -9.894673      -269.2477
  18   2.0000      -9.880944      -268.8742
  19   2.0000      -7.679289      -208.9641
  20   2.0000      -7.616040      -207.2430
  21   2.0000      -6.415574      -174.5766
  22   2.0000      -5.707356      -155.3050
  23   2.0000      -5.703885      -155.2106
  24   2.0000      -5.695922      -154.9939
  25   2.0000      -5.645439      -153.6202
  26   2.0000      -5.636847      -153.3864
  27   2.0000      -5.635473      -153.3490
  28   2.0000      -4.638513      -126.2204
  29   2.0000      -4.637472      -126.1920
  30   2.0000      -4.636070      -126.1539
  31   2.0000      -1.036879       -28.2149
  32   2.0000      -1.013202       -27.5706
  33   2.0000      -0.972011       -26.4498
  34   2.0000      -0.942493       -25.6465
  35   2.0000      -0.926446       -25.2099
  36   2.0000      -0.915466       -24.9111
  37   2.0000      -0.769783       -20.9469
  38   2.0000      -0.715890       -19.4804
  39   2.0000      -0.711802       -19.3691
  40   2.0000      -0.688901       -18.7459
  41   2.0000      -0.657697       -17.8968
  42   2.0000      -0.629662       -17.1340
  43   2.0000      -0.622803       -16.9473
  44   2.0000      -0.607885       -16.5414
  45   2.0000      -0.589952       -16.0534
  46   2.0000      -0.568913       -15.4809
  47   2.0000      -0.516483       -14.0542
  48   2.0000      -0.511059       -13.9066
  49   2.0000      -0.506098       -13.7716
  50   2.0000      -0.488936       -13.3046
  51   2.0000      -0.469203       -12.7677
  52   2.0000      -0.461782       -12.5657
  53   2.0000      -0.455082       -12.3834
  54   2.0000      -0.444126       -12.0853
  55   2.0000      -0.436637       -11.8815
  56   2.0000      -0.421596       -11.4722
  57   2.0000      -0.420550       -11.4437
  58   2.0000      -0.414480       -11.2786
  59   2.0000      -0.406807       -11.0698
  60   2.0000      -0.401120       -10.9150
  61   2.0000      -0.398316       -10.8387
  62   2.0000      -0.388064       -10.5598
  63   2.0000      -0.381188       -10.3727
  64   2.0000      -0.375244       -10.2109
  65   2.0000      -0.366126        -9.9628
  66   2.0000      -0.362612        -9.8672
  67   2.0000      -0.355372        -9.6702
  68   2.0000      -0.348478        -9.4826
  69   2.0000      -0.344911        -9.3855
  70   2.0000      -0.336212        -9.1488
  71   2.0000      -0.330546        -8.9946
  72   2.0000      -0.323479        -8.8023
  73   2.0000      -0.312827        -8.5125
  74   2.0000      -0.304269        -8.2796
  75   2.0000      -0.302044        -8.2190
  76   2.0000      -0.292517        -7.9598
  77   2.0000      -0.288102        -7.8397
  78   2.0000      -0.281825        -7.6688
  79   2.0000      -0.263427        -7.1682
  80   2.0000      -0.260782        -7.0962
  81   2.0000      -0.252066        -6.8591
  82   2.0000      -0.247777        -6.7423
  83   2.0000      -0.225912        -6.1474
  84   2.0000      -0.208978        -5.6866
  85   2.0000      -0.191027        -5.1981
  86   2.0000      -0.182324        -4.9613
  87   0.0000      -0.048680        -1.3247
  88   0.0000      -0.040697        -1.1074
  89   0.0000      -0.022404        -0.6097
  90   0.0000       0.002550         0.0694
  91   0.0000       0.025104         0.6831

MULLIKEN ATOMIC CHARGES
-----------------------
   0 C :   -0.275503
   1 C :   -0.029022
   2 O :   -0.243380
   3 C :    0.104921
   4 O :   -0.195698
   5 C :   -0.039085
   6 C :   -0.315674
   7 H :    0.155719
   8 C :    0.220892
   9 O :   -0.192012
  10 O :   -0.218983
  11 C :   -0.013591
  12 C :   -0.326879
  13 S :   -0.111490
  14 P :    0.635486
  15 S :   -0.316162
  16 O :   -0.399288
  17 C :   -0.078222
  18 O :   -0.370705
  19 C :   -0.112999
  20 H :    0.112958
  21 H :    0.117114
  22 H :    0.113930
  23 H :    0.101255
  24 H :    0.112350
  25 H :    0.124825
  26 H :    0.120531
  27 H :    0.106013
  28 H :    0.110124
  29 H :    0.143938
  30 H :    0.137997
  31 H :    0.110079
  32 H :    0.115879
  33 H :    0.115872
  34 H :    0.111663
  35 H :    0.118509
  36 H :    0.128483
  37 H :    0.120153
Sum of atomic charges:   -0.0000000

LOEWDIN ATOMIC CHARGES
----------------------
   0 C :   -0.350811
   1 C :   -0.106548
   2 O :   -0.066724
   3 C :    0.021084
   4 O :   -0.158201
   5 C :   -0.248576
   6 C :   -0.266724
   7 H :    0.149819
   8 C :    0.030456
   9 O :   -0.150756
  10 O :   -0.027610
  11 C :   -0.104515
  12 C :   -0.363211
  13 S :    0.088696
  14 P :    0.586609
  15 S :   -0.316051
  16 O :   -0.254623
  17 C :   -0.206236
  18 O :   -0.255354
  19 C :   -0.214512
  20 H :    0.131377
  21 H :    0.127639
  22 H :    0.125811
  23 H :    0.114435
  24 H :    0.119380
  25 H :    0.137034
  26 H :    0.144092
  27 H :    0.118491
  28 H :    0.120224
  29 H :    0.131637
  30 H :    0.134245
  31 H :    0.129704
  32 H :    0.111739
  33 H :    0.115745
  34 H :    0.111126
  35 H :    0.112742
  36 H :    0.124459
  37 H :    0.103906

  Mayer bond orders larger than 0.100000
B(  0-C ,  1-C ) :   1.1524 B(  0-C , 20-H ) :   0.9441 B(  0-C , 21-H ) :   0.9510
B(  0-C , 22-H ) :   0.9490 B(  1-C ,  2-O ) :   0.9090 B(  1-C , 23-H ) :   0.9321
B(  1-C , 24-H ) :   0.9268 B(  2-O ,  3-C ) :   1.1930 B(  3-C ,  4-O ) :   2.0485
B(  3-C ,  5-C ) :   1.0237 B(  5-C ,  6-C ) :   1.0268 B(  5-C , 25-H ) :   0.8763
B(  5-C , 26-H ) :   0.8847 B(  6-C ,  7-H ) :   0.8654 B(  6-C ,  8-C ) :   0.9034
B(  6-C , 13-S ) :   1.0475 B(  8-C ,  9-O ) :   1.9332 B(  8-C , 10-O ) :   1.2743
B(  9-O , 14-P ) :   0.1133 B( 10-O , 11-C ) :   0.8863 B( 11-C , 12-C ) :   1.1785
B( 11-C , 27-H ) :   0.9353 B( 11-C , 28-H ) :   0.9159 B( 12-C , 29-H ) :   0.9296
B( 12-C , 30-H ) :   0.9377 B( 12-C , 31-H ) :   0.9396 B( 13-S , 14-P ) :   0.9151
B( 13-S , 15-S ) :   0.1106 B( 14-P , 15-S ) :   1.5808 B( 14-P , 16-O ) :   1.0852
B( 14-P , 18-O ) :   1.1000 B( 16-O , 17-C ) :   0.9300 B( 17-C , 32-H ) :   0.9419
B( 17-C , 33-H ) :   0.9538 B( 17-C , 34-H ) :   0.9533 B( 18-O , 19-C ) :   0.9349
B( 19-C , 35-H ) :   0.9458 B( 19-C , 36-H ) :   0.9605 B( 19-C , 37-H ) :   0.9365

Dispersion correction           -0.052580232
FINAL SINGLE POINT ENERGY     -1979.008788806604

DIPOLE MOMENT
-------------

Method             : SCF
Type of density    : Electron Density
Multiplicity       :   1
Irrep              :   0
Energy             : -1979.1408715360794304 Eh
Relativity type    :
Basis              : AO
                                X                 Y                 Z
Electronic contribution:    -15.911073863      -5.844082863       3.207753309
Nuclear contribution   :     16.732427286       6.677270316      -4.939452245
                        -----------------------------------------
Total Dipole Moment    :      0.821353423       0.833187453      -1.731698936
                        -----------------------------------------
Magnitude (a.u.)       :      2.089881332
Magnitude (Debye)      :      5.312056189

Rotational constants in cm-1:             0.016876             0.006192             0.005487
Rotational constants in MHz :           505.937578           185.629326           164.493102

                             ****ORCA TERMINATED NORMALLY****
TOTAL RUN TIME: 0 days 0 hours 0 minutes 37 seconds 763 msec
