                         Program Version 6.0.0  -   RELEASE  -
|  1> ! pbe def2-sv(p) def2/J RI DEFGRID1 loosescf d4 GCP(DFT/SV(P)) printgap
|  2> %output
|  3>     printlevel normal
|  4> end
|  5> * xyz 0 1
|  6> C 5.0730210921 -2.6206272097 -0.7419663404
|  7> C 4.0954127267 -1.5813923355 -1.253052487
|  8> O 2.9923893462 -1.5122533721 -0.3270882365
|  9> P 2.0885807058 -0.2136517383 -0.1717437141
| 10> S 3.1047829707 1.464912684 -0.1001281141
| 11> O 1.2199644762 -0.6068524393 1.089698049
| 12> C 1.6750389615 -0.341267007 2.4399343409
| 13> C 1.0457239872 0.9297251757 2.9727483254
| 14> S 0.673242489 -0.4108565537 -1.7248867286
| 15> C 0.10570671 1.3132934401 -1.7174296056
| 16> S -0.6532976136 1.7948684272 -0.153045233
| 17> P -2.3192987998 0.4588409571 -0.252387788
| 18> S -3.0145420608 0.0682735261 -2.0342139489
| 19> O -3.3866673501 1.1824110688 0.6530952653
| 20> C -3.1340707416 1.7885122613 1.9439705675
| 21> C -3.1604003593 0.7628537586 3.0584516684
| 22> O -1.8771076987 -0.8143794759 0.6006872244
| 23> C -1.6602134291 -2.1313575588 0.0703589537
| 24> C -2.7118436456 -3.0731603085 0.6226270144
| 25> H 5.4652263424 -2.3232302057 0.2265159086
| 26> H 4.5740840274 -3.5800583357 -0.6411635059
| 27> H 5.8930547336 -2.7133635194 -1.4463901985
| 28> H 3.6959923412 -1.8560008023 -2.2325307441
| 29> H 4.5601924466 -0.591660854 -1.3180815365
| 30> H 1.3616864139 -1.2156985973 3.0122806339
| 31> H 2.7658756144 -0.2701701432 2.4436897431
| 32> H 1.3778820953 1.7871367182 2.3910029404
| 33> H -0.0367617456 0.8657133303 2.9069916864
| 34> H 1.3373970134 1.0668504 4.0089157039
| 35> H -0.6204181222 1.4003929854 -2.5252328688
| 36> H 0.9555675992 1.9786545657 -1.8665397846
| 37> H -2.1742166877 2.3113338862 1.9025610929
| 38> H -3.9413878917 2.5151007048 2.0507367955
| 39> H -3.0244539206 1.2694553742 4.0090412182
| 40> H -4.1140479587 0.2419575058 3.0625138389
| 41> H -2.3658750461 0.0338077907 2.9219323886
| 42> H -1.709045331 -2.0935358171 -1.0230080259
| 43> H -0.6526242631 -2.4211543493 0.3778832141
| 44> H -3.6989049622 -2.7568419691 0.2925735296
| 45> H -2.5186686696 -4.0760960349 0.2560244185
| 46> H -2.6850300522 -3.0740716479 1.708513801
| 47> *
| 48>
| 49>                          ****END OF INPUT****

CARTESIAN COORDINATES (ANGSTROEM)
---------------------------------
  C      5.073021   -2.620627   -0.741966
  C      4.095413   -1.581392   -1.253052
  O      2.992389   -1.512253   -0.327088
  P      2.088581   -0.213652   -0.171744
  S      3.104783    1.464913   -0.100128
  O      1.219964   -0.606852    1.089698
  C      1.675039   -0.341267    2.439934
  C      1.045724    0.929725    2.972748
  S      0.673242   -0.410857   -1.724887
  C      0.105707    1.313293   -1.717430
  S     -0.653298    1.794868   -0.153045
  P     -2.319299    0.458841   -0.252388
  S     -3.014542    0.068274   -2.034214
  O     -3.386667    1.182411    0.653095
  C     -3.134071    1.788512    1.943971
  C     -3.160400    0.762854    3.058452
  O     -1.877108   -0.814379    0.600687
  C     -1.660213   -2.131358    0.070359
  C     -2.711844   -3.073160    0.622627
  H      5.465226   -2.323230    0.226516
  H      4.574084   -3.580058   -0.641164
  H      5.893055   -2.713364   -1.446390
  H      3.695992   -1.856001   -2.232531
  H      4.560192   -0.591661   -1.318082
  H      1.361686   -1.215699    3.012281
  H      2.765876   -0.270170    2.443690
  H      1.377882    1.787137    2.391003
  H     -0.036762    0.865713    2.906992
  H      1.337397    1.066850    4.008916
  H     -0.620418    1.400393   -2.525233
  H      0.955568    1.978655   -1.866540
  H     -2.174217    2.311334    1.902561
  H     -3.941388    2.515101    2.050737
  H     -3.024454    1.269455    4.009041
  H     -4.114048    0.241958    3.062514
  H     -2.365875    0.033808    2.921932
  H     -1.709045   -2.093536   -1.023008
  H     -0.652624   -2.421154    0.377883
  H     -3.698905   -2.756842    0.292574
  H     -2.518669   -4.076096    0.256024
  H     -2.685030   -3.074072    1.708514

 Total Charge           Charge          ....    0
 Multiplicity           Mult            ....    1
 Number of Electrons    NEL             ....  202
 Basis Dimension        Dim             ....  334

ORBITAL ENERGIES
----------------

  NO   OCC          E(Eh)            E(eV)
   0   2.0000     -88.045334     -2395.8353
   1   2.0000     -88.039458     -2395.6754
   2   2.0000     -87.991023     -2394.3575
   3   2.0000     -87.984765     -2394.1872
   4   2.0000     -76.429188     -2079.7439
   5   2.0000     -76.425645     -2079.6475
   6   2.0000     -18.795779      -511.4591
   7   2.0000     -18.794685      -511.4294
   8   2.0000     -18.793469      -511.3963
   9   2.0000     -18.787042      -511.2214
  10   2.0000      -9.962950      -271.1056
  11   2.0000      -9.957670      -270.9620
  12   2.0000      -9.954636      -270.8794
  13   2.0000      -9.954585      -270.8780
  14   2.0000      -9.942837      -270.5583
  15   2.0000      -9.891306      -269.1561
  16   2.0000      -9.890672      -269.1389
  17   2.0000      -9.884239      -268.9638
  18   2.0000      -9.881078      -268.8778
  19   2.0000      -7.690225      -209.2617
  20   2.0000      -7.684235      -209.0987
  21   2.0000      -7.635988      -207.7858
  22   2.0000      -7.630048      -207.6242
  23   2.0000      -6.426859      -174.8837
  24   2.0000      -6.423072      -174.7807
  25   2.0000      -5.718055      -155.5962
  26   2.0000      -5.714842      -155.5088
  27   2.0000      -5.712059      -155.4330
  28   2.0000      -5.708863      -155.3461
  29   2.0000      -5.707144      -155.2993
  30   2.0000      -5.701155      -155.1363
  31   2.0000      -5.664761      -154.1460
  32   2.0000      -5.659061      -153.9909
  33   2.0000      -5.656740      -153.9277
  34   2.0000      -5.656175      -153.9123
  35   2.0000      -5.650666      -153.7624
  36   2.0000      -5.650053      -153.7458
  37   2.0000      -4.649343      -126.5151
  38   2.0000      -4.648594      -126.4947
  39   2.0000      -4.647385      -126.4618
  40   2.0000      -4.645858      -126.4202
  41   2.0000      -4.644668      -126.3878
  42   2.0000      -4.643534      -126.3570
  43   2.0000      -0.989896       -26.9365
  44   2.0000      -0.984966       -26.8023
  45   2.0000      -0.947679       -25.7876
  46   2.0000      -0.943055       -25.6618
  47   2.0000      -0.766157       -20.8482
  48   2.0000      -0.724469       -19.7138
  49   2.0000      -0.713560       -19.4170
  50   2.0000      -0.691299       -18.8112
  51   2.0000      -0.689360       -18.7584
  52   2.0000      -0.672668       -18.3042
  53   2.0000      -0.650540       -17.7021
  54   2.0000      -0.640471       -17.4281
  55   2.0000      -0.598376       -16.2826
  56   2.0000      -0.592395       -16.1199
  57   2.0000      -0.574673       -15.6376
  58   2.0000      -0.571804       -15.5596
  59   2.0000      -0.561562       -15.2809
  60   2.0000      -0.512037       -13.9332
  61   2.0000      -0.499136       -13.5822
  62   2.0000      -0.481539       -13.1034
  63   2.0000      -0.479266       -13.0415
  64   2.0000      -0.458157       -12.4671
  65   2.0000      -0.448794       -12.2123
  66   2.0000      -0.442028       -12.0282
  67   2.0000      -0.437909       -11.9161
  68   2.0000      -0.427607       -11.6358
  69   2.0000      -0.415644       -11.3102
  70   2.0000      -0.406175       -11.0526
  71   2.0000      -0.392487       -10.6801
  72   2.0000      -0.390236       -10.6188
  73   2.0000      -0.384715       -10.4686
  74   2.0000      -0.382947       -10.4205
  75   2.0000      -0.378402       -10.2968
  76   2.0000      -0.370452       -10.0805
  77   2.0000      -0.358331        -9.7507
  78   2.0000      -0.357063        -9.7162
  79   2.0000      -0.355987        -9.6869
  80   2.0000      -0.351643        -9.5687
  81   2.0000      -0.348773        -9.4906
  82   2.0000      -0.345483        -9.4011
  83   2.0000      -0.342176        -9.3111
  84   2.0000      -0.335266        -9.1230
  85   2.0000      -0.317257        -8.6330
  86   2.0000      -0.311630        -8.4799
  87   2.0000      -0.302578        -8.2336
  88   2.0000      -0.298261        -8.1161
  89   2.0000      -0.292168        -7.9503
  90   2.0000      -0.284343        -7.7374
  91   2.0000      -0.282475        -7.6865
  92   2.0000      -0.275361        -7.4929
  93   2.0000      -0.265702        -7.2301
  94   2.0000      -0.254747        -6.9320
  95   2.0000      -0.235115        -6.3978
  96   2.0000      -0.216108        -5.8806
  97   2.0000      -0.214648        -5.8409
  98   2.0000      -0.207613        -5.6494
  99   2.0000      -0.200533        -5.4568
 100   2.0000      -0.198441        -5.3999
 101   0.0000      -0.047708        -1.2982
 102   0.0000      -0.026514        -0.7215
 103   0.0000      -0.005280        -0.1437
 104   0.0000       0.003012         0.0820
 105   0.0000       0.007959         0.2166

MULLIKEN ATOMIC CHARGES
-----------------------
   0 C :   -0.281705
   1 C :   -0.011247
   2 O :   -0.379467
   3 P :    0.618516
   4 S :   -0.336831
   5 O :   -0.358954
   6 C :   -0.001550
   7 C :   -0.307447
   8 S :   -0.087637
   9 C :   -0.346145
  10 S :   -0.118954
  11 P :    0.628841
  12 S :   -0.317236
  13 O :   -0.360909
  14 C :   -0.030772
  15 C :   -0.315097
  16 O :   -0.382798
  17 C :   -0.018177
  18 C :   -0.276347
  19 H :    0.116897
  20 H :    0.116664
  21 H :    0.113483
  22 H :    0.103185
  23 H :    0.107476
  24 H :    0.105480
  25 H :    0.104493
  26 H :    0.131654
  27 H :    0.121757
  28 H :    0.106331
  29 H :    0.194119
  30 H :    0.191954
  31 H :    0.125195
  32 H :    0.116289
  33 H :    0.111466
  34 H :    0.121030
  35 H :    0.148150
  36 H :    0.114664
  37 H :    0.102499
  38 H :    0.115504
  39 H :    0.107704
  40 H :    0.107924
Sum of atomic charges:   -0.0000000

LOEWDIN ATOMIC CHARGES
----------------------
   0 C :   -0.350731
   1 C :   -0.120696
   2 O :   -0.251783
   3 P :    0.567686
   4 S :   -0.324275
   5 O :   -0.235919
   6 C :   -0.108762
   7 C :   -0.364047
   8 S :    0.095630
   9 C :   -0.478670
  10 S :    0.074451
  11 P :    0.572080
  12 S :   -0.308411
  13 O :   -0.238102
  14 C :   -0.111468
  15 C :   -0.364941
  16 O :   -0.245036
  17 C :   -0.128169
  18 C :   -0.354937
  19 H :    0.127254
  20 H :    0.126770
  21 H :    0.131537
  22 H :    0.111810
  23 H :    0.107542
  24 H :    0.118334
  25 H :    0.110031
  26 H :    0.125888
  27 H :    0.120829
  28 H :    0.127694
  29 H :    0.131537
  30 H :    0.131453
  31 H :    0.105966
  32 H :    0.125072
  33 H :    0.130358
  34 H :    0.130179
  35 H :    0.125778
  36 H :    0.103039
  37 H :    0.108840
  38 H :    0.126154
  39 H :    0.128761
  40 H :    0.121276

  Mayer bond orders larger than 0.100000
B(  0-C ,  1-C ) :   1.1615 B(  0-C , 19-H ) :   0.9512 B(  0-C , 20-H ) :   0.9508
B(  0-C , 21-H ) :   0.9418 B(  1-C ,  2-O ) :   0.9041 B(  1-C , 22-H ) :   0.9306
B(  1-C , 23-H ) :   0.9065 B(  2-O ,  3-P ) :   1.1101 B(  3-P ,  4-S ) :   1.5967
B(  3-P ,  5-O ) :   1.1272 B(  3-P ,  8-S ) :   0.9634 B(  4-S ,  8-S ) :   0.1088
B(  5-O ,  6-C ) :   0.8933 B(  6-C ,  7-C ) :   1.1733 B(  6-C , 24-H ) :   0.9334
B(  6-C , 25-H ) :   0.9151 B(  7-C , 26-H ) :   0.9337 B(  7-C , 27-H ) :   0.9339
B(  7-C , 28-H ) :   0.9374 B(  8-S ,  9-C ) :   0.9934 B(  9-C , 10-S ) :   1.0231
B(  9-C , 29-H ) :   0.8808 B(  9-C , 30-H ) :   0.8843 B( 10-S , 11-P ) :   0.9319
B( 10-S , 12-S ) :   0.1021 B( 11-P , 12-S ) :   1.6330 B( 11-P , 13-O ) :   1.1444
B( 11-P , 16-O ) :   1.0857 B( 13-O , 14-C ) :   0.9038 B( 14-C , 15-C ) :   1.1656
B( 14-C , 31-H ) :   0.9122 B( 14-C , 32-H ) :   0.9345 B( 15-C , 33-H ) :   0.9384
B( 15-C , 34-H ) :   0.9433 B( 15-C , 35-H ) :   0.9243 B( 16-O , 17-C ) :   0.8969
B( 17-C , 18-C ) :   1.1585 B( 17-C , 36-H ) :   0.9006 B( 17-C , 37-H ) :   0.9252
B( 18-C , 38-H ) :   0.9471 B( 18-C , 39-H ) :   0.9420 B( 18-C , 40-H ) :   0.9506

Dispersion correction           -0.066259991
FINAL SINGLE POINT ENERGY     -2929.523030551100

DIPOLE MOMENT
-------------

Method             : SCF
Type of density    : Electron Density
Multiplicity       :   1
Irrep              :   0
Energy             : -2929.6419156168531117 Eh
Relativity type    :
Basis              : AO
                                X                 Y                 Z
Electronic contribution:     -3.715850178      12.199036796     -18.407293763
Nuclear contribution   :      4.358051785     -12.996163266      19.774596118
                        -----------------------------------------
Total Dipole Moment    :      0.642201607      -0.797126470       1.367302354
                        -----------------------------------------
Magnitude (a.u.)       :      1.708024953
Magnitude (Debye)      :      4.341454410

Rotational constants in cm-1:             0.011822             0.005327             0.005033
Rotational constants in MHz :           354.426585           159.694689           150.885285

                             ****ORCA TERMINATED NORMALLY****
TOTAL RUN TIME: 0 days 0 hours 0 minutes 21 seconds 522 msec
