                         Program Version 6.0.0  -   RELEASE  -
|  1> ! r2scan-3c def2/J RI DEFGRID2 scfconv6 printgap
|  2> %output
|  3>     printlevel normal
|  4> end
|  5> * xyz 0 1
|  6> C 5.3678658656 0.2246130352 -0.799777205
|  7> C 4.0824218266 -0.3013046677 -1.4086287126
|  8> O 3.1260207272 -0.6293766941 -0.3832228644
|  9> P 2.0146973816 0.4180006758 0.0867191825
| 10> S 2.6238215788 2.2053155225 0.6027845061
| 11> O 1.2794783654 -0.423530779 1.2023159148
| 12> C 1.5769566039 -0.2534864079 2.6017217912
| 13> C 2.9363549154 -0.8234794746 2.9450431545
| 14> S 0.6168451235 0.4094136603 -1.5002276723
| 15> C 0.1618137725 -1.3458960315 -1.540504347
| 16> S -0.8863119958 -1.8924652976 -0.1529560484
| 17> P -2.2297380892 -0.2823959563 -0.1063974381
| 18> S -2.8956386293 0.4477568593 -1.8056829069
| 19> O -1.439344719 0.6992806407 0.865247004
| 20> C -1.9537994212 2.0097831851 1.1910609525
| 21> C -1.3150416844 3.0752095354 0.322267325
| 22> O -3.3924582907 -0.7721939059 0.8646753437
| 23> C -4.5743972604 -1.4319558757 0.3765619163
| 24> C -4.272886125 -2.8237459585 -0.1400715201
| 25> H 5.1801290998 1.1557404043 -0.2694991414
| 26> H 5.774933761 -0.5021820046 -0.1024219023
| 27> H 6.0891488509 0.4080387705 -1.5895113694
| 28> H 4.2531019179 -1.2383515831 -1.942249591
| 29> H 3.6427701099 0.4337391724 -2.0908753788
| 30> H 1.5312965762 0.8139032454 2.8412089175
| 31> H 0.768175722 -0.7834080783 3.1069389067
| 32> H 2.9969594708 -1.8623544896 2.6321710588
| 33> H 3.7103834637 -0.2535071503 2.4324062895
| 34> H 3.0971345457 -0.7556349894 4.0163470249
| 35> H 1.0540841399 -1.9667518329 -1.508867655
| 36> H -0.3815730044 -1.4765723618 -2.4746889101
| 37> H -3.0409637636 2.006786453 1.0715066853
| 38> H -1.70191015 2.1517666738 2.243620986
| 39> H -1.6817552025 4.0511630582 0.6233143598
| 40> H -0.2323580449 3.0544422563 0.4303275551
| 41> H -1.5609908461 2.9088980177 -0.7248027027
| 42> H -5.2376420586 -1.4554445159 1.2421744169
| 43> H -5.0125512493 -0.8144329243 -0.4142602227
| 44> H -3.6595799726 -2.7609937626 -1.0378569769
| 45> H -3.7363043841 -3.3976763287 0.611108264
| 46> H -5.2037890801 -3.3257323448 -0.3832413681
| 47> *
| 48>
| 49>                          ****END OF INPUT****

CARTESIAN COORDINATES (ANGSTROEM)
---------------------------------
  C      5.367866    0.224613   -0.799777
  C      4.082422   -0.301305   -1.408629
  O      3.126021   -0.629377   -0.383223
  P      2.014697    0.418001    0.086719
  S      2.623822    2.205316    0.602785
  O      1.279478   -0.423531    1.202316
  C      1.576957   -0.253486    2.601722
  C      2.936355   -0.823479    2.945043
  S      0.616845    0.409414   -1.500228
  C      0.161814   -1.345896   -1.540504
  S     -0.886312   -1.892465   -0.152956
  P     -2.229738   -0.282396   -0.106397
  S     -2.895639    0.447757   -1.805683
  O     -1.439345    0.699281    0.865247
  C     -1.953799    2.009783    1.191061
  C     -1.315042    3.075210    0.322267
  O     -3.392458   -0.772194    0.864675
  C     -4.574397   -1.431956    0.376562
  C     -4.272886   -2.823746   -0.140072
  H      5.180129    1.155740   -0.269499
  H      5.774934   -0.502182   -0.102422
  H      6.089149    0.408039   -1.589511
  H      4.253102   -1.238352   -1.942250
  H      3.642770    0.433739   -2.090875
  H      1.531297    0.813903    2.841209
  H      0.768176   -0.783408    3.106939
  H      2.996959   -1.862354    2.632171
  H      3.710383   -0.253507    2.432406
  H      3.097135   -0.755635    4.016347
  H      1.054084   -1.966752   -1.508868
  H     -0.381573   -1.476572   -2.474689
  H     -3.040964    2.006786    1.071507
  H     -1.701910    2.151767    2.243621
  H     -1.681755    4.051163    0.623314
  H     -0.232358    3.054442    0.430328
  H     -1.560991    2.908898   -0.724803
  H     -5.237642   -1.455445    1.242174
  H     -5.012551   -0.814433   -0.414260
  H     -3.659580   -2.760994   -1.037857
  H     -3.736304   -3.397676    0.611108
  H     -5.203789   -3.325732   -0.383241

 Total Charge           Charge          ....    0
 Multiplicity           Mult            ....    1
 Number of Electrons    NEL             ....  202
 Basis Dimension        Dim             ....  539

ORBITAL ENERGIES
----------------

  NO   OCC          E(Eh)            E(eV)
   0   2.0000     -88.575077     -2410.2504
   1   2.0000     -88.573781     -2410.2151
   2   2.0000     -88.522959     -2408.8322
   3   2.0000     -88.517247     -2408.6768
   4   2.0000     -76.914134     -2092.9400
   5   2.0000     -76.912157     -2092.8862
   6   2.0000     -18.991313      -516.7799
   7   2.0000     -18.990381      -516.7545
   8   2.0000     -18.987630      -516.6797
   9   2.0000     -18.981281      -516.5069
  10   2.0000     -10.112769      -275.1824
  11   2.0000     -10.101583      -274.8781
  12   2.0000     -10.097032      -274.7542
  13   2.0000     -10.095842      -274.7218
  14   2.0000     -10.091214      -274.5959
  15   2.0000     -10.028532      -272.8902
  16   2.0000     -10.027683      -272.8671
  17   2.0000     -10.027141      -272.8524
  18   2.0000     -10.011316      -272.4218
  19   2.0000      -7.869188      -214.1315
  20   2.0000      -7.868583      -214.1150
  21   2.0000      -7.817710      -212.7307
  22   2.0000      -7.811966      -212.5744
  23   2.0000      -6.592511      -179.3913
  24   2.0000      -6.590358      -179.3328
  25   2.0000      -5.816580      -158.2772
  26   2.0000      -5.815641      -158.2516
  27   2.0000      -5.812598      -158.1688
  28   2.0000      -5.812476      -158.1655
  29   2.0000      -5.806218      -157.9952
  30   2.0000      -5.805366      -157.9720
  31   2.0000      -5.765337      -156.8828
  32   2.0000      -5.759632      -156.7275
  33   2.0000      -5.758076      -156.6852
  34   2.0000      -5.757659      -156.6739
  35   2.0000      -5.752420      -156.5313
  36   2.0000      -5.751806      -156.5146
  37   2.0000      -4.737858      -128.9237
  38   2.0000      -4.737647      -128.9179
  39   2.0000      -4.736230      -128.8794
  40   2.0000      -4.735959      -128.8720
  41   2.0000      -4.735225      -128.8520
  42   2.0000      -4.734121      -128.8220
  43   2.0000      -1.049877       -28.5686
  44   2.0000      -1.044942       -28.4343
  45   2.0000      -1.010527       -27.4978
  46   2.0000      -1.003693       -27.3119
  47   2.0000      -0.802311       -21.8320
  48   2.0000      -0.756652       -20.5896
  49   2.0000      -0.744968       -20.2716
  50   2.0000      -0.730844       -19.8873
  51   2.0000      -0.724740       -19.7212
  52   2.0000      -0.708862       -19.2891
  53   2.0000      -0.689341       -18.7579
  54   2.0000      -0.668912       -18.2020
  55   2.0000      -0.628889       -17.1129
  56   2.0000      -0.623263       -16.9599
  57   2.0000      -0.604998       -16.4628
  58   2.0000      -0.600497       -16.3404
  59   2.0000      -0.589640       -16.0449
  60   2.0000      -0.527110       -14.3434
  61   2.0000      -0.521086       -14.1795
  62   2.0000      -0.495150       -13.4737
  63   2.0000      -0.484557       -13.1855
  64   2.0000      -0.476727       -12.9724
  65   2.0000      -0.459292       -12.4980
  66   2.0000      -0.455694       -12.4001
  67   2.0000      -0.452461       -12.3121
  68   2.0000      -0.443322       -12.0634
  69   2.0000      -0.430296       -11.7089
  70   2.0000      -0.425740       -11.5850
  71   2.0000      -0.418095       -11.3769
  72   2.0000      -0.409981       -11.1562
  73   2.0000      -0.403557       -10.9813
  74   2.0000      -0.388508       -10.5719
  75   2.0000      -0.387520       -10.5450
  76   2.0000      -0.380242       -10.3469
  77   2.0000      -0.376864       -10.2550
  78   2.0000      -0.366615        -9.9761
  79   2.0000      -0.363371        -9.8878
  80   2.0000      -0.361892        -9.8476
  81   2.0000      -0.358239        -9.7482
  82   2.0000      -0.351239        -9.5577
  83   2.0000      -0.347497        -9.4559
  84   2.0000      -0.344308        -9.3691
  85   2.0000      -0.335533        -9.1303
  86   2.0000      -0.318144        -8.6571
  87   2.0000      -0.308552        -8.3961
  88   2.0000      -0.307597        -8.3702
  89   2.0000      -0.306273        -8.3341
  90   2.0000      -0.299027        -8.1369
  91   2.0000      -0.289576        -7.8798
  92   2.0000      -0.282286        -7.6814
  93   2.0000      -0.275746        -7.5034
  94   2.0000      -0.274595        -7.4721
  95   2.0000      -0.241541        -6.5727
  96   2.0000      -0.232026        -6.3138
  97   2.0000      -0.224940        -6.1209
  98   2.0000      -0.218045        -5.9333
  99   2.0000      -0.211101        -5.7444
 100   2.0000      -0.208692        -5.6788
 101   0.0000      -0.048122        -1.3095
 102   0.0000      -0.019626        -0.5341
 103   0.0000      -0.008288        -0.2255
 104   0.0000       0.003179         0.0865
 105   0.0000       0.007788         0.2119

MULLIKEN ATOMIC CHARGES
-----------------------
   0 C :   -0.458071
   1 C :   -0.132293
   2 O :   -0.299340
   3 P :    0.688438
   4 S :   -0.472837
   5 O :   -0.242499
   6 C :   -0.164906
   7 C :   -0.438736
   8 S :   -0.123428
   9 C :   -0.252582
  10 S :   -0.104289
  11 P :    0.679537
  12 S :   -0.467679
  13 O :   -0.268692
  14 C :   -0.122928
  15 C :   -0.470188
  16 O :   -0.308461
  17 C :   -0.151884
  18 C :   -0.455533
  19 H :    0.183339
  20 H :    0.150739
  21 H :    0.145123
  22 H :    0.146497
  23 H :    0.156795
  24 H :    0.170413
  25 H :    0.158472
  26 H :    0.155977
  27 H :    0.166453
  28 H :    0.147145
  29 H :    0.186344
  30 H :    0.204311
  31 H :    0.146975
  32 H :    0.147227
  33 H :    0.141119
  34 H :    0.179637
  35 H :    0.178380
  36 H :    0.146908
  37 H :    0.175502
  38 H :    0.177036
  39 H :    0.154515
  40 H :    0.147465
Sum of atomic charges:    0.0000000

LOEWDIN ATOMIC CHARGES
----------------------
   0 C :   -0.402107
   1 C :    0.019080
   2 O :   -0.678409
   3 P :    0.374490
   4 S :   -0.115514
   5 O :   -0.683121
   6 C :    0.023257
   7 C :   -0.398310
   8 S :    0.190708
   9 C :   -0.405869
  10 S :    0.195360
  11 P :    0.370503
  12 S :   -0.127123
  13 O :   -0.674070
  14 C :    0.027450
  15 C :   -0.407436
  16 O :   -0.664798
  17 C :    0.017102
  18 C :   -0.407515
  19 H :    0.169115
  20 H :    0.157440
  21 H :    0.158319
  22 H :    0.176598
  23 H :    0.176866
  24 H :    0.180229
  25 H :    0.182367
  26 H :    0.160711
  27 H :    0.164765
  28 H :    0.159360
  29 H :    0.186052
  30 H :    0.188156
  31 H :    0.174170
  32 H :    0.178032
  33 H :    0.155993
  34 H :    0.167756
  35 H :    0.167570
  36 H :    0.178599
  37 H :    0.180476
  38 H :    0.165215
  39 H :    0.159477
  40 H :    0.159055

  Mayer bond orders larger than 0.100000
B(  0-C ,  1-C ) :   0.9516 B(  0-C , 19-H ) :   0.9580 B(  0-C , 20-H ) :   0.9749
B(  0-C , 21-H ) :   0.9637 B(  1-C ,  2-O ) :   0.7854 B(  1-C , 22-H ) :   0.9625
B(  1-C , 23-H ) :   0.9644 B(  2-O ,  3-P ) :   1.0295 B(  3-P ,  4-S ) :   1.7720
B(  3-P ,  5-O ) :   1.1548 B(  3-P ,  8-S ) :   1.0588 B(  5-O ,  6-C ) :   0.7808
B(  6-C ,  7-C ) :   0.9248 B(  6-C , 24-H ) :   0.9622 B(  6-C , 25-H ) :   0.9625
B(  7-C , 26-H ) :   0.9726 B(  7-C , 27-H ) :   0.9598 B(  7-C , 28-H ) :   0.9634
B(  8-S ,  9-C ) :   0.9084 B(  9-C , 10-S ) :   0.9058 B(  9-C , 29-H ) :   0.9235
B(  9-C , 30-H ) :   0.9172 B( 10-S , 11-P ) :   1.1201 B( 11-P , 12-S ) :   1.7501
B( 11-P , 13-O ) :   1.1438 B( 11-P , 16-O ) :   1.0601 B( 13-O , 14-C ) :   0.7569
B( 14-C , 15-C ) :   0.9371 B( 14-C , 31-H ) :   0.9644 B( 14-C , 32-H ) :   0.9643
B( 15-C , 33-H ) :   0.9647 B( 15-C , 34-H ) :   0.9582 B( 15-C , 35-H ) :   0.9612
B( 16-O , 17-C ) :   0.8194 B( 17-C , 18-C ) :   0.9199 B( 17-C , 36-H ) :   0.9584
B( 17-C , 37-H ) :   0.9671 B( 18-C , 38-H ) :   0.9636 B( 18-C , 39-H ) :   0.9685
B( 18-C , 40-H ) :   0.9593

Dispersion correction           -0.022242684
FINAL SINGLE POINT ENERGY     -2932.457403660004

DIPOLE MOMENT
-------------

Method             : SCF
Type of density    : Electron Density
Multiplicity       :   1
Irrep              :   0
Energy             : -2932.4816577825640707 Eh
Relativity type    :
Basis              : AO
                                X                 Y                 Z
Electronic contribution:     -6.185466912       2.335265887      -7.686932852
Nuclear contribution   :      6.439117715      -3.557159224       8.312159188
                        -----------------------------------------
Total Dipole Moment    :      0.253650803      -1.221893337       0.625226336
                        -----------------------------------------
Magnitude (a.u.)       :      1.395804438
Magnitude (Debye)      :      3.547852928

Rotational constants in cm-1:             0.013623             0.005027             0.004885
Rotational constants in MHz :           408.410480           150.696716           146.459295

                             ****ORCA TERMINATED NORMALLY****
TOTAL RUN TIME: 0 days 0 hours 1 minutes 24 seconds 889 msec
