                         Program Version 6.0.0  -   RELEASE  -
|  1> ! r2scan-3c def2/J RI DEFGRID2 scfconv6 printgap
|  2> %output
|  3>     printlevel normal
|  4> end
|  5> %cpcm
|  6>     smd true
|  7>     smdsolvent "water"
|  8> end
|  9> * xyz 0 1
| 10> C 5.3678658656 0.2246130352 -0.799777205
| 11> C 4.0824218266 -0.3013046677 -1.4086287126
| 12> O 3.1260207272 -0.6293766941 -0.3832228644
| 13> P 2.0146973816 0.4180006758 0.0867191825
| 14> S 2.6238215788 2.2053155225 0.6027845061
| 15> O 1.2794783654 -0.423530779 1.2023159148
| 16> C 1.5769566039 -0.2534864079 2.6017217912
| 17> C 2.9363549154 -0.8234794746 2.9450431545
| 18> S 0.6168451235 0.4094136603 -1.5002276723
| 19> C 0.1618137725 -1.3458960315 -1.540504347
| 20> S -0.8863119958 -1.8924652976 -0.1529560484
| 21> P -2.2297380892 -0.2823959563 -0.1063974381
| 22> S -2.8956386293 0.4477568593 -1.8056829069
| 23> O -1.439344719 0.6992806407 0.865247004
| 24> C -1.9537994212 2.0097831851 1.1910609525
| 25> C -1.3150416844 3.0752095354 0.322267325
| 26> O -3.3924582907 -0.7721939059 0.8646753437
| 27> C -4.5743972604 -1.4319558757 0.3765619163
| 28> C -4.272886125 -2.8237459585 -0.1400715201
| 29> H 5.1801290998 1.1557404043 -0.2694991414
| 30> H 5.774933761 -0.5021820046 -0.1024219023
| 31> H 6.0891488509 0.4080387705 -1.5895113694
| 32> H 4.2531019179 -1.2383515831 -1.942249591
| 33> H 3.6427701099 0.4337391724 -2.0908753788
| 34> H 1.5312965762 0.8139032454 2.8412089175
| 35> H 0.768175722 -0.7834080783 3.1069389067
| 36> H 2.9969594708 -1.8623544896 2.6321710588
| 37> H 3.7103834637 -0.2535071503 2.4324062895
| 38> H 3.0971345457 -0.7556349894 4.0163470249
| 39> H 1.0540841399 -1.9667518329 -1.508867655
| 40> H -0.3815730044 -1.4765723618 -2.4746889101
| 41> H -3.0409637636 2.006786453 1.0715066853
| 42> H -1.70191015 2.1517666738 2.243620986
| 43> H -1.6817552025 4.0511630582 0.6233143598
| 44> H -0.2323580449 3.0544422563 0.4303275551
| 45> H -1.5609908461 2.9088980177 -0.7248027027
| 46> H -5.2376420586 -1.4554445159 1.2421744169
| 47> H -5.0125512493 -0.8144329243 -0.4142602227
| 48> H -3.6595799726 -2.7609937626 -1.0378569769
| 49> H -3.7363043841 -3.3976763287 0.611108264
| 50> H -5.2037890801 -3.3257323448 -0.3832413681
| 51> *
| 52>
| 53>                          ****END OF INPUT****

CARTESIAN COORDINATES (ANGSTROEM)
---------------------------------
  C      5.367866    0.224613   -0.799777
  C      4.082422   -0.301305   -1.408629
  O      3.126021   -0.629377   -0.383223
  P      2.014697    0.418001    0.086719
  S      2.623822    2.205316    0.602785
  O      1.279478   -0.423531    1.202316
  C      1.576957   -0.253486    2.601722
  C      2.936355   -0.823479    2.945043
  S      0.616845    0.409414   -1.500228
  C      0.161814   -1.345896   -1.540504
  S     -0.886312   -1.892465   -0.152956
  P     -2.229738   -0.282396   -0.106397
  S     -2.895639    0.447757   -1.805683
  O     -1.439345    0.699281    0.865247
  C     -1.953799    2.009783    1.191061
  C     -1.315042    3.075210    0.322267
  O     -3.392458   -0.772194    0.864675
  C     -4.574397   -1.431956    0.376562
  C     -4.272886   -2.823746   -0.140072
  H      5.180129    1.155740   -0.269499
  H      5.774934   -0.502182   -0.102422
  H      6.089149    0.408039   -1.589511
  H      4.253102   -1.238352   -1.942250
  H      3.642770    0.433739   -2.090875
  H      1.531297    0.813903    2.841209
  H      0.768176   -0.783408    3.106939
  H      2.996959   -1.862354    2.632171
  H      3.710383   -0.253507    2.432406
  H      3.097135   -0.755635    4.016347
  H      1.054084   -1.966752   -1.508868
  H     -0.381573   -1.476572   -2.474689
  H     -3.040964    2.006786    1.071507
  H     -1.701910    2.151767    2.243621
  H     -1.681755    4.051163    0.623314
  H     -0.232358    3.054442    0.430328
  H     -1.560991    2.908898   -0.724803
  H     -5.237642   -1.455445    1.242174
  H     -5.012551   -0.814433   -0.414260
  H     -3.659580   -2.760994   -1.037857
  H     -3.736304   -3.397676    0.611108
  H     -5.203789   -3.325732   -0.383241

 Total Charge           Charge          ....    0
 Multiplicity           Mult            ....    1
 Number of Electrons    NEL             ....  202
 Basis Dimension        Dim             ....  539

ORBITAL ENERGIES
----------------

  NO   OCC          E(Eh)            E(eV)
   0   2.0000     -88.577378     -2410.3130
   1   2.0000     -88.576216     -2410.2814
   2   2.0000     -88.529341     -2409.0058
   3   2.0000     -88.524980     -2408.8872
   4   2.0000     -76.918079     -2093.0473
   5   2.0000     -76.917798     -2093.0397
   6   2.0000     -18.993482      -516.8389
   7   2.0000     -18.991138      -516.7751
   8   2.0000     -18.990153      -516.7483
   9   2.0000     -18.987135      -516.6662
  10   2.0000     -10.107522      -275.0397
  11   2.0000     -10.089804      -274.5575
  12   2.0000     -10.089620      -274.5525
  13   2.0000     -10.088188      -274.5136
  14   2.0000     -10.087804      -274.5031
  15   2.0000     -10.018494      -272.6171
  16   2.0000     -10.017925      -272.6016
  17   2.0000     -10.016085      -272.5515
  18   2.0000     -10.012972      -272.4668
  19   2.0000      -7.871615      -214.1975
  20   2.0000      -7.870942      -214.1792
  21   2.0000      -7.824418      -212.9132
  22   2.0000      -7.820013      -212.7934
  23   2.0000      -6.596489      -179.4996
  24   2.0000      -6.596065      -179.4880
  25   2.0000      -5.818954      -158.3418
  26   2.0000      -5.817996      -158.3157
  27   2.0000      -5.815009      -158.2344
  28   2.0000      -5.814823      -158.2294
  29   2.0000      -5.808713      -158.0631
  30   2.0000      -5.807771      -158.0375
  31   2.0000      -5.771963      -157.0631
  32   2.0000      -5.767611      -156.9447
  33   2.0000      -5.764801      -156.8682
  34   2.0000      -5.764369      -156.8565
  35   2.0000      -5.760464      -156.7502
  36   2.0000      -5.759866      -156.7339
  37   2.0000      -4.741826      -129.0317
  38   2.0000      -4.741631      -129.0263
  39   2.0000      -4.741582      -129.0250
  40   2.0000      -4.740930      -129.0073
  41   2.0000      -4.740291      -128.9899
  42   2.0000      -4.739883      -128.9788
  43   2.0000      -1.051051       -28.6006
  44   2.0000      -1.048764       -28.5383
  45   2.0000      -1.010751       -27.5039
  46   2.0000      -1.007540       -27.4166
  47   2.0000      -0.801716       -21.8158
  48   2.0000      -0.754414       -20.5287
  49   2.0000      -0.740686       -20.1551
  50   2.0000      -0.721953       -19.6453
  51   2.0000      -0.720652       -19.6099
  52   2.0000      -0.708789       -19.2871
  53   2.0000      -0.692972       -18.8567
  54   2.0000      -0.674196       -18.3458
  55   2.0000      -0.627272       -17.0689
  56   2.0000      -0.621121       -16.9016
  57   2.0000      -0.601130       -16.3576
  58   2.0000      -0.594521       -16.1777
  59   2.0000      -0.587954       -15.9990
  60   2.0000      -0.523323       -14.2404
  61   2.0000      -0.518946       -14.1212
  62   2.0000      -0.491438       -13.3727
  63   2.0000      -0.483697       -13.1621
  64   2.0000      -0.475130       -12.9289
  65   2.0000      -0.456183       -12.4134
  66   2.0000      -0.451828       -12.2949
  67   2.0000      -0.450335       -12.2542
  68   2.0000      -0.438840       -11.9414
  69   2.0000      -0.427415       -11.6305
  70   2.0000      -0.422257       -11.4902
  71   2.0000      -0.412512       -11.2250
  72   2.0000      -0.411041       -11.1850
  73   2.0000      -0.398872       -10.8539
  74   2.0000      -0.388585       -10.5739
  75   2.0000      -0.384502       -10.4628
  76   2.0000      -0.379216       -10.3190
  77   2.0000      -0.370646       -10.0858
  78   2.0000      -0.363752        -9.8982
  79   2.0000      -0.361105        -9.8262
  80   2.0000      -0.354618        -9.6497
  81   2.0000      -0.351211        -9.5569
  82   2.0000      -0.346749        -9.4355
  83   2.0000      -0.345074        -9.3899
  84   2.0000      -0.341951        -9.3050
  85   2.0000      -0.335077        -9.1179
  86   2.0000      -0.315428        -8.5832
  87   2.0000      -0.305757        -8.3201
  88   2.0000      -0.303835        -8.2678
  89   2.0000      -0.302547        -8.2327
  90   2.0000      -0.299406        -8.1473
  91   2.0000      -0.291222        -7.9246
  92   2.0000      -0.282374        -7.6838
  93   2.0000      -0.277746        -7.5579
  94   2.0000      -0.274570        -7.4714
  95   2.0000      -0.244959        -6.6657
  96   2.0000      -0.237349        -6.4586
  97   2.0000      -0.232506        -6.3268
  98   2.0000      -0.224800        -6.1171
  99   2.0000      -0.217668        -5.9231
 100   2.0000      -0.215199        -5.8559
 101   0.0000      -0.050968        -1.3869
 102   0.0000      -0.024063        -0.6548
 103   0.0000      -0.011700        -0.3184
 104   0.0000      -0.000003        -0.0001
 105   0.0000       0.005987         0.1629

MULLIKEN ATOMIC CHARGES
-----------------------
   0 C :   -0.493037
   1 C :   -0.128982
   2 O :   -0.318374
   3 P :    0.717493
   4 S :   -0.521563
   5 O :   -0.273034
   6 C :   -0.158412
   7 C :   -0.479678
   8 S :   -0.152818
   9 C :   -0.262026
  10 S :   -0.111292
  11 P :    0.714610
  12 S :   -0.521723
  13 O :   -0.293597
  14 C :   -0.133383
  15 C :   -0.498889
  16 O :   -0.334130
  17 C :   -0.151361
  18 C :   -0.489986
  19 H :    0.172146
  20 H :    0.166088
  21 H :    0.168655
  22 H :    0.175618
  23 H :    0.164334
  24 H :    0.177145
  25 H :    0.179767
  26 H :    0.170445
  27 H :    0.166965
  28 H :    0.172547
  29 H :    0.226028
  30 H :    0.232620
  31 H :    0.167040
  32 H :    0.175887
  33 H :    0.167588
  34 H :    0.169787
  35 H :    0.171843
  36 H :    0.173644
  37 H :    0.178267
  38 H :    0.172822
  39 H :    0.168946
  40 H :    0.172000
Sum of atomic charges:    0.0000000

LOEWDIN ATOMIC CHARGES
----------------------
   0 C :   -0.406427
   1 C :    0.025002
   2 O :   -0.685486
   3 P :    0.378311
   4 S :   -0.148706
   5 O :   -0.696357
   6 C :    0.026552
   7 C :   -0.401371
   8 S :    0.175903
   9 C :   -0.393857
  10 S :    0.195035
  11 P :    0.375579
  12 S :   -0.160679
  13 O :   -0.689324
  14 C :    0.030739
  15 C :   -0.412618
  16 O :   -0.676922
  17 C :    0.022292
  18 C :   -0.410347
  19 H :    0.162710
  20 H :    0.161878
  21 H :    0.166872
  22 H :    0.189012
  23 H :    0.179707
  24 H :    0.182326
  25 H :    0.190714
  26 H :    0.164350
  27 H :    0.162652
  28 H :    0.168840
  29 H :    0.201136
  30 H :    0.198387
  31 H :    0.180918
  32 H :    0.189137
  33 H :    0.164774
  34 H :    0.162616
  35 H :    0.162809
  36 H :    0.189856
  37 H :    0.181255
  38 H :    0.161362
  39 H :    0.163339
  40 H :    0.168028

  Mayer bond orders larger than 0.100000
B(  0-C ,  1-C ) :   0.9411 B(  0-C , 19-H ) :   0.9622 B(  0-C , 20-H ) :   0.9717
B(  0-C , 21-H ) :   0.9592 B(  1-C ,  2-O ) :   0.7715 B(  1-C , 22-H ) :   0.9532
B(  1-C , 23-H ) :   0.9595 B(  2-O ,  3-P ) :   1.0408 B(  3-P ,  4-S ) :   1.7363
B(  3-P ,  5-O ) :   1.1591 B(  3-P ,  8-S ) :   1.0675 B(  5-O ,  6-C ) :   0.7716
B(  6-C ,  7-C ) :   0.9149 B(  6-C , 24-H ) :   0.9559 B(  6-C , 25-H ) :   0.9531
B(  7-C , 26-H ) :   0.9708 B(  7-C , 27-H ) :   0.9592 B(  7-C , 28-H ) :   0.9574
B(  8-S ,  9-C ) :   0.9049 B(  9-C , 10-S ) :   0.8979 B(  9-C , 29-H ) :   0.9110
B(  9-C , 30-H ) :   0.9071 B( 10-S , 11-P ) :   1.1407 B( 11-P , 12-S ) :   1.7009
B( 11-P , 13-O ) :   1.1439 B( 11-P , 16-O ) :   1.0680 B( 13-O , 14-C ) :   0.7452
B( 14-C , 15-C ) :   0.9268 B( 14-C , 31-H ) :   0.9597 B( 14-C , 32-H ) :   0.9550
B( 15-C , 33-H ) :   0.9607 B( 15-C , 34-H ) :   0.9610 B( 15-C , 35-H ) :   0.9649
B( 16-O , 17-C ) :   0.8073 B( 17-C , 18-C ) :   0.9092 B( 17-C , 36-H ) :   0.9489
B( 17-C , 37-H ) :   0.9653 B( 18-C , 38-H ) :   0.9643 B( 18-C , 39-H ) :   0.9656
B( 18-C , 40-H ) :   0.9540

Dispersion correction           -0.022242684
FINAL SINGLE POINT ENERGY     -2932.466031311082

DIPOLE MOMENT
-------------

Method             : SCF
Type of density    : Electron Density
Multiplicity       :   1
Irrep              :   0
Energy             : -2932.4902854336414748 Eh
Relativity type    :
Basis              : AO
                                X                 Y                 Z
Electronic contribution:     -6.170234786       1.756347615      -7.578952345
Nuclear contribution   :      6.439117715      -3.557159224       8.312159188
                        -----------------------------------------
Total Dipole Moment    :      0.268882929      -1.800811609       0.733206843
                        -----------------------------------------
Magnitude (a.u.)       :      1.962858312
Magnitude (Debye)      :      4.989189332

Rotational constants in cm-1:             0.013623             0.005027             0.004885
Rotational constants in MHz :           408.410480           150.696716           146.459295

                             ****ORCA TERMINATED NORMALLY****
TOTAL RUN TIME: 0 days 0 hours 1 minutes 57 seconds 491 msec
