                         Program Version 6.0.0  -   RELEASE  -
|  1> ! wb97x-v def2-tzvp def2/J RIJCOSX DEFGRID2 scfconv7 GCP(DFT/TZ) printgap
|  2> %output
|  3>     printlevel normal
|  4> end
|  5> * xyz 0 1
|  6> C -2.5958693620599274 0.5776975814256967 -0.0004626732467532432
|  7> C -1.2366689820833736 -0.06828957575539954 8.942342439122463e-06
|  8> C -1.1396192952012718 -1.464353868405607 8.800297875953309e-05
|  9> C 0.10069145186704799 -2.095502096250609 0.00026644513774080035
| 10> C 1.266794959159077 -1.341715336481018 4.4392650368674874e-05
| 11> C 1.1716322009137774 0.0473715972791041 -0.0001744066372899151
| 12> C -0.06473522635316924 0.7106222838786266 0.0002831052331355087
| 13> C -0.08586440661062399 2.2138949382249327 0.0005122393281965567
| 14> O 2.3640517188083963 0.7460505964211491 -0.0008286526010485353
| 15> H -2.7402374063261163 1.21350491735859 -0.880858401235776
| 16> H -3.3789546058441613 -0.1838729522633645 -0.001947840642674199
| 17> H -2.7418427542014943 1.211600891667651 0.8810491176737691
| 18> H -2.0490936860980304 -2.0575706182464173 -3.6556890059009595e-05
| 19> H 0.16081755994797034 -3.179481675424159 0.00042488079860010275
| 20> H 2.245720649083944 -1.810018500125214 -9.900025398372207e-05
| 21> H 0.4156722173511802 2.621533457527206 -0.8870975894020737
| 22> H -1.1019746381833477 2.6059769330755276 0.007735054312554775
| 23> H 0.4277211718431194 2.6213250680184057 0.8812820428720243
| 24> H 2.1834714322043283 1.6959428598978223 -0.0020944436448488563
| 25> *
| 26>
| 27>                          ****END OF INPUT****

CARTESIAN COORDINATES (ANGSTROEM)
---------------------------------
  C     -2.595869    0.577698   -0.000463
  C     -1.236669   -0.068290    0.000009
  C     -1.139619   -1.464354    0.000088
  C      0.100691   -2.095502    0.000266
  C      1.266795   -1.341715    0.000044
  C      1.171632    0.047372   -0.000174
  C     -0.064735    0.710622    0.000283
  C     -0.085864    2.213895    0.000512
  O      2.364052    0.746051   -0.000829
  H     -2.740237    1.213505   -0.880858
  H     -3.378955   -0.183873   -0.001948
  H     -2.741843    1.211601    0.881049
  H     -2.049094   -2.057571   -0.000037
  H      0.160818   -3.179482    0.000425
  H      2.245721   -1.810019   -0.000099
  H      0.415672    2.621533   -0.887098
  H     -1.101975    2.605977    0.007735
  H      0.427721    2.621325    0.881282
  H      2.183471    1.695943   -0.002094

 Total Charge           Charge          ....    0
 Multiplicity           Mult            ....    1
 Number of Electrons    NEL             ....   66
 Basis Dimension        Dim             ....  339

ORBITAL ENERGIES
----------------

  NO   OCC          E(Eh)            E(eV)
   0   2.0000     -21.698777      -590.4537
   1   2.0000     -12.107078      -329.4504
   2   2.0000     -12.060687      -328.1880
   3   2.0000     -12.057367      -328.0976
   4   2.0000     -12.055327      -328.0421
   5   2.0000     -12.047573      -327.8311
   6   2.0000     -12.045563      -327.7764
   7   2.0000     -12.039436      -327.6097
   8   2.0000     -12.037549      -327.5584
   9   2.0000      -1.710498       -46.5450
  10   2.0000      -1.385669       -37.7060
  11   2.0000      -1.302056       -35.4307
  12   2.0000      -1.287229       -35.0273
  13   2.0000      -1.221284       -33.2328
  14   2.0000      -1.182846       -32.1869
  15   2.0000      -1.138711       -30.9859
  16   2.0000      -1.088080       -29.6082
  17   2.0000      -1.051891       -28.6234
  18   2.0000      -0.993872       -27.0446
  19   2.0000      -0.943591       -25.6764
  20   2.0000      -0.941972       -25.6324
  21   2.0000      -0.936402       -25.4808
  22   2.0000      -0.889693       -24.2098
  23   2.0000      -0.870856       -23.6972
  24   2.0000      -0.854476       -23.2515
  25   2.0000      -0.845496       -23.0071
  26   2.0000      -0.834404       -22.7053
  27   2.0000      -0.828757       -22.5516
  28   2.0000      -0.813290       -22.1308
  29   2.0000      -0.806158       -21.9367
  30   2.0000      -0.751964       -20.4620
  31   2.0000      -0.631639       -17.1878
  32   2.0000      -0.628537       -17.1034
  33   0.0000      -0.242001        -6.5852
  34   0.0000      -0.238224        -6.4824
  35   0.0000      -0.149946        -4.0802
  36   0.0000      -0.073597        -2.0027
  37   0.0000      -0.067228        -1.8294

MULLIKEN ATOMIC CHARGES
-----------------------
   0 C :   -0.408716
   1 C :    0.130504
   2 C :   -0.209653
   3 C :   -0.089617
   4 C :   -0.245951
   5 C :    0.205129
   6 C :    0.040273
   7 C :   -0.487090
   8 O :   -0.390539
   9 H :    0.130117
  10 H :    0.120146
  11 H :    0.129953
  12 H :    0.104467
  13 H :    0.114464
  14 H :    0.118318
  15 H :    0.141700
  16 H :    0.135726
  17 H :    0.140862
  18 H :    0.319908
Sum of atomic charges:    0.0000000

LOEWDIN ATOMIC CHARGES
----------------------
   0 C :   -0.253895
   1 C :   -0.142286
   2 C :   -0.139286
   3 C :   -0.139066
   4 C :   -0.128405
   5 C :   -0.225687
   6 C :   -0.143169
   7 C :   -0.263851
   8 O :    0.065715
   9 H :    0.125687
  10 H :    0.125814
  11 H :    0.125662
  12 H :    0.140878
  13 H :    0.142076
  14 H :    0.146528
  15 H :    0.126144
  16 H :    0.130767
  17 H :    0.125996
  18 H :    0.180378

  Mayer bond orders larger than 0.100000
B(  0-C ,  1-C ) :   0.8891 B(  0-C ,  9-H ) :   0.9852 B(  0-C , 10-H ) :   0.9881
B(  0-C , 11-H ) :   0.9851 B(  1-C ,  2-C ) :   1.4365 B(  1-C ,  6-C ) :   1.3413
B(  2-C ,  3-C ) :   1.4314 B(  2-C , 12-H ) :   0.9740 B(  3-C ,  4-C ) :   1.4353
B(  3-C , 13-H ) :   0.9800 B(  4-C ,  5-C ) :   1.4337 B(  4-C , 14-H ) :   0.9765
B(  5-C ,  6-C ) :   1.3066 B(  5-C ,  8-O ) :   1.1472 B(  6-C ,  7-C ) :   0.8559
B(  7-C , 15-H ) :   0.9892 B(  7-C , 16-H ) :   0.9822 B(  7-C , 17-H ) :   0.9894
B(  8-O , 18-H ) :   0.8851

FINAL SINGLE POINT ENERGY      -386.120795986115

DIPOLE MOMENT
-------------

Method             : SCF
Type of density    : Electron Density
Multiplicity       :   1
Irrep              :   0
Energy             :  -386.1323238154150772 Eh
Relativity type    :
Basis              : AO
                                X                 Y                 Z
Electronic contribution:      5.659209609      -3.861195817       0.000129671
Nuclear contribution   :     -6.149252002       4.483608584      -0.000929285
                        -----------------------------------------
Total Dipole Moment    :     -0.490042393       0.622412767      -0.000799614
                        -----------------------------------------
Magnitude (a.u.)       :      0.792174121
Magnitude (Debye)      :      2.013546597

Rotational constants in cm-1:             0.074783             0.058944             0.033373
Rotational constants in MHz :          2241.946135          1767.085121          1000.484849

                             ****ORCA TERMINATED NORMALLY****
TOTAL RUN TIME: 0 days 0 hours 2 minutes 37 seconds 171 msec
