                         Program Version 6.0.0  -   RELEASE  -
|  1> ! wb97x-v def2-tzvp def2/J RIJCOSX DEFGRID2 scfconv7 GCP(DFT/TZ) printgap
|  2> %output
|  3>     printlevel normal
|  4> end
|  5> %cpcm
|  6>     smd true
|  7>     smdsolvent "water"
|  8> end
|  9> * xyz 0 1
| 10> C -2.5958693620599274 0.5776975814256967 -0.0004626732467532432
| 11> C -1.2366689820833736 -0.06828957575539954 8.942342439122463e-06
| 12> C -1.1396192952012718 -1.464353868405607 8.800297875953309e-05
| 13> C 0.10069145186704799 -2.095502096250609 0.00026644513774080035
| 14> C 1.266794959159077 -1.341715336481018 4.4392650368674874e-05
| 15> C 1.1716322009137774 0.0473715972791041 -0.0001744066372899151
| 16> C -0.06473522635316924 0.7106222838786266 0.0002831052331355087
| 17> C -0.08586440661062399 2.2138949382249327 0.0005122393281965567
| 18> O 2.3640517188083963 0.7460505964211491 -0.0008286526010485353
| 19> H -2.7402374063261163 1.21350491735859 -0.880858401235776
| 20> H -3.3789546058441613 -0.1838729522633645 -0.001947840642674199
| 21> H -2.7418427542014943 1.211600891667651 0.8810491176737691
| 22> H -2.0490936860980304 -2.0575706182464173 -3.6556890059009595e-05
| 23> H 0.16081755994797034 -3.179481675424159 0.00042488079860010275
| 24> H 2.245720649083944 -1.810018500125214 -9.900025398372207e-05
| 25> H 0.4156722173511802 2.621533457527206 -0.8870975894020737
| 26> H -1.1019746381833477 2.6059769330755276 0.007735054312554775
| 27> H 0.4277211718431194 2.6213250680184057 0.8812820428720243
| 28> H 2.1834714322043283 1.6959428598978223 -0.0020944436448488563
| 29> *
| 30>
| 31>                          ****END OF INPUT****

CARTESIAN COORDINATES (ANGSTROEM)
---------------------------------
  C     -2.595869    0.577698   -0.000463
  C     -1.236669   -0.068290    0.000009
  C     -1.139619   -1.464354    0.000088
  C      0.100691   -2.095502    0.000266
  C      1.266795   -1.341715    0.000044
  C      1.171632    0.047372   -0.000174
  C     -0.064735    0.710622    0.000283
  C     -0.085864    2.213895    0.000512
  O      2.364052    0.746051   -0.000829
  H     -2.740237    1.213505   -0.880858
  H     -3.378955   -0.183873   -0.001948
  H     -2.741843    1.211601    0.881049
  H     -2.049094   -2.057571   -0.000037
  H      0.160818   -3.179482    0.000425
  H      2.245721   -1.810019   -0.000099
  H      0.415672    2.621533   -0.887098
  H     -1.101975    2.605977    0.007735
  H      0.427721    2.621325    0.881282
  H      2.183471    1.695943   -0.002094

 Total Charge           Charge          ....    0
 Multiplicity           Mult            ....    1
 Number of Electrons    NEL             ....   66
 Basis Dimension        Dim             ....  339

ORBITAL ENERGIES
----------------

  NO   OCC          E(Eh)            E(eV)
   0   2.0000     -21.699292      -590.4677
   1   2.0000     -12.108005      -329.4756
   2   2.0000     -12.059015      -328.1425
   3   2.0000     -12.053912      -328.0036
   4   2.0000     -12.047346      -327.8250
   5   2.0000     -12.040718      -327.6446
   6   2.0000     -12.037913      -327.5683
   7   2.0000     -12.036720      -327.5358
   8   2.0000     -12.033163      -327.4390
   9   2.0000      -1.711534       -46.5732
  10   2.0000      -1.385773       -37.7088
  11   2.0000      -1.299649       -35.3653
  12   2.0000      -1.285218       -34.9726
  13   2.0000      -1.213232       -33.0137
  14   2.0000      -1.175511       -31.9873
  15   2.0000      -1.136790       -30.9336
  16   2.0000      -1.085772       -29.5454
  17   2.0000      -1.050477       -28.5849
  18   2.0000      -0.995996       -27.1024
  19   2.0000      -0.945548       -25.7297
  20   2.0000      -0.943909       -25.6851
  21   2.0000      -0.933105       -25.3911
  22   2.0000      -0.884337       -24.0640
  23   2.0000      -0.865622       -23.5548
  24   2.0000      -0.840572       -22.8731
  25   2.0000      -0.835966       -22.7478
  26   2.0000      -0.820041       -22.3144
  27   2.0000      -0.818982       -22.2856
  28   2.0000      -0.804139       -21.8817
  29   2.0000      -0.797878       -21.7114
  30   2.0000      -0.752666       -20.4811
  31   2.0000      -0.631366       -17.1803
  32   2.0000      -0.631039       -17.1715
  33   0.0000      -0.242940        -6.6107
  34   0.0000      -0.239365        -6.5135
  35   0.0000      -0.148277        -4.0348
  36   0.0000      -0.073252        -1.9933
  37   0.0000      -0.043023        -1.1707

MULLIKEN ATOMIC CHARGES
-----------------------
   0 C :   -0.427819
   1 C :    0.097296
   2 C :   -0.264084
   3 C :   -0.143420
   4 C :   -0.306112
   5 C :    0.234082
   6 C :   -0.008149
   7 C :   -0.470714
   8 O :   -0.464193
   9 H :    0.149094
  10 H :    0.142930
  11 H :    0.149015
  12 H :    0.151838
  13 H :    0.158545
  14 H :    0.151511
  15 H :    0.158417
  16 H :    0.156198
  17 H :    0.158086
  18 H :    0.377478
Sum of atomic charges:    0.0000000

LOEWDIN ATOMIC CHARGES
----------------------
   0 C :   -0.254191
   1 C :   -0.148171
   2 C :   -0.151606
   3 C :   -0.155074
   4 C :   -0.148544
   5 C :   -0.238703
   6 C :   -0.141799
   7 C :   -0.256555
   8 O :    0.040299
   9 H :    0.132054
  10 H :    0.129948
  11 H :    0.132049
  12 H :    0.150257
  13 H :    0.150931
  14 H :    0.152241
  15 H :    0.134864
  16 H :    0.135089
  17 H :    0.134792
  18 H :    0.202118

  Mayer bond orders larger than 0.100000
B(  0-C ,  1-C ) :   0.9152 B(  0-C ,  9-H ) :   0.9766 B(  0-C , 10-H ) :   0.9832
B(  0-C , 11-H ) :   0.9765 B(  1-C ,  2-C ) :   1.4043 B(  1-C ,  6-C ) :   1.3094
B(  2-C ,  3-C ) :   1.4137 B(  2-C , 12-H ) :   0.9813 B(  3-C ,  4-C ) :   1.4216
B(  3-C , 13-H ) :   0.9819 B(  4-C ,  5-C ) :   1.3974 B(  4-C , 14-H ) :   0.9872
B(  5-C ,  6-C ) :   1.3052 B(  5-C ,  8-O ) :   1.1132 B(  6-C ,  7-C ) :   0.9208
B(  7-C , 15-H ) :   0.9753 B(  7-C , 16-H ) :   0.9767 B(  7-C , 17-H ) :   0.9755
B(  8-O , 18-H ) :   0.8474

FINAL SINGLE POINT ENERGY      -386.129459884872

DIPOLE MOMENT
-------------

Method             : SCF
Type of density    : Electron Density
Multiplicity       :   1
Irrep              :   0
Energy             :  -386.1409877141719562 Eh
Relativity type    :
Basis              : AO
                                X                 Y                 Z
Electronic contribution:      5.452042894      -3.515269439      -0.000099611
Nuclear contribution   :     -6.149252002       4.483608584      -0.000929285
                        -----------------------------------------
Total Dipole Moment    :     -0.697209109       0.968339145      -0.001028896
                        -----------------------------------------
Magnitude (a.u.)       :      1.193223491
Magnitude (Debye)      :      3.032933083

Rotational constants in cm-1:             0.074783             0.058944             0.033373
Rotational constants in MHz :          2241.946135          1767.085121          1000.484849

                             ****ORCA TERMINATED NORMALLY****
TOTAL RUN TIME: 0 days 0 hours 2 minutes 34 seconds 97 msec
