                         Program Version 6.0.1  -  RELEASE   -
|  1> ! pbe def2-sv(p) def2/J RI DEFGRID1 loosescf d4 GCP(DFT/SV(P)) printgap
|  2> %output
|  3>     printlevel normal
|  4> end
|  5> * xyz 0 1
|  6> C 5.0133375132 0.4390418616 -0.8481622663
|  7> C 4.6611449986 -1.01724933 -1.1034320822
|  8> O 3.2374431728 -1.17373063 -1.2652147557
|  9> C 2.5097356385 -1.5036659514 -0.2173654081
| 10> O 2.9476300159 -1.7312194046 0.8868750483
| 11> C 1.0366175521 -1.5938154581 -0.582635488
| 12> C 0.5355947711 -0.2512592555 -1.1212513216
| 13> H 1.1425374479 0.0515173817 -1.9779102729
| 14> C 0.5935590593 0.8121357943 -0.0455983842
| 15> O -0.4107182631 1.3509037761 0.3842837801
| 16> O 1.8040610665 1.0447238597 0.3650290657
| 17> C 2.0040025102 1.9968225914 1.4364962902
| 18> C 2.2411690874 3.3884567024 0.8761502546
| 19> S -1.1814549553 -0.3422866947 -1.729227882
| 20> P -2.2970726048 -0.170712503 0.0574574891
| 21> S -1.7307237016 -0.8548272982 1.8205433166
| 22> O -3.1295681375 1.1942912008 0.0903259818
| 23> C -2.9258363668 2.2908432482 0.9799895581
| 24> O -3.4331242008 -1.1109234413 -0.5843461177
| 25> C -4.618895707 -1.4486577417 0.1380794822
| 26> H 6.0911225225 0.5394619708 -0.7740705025
| 27> H 4.6497364225 1.0600039343 -1.6618281954
| 28> H 4.5595802881 0.7715629919 0.081514105
| 29> H 4.9898638034 -1.6499647838 -0.2744374323
| 30> H 5.0873318548 -1.3703543806 -2.0429937781
| 31> H 0.4747649006 -1.8925308228 0.3050225251
| 32> H 0.9122465915 -2.3471766538 -1.3611562286
| 33> H 1.1279936481 1.973120098 2.0896385286
| 34> H 2.87674169 1.6216220238 1.9721890213
| 35> H 1.3617523016 3.732527581 0.3372307049
| 36> H 2.4403252172 4.0701634186 1.6961942188
| 37> H 3.0921903458 3.3825006371 0.2010808193
| 38> H -2.2665997431 3.0199548305 0.5140220356
| 39> H -2.4860711208 1.9401720752 1.9147425149
| 40> H -3.9110107628 2.7168213435 1.1577676727
| 41> H -5.2940467801 -0.5940814647 0.1707535589
| 42> H -4.3636025329 -1.7582588671 1.1540887102
| 43> H -5.0708756603 -2.2736764023 -0.4067510473
| 44> *
| 45>
| 46>                          ****END OF INPUT****

CARTESIAN COORDINATES (ANGSTROEM)
---------------------------------
  C      5.013338    0.439042   -0.848162
  C      4.661145   -1.017249   -1.103432
  O      3.237443   -1.173731   -1.265215
  C      2.509736   -1.503666   -0.217365
  O      2.947630   -1.731219    0.886875
  C      1.036618   -1.593815   -0.582635
  C      0.535595   -0.251259   -1.121251
  H      1.142537    0.051517   -1.977910
  C      0.593559    0.812136   -0.045598
  O     -0.410718    1.350904    0.384284
  O      1.804061    1.044724    0.365029
  C      2.004003    1.996823    1.436496
  C      2.241169    3.388457    0.876150
  S     -1.181455   -0.342287   -1.729228
  P     -2.297073   -0.170713    0.057457
  S     -1.730724   -0.854827    1.820543
  O     -3.129568    1.194291    0.090326
  C     -2.925836    2.290843    0.979990
  O     -3.433124   -1.110923   -0.584346
  C     -4.618896   -1.448658    0.138079
  H      6.091123    0.539462   -0.774071
  H      4.649736    1.060004   -1.661828
  H      4.559580    0.771563    0.081514
  H      4.989864   -1.649965   -0.274437
  H      5.087332   -1.370354   -2.042994
  H      0.474765   -1.892531    0.305023
  H      0.912247   -2.347177   -1.361156
  H      1.127994    1.973120    2.089639
  H      2.876742    1.621622    1.972189
  H      1.361752    3.732528    0.337231
  H      2.440325    4.070163    1.696194
  H      3.092190    3.382501    0.201081
  H     -2.266600    3.019955    0.514022
  H     -2.486071    1.940172    1.914743
  H     -3.911011    2.716821    1.157768
  H     -5.294047   -0.594081    0.170754
  H     -4.363603   -1.758259    1.154089
  H     -5.070876   -2.273676   -0.406751

 Total Charge           Charge          ....    0
 Multiplicity           Mult            ....    1
 Number of Electrons    NEL             ....  174
 Basis Dimension        Dim             ....  316

ORBITAL ENERGIES
----------------

  NO   OCC          E(Eh)            E(eV)
   0   2.0000     -88.033165     -2395.5042
   1   2.0000     -87.968926     -2393.7562
   2   2.0000     -76.416816     -2079.4073
   3   2.0000     -18.834146      -512.5032
   4   2.0000     -18.805198      -511.7154
   5   2.0000     -18.779370      -511.0126
   6   2.0000     -18.769275      -510.7379
   7   2.0000     -18.767678      -510.6945
   8   2.0000     -18.738675      -509.9053
   9   2.0000     -10.037752      -273.1411
  10   2.0000     -10.010785      -272.4073
  11   2.0000      -9.964995      -271.1613
  12   2.0000      -9.954488      -270.8754
  13   2.0000      -9.952728      -270.8275
  14   2.0000      -9.932383      -270.2739
  15   2.0000      -9.927878      -270.1513
  16   2.0000      -9.907235      -269.5896
  17   2.0000      -9.902983      -269.4739
  18   2.0000      -9.895213      -269.2624
  19   2.0000      -7.678518      -208.9431
  20   2.0000      -7.613913      -207.1851
  21   2.0000      -6.412377      -174.4897
  22   2.0000      -5.706828      -155.2907
  23   2.0000      -5.703181      -155.1914
  24   2.0000      -5.694797      -154.9633
  25   2.0000      -5.643103      -153.5566
  26   2.0000      -5.634829      -153.3315
  27   2.0000      -5.633515      -153.2957
  28   2.0000      -4.635065      -126.1265
  29   2.0000      -4.634356      -126.1072
  30   2.0000      -4.633009      -126.0706
  31   2.0000      -1.043926       -28.4067
  32   2.0000      -1.012650       -27.5556
  33   2.0000      -0.967962       -26.3396
  34   2.0000      -0.947884       -25.7932
  35   2.0000      -0.922402       -25.0998
  36   2.0000      -0.916092       -24.9281
  37   2.0000      -0.770477       -20.9657
  38   2.0000      -0.722376       -19.6568
  39   2.0000      -0.714510       -19.4428
  40   2.0000      -0.688131       -18.7250
  41   2.0000      -0.651917       -17.7396
  42   2.0000      -0.632080       -17.1998
  43   2.0000      -0.618789       -16.8381
  44   2.0000      -0.614428       -16.7194
  45   2.0000      -0.597390       -16.2558
  46   2.0000      -0.571147       -15.5417
  47   2.0000      -0.519819       -14.1450
  48   2.0000      -0.506282       -13.7766
  49   2.0000      -0.505001       -13.7418
  50   2.0000      -0.489275       -13.3139
  51   2.0000      -0.468826       -12.7574
  52   2.0000      -0.465168       -12.6579
  53   2.0000      -0.453160       -12.3311
  54   2.0000      -0.443452       -12.0670
  55   2.0000      -0.435962       -11.8631
  56   2.0000      -0.432361       -11.7652
  57   2.0000      -0.415249       -11.2995
  58   2.0000      -0.409741       -11.1496
  59   2.0000      -0.405833       -11.0433
  60   2.0000      -0.399018       -10.8578
  61   2.0000      -0.396339       -10.7849
  62   2.0000      -0.389727       -10.6050
  63   2.0000      -0.386980       -10.5303
  64   2.0000      -0.378621       -10.3028
  65   2.0000      -0.369765       -10.0618
  66   2.0000      -0.364982        -9.9317
  67   2.0000      -0.359929        -9.7942
  68   2.0000      -0.357631        -9.7316
  69   2.0000      -0.347915        -9.4672
  70   2.0000      -0.342417        -9.3176
  71   2.0000      -0.334245        -9.0953
  72   2.0000      -0.329527        -8.9669
  73   2.0000      -0.314057        -8.5459
  74   2.0000      -0.306991        -8.3536
  75   2.0000      -0.297196        -8.0871
  76   2.0000      -0.292298        -7.9538
  77   2.0000      -0.289471        -7.8769
  78   2.0000      -0.275076        -7.4852
  79   2.0000      -0.262378        -7.1397
  80   2.0000      -0.260896        -7.0993
  81   2.0000      -0.257040        -6.9944
  82   2.0000      -0.245874        -6.6906
  83   2.0000      -0.226385        -6.1603
  84   2.0000      -0.208836        -5.6827
  85   2.0000      -0.188905        -5.1404
  86   2.0000      -0.181842        -4.9482
  87   0.0000      -0.052609        -1.4316
  88   0.0000      -0.040191        -1.0936
  89   0.0000      -0.022131        -0.6022
  90   0.0000       0.012777         0.3477
  91   0.0000       0.021368         0.5814

MULLIKEN ATOMIC CHARGES
-----------------------
   0 C :   -0.311394
   1 C :   -0.015908
   2 O :   -0.243301
   3 C :    0.099403
   4 O :   -0.191601
   5 C :   -0.037972
   6 C :   -0.342589
   7 H :    0.156266
   8 C :    0.237682
   9 O :   -0.202361
  10 O :   -0.214500
  11 C :   -0.019976
  12 C :   -0.308372
  13 S :   -0.056435
  14 P :    0.646564
  15 S :   -0.350667
  16 O :   -0.391064
  17 C :   -0.084478
  18 O :   -0.394623
  19 C :   -0.094877
  20 H :    0.113773
  21 H :    0.113103
  22 H :    0.128798
  23 H :    0.113565
  24 H :    0.105172
  25 H :    0.124614
  26 H :    0.123420
  27 H :    0.128482
  28 H :    0.126097
  29 H :    0.125953
  30 H :    0.122687
  31 H :    0.119572
  32 H :    0.109974
  33 H :    0.113724
  34 H :    0.114433
  35 H :    0.105779
  36 H :    0.111887
  37 H :    0.119168
Sum of atomic charges:    0.0000000

LOEWDIN ATOMIC CHARGES
----------------------
   0 C :   -0.355676
   1 C :   -0.110175
   2 O :   -0.065433
   3 C :    0.021607
   4 O :   -0.160212
   5 C :   -0.246545
   6 C :   -0.269246
   7 H :    0.148655
   8 C :    0.035439
   9 O :   -0.150509
  10 O :   -0.021206
  11 C :   -0.104744
  12 C :   -0.353950
  13 S :    0.123972
  14 P :    0.588297
  15 S :   -0.346545
  16 O :   -0.252814
  17 C :   -0.212261
  18 O :   -0.271789
  19 C :   -0.216265
  20 H :    0.130992
  21 H :    0.123638
  22 H :    0.126488
  23 H :    0.122018
  24 H :    0.118438
  25 H :    0.137799
  26 H :    0.145158
  27 H :    0.128920
  28 H :    0.125712
  29 H :    0.130259
  30 H :    0.136002
  31 H :    0.126797
  32 H :    0.109864
  33 H :    0.107839
  34 H :    0.114945
  35 H :    0.108163
  36 H :    0.107104
  37 H :    0.119266

  Mayer bond orders larger than 0.100000
B(  0-C ,  1-C ) :   1.1765 B(  0-C , 20-H ) :   0.9418 B(  0-C , 21-H ) :   0.9489
B(  0-C , 22-H ) :   0.9397 B(  1-C ,  2-O ) :   0.9165 B(  1-C , 23-H ) :   0.9096
B(  1-C , 24-H ) :   0.9374 B(  2-O ,  3-C ) :   1.1938 B(  3-C ,  4-O ) :   2.0748
B(  3-C ,  5-C ) :   1.0117 B(  5-C ,  6-C ) :   1.0206 B(  5-C , 25-H ) :   0.8791
B(  5-C , 26-H ) :   0.8867 B(  6-C ,  7-H ) :   0.8681 B(  6-C ,  8-C ) :   0.9056
B(  6-C , 13-S ) :   1.0442 B(  8-C ,  9-O ) :   1.8958 B(  8-C , 10-O ) :   1.2817
B(  9-O , 14-P ) :   0.1378 B( 10-O , 11-C ) :   0.8818 B( 11-C , 12-C ) :   1.1781
B( 11-C , 27-H ) :   0.9127 B( 11-C , 28-H ) :   0.9257 B( 12-C , 29-H ) :   0.9452
B( 12-C , 30-H ) :   0.9431 B( 12-C , 31-H ) :   0.9481 B( 13-S , 14-P ) :   0.9316
B( 13-S , 15-S ) :   0.1090 B( 14-P , 15-S ) :   1.5557 B( 14-P , 16-O ) :   1.0894
B( 14-P , 18-O ) :   1.0700 B( 16-O , 17-C ) :   0.9339 B( 17-C , 32-H ) :   0.9536
B( 17-C , 33-H ) :   0.9342 B( 17-C , 34-H ) :   0.9544 B( 18-O , 19-C ) :   0.9425
B( 19-C , 35-H ) :   0.9511 B( 19-C , 36-H ) :   0.9322 B( 19-C , 37-H ) :   0.9610

Dispersion correction           -0.052281364
FINAL SINGLE POINT ENERGY     -1979.010645006512

DIPOLE MOMENT
-------------

Method             : SCF
Type of density    : Electron Density
Multiplicity       :   1
Irrep              :   0
Energy             : -1979.1426531111092117 Eh
Relativity type    :
Basis              : AO
                                X                 Y                 Z
Electronic contribution:    -15.446891746     -10.902367868      -3.400496656
Nuclear contribution   :     16.612750477      12.370900501       2.847926638
                        -----------------------------------------
Total Dipole Moment    :      1.165858731       1.468532633      -0.552570018
                        -----------------------------------------
Magnitude (a.u.)       :      1.954775767
Magnitude (Debye)      :      4.968645135

Rotational constants in cm-1:             0.016988             0.006225             0.005418
Rotational constants in MHz :           509.274956           186.607745           162.423801

                             ****ORCA TERMINATED NORMALLY****
TOTAL RUN TIME: 0 days 0 hours 0 minutes 44 seconds 159 msec
