                         Program Version 6.0.0  -   RELEASE  -
|  1> ! r2scan-3c def2/J RI DEFGRID2 scfconv6 printgap
|  2> %output
|  3>     printlevel normal
|  4> end
|  5> * xyz 0 1
|  6> C 1.3992276052 -0.5037718603 -2.986737344
|  7> C 2.4434914769 0.2296948849 -2.1689390979
|  8> O 2.8460386788 -0.5582255844 -1.0351879933
|  9> P 2.3189766712 -0.3334302417 0.4499730562
| 10> S 2.3773701009 1.5297979605 1.0732235626
| 11> O 3.2540429867 -1.3294550555 1.2469478417
| 12> C 4.633871676 -1.0087467628 1.5360890484
| 13> C 5.0446613812 -1.7850884105 2.7701764289
| 14> S 0.5221296563 -1.4055030243 0.6333053486
| 15> C -0.3609515553 -0.2931593779 1.789866581
| 16> S -2.1294668546 -0.2518491824 1.4572150926
| 17> P -2.0419911475 0.4981550437 -0.5411685685
| 18> S -0.6628279452 1.8289847493 -0.9330407268
| 19> O -3.5382324627 0.9537022961 -0.8242885824
| 20> C -4.0280570986 2.2691990383 -0.5085472395
| 21> C -4.045932835 2.5387907784 0.9819667275
| 22> O -1.8909830154 -0.778773714 -1.45296591
| 23> C -2.77969561 -1.9230344531 -1.3990716599
| 24> C -3.84845005 -1.8224040537 -2.4677395172
| 25> H 0.4719512774 -0.599764259 -2.4248490614
| 26> H 1.1989566407 0.0604896682 -3.8919206175
| 27> H 1.7593803965 -1.495213475 -3.2463743157
| 28> H 2.0674726575 1.1983119809 -1.8223336818
| 29> H 3.3598030392 0.381548521 -2.7427201382
| 30> H 5.2313739427 -1.2892204565 0.6657562276
| 31> H 4.7144130135 0.0722132177 1.6949411049
| 32> H 4.9055161097 -2.8487078488 2.6004409433
| 33> H 6.0897366037 -1.5864220008 2.9842639849
| 34> H 4.4400118614 -1.481964368 3.620235301
| 35> H 0.0626392743 0.7102816405 1.6871368371
| 36> H -0.2496407316 -0.6667774137 2.8045853458
| 37> H -3.4012437507 3.0027110701 -1.0249440484
| 38> H -5.0340763871 2.2791358608 -0.930443258
| 39> H -4.5512442763 3.4810190422 1.1685510692
| 40> H -4.5638491745 1.7395423786 1.5060223542
| 41> H -3.0276359462 2.6063743775 1.3620196544
| 42> H -2.125448492 -2.7811246442 -1.5636662604
| 43> H -3.2204165906 -1.9825399001 -0.4003025054
| 44> H -4.4868084403 -0.9629156742 -2.2825632126
| 45> H -3.3886868522 -1.714150224 -3.4461726188
| 46> H -4.4497934667 -2.7259397238 -2.4519908902
| 47> *
| 48>
| 49>                          ****END OF INPUT****

CARTESIAN COORDINATES (ANGSTROEM)
---------------------------------
  C      1.399228   -0.503772   -2.986737
  C      2.443491    0.229695   -2.168939
  O      2.846039   -0.558226   -1.035188
  P      2.318977   -0.333430    0.449973
  S      2.377370    1.529798    1.073224
  O      3.254043   -1.329455    1.246948
  C      4.633872   -1.008747    1.536089
  C      5.044661   -1.785088    2.770176
  S      0.522130   -1.405503    0.633305
  C     -0.360952   -0.293159    1.789867
  S     -2.129467   -0.251849    1.457215
  P     -2.041991    0.498155   -0.541169
  S     -0.662828    1.828985   -0.933041
  O     -3.538232    0.953702   -0.824289
  C     -4.028057    2.269199   -0.508547
  C     -4.045933    2.538791    0.981967
  O     -1.890983   -0.778774   -1.452966
  C     -2.779696   -1.923034   -1.399072
  C     -3.848450   -1.822404   -2.467740
  H      0.471951   -0.599764   -2.424849
  H      1.198957    0.060490   -3.891921
  H      1.759380   -1.495213   -3.246374
  H      2.067473    1.198312   -1.822334
  H      3.359803    0.381549   -2.742720
  H      5.231374   -1.289220    0.665756
  H      4.714413    0.072213    1.694941
  H      4.905516   -2.848708    2.600441
  H      6.089737   -1.586422    2.984264
  H      4.440012   -1.481964    3.620235
  H      0.062639    0.710282    1.687137
  H     -0.249641   -0.666777    2.804585
  H     -3.401244    3.002711   -1.024944
  H     -5.034076    2.279136   -0.930443
  H     -4.551244    3.481019    1.168551
  H     -4.563849    1.739542    1.506022
  H     -3.027636    2.606374    1.362020
  H     -2.125448   -2.781125   -1.563666
  H     -3.220417   -1.982540   -0.400303
  H     -4.486808   -0.962916   -2.282563
  H     -3.388687   -1.714150   -3.446173
  H     -4.449793   -2.725940   -2.451991

 Total Charge           Charge          ....    0
 Multiplicity           Mult            ....    1
 Number of Electrons    NEL             ....  202
 Basis Dimension        Dim             ....  539

ORBITAL ENERGIES
----------------

  NO   OCC          E(Eh)            E(eV)
   0   2.0000     -88.578420     -2410.3413
   1   2.0000     -88.571602     -2410.1558
   2   2.0000     -88.517859     -2408.6934
   3   2.0000     -88.512369     -2408.5440
   4   2.0000     -76.915169     -2092.9682
   5   2.0000     -76.906394     -2092.7294
   6   2.0000     -18.996294      -516.9154
   7   2.0000     -18.992110      -516.8016
   8   2.0000     -18.983652      -516.5714
   9   2.0000     -18.980389      -516.4827
  10   2.0000     -10.103472      -274.9295
  11   2.0000     -10.103223      -274.9227
  12   2.0000     -10.101963      -274.8884
  13   2.0000     -10.090499      -274.5764
  14   2.0000     -10.085535      -274.4414
  15   2.0000     -10.032793      -273.0062
  16   2.0000     -10.030594      -272.9463
  17   2.0000     -10.026851      -272.8445
  18   2.0000     -10.013510      -272.4815
  19   2.0000      -7.872819      -214.2303
  20   2.0000      -7.865988      -214.0444
  21   2.0000      -7.812538      -212.5900
  22   2.0000      -7.807120      -212.4425
  23   2.0000      -6.593489      -179.4180
  24   2.0000      -6.584893      -179.1841
  25   2.0000      -5.819760      -158.3637
  26   2.0000      -5.816500      -158.2750
  27   2.0000      -5.812841      -158.1754
  28   2.0000      -5.810028      -158.0989
  29   2.0000      -5.809997      -158.0981
  30   2.0000      -5.802940      -157.9060
  31   2.0000      -5.760333      -156.7466
  32   2.0000      -5.754727      -156.5941
  33   2.0000      -5.752626      -156.5369
  34   2.0000      -5.752600      -156.5362
  35   2.0000      -5.747486      -156.3970
  36   2.0000      -5.747067      -156.3857
  37   2.0000      -4.739312      -128.9632
  38   2.0000      -4.738478      -128.9405
  39   2.0000      -4.736876      -128.8969
  40   2.0000      -4.730310      -128.7183
  41   2.0000      -4.729811      -128.7047
  42   2.0000      -4.728693      -128.6743
  43   2.0000      -1.053436       -28.6655
  44   2.0000      -1.041050       -28.3284
  45   2.0000      -1.013176       -27.5699
  46   2.0000      -1.000430       -27.2231
  47   2.0000      -0.799213       -21.7477
  48   2.0000      -0.758151       -20.6303
  49   2.0000      -0.748053       -20.3556
  50   2.0000      -0.736762       -20.0483
  51   2.0000      -0.721873       -19.6432
  52   2.0000      -0.708741       -19.2858
  53   2.0000      -0.684277       -18.6201
  54   2.0000      -0.661115       -17.9898
  55   2.0000      -0.628952       -17.1146
  56   2.0000      -0.617675       -16.8078
  57   2.0000      -0.609975       -16.5983
  58   2.0000      -0.595568       -16.2062
  59   2.0000      -0.587708       -15.9923
  60   2.0000      -0.527766       -14.3612
  61   2.0000      -0.520757       -14.1705
  62   2.0000      -0.496184       -13.5019
  63   2.0000      -0.489117       -13.3095
  64   2.0000      -0.470209       -12.7950
  65   2.0000      -0.461029       -12.5452
  66   2.0000      -0.456369       -12.4184
  67   2.0000      -0.450422       -12.2566
  68   2.0000      -0.447964       -12.1897
  69   2.0000      -0.432146       -11.7593
  70   2.0000      -0.427078       -11.6214
  71   2.0000      -0.411640       -11.2013
  72   2.0000      -0.403301       -10.9744
  73   2.0000      -0.396613       -10.7924
  74   2.0000      -0.395045       -10.7497
  75   2.0000      -0.385409       -10.4875
  76   2.0000      -0.381350       -10.3771
  77   2.0000      -0.370508       -10.0820
  78   2.0000      -0.370037       -10.0692
  79   2.0000      -0.367195        -9.9919
  80   2.0000      -0.362492        -9.8639
  81   2.0000      -0.358403        -9.7526
  82   2.0000      -0.353143        -9.6095
  83   2.0000      -0.345946        -9.4137
  84   2.0000      -0.339973        -9.2511
  85   2.0000      -0.330482        -8.9929
  86   2.0000      -0.319018        -8.6809
  87   2.0000      -0.313988        -8.5441
  88   2.0000      -0.309210        -8.4140
  89   2.0000      -0.302130        -8.2214
  90   2.0000      -0.295128        -8.0308
  91   2.0000      -0.288919        -7.8619
  92   2.0000      -0.280680        -7.6377
  93   2.0000      -0.279378        -7.6023
  94   2.0000      -0.271538        -7.3889
  95   2.0000      -0.244649        -6.6572
  96   2.0000      -0.234939        -6.3930
  97   2.0000      -0.222905        -6.0656
  98   2.0000      -0.214885        -5.8473
  99   2.0000      -0.207095        -5.6353
 100   2.0000      -0.199935        -5.4405
 101   0.0000      -0.045367        -1.2345
 102   0.0000      -0.032800        -0.8925
 103   0.0000      -0.009326        -0.2538
 104   0.0000       0.012724         0.3462
 105   0.0000       0.016897         0.4598

MULLIKEN ATOMIC CHARGES
-----------------------
   0 C :   -0.440452
   1 C :   -0.152851
   2 O :   -0.285482
   3 P :    0.694004
   4 S :   -0.471277
   5 O :   -0.285434
   6 C :   -0.145396
   7 C :   -0.448001
   8 S :   -0.132665
   9 C :   -0.231236
  10 S :   -0.160681
  11 P :    0.642218
  12 S :   -0.409632
  13 O :   -0.292435
  14 C :   -0.162548
  15 C :   -0.449496
  16 O :   -0.271620
  17 C :   -0.107781
  18 C :   -0.459113
  19 H :    0.182261
  20 H :    0.143184
  21 H :    0.144158
  22 H :    0.173158
  23 H :    0.143950
  24 H :    0.150398
  25 H :    0.167882
  26 H :    0.153465
  27 H :    0.144758
  28 H :    0.156565
  29 H :    0.222948
  30 H :    0.190172
  31 H :    0.175957
  32 H :    0.147352
  33 H :    0.149137
  34 H :    0.153095
  35 H :    0.182464
  36 H :    0.159400
  37 H :    0.161030
  38 H :    0.165061
  39 H :    0.156739
  40 H :    0.146745
Sum of atomic charges:    0.0000000

LOEWDIN ATOMIC CHARGES
----------------------
   0 C :   -0.405579
   1 C :    0.019897
   2 O :   -0.657725
   3 P :    0.374335
   4 S :   -0.131531
   5 O :   -0.673910
   6 C :    0.022048
   7 C :   -0.387114
   8 S :    0.176500
   9 C :   -0.411214
  10 S :    0.128118
  11 P :    0.380981
  12 S :   -0.078802
  13 O :   -0.672657
  14 C :    0.022025
  15 C :   -0.408417
  16 O :   -0.673787
  17 C :    0.019478
  18 C :   -0.392928
  19 H :    0.175229
  20 H :    0.160617
  21 H :    0.155136
  22 H :    0.183591
  23 H :    0.174899
  24 H :    0.171025
  25 H :    0.180847
  26 H :    0.159631
  27 H :    0.158680
  28 H :    0.160560
  29 H :    0.199928
  30 H :    0.178811
  31 H :    0.181290
  32 H :    0.179152
  33 H :    0.160009
  34 H :    0.159591
  35 H :    0.167113
  36 H :    0.181623
  37 H :    0.176552
  38 H :    0.165793
  39 H :    0.161489
  40 H :    0.158718

  Mayer bond orders larger than 0.100000
B(  0-C ,  1-C ) :   0.9493 B(  0-C , 19-H ) :   0.9498 B(  0-C , 20-H ) :   0.9640
B(  0-C , 21-H ) :   0.9747 B(  1-C ,  2-O ) :   0.7724 B(  1-C , 22-H ) :   0.9555
B(  1-C , 23-H ) :   0.9665 B(  2-O ,  3-P ) :   1.0750 B(  3-P ,  4-S ) :   1.7472
B(  3-P ,  5-O ) :   1.2001 B(  3-P ,  8-S ) :   1.0924 B(  5-O ,  6-C ) :   0.7627
B(  6-C ,  7-C ) :   0.9594 B(  6-C , 24-H ) :   0.9473 B(  6-C , 25-H ) :   0.9483
B(  7-C , 26-H ) :   0.9723 B(  7-C , 27-H ) :   0.9664 B(  7-C , 28-H ) :   0.9725
B(  8-S ,  9-C ) :   0.9002 B(  9-C , 10-S ) :   0.9238 B(  9-C , 29-H ) :   0.9026
B(  9-C , 30-H ) :   0.9144 B( 10-S , 11-P ) :   1.0122 B( 11-P , 12-S ) :   1.8453
B( 11-P , 13-O ) :   1.0475 B( 11-P , 16-O ) :   1.1171 B( 13-O , 14-C ) :   0.8206
B( 14-C , 15-C ) :   0.9150 B( 14-C , 31-H ) :   0.9680 B( 14-C , 32-H ) :   0.9612
B( 15-C , 33-H ) :   0.9564 B( 15-C , 34-H ) :   0.9672 B( 15-C , 35-H ) :   0.9627
B( 16-O , 17-C ) :   0.7422 B( 17-C , 18-C ) :   0.9394 B( 17-C , 36-H ) :   0.9610
B( 17-C , 37-H ) :   0.9634 B( 18-C , 38-H ) :   0.9675 B( 18-C , 39-H ) :   0.9718
B( 18-C , 40-H ) :   0.9657

Dispersion correction           -0.021407529
FINAL SINGLE POINT ENERGY     -2932.458148005878

DIPOLE MOMENT
-------------

Method             : SCF
Type of density    : Electron Density
Multiplicity       :   1
Irrep              :   0
Energy             : -2932.4832869063302496 Eh
Relativity type    :
Basis              : AO
                                X                 Y                 Z
Electronic contribution:      3.231123988       3.682396653       5.597541159
Nuclear contribution   :     -4.178715616      -4.540310419      -5.768732794
                        -----------------------------------------
Total Dipole Moment    :     -0.947591628      -0.857913766      -0.171191635
                        -----------------------------------------
Magnitude (a.u.)       :      1.289671469
Magnitude (Debye)      :      3.278084362

Rotational constants in cm-1:             0.013180             0.004696             0.004501
Rotational constants in MHz :           395.136011           140.782536           134.950465

                             ****ORCA TERMINATED NORMALLY****
TOTAL RUN TIME: 0 days 0 hours 1 minutes 18 seconds 732 msec
