                         Program Version 6.0.0  -   RELEASE  -
|  1> ! r2scan-3c def2/J RI DEFGRID2 scfconv6 printgap
|  2> %output
|  3>     printlevel normal
|  4> end
|  5> %cpcm
|  6>     smd true
|  7>     smdsolvent "water"
|  8> end
|  9> * xyz 0 1
| 10> C 1.3992276052 -0.5037718603 -2.986737344
| 11> C 2.4434914769 0.2296948849 -2.1689390979
| 12> O 2.8460386788 -0.5582255844 -1.0351879933
| 13> P 2.3189766712 -0.3334302417 0.4499730562
| 14> S 2.3773701009 1.5297979605 1.0732235626
| 15> O 3.2540429867 -1.3294550555 1.2469478417
| 16> C 4.633871676 -1.0087467628 1.5360890484
| 17> C 5.0446613812 -1.7850884105 2.7701764289
| 18> S 0.5221296563 -1.4055030243 0.6333053486
| 19> C -0.3609515553 -0.2931593779 1.789866581
| 20> S -2.1294668546 -0.2518491824 1.4572150926
| 21> P -2.0419911475 0.4981550437 -0.5411685685
| 22> S -0.6628279452 1.8289847493 -0.9330407268
| 23> O -3.5382324627 0.9537022961 -0.8242885824
| 24> C -4.0280570986 2.2691990383 -0.5085472395
| 25> C -4.045932835 2.5387907784 0.9819667275
| 26> O -1.8909830154 -0.778773714 -1.45296591
| 27> C -2.77969561 -1.9230344531 -1.3990716599
| 28> C -3.84845005 -1.8224040537 -2.4677395172
| 29> H 0.4719512774 -0.599764259 -2.4248490614
| 30> H 1.1989566407 0.0604896682 -3.8919206175
| 31> H 1.7593803965 -1.495213475 -3.2463743157
| 32> H 2.0674726575 1.1983119809 -1.8223336818
| 33> H 3.3598030392 0.381548521 -2.7427201382
| 34> H 5.2313739427 -1.2892204565 0.6657562276
| 35> H 4.7144130135 0.0722132177 1.6949411049
| 36> H 4.9055161097 -2.8487078488 2.6004409433
| 37> H 6.0897366037 -1.5864220008 2.9842639849
| 38> H 4.4400118614 -1.481964368 3.620235301
| 39> H 0.0626392743 0.7102816405 1.6871368371
| 40> H -0.2496407316 -0.6667774137 2.8045853458
| 41> H -3.4012437507 3.0027110701 -1.0249440484
| 42> H -5.0340763871 2.2791358608 -0.930443258
| 43> H -4.5512442763 3.4810190422 1.1685510692
| 44> H -4.5638491745 1.7395423786 1.5060223542
| 45> H -3.0276359462 2.6063743775 1.3620196544
| 46> H -2.125448492 -2.7811246442 -1.5636662604
| 47> H -3.2204165906 -1.9825399001 -0.4003025054
| 48> H -4.4868084403 -0.9629156742 -2.2825632126
| 49> H -3.3886868522 -1.714150224 -3.4461726188
| 50> H -4.4497934667 -2.7259397238 -2.4519908902
| 51> *
| 52>
| 53>                          ****END OF INPUT****

CARTESIAN COORDINATES (ANGSTROEM)
---------------------------------
  C      1.399228   -0.503772   -2.986737
  C      2.443491    0.229695   -2.168939
  O      2.846039   -0.558226   -1.035188
  P      2.318977   -0.333430    0.449973
  S      2.377370    1.529798    1.073224
  O      3.254043   -1.329455    1.246948
  C      4.633872   -1.008747    1.536089
  C      5.044661   -1.785088    2.770176
  S      0.522130   -1.405503    0.633305
  C     -0.360952   -0.293159    1.789867
  S     -2.129467   -0.251849    1.457215
  P     -2.041991    0.498155   -0.541169
  S     -0.662828    1.828985   -0.933041
  O     -3.538232    0.953702   -0.824289
  C     -4.028057    2.269199   -0.508547
  C     -4.045933    2.538791    0.981967
  O     -1.890983   -0.778774   -1.452966
  C     -2.779696   -1.923034   -1.399072
  C     -3.848450   -1.822404   -2.467740
  H      0.471951   -0.599764   -2.424849
  H      1.198957    0.060490   -3.891921
  H      1.759380   -1.495213   -3.246374
  H      2.067473    1.198312   -1.822334
  H      3.359803    0.381549   -2.742720
  H      5.231374   -1.289220    0.665756
  H      4.714413    0.072213    1.694941
  H      4.905516   -2.848708    2.600441
  H      6.089737   -1.586422    2.984264
  H      4.440012   -1.481964    3.620235
  H      0.062639    0.710282    1.687137
  H     -0.249641   -0.666777    2.804585
  H     -3.401244    3.002711   -1.024944
  H     -5.034076    2.279136   -0.930443
  H     -4.551244    3.481019    1.168551
  H     -4.563849    1.739542    1.506022
  H     -3.027636    2.606374    1.362020
  H     -2.125448   -2.781125   -1.563666
  H     -3.220417   -1.982540   -0.400303
  H     -4.486808   -0.962916   -2.282563
  H     -3.388687   -1.714150   -3.446173
  H     -4.449793   -2.725940   -2.451991

 Total Charge           Charge          ....    0
 Multiplicity           Mult            ....    1
 Number of Electrons    NEL             ....  202
 Basis Dimension        Dim             ....  539

ORBITAL ENERGIES
----------------

  NO   OCC          E(Eh)            E(eV)
   0   2.0000     -88.580114     -2410.3875
   1   2.0000     -88.579018     -2410.3576
   2   2.0000     -88.525626     -2408.9048
   3   2.0000     -88.525475     -2408.9006
   4   2.0000     -76.918714     -2093.0646
   5   2.0000     -76.917363     -2093.0279
   6   2.0000     -18.995199      -516.8856
   7   2.0000     -18.993626      -516.8428
   8   2.0000     -18.992891      -516.8228
   9   2.0000     -18.989761      -516.7377
  10   2.0000     -10.103891      -274.9409
  11   2.0000     -10.091429      -274.6017
  12   2.0000     -10.090430      -274.5745
  13   2.0000     -10.087293      -274.4892
  14   2.0000     -10.087149      -274.4853
  15   2.0000     -10.018651      -272.6213
  16   2.0000     -10.018631      -272.6208
  17   2.0000     -10.018257      -272.6106
  18   2.0000     -10.014279      -272.5024
  19   2.0000      -7.874438      -214.2744
  20   2.0000      -7.873391      -214.2459
  21   2.0000      -7.820686      -212.8117
  22   2.0000      -7.820503      -212.8067
  23   2.0000      -6.597077      -179.5156
  24   2.0000      -6.595925      -179.4843
  25   2.0000      -5.821411      -158.4086
  26   2.0000      -5.820233      -158.3766
  27   2.0000      -5.818156      -158.3201
  28   2.0000      -5.817362      -158.2985
  29   2.0000      -5.811589      -158.1414
  30   2.0000      -5.810405      -158.1092
  31   2.0000      -5.768219      -156.9612
  32   2.0000      -5.768185      -156.9603
  33   2.0000      -5.761026      -156.7655
  34   2.0000      -5.760687      -156.7563
  35   2.0000      -5.760673      -156.7559
  36   2.0000      -5.760512      -156.7515
  37   2.0000      -4.742838      -129.0592
  38   2.0000      -4.742047      -129.0377
  39   2.0000      -4.741335      -129.0183
  40   2.0000      -4.740818      -129.0042
  41   2.0000      -4.740589      -128.9980
  42   2.0000      -4.739782      -128.9760
  43   2.0000      -1.052977       -28.6530
  44   2.0000      -1.050508       -28.5858
  45   2.0000      -1.012130       -27.5415
  46   2.0000      -1.009387       -27.4668
  47   2.0000      -0.801981       -21.8230
  48   2.0000      -0.756718       -20.5913
  49   2.0000      -0.744768       -20.2662
  50   2.0000      -0.725925       -19.7534
  51   2.0000      -0.721789       -19.6409
  52   2.0000      -0.709813       -19.3150
  53   2.0000      -0.688052       -18.7228
  54   2.0000      -0.670583       -18.2475
  55   2.0000      -0.628472       -17.1016
  56   2.0000      -0.617048       -16.7907
  57   2.0000      -0.602237       -16.3877
  58   2.0000      -0.596036       -16.2190
  59   2.0000      -0.586777       -15.9670
  60   2.0000      -0.527182       -14.3453
  61   2.0000      -0.519133       -14.1263
  62   2.0000      -0.494256       -13.4494
  63   2.0000      -0.489771       -13.3273
  64   2.0000      -0.466022       -12.6811
  65   2.0000      -0.463800       -12.6206
  66   2.0000      -0.456941       -12.4340
  67   2.0000      -0.451287       -12.2801
  68   2.0000      -0.438176       -11.9234
  69   2.0000      -0.432043       -11.7565
  70   2.0000      -0.424633       -11.5548
  71   2.0000      -0.410789       -11.1781
  72   2.0000      -0.404252       -11.0003
  73   2.0000      -0.399087       -10.8597
  74   2.0000      -0.393396       -10.7049
  75   2.0000      -0.384742       -10.4694
  76   2.0000      -0.378314       -10.2944
  77   2.0000      -0.367356        -9.9963
  78   2.0000      -0.363123        -9.8811
  79   2.0000      -0.361786        -9.8447
  80   2.0000      -0.354761        -9.6535
  81   2.0000      -0.352786        -9.5998
  82   2.0000      -0.348821        -9.4919
  83   2.0000      -0.344092        -9.3632
  84   2.0000      -0.341493        -9.2925
  85   2.0000      -0.326160        -8.8753
  86   2.0000      -0.322299        -8.7702
  87   2.0000      -0.308375        -8.3913
  88   2.0000      -0.307581        -8.3697
  89   2.0000      -0.304320        -8.2810
  90   2.0000      -0.297807        -8.1037
  91   2.0000      -0.286439        -7.7944
  92   2.0000      -0.284341        -7.7373
  93   2.0000      -0.281049        -7.6477
  94   2.0000      -0.276643        -7.5279
  95   2.0000      -0.249028        -6.7764
  96   2.0000      -0.242820        -6.6075
  97   2.0000      -0.233494        -6.3537
  98   2.0000      -0.223319        -6.0768
  99   2.0000      -0.218975        -5.9586
 100   2.0000      -0.210873        -5.7381
 101   0.0000      -0.050082        -1.3628
 102   0.0000      -0.040926        -1.1137
 103   0.0000      -0.013643        -0.3713
 104   0.0000       0.011508         0.3131
 105   0.0000       0.013020         0.3543

MULLIKEN ATOMIC CHARGES
-----------------------
   0 C :   -0.486682
   1 C :   -0.138066
   2 O :   -0.309742
   3 P :    0.723427
   4 S :   -0.521463
   5 O :   -0.319273
   6 C :   -0.137638
   7 C :   -0.488419
   8 S :   -0.146486
   9 C :   -0.231950
  10 S :   -0.155877
  11 P :    0.663467
  12 S :   -0.464352
  13 O :   -0.310858
  14 C :   -0.158057
  15 C :   -0.486494
  16 O :   -0.299751
  17 C :   -0.092804
  18 C :   -0.502643
  19 H :    0.171369
  20 H :    0.167919
  21 H :    0.162924
  22 H :    0.167247
  23 H :    0.171918
  24 H :    0.172595
  25 H :    0.169200
  26 H :    0.165556
  27 H :    0.169080
  28 H :    0.165840
  29 H :    0.217455
  30 H :    0.231349
  31 H :    0.179342
  32 H :    0.175552
  33 H :    0.173110
  34 H :    0.168692
  35 H :    0.175408
  36 H :    0.179522
  37 H :    0.172313
  38 H :    0.169408
  39 H :    0.167029
  40 H :    0.170831
Sum of atomic charges:    0.0000000

LOEWDIN ATOMIC CHARGES
----------------------
   0 C :   -0.410220
   1 C :    0.022977
   2 O :   -0.669142
   3 P :    0.377730
   4 S :   -0.165819
   5 O :   -0.691600
   6 C :    0.026345
   7 C :   -0.390994
   8 S :    0.172372
   9 C :   -0.405992
  10 S :    0.139195
  11 P :    0.384502
  12 S :   -0.118191
  13 O :   -0.677483
  14 C :    0.026971
  15 C :   -0.411464
  16 O :   -0.689506
  17 C :    0.026291
  18 C :   -0.396099
  19 H :    0.169126
  20 H :    0.168273
  21 H :    0.161493
  22 H :    0.181836
  23 H :    0.186249
  24 H :    0.180122
  25 H :    0.181809
  26 H :    0.162900
  27 H :    0.168404
  28 H :    0.162157
  29 H :    0.197592
  30 H :    0.194265
  31 H :    0.181623
  32 H :    0.191128
  33 H :    0.168546
  34 H :    0.163721
  35 H :    0.161817
  36 H :    0.189833
  37 H :    0.182016
  38 H :    0.165301
  39 H :    0.163417
  40 H :    0.168498

  Mayer bond orders larger than 0.100000
B(  0-C ,  1-C ) :   0.9366 B(  0-C , 19-H ) :   0.9557 B(  0-C , 20-H ) :   0.9615
B(  0-C , 21-H ) :   0.9706 B(  1-C ,  2-O ) :   0.7634 B(  1-C , 22-H ) :   0.9539
B(  1-C , 23-H ) :   0.9565 B(  2-O ,  3-P ) :   1.0774 B(  3-P ,  4-S ) :   1.7102
B(  3-P ,  5-O ) :   1.1996 B(  3-P ,  8-S ) :   1.1082 B(  5-O ,  6-C ) :   0.7555
B(  6-C ,  7-C ) :   0.9529 B(  6-C , 24-H ) :   0.9379 B(  6-C , 25-H ) :   0.9452
B(  7-C , 26-H ) :   0.9694 B(  7-C , 27-H ) :   0.9600 B(  7-C , 28-H ) :   0.9701
B(  8-S ,  9-C ) :   0.8903 B(  9-C , 10-S ) :   0.9200 B(  9-C , 29-H ) :   0.9063
B(  9-C , 30-H ) :   0.9002 B( 10-S , 11-P ) :   1.0221 B( 11-P , 12-S ) :   1.8149
B( 11-P , 13-O ) :   1.0576 B( 11-P , 16-O ) :   1.1258 B( 13-O , 14-C ) :   0.8099
B( 14-C , 15-C ) :   0.9023 B( 14-C , 31-H ) :   0.9674 B( 14-C , 32-H ) :   0.9508
B( 15-C , 33-H ) :   0.9514 B( 15-C , 34-H ) :   0.9642 B( 15-C , 35-H ) :   0.9653
B( 16-O , 17-C ) :   0.7327 B( 17-C , 18-C ) :   0.9302 B( 17-C , 36-H ) :   0.9519
B( 17-C , 37-H ) :   0.9548 B( 18-C , 38-H ) :   0.9673 B( 18-C , 39-H ) :   0.9705
B( 18-C , 40-H ) :   0.9591

Dispersion correction           -0.021407529
FINAL SINGLE POINT ENERGY     -2932.466172998818

DIPOLE MOMENT
-------------

Method             : SCF
Type of density    : Electron Density
Multiplicity       :   1
Irrep              :   0
Energy             : -2932.4913118992703858 Eh
Relativity type    :
Basis              : AO
                                X                 Y                 Z
Electronic contribution:      2.876580424       3.302047077       5.669046716
Nuclear contribution   :     -4.178715616      -4.540310419      -5.768732794
                        -----------------------------------------
Total Dipole Moment    :     -1.302135192      -1.238263342      -0.099686078
                        -----------------------------------------
Magnitude (a.u.)       :      1.799663712
Magnitude (Debye)      :      4.574381623

Rotational constants in cm-1:             0.013180             0.004696             0.004501
Rotational constants in MHz :           395.136011           140.782536           134.950465

                             ****ORCA TERMINATED NORMALLY****
TOTAL RUN TIME: 0 days 0 hours 1 minutes 54 seconds 92 msec
