                         Program Version 6.0.1  -  RELEASE   -
|  1> ! pbe def2-sv(p) def2/J RI DEFGRID1 loosescf d4 GCP(DFT/SV(P)) printgap
|  2> %output
|  3>     printlevel normal
|  4> end
|  5> * xyz 0 1
|  6> C 5.4145862162 -1.2915432653 -0.4264129338
|  7> C 4.7236456363 -1.8535659038 -1.6583299061
|  8> O 3.3644071303 -2.2098965266 -1.3414274188
|  9> C 2.4038615223 -1.351222723 -1.6116594143
| 10> O 2.5538101541 -0.2986444877 -2.1941325955
| 11> C 1.0538220923 -1.87269365 -1.1490726356
| 12> C 0.2766423519 -0.719668344 -0.5319296555
| 13> H 0.1565806116 0.0882407911 -1.26895111
| 14> C 1.0329149375 -0.1119913697 0.6339269416
| 15> O 2.2313185148 -0.2076583387 0.7641454462
| 16> O 0.2302796989 0.5329645777 1.454553452
| 17> C 0.8111227359 1.2704836182 2.5497446578
| 18> C 1.2075487717 2.6674176887 2.1047896826
| 19> S -1.3909784522 -1.2389916671 -0.0220290696
| 20> P -2.2703541012 0.6922862783 0.1918975152
| 21> S -1.4384583872 2.1591352549 -0.8027516159
| 22> O -3.7883073877 0.39674639 -0.2284926294
| 23> C -4.1418304138 0.1091850311 -1.5850200117
| 24> O -2.468493373 0.9967011742 1.7280028371
| 25> C -3.1622641558 0.0835362939 2.6020134659
| 26> H 6.4303221419 -1.0052542059 -0.677869529
| 27> H 4.8722786609 -0.418875895 -0.0685195833
| 28> H 5.4319175923 -2.0356587121 0.36440843
| 29> H 5.1898299673 -2.7818632259 -1.9904680379
| 30> H 4.7109106008 -1.1198410407 -2.4692845058
| 31> H 1.2089667025 -2.677418203 -0.4317451105
| 32> H 0.5117954475 -2.2571624767 -2.0140939448
| 33> H 0.0236466075 1.3022694681 3.3024709817
| 34> H 1.6777141343 0.7121634357 2.9142388023
| 35> H 1.5703203504 3.2290272034 2.9589006868
| 36> H 1.9919093388 2.6150691294 1.3523659424
| 37> H 0.3491867845 3.1786380336 1.67451165
| 38> H -3.8001063241 -0.8904305329 -1.8529615541
| 39> H -3.6974795734 0.8476116633 -2.2544246732
| 40> H -5.2265665562 0.167030957 -1.6239990501
| 41> H -4.2050098361 0.0027556051 2.3021859818
| 42> H -3.0794566905 0.5200213185 3.5939229515
| 43> H -2.687283577 -0.8969689946 2.5685104805
| 44> *
| 45>
| 46>                          ****END OF INPUT****

CARTESIAN COORDINATES (ANGSTROEM)
---------------------------------
  C      5.414586   -1.291543   -0.426413
  C      4.723646   -1.853566   -1.658330
  O      3.364407   -2.209897   -1.341427
  C      2.403862   -1.351223   -1.611659
  O      2.553810   -0.298644   -2.194133
  C      1.053822   -1.872694   -1.149073
  C      0.276642   -0.719668   -0.531930
  H      0.156581    0.088241   -1.268951
  C      1.032915   -0.111991    0.633927
  O      2.231319   -0.207658    0.764145
  O      0.230280    0.532965    1.454553
  C      0.811123    1.270484    2.549745
  C      1.207549    2.667418    2.104790
  S     -1.390978   -1.238992   -0.022029
  P     -2.270354    0.692286    0.191898
  S     -1.438458    2.159135   -0.802752
  O     -3.788307    0.396746   -0.228493
  C     -4.141830    0.109185   -1.585020
  O     -2.468493    0.996701    1.728003
  C     -3.162264    0.083536    2.602013
  H      6.430322   -1.005254   -0.677870
  H      4.872279   -0.418876   -0.068520
  H      5.431918   -2.035659    0.364408
  H      5.189830   -2.781863   -1.990468
  H      4.710911   -1.119841   -2.469285
  H      1.208967   -2.677418   -0.431745
  H      0.511795   -2.257162   -2.014094
  H      0.023647    1.302269    3.302471
  H      1.677714    0.712163    2.914239
  H      1.570320    3.229027    2.958901
  H      1.991909    2.615069    1.352366
  H      0.349187    3.178638    1.674512
  H     -3.800106   -0.890431   -1.852962
  H     -3.697480    0.847612   -2.254425
  H     -5.226567    0.167031   -1.623999
  H     -4.205010    0.002756    2.302186
  H     -3.079457    0.520021    3.593923
  H     -2.687284   -0.896969    2.568510

 Total Charge           Charge          ....    0
 Multiplicity           Mult            ....    1
 Number of Electrons    NEL             ....  174
 Basis Dimension        Dim             ....  316

ORBITAL ENERGIES
----------------

  NO   OCC          E(Eh)            E(eV)
   0   2.0000     -88.044312     -2395.8075
   1   2.0000     -87.986174     -2394.2255
   2   2.0000     -76.428827     -2079.7341
   3   2.0000     -18.812601      -511.9169
   4   2.0000     -18.798448      -511.5318
   5   2.0000     -18.794976      -511.4373
   6   2.0000     -18.793104      -511.3864
   7   2.0000     -18.746522      -510.1188
   8   2.0000     -18.728366      -509.6247
   9   2.0000     -10.019229      -272.6371
  10   2.0000     -10.004693      -272.2415
  11   2.0000      -9.954928      -270.8874
  12   2.0000      -9.949811      -270.7481
  13   2.0000      -9.946732      -270.6643
  14   2.0000      -9.944638      -270.6073
  15   2.0000      -9.938804      -270.4486
  16   2.0000      -9.910201      -269.6703
  17   2.0000      -9.879939      -268.8468
  18   2.0000      -9.876208      -268.7453
  19   2.0000      -7.688947      -209.2269
  20   2.0000      -7.631231      -207.6564
  21   2.0000      -6.425836      -174.8559
  22   2.0000      -5.716643      -155.5578
  23   2.0000      -5.713598      -155.4749
  24   2.0000      -5.706067      -155.2700
  25   2.0000      -5.660399      -154.0273
  26   2.0000      -5.651764      -153.7923
  27   2.0000      -5.651195      -153.7768
  28   2.0000      -4.648618      -126.4953
  29   2.0000      -4.647688      -126.4700
  30   2.0000      -4.646129      -126.4276
  31   2.0000      -1.020500       -27.7692
  32   2.0000      -1.001091       -27.2411
  33   2.0000      -0.991298       -26.9746
  34   2.0000      -0.946391       -25.7526
  35   2.0000      -0.927173       -25.2297
  36   2.0000      -0.906147       -24.6575
  37   2.0000      -0.766610       -20.8605
  38   2.0000      -0.710150       -19.3242
  39   2.0000      -0.703288       -19.1374
  40   2.0000      -0.691635       -18.8203
  41   2.0000      -0.659140       -17.9361
  42   2.0000      -0.640639       -17.4327
  43   2.0000      -0.624443       -16.9920
  44   2.0000      -0.616518       -16.7763
  45   2.0000      -0.591295       -16.0900
  46   2.0000      -0.559855       -15.2344
  47   2.0000      -0.519212       -14.1285
  48   2.0000      -0.501462       -13.6455
  49   2.0000      -0.493687       -13.4339
  50   2.0000      -0.480212       -13.0672
  51   2.0000      -0.473735       -12.8910
  52   2.0000      -0.467058       -12.7093
  53   2.0000      -0.440804       -11.9949
  54   2.0000      -0.438152       -11.9227
  55   2.0000      -0.431681       -11.7466
  56   2.0000      -0.425972       -11.5913
  57   2.0000      -0.422309       -11.4916
  58   2.0000      -0.417174       -11.3519
  59   2.0000      -0.411711       -11.2032
  60   2.0000      -0.405187       -11.0257
  61   2.0000      -0.398230       -10.8364
  62   2.0000      -0.392471       -10.6797
  63   2.0000      -0.379040       -10.3142
  64   2.0000      -0.371416       -10.1067
  65   2.0000      -0.363312        -9.8862
  66   2.0000      -0.351859        -9.5746
  67   2.0000      -0.350172        -9.5287
  68   2.0000      -0.346612        -9.4318
  69   2.0000      -0.338613        -9.2141
  70   2.0000      -0.329814        -8.9747
  71   2.0000      -0.325237        -8.8501
  72   2.0000      -0.319541        -8.6952
  73   2.0000      -0.315485        -8.5848
  74   2.0000      -0.309631        -8.4255
  75   2.0000      -0.301022        -8.1912
  76   2.0000      -0.295374        -8.0375
  77   2.0000      -0.284516        -7.7421
  78   2.0000      -0.274268        -7.4632
  79   2.0000      -0.269829        -7.3424
  80   2.0000      -0.262630        -7.1465
  81   2.0000      -0.250951        -6.8287
  82   2.0000      -0.248106        -6.7513
  83   2.0000      -0.217577        -5.9206
  84   2.0000      -0.215351        -5.8600
  85   2.0000      -0.205424        -5.5899
  86   2.0000      -0.200896        -5.4666
  87   0.0000      -0.046719        -1.2713
  88   0.0000      -0.029237        -0.7956
  89   0.0000      -0.011706        -0.3185
  90   0.0000       0.008943         0.2434
  91   0.0000       0.015091         0.4106

MULLIKEN ATOMIC CHARGES
-----------------------
   0 C :   -0.296339
   1 C :   -0.021741
   2 O :   -0.229343
   3 C :    0.116048
   4 O :   -0.207587
   5 C :   -0.049595
   6 C :   -0.360253
   7 H :    0.180155
   8 C :    0.242934
   9 O :   -0.188979
  10 O :   -0.227572
  11 C :   -0.006833
  12 C :   -0.308240
  13 S :   -0.104629
  14 P :    0.626278
  15 S :   -0.304679
  16 O :   -0.391743
  17 C :   -0.100669
  18 O :   -0.364310
  19 C :   -0.109926
  20 H :    0.106492
  21 H :    0.136595
  22 H :    0.109446
  23 H :    0.099428
  24 H :    0.110121
  25 H :    0.104396
  26 H :    0.120649
  27 H :    0.101744
  28 H :    0.107704
  29 H :    0.108699
  30 H :    0.127255
  31 H :    0.133063
  32 H :    0.114685
  33 H :    0.120800
  34 H :    0.125683
  35 H :    0.128900
  36 H :    0.131019
  37 H :    0.120344
Sum of atomic charges:    0.0000000

LOEWDIN ATOMIC CHARGES
----------------------
   0 C :   -0.354420
   1 C :   -0.111160
   2 O :   -0.056131
   3 C :    0.032755
   4 O :   -0.172648
   5 C :   -0.244851
   6 C :   -0.280139
   7 H :    0.148587
   8 C :    0.033435
   9 O :   -0.146784
  10 O :   -0.051146
  11 C :   -0.106549
  12 C :   -0.357083
  13 S :    0.087489
  14 P :    0.578836
  15 S :   -0.299600
  16 O :   -0.261493
  17 C :   -0.216577
  18 O :   -0.237570
  19 C :   -0.211123
  20 H :    0.126856
  21 H :    0.135135
  22 H :    0.123532
  23 H :    0.115191
  24 H :    0.119887
  25 H :    0.134667
  26 H :    0.147264
  27 H :    0.116927
  28 H :    0.119086
  29 H :    0.128641
  30 H :    0.131677
  31 H :    0.129857
  32 H :    0.108504
  33 H :    0.113039
  34 H :    0.122697
  35 H :    0.118004
  36 H :    0.124829
  37 H :    0.110382

  Mayer bond orders larger than 0.100000
B(  0-C ,  1-C ) :   1.1775 B(  0-C , 20-H ) :   0.9440 B(  0-C , 21-H ) :   0.9406
B(  0-C , 22-H ) :   0.9503 B(  1-C ,  2-O ) :   0.9141 B(  1-C , 23-H ) :   0.9377
B(  1-C , 24-H ) :   0.9084 B(  2-O ,  3-C ) :   1.2422 B(  3-C ,  4-O ) :   2.0387
B(  3-C ,  5-C ) :   1.0032 B(  5-C ,  6-C ) :   1.0629 B(  5-C , 25-H ) :   0.9053
B(  5-C , 26-H ) :   0.8817 B(  6-C ,  7-H ) :   0.8157 B(  6-C ,  8-C ) :   0.8908
B(  6-C , 13-S ) :   1.0241 B(  8-C ,  9-O ) :   2.0153 B(  8-C , 10-O ) :   1.2515
B( 10-O , 11-C ) :   0.8970 B( 11-C , 12-C ) :   1.1831 B( 11-C , 27-H ) :   0.9326
B( 11-C , 28-H ) :   0.9157 B( 12-C , 29-H ) :   0.9425 B( 12-C , 30-H ) :   0.9452
B( 12-C , 31-H ) :   0.9390 B( 13-S , 14-P ) :   0.9438 B( 13-S , 15-S ) :   0.1152
B( 14-P , 15-S ) :   1.6446 B( 14-P , 16-O ) :   1.0653 B( 14-P , 18-O ) :   1.1188
B( 16-O , 17-C ) :   0.9315 B( 17-C , 32-H ) :   0.9465 B( 17-C , 33-H ) :   0.9355
B( 17-C , 34-H ) :   0.9585 B( 18-O , 19-C ) :   0.9172 B( 19-C , 35-H ) :   0.9475
B( 19-C , 36-H ) :   0.9582 B( 19-C , 37-H ) :   0.9385

Dispersion correction           -0.051778387
FINAL SINGLE POINT ENERGY     -1979.023668247492

DIPOLE MOMENT
-------------

Method             : SCF
Type of density    : Electron Density
Multiplicity       :   1
Irrep              :   0
Energy             : -1979.1551968258754641 Eh
Relativity type    :
Basis              : AO
                                X                 Y                 Z
Electronic contribution:    -13.561459373       0.922169740      -4.839859145
Nuclear contribution   :     12.864733543      -1.989705147       5.839901302
                        -----------------------------------------
Total Dipole Moment    :     -0.696725830      -1.067535407       1.000042158
                        -----------------------------------------
Magnitude (a.u.)       :      1.620229319
Magnitude (Debye)      :      4.118295642

Rotational constants in cm-1:             0.016605             0.005916             0.005219
Rotational constants in MHz :           497.806916           177.367518           156.461813

                             ****ORCA TERMINATED NORMALLY****
TOTAL RUN TIME: 0 days 0 hours 0 minutes 28 seconds 180 msec
