                         Program Version 6.0.0  -   RELEASE  -
|  1> ! pbe def2-sv(p) def2/J RI DEFGRID1 loosescf d4 GCP(DFT/SV(P)) printgap
|  2> %output
|  3>     printlevel normal
|  4> end
|  5> * xyz 0 1
|  6> C 3.8454364206 0.6267906595 -2.6993590519
|  7> C 4.1625835266 1.3410448122 -1.4004309148
|  8> O 3.9448319179 0.5003184272 -0.2541498056
|  9> P 2.4993896741 0.0562335923 0.1999911274
| 10> S 1.1147773951 1.4339283452 -0.0420351735
| 11> O 2.9256312106 -0.3206130075 1.6755498674
| 12> C 2.1377473785 -1.0825909047 2.6069171815
| 13> C 1.1071737373 -0.2192631697 3.3086633637
| 14> S 2.1377284306 -1.8058188278 -0.7722617261
| 15> C 0.376236403 -1.6296255737 -1.1258084157
| 16> S -0.637383055 -1.6312343535 0.3987352106
| 17> P -2.0809511096 -0.1821696536 -0.110996613
| 18> S -1.9849457169 0.5889715305 -1.9137782928
| 19> O -2.1224174865 0.8719181516 1.0819841189
| 20> C -1.9408252517 2.2894742259 0.9361060954
| 21> C -3.2839366066 2.9913880706 0.9403241689
| 22> O -3.3180779687 -1.1210189002 0.2311636114
| 23> C -4.6665442273 -0.6422820544 0.4035316755
| 24> C -5.3568278807 -0.4042504747 -0.9253186404
| 25> H 4.156734751 1.2452453912 -3.5351606779
| 26> H 4.364363341 -0.3274007193 -2.7411346372
| 27> H 2.7733054954 0.44871852 -2.7761370423
| 28> H 3.5491895591 2.2422662559 -1.2962655619
| 29> H 5.2191283022 1.6037090709 -1.3334944514
| 30> H 1.6558940356 -1.9154480303 2.0837493255
| 31> H 2.8737134472 -1.4705105372 3.3135460363
| 32> H 1.5891333297 0.637537882 3.7718653679
| 33> H 0.3640552249 0.1397289654 2.598718249
| 34> H 0.6052474625 -0.8088881001 4.0688278415
| 35> H 0.1059273369 -2.4916988177 -1.7299984143
| 36> H 0.1841032626 -0.6964333904 -1.6622132439
| 37> H -1.3211998619 2.5913065117 1.7819347753
| 38> H -1.3982555581 2.4912991667 0.0074259675
| 39> H -3.8333978054 2.7482993988 1.8459089223
| 40> H -3.1222300529 4.0634609816 0.8961460319
| 41> H -3.8656050904 2.6866057574 0.0722015531
| 42> H -5.1544791582 -1.440942592 0.9654083982
| 43> H -4.6438845476 0.2691614986 1.0066903073
| 44> H -6.3845062303 -0.1036957348 -0.7471508262
| 45> H -4.8486974213 0.3786115761 -1.4852260893
| 46> H -5.3454028869 -1.3131105418 -1.5209362896
| 47> *
| 48>
| 49>                          ****END OF INPUT****

CARTESIAN COORDINATES (ANGSTROEM)
---------------------------------
  C      3.845436    0.626791   -2.699359
  C      4.162584    1.341045   -1.400431
  O      3.944832    0.500318   -0.254150
  P      2.499390    0.056234    0.199991
  S      1.114777    1.433928   -0.042035
  O      2.925631   -0.320613    1.675550
  C      2.137747   -1.082591    2.606917
  C      1.107174   -0.219263    3.308663
  S      2.137728   -1.805819   -0.772262
  C      0.376236   -1.629626   -1.125808
  S     -0.637383   -1.631234    0.398735
  P     -2.080951   -0.182170   -0.110997
  S     -1.984946    0.588972   -1.913778
  O     -2.122417    0.871918    1.081984
  C     -1.940825    2.289474    0.936106
  C     -3.283937    2.991388    0.940324
  O     -3.318078   -1.121019    0.231164
  C     -4.666544   -0.642282    0.403532
  C     -5.356828   -0.404250   -0.925319
  H      4.156735    1.245245   -3.535161
  H      4.364363   -0.327401   -2.741135
  H      2.773305    0.448719   -2.776137
  H      3.549190    2.242266   -1.296266
  H      5.219128    1.603709   -1.333494
  H      1.655894   -1.915448    2.083749
  H      2.873713   -1.470511    3.313546
  H      1.589133    0.637538    3.771865
  H      0.364055    0.139729    2.598718
  H      0.605247   -0.808888    4.068828
  H      0.105927   -2.491699   -1.729998
  H      0.184103   -0.696433   -1.662213
  H     -1.321200    2.591307    1.781935
  H     -1.398256    2.491299    0.007426
  H     -3.833398    2.748299    1.845909
  H     -3.122230    4.063461    0.896146
  H     -3.865605    2.686606    0.072202
  H     -5.154479   -1.440943    0.965408
  H     -4.643885    0.269161    1.006690
  H     -6.384506   -0.103696   -0.747151
  H     -4.848697    0.378612   -1.485226
  H     -5.345403   -1.313111   -1.520936

 Total Charge           Charge          ....    0
 Multiplicity           Mult            ....    1
 Number of Electrons    NEL             ....  202
 Basis Dimension        Dim             ....  334

ORBITAL ENERGIES
----------------

  NO   OCC          E(Eh)            E(eV)
   0   2.0000     -88.047292     -2395.8886
   1   2.0000     -88.039429     -2395.6746
   2   2.0000     -87.988063     -2394.2769
   3   2.0000     -87.986461     -2394.2333
   4   2.0000     -76.426827     -2079.6797
   5   2.0000     -76.425796     -2079.6516
   6   2.0000     -18.792509      -511.3702
   7   2.0000     -18.789067      -511.2765
   8   2.0000     -18.787764      -511.2411
   9   2.0000     -18.787219      -511.2262
  10   2.0000      -9.953910      -270.8597
  11   2.0000      -9.953519      -270.8490
  12   2.0000      -9.950216      -270.7592
  13   2.0000      -9.950123      -270.7566
  14   2.0000      -9.947473      -270.6845
  15   2.0000      -9.885882      -269.0085
  16   2.0000      -9.882279      -268.9105
  17   2.0000      -9.881830      -268.8983
  18   2.0000      -9.875966      -268.7387
  19   2.0000      -7.692120      -209.3132
  20   2.0000      -7.684389      -209.1029
  21   2.0000      -7.632925      -207.7024
  22   2.0000      -7.630974      -207.6494
  23   2.0000      -6.423943      -174.8044
  24   2.0000      -6.423216      -174.7846
  25   2.0000      -5.720047      -155.6504
  26   2.0000      -5.716418      -155.5516
  27   2.0000      -5.712402      -155.4424
  28   2.0000      -5.709310      -155.3582
  29   2.0000      -5.709088      -155.3522
  30   2.0000      -5.700999      -155.1321
  31   2.0000      -5.661797      -154.0653
  32   2.0000      -5.659821      -154.0116
  33   2.0000      -5.653814      -153.8481
  34   2.0000      -5.652845      -153.8217
  35   2.0000      -5.651474      -153.7844
  36   2.0000      -5.651385      -153.7820
  37   2.0000      -4.646172      -126.4288
  38   2.0000      -4.646140      -126.4279
  39   2.0000      -4.645863      -126.4204
  40   2.0000      -4.644568      -126.3851
  41   2.0000      -4.644314      -126.3782
  42   2.0000      -4.644058      -126.3712
  43   2.0000      -0.987890       -26.8818
  44   2.0000      -0.984319       -26.7847
  45   2.0000      -0.942834       -25.6558
  46   2.0000      -0.941453       -25.6182
  47   2.0000      -0.761692       -20.7267
  48   2.0000      -0.722414       -19.6579
  49   2.0000      -0.709705       -19.3121
  50   2.0000      -0.686719       -18.6866
  51   2.0000      -0.680306       -18.5121
  52   2.0000      -0.673281       -18.3209
  53   2.0000      -0.652283       -17.7495
  54   2.0000      -0.636960       -17.3326
  55   2.0000      -0.600418       -16.3382
  56   2.0000      -0.591567       -16.0973
  57   2.0000      -0.575482       -15.6597
  58   2.0000      -0.566807       -15.4236
  59   2.0000      -0.558785       -15.2053
  60   2.0000      -0.502460       -13.6726
  61   2.0000      -0.492130       -13.3915
  62   2.0000      -0.475760       -12.9461
  63   2.0000      -0.466692       -12.6993
  64   2.0000      -0.451682       -12.2909
  65   2.0000      -0.448377       -12.2009
  66   2.0000      -0.435918       -11.8619
  67   2.0000      -0.433073       -11.7845
  68   2.0000      -0.419432       -11.4133
  69   2.0000      -0.413870       -11.2620
  70   2.0000      -0.408785       -11.1236
  71   2.0000      -0.404218       -10.9993
  72   2.0000      -0.396649       -10.7934
  73   2.0000      -0.388730       -10.5779
  74   2.0000      -0.381840       -10.3904
  75   2.0000      -0.374738       -10.1971
  76   2.0000      -0.366519        -9.9735
  77   2.0000      -0.353568        -9.6211
  78   2.0000      -0.349909        -9.5215
  79   2.0000      -0.349752        -9.5172
  80   2.0000      -0.344954        -9.3867
  81   2.0000      -0.340913        -9.2767
  82   2.0000      -0.338372        -9.2076
  83   2.0000      -0.337337        -9.1794
  84   2.0000      -0.330778        -9.0009
  85   2.0000      -0.313487        -8.5304
  86   2.0000      -0.311612        -8.4794
  87   2.0000      -0.296227        -8.0608
  88   2.0000      -0.291477        -7.9315
  89   2.0000      -0.288382        -7.8473
  90   2.0000      -0.285427        -7.7669
  91   2.0000      -0.276798        -7.5320
  92   2.0000      -0.268736        -7.3127
  93   2.0000      -0.264763        -7.2046
  94   2.0000      -0.258097        -7.0232
  95   2.0000      -0.236829        -6.4444
  96   2.0000      -0.222931        -6.0663
  97   2.0000      -0.215253        -5.8573
  98   2.0000      -0.203496        -5.5374
  99   2.0000      -0.195908        -5.3309
 100   2.0000      -0.191488        -5.2106
 101   0.0000      -0.046869        -1.2754
 102   0.0000      -0.035529        -0.9668
 103   0.0000      -0.010731        -0.2920
 104   0.0000       0.009352         0.2545
 105   0.0000       0.015399         0.4190

MULLIKEN ATOMIC CHARGES
-----------------------
   0 C :   -0.318828
   1 C :   -0.001659
   2 O :   -0.355543
   3 P :    0.609871
   4 S :   -0.342112
   5 O :   -0.351489
   6 C :   -0.010494
   7 C :   -0.310587
   8 S :   -0.112259
   9 C :   -0.345036
  10 S :   -0.106802
  11 P :    0.652860
  12 S :   -0.323673
  13 O :   -0.381851
  14 C :   -0.027284
  15 C :   -0.290554
  16 O :   -0.370294
  17 C :   -0.018703
  18 C :   -0.307377
  19 H :    0.112819
  20 H :    0.117976
  21 H :    0.129664
  22 H :    0.113756
  23 H :    0.106608
  24 H :    0.108725
  25 H :    0.105482
  26 H :    0.112864
  27 H :    0.140404
  28 H :    0.105089
  29 H :    0.182613
  30 H :    0.214940
  31 H :    0.109654
  32 H :    0.131929
  33 H :    0.116836
  34 H :    0.114172
  35 H :    0.116025
  36 H :    0.107451
  37 H :    0.106560
  38 H :    0.106908
  39 H :    0.132993
  40 H :    0.118346
Sum of atomic charges:    0.0000000

LOEWDIN ATOMIC CHARGES
----------------------
   0 C :   -0.368645
   1 C :   -0.118383
   2 O :   -0.233171
   3 P :    0.569435
   4 S :   -0.303984
   5 O :   -0.230900
   6 C :   -0.117344
   7 C :   -0.367520
   8 S :    0.080879
   9 C :   -0.477631
  10 S :    0.086201
  11 P :    0.573331
  12 S :   -0.300040
  13 O :   -0.242846
  14 C :   -0.124845
  15 C :   -0.359921
  16 O :   -0.247644
  17 C :   -0.115234
  18 C :   -0.365874
  19 H :    0.130815
  20 H :    0.124623
  21 H :    0.121853
  22 H :    0.110940
  23 H :    0.119679
  24 H :    0.097543
  25 H :    0.118931
  26 H :    0.125470
  27 H :    0.119558
  28 H :    0.128159
  29 H :    0.136315
  30 H :    0.121863
  31 H :    0.117612
  32 H :    0.106091
  33 H :    0.122747
  34 H :    0.132492
  35 H :    0.122482
  36 H :    0.120141
  37 H :    0.108725
  38 H :    0.127929
  39 H :    0.121356
  40 H :    0.128812

  Mayer bond orders larger than 0.100000
B(  0-C ,  1-C ) :   1.1631 B(  0-C , 19-H ) :   0.9381 B(  0-C , 20-H ) :   0.9445
B(  0-C , 21-H ) :   0.9369 B(  1-C ,  2-O ) :   0.9112 B(  1-C , 22-H ) :   0.9148
B(  1-C , 23-H ) :   0.9339 B(  2-O ,  3-P ) :   1.1347 B(  3-P ,  4-S ) :   1.6045
B(  3-P ,  5-O ) :   1.1384 B(  3-P ,  8-S ) :   0.9317 B(  4-S ,  8-S ) :   0.1185
B(  5-O ,  6-C ) :   0.9167 B(  6-C ,  7-C ) :   1.1651 B(  6-C , 24-H ) :   0.9068
B(  6-C , 25-H ) :   0.9350 B(  7-C , 26-H ) :   0.9457 B(  7-C , 27-H ) :   0.9290
B(  7-C , 28-H ) :   0.9392 B(  8-S ,  9-C ) :   1.0081 B(  9-C , 10-S ) :   0.9906
B(  9-C , 29-H ) :   0.9073 B(  9-C , 30-H ) :   0.8488 B( 10-S , 11-P ) :   0.9536
B( 10-S , 12-S ) :   0.1162 B( 11-P , 12-S ) :   1.6111 B( 11-P , 13-O ) :   1.0979
B( 11-P , 16-O ) :   1.1158 B( 13-O , 14-C ) :   0.9010 B( 14-C , 15-C ) :   1.1626
B( 14-C , 31-H ) :   0.9316 B( 14-C , 32-H ) :   0.8998 B( 15-C , 33-H ) :   0.9421
B( 15-C , 34-H ) :   0.9393 B( 15-C , 35-H ) :   0.9393 B( 16-O , 17-C ) :   0.9155
B( 17-C , 18-C ) :   1.1643 B( 17-C , 36-H ) :   0.9357 B( 17-C , 37-H ) :   0.9182
B( 18-C , 38-H ) :   0.9388 B( 18-C , 39-H ) :   0.9323 B( 18-C , 40-H ) :   0.9461

Dispersion correction           -0.066812045
FINAL SINGLE POINT ENERGY     -2929.520161616766

DIPOLE MOMENT
-------------

Method             : SCF
Type of density    : Electron Density
Multiplicity       :   1
Irrep              :   0
Energy             : -2929.6378721423234310 Eh
Relativity type    :
Basis              : AO
                                X                 Y                 Z
Electronic contribution:     11.688815820     -10.383764065      -2.912235695
Nuclear contribution   :    -12.076381854      10.451516120       3.391479774
                        -----------------------------------------
Total Dipole Moment    :     -0.387566034       0.067752055       0.479244079
                        -----------------------------------------
Magnitude (a.u.)       :      0.620058593
Magnitude (Debye)      :      1.576063692

Rotational constants in cm-1:             0.012859             0.004909             0.004811
Rotational constants in MHz :           385.496349           147.159014           144.243507

                             ****ORCA TERMINATED NORMALLY****
TOTAL RUN TIME: 0 days 0 hours 0 minutes 21 seconds 238 msec
