                         Program Version 6.0.0  -   RELEASE  -
|  1> ! r2scan-3c def2/J RI DEFGRID2 scfconv6 printgap
|  2> %output
|  3>     printlevel normal
|  4> end
|  5> * xyz 0 1
|  6> C -1.7201968095 -0.3783364386 -2.8469e-06
|  7> C -0.6249236118 0.6651756304 6.5354e-06
|  8> Cl 1.002009679 -0.1165531834 2.769e-07
|  9> H -2.6836882585 0.1246297273 -3.36697e-05
| 10> H -1.651593456 -1.0075841146 -0.8832097923
| 11> H -1.6517292871 -1.0077631472 0.883107262
| 12> H -0.6563534518 1.2860921274 0.892960875
| 13> H -0.6562358153 1.2862160218 -0.8928783655
| 14> *
| 15>
| 16>                          ****END OF INPUT****

CARTESIAN COORDINATES (ANGSTROEM)
---------------------------------
  C     -1.720197   -0.378336   -0.000003
  C     -0.624924    0.665176    0.000007
  Cl     1.002010   -0.116553    0.000000
  H     -2.683688    0.124630   -0.000034
  H     -1.651593   -1.007584   -0.883210
  H     -1.651729   -1.007763    0.883107
  H     -0.656353    1.286092    0.892961
  H     -0.656236    1.286216   -0.892878

 Total Charge           Charge          ....    0
 Multiplicity           Mult            ....    1
 Number of Electrons    NEL             ....   34
 Basis Dimension        Dim             ....   90

ORBITAL ENERGIES
----------------

  NO   OCC          E(Eh)            E(eV)
   0   2.0000    -101.197566     -2753.7258
   1   2.0000     -10.095663      -274.7170
   2   2.0000     -10.037944      -273.1464
   3   2.0000      -9.353579      -254.5238
   4   2.0000      -7.099796      -193.1953
   5   2.0000      -7.089646      -192.9191
   6   2.0000      -7.089604      -192.9179
   7   2.0000      -0.818181       -22.2638
   8   2.0000      -0.709933       -19.3183
   9   2.0000      -0.588865       -16.0238
  10   2.0000      -0.448278       -12.1983
  11   2.0000      -0.424761       -11.5583
  12   2.0000      -0.382163       -10.3992
  13   2.0000      -0.348251        -9.4764
  14   2.0000      -0.345389        -9.3985
  15   2.0000      -0.265361        -7.2208
  16   2.0000      -0.264102        -7.1866
  17   0.0000       0.006899         0.1877
  18   0.0000       0.097172         2.6442
  19   0.0000       0.116949         3.1823
  20   0.0000       0.153269         4.1707
  21   0.0000       0.161860         4.4044

MULLIKEN ATOMIC CHARGES
-----------------------
   0 C :   -0.433194
   1 C :   -0.122964
   2 Cl:   -0.208407
   3 H :    0.142562
   4 H :    0.156584
   5 H :    0.156591
   6 H :    0.154410
   7 H :    0.154418
Sum of atomic charges:    0.0000000

LOEWDIN ATOMIC CHARGES
----------------------
   0 C :   -0.438054
   1 C :   -0.325413
   2 Cl:   -0.017758
   3 H :    0.156773
   4 H :    0.158132
   5 H :    0.158138
   6 H :    0.154088
   7 H :    0.154095

  Mayer bond orders larger than 0.100000
B(  0-C ,  1-C ) :   0.9392 B(  0-C ,  3-H ) :   0.9569 B(  0-C ,  4-H ) :   0.9700
B(  0-C ,  5-H ) :   0.9699 B(  1-C ,  2-Cl) :   0.9667 B(  1-C ,  6-H ) :   0.9576
B(  1-C ,  7-H ) :   0.9576

Dispersion correction           -0.001324605
FINAL SINGLE POINT ENERGY      -539.370994373561

DIPOLE MOMENT
-------------

Method             : SCF
Type of density    : Electron Density
Multiplicity       :   1
Irrep              :   0
Energy             :  -539.3759219820694852 Eh
Relativity type    :
Basis              : AO
                                X                 Y                 Z
Electronic contribution:      7.364651029      -0.498884159       0.000051304
Nuclear contribution   :     -8.193166324       0.795885141      -0.000050743
                        -----------------------------------------
Total Dipole Moment    :     -0.828515295       0.297000982       0.000000561
                        -----------------------------------------
Magnitude (a.u.)       :      0.880140430
Magnitude (Debye)      :      2.237139185

Rotational constants in cm-1:             1.047542             0.181979             0.164676
Rotational constants in MHz :         31404.511904          5455.581650          4936.874225

                             ****ORCA TERMINATED NORMALLY****
TOTAL RUN TIME: 0 days 0 hours 0 minutes 16 seconds 122 msec
