                         Program Version 6.0.0  -   RELEASE  -
|  1> ! r2scan-3c def2/J RI DEFGRID2 scfconv6 printgap
|  2> %output
|  3>     printlevel normal
|  4> end
|  5> %cpcm
|  6>     smd true
|  7>     smdsolvent "water"
|  8> end
|  9> * xyz 0 1
| 10> C -1.7201968095 -0.3783364386 -2.8469e-06
| 11> C -0.6249236118 0.6651756304 6.5354e-06
| 12> Cl 1.002009679 -0.1165531834 2.769e-07
| 13> H -2.6836882585 0.1246297273 -3.36697e-05
| 14> H -1.651593456 -1.0075841146 -0.8832097923
| 15> H -1.6517292871 -1.0077631472 0.883107262
| 16> H -0.6563534518 1.2860921274 0.892960875
| 17> H -0.6562358153 1.2862160218 -0.8928783655
| 18> *
| 19>
| 20>                          ****END OF INPUT****

CARTESIAN COORDINATES (ANGSTROEM)
---------------------------------
  C     -1.720197   -0.378336   -0.000003
  C     -0.624924    0.665176    0.000007
  Cl     1.002010   -0.116553    0.000000
  H     -2.683688    0.124630   -0.000034
  H     -1.651593   -1.007584   -0.883210
  H     -1.651729   -1.007763    0.883107
  H     -0.656353    1.286092    0.892961
  H     -0.656236    1.286216   -0.892878

 Total Charge           Charge          ....    0
 Multiplicity           Mult            ....    1
 Number of Electrons    NEL             ....   34
 Basis Dimension        Dim             ....   90

ORBITAL ENERGIES
----------------

  NO   OCC          E(Eh)            E(eV)
   0   2.0000    -101.197975     -2753.7369
   1   2.0000     -10.083337      -274.3815
   2   2.0000     -10.021433      -272.6971
   3   2.0000      -9.354383      -254.5457
   4   2.0000      -7.100161      -193.2052
   5   2.0000      -7.090636      -192.9460
   6   2.0000      -7.090594      -192.9449
   7   2.0000      -0.813947       -22.1486
   8   2.0000      -0.699137       -19.0245
   9   2.0000      -0.575914       -15.6714
  10   2.0000      -0.433753       -11.8030
  11   2.0000      -0.413940       -11.2639
  12   2.0000      -0.371026       -10.0961
  13   2.0000      -0.333901        -9.0859
  14   2.0000      -0.333703        -9.0805
  15   2.0000      -0.266330        -7.2472
  16   2.0000      -0.264335        -7.1929
  17   0.0000       0.012402         0.3375
  18   0.0000       0.111606         3.0369
  19   0.0000       0.130274         3.5449
  20   0.0000       0.171735         4.6732
  21   0.0000       0.177183         4.8214

MULLIKEN ATOMIC CHARGES
-----------------------
   0 C :   -0.469368
   1 C :   -0.124000
   2 Cl:   -0.258226
   3 H :    0.166529
   4 H :    0.164631
   5 H :    0.164644
   6 H :    0.177890
   7 H :    0.177899
Sum of atomic charges:    0.0000000

LOEWDIN ATOMIC CHARGES
----------------------
   0 C :   -0.441802
   1 C :   -0.318222
   2 Cl:   -0.052202
   3 H :    0.166843
   4 H :    0.159247
   5 H :    0.159255
   6 H :    0.163437
   7 H :    0.163444

  Mayer bond orders larger than 0.100000
B(  0-C ,  1-C ) :   0.9337 B(  0-C ,  3-H ) :   0.9516 B(  0-C ,  4-H ) :   0.9685
B(  0-C ,  5-H ) :   0.9685 B(  1-C ,  2-Cl) :   0.9277 B(  1-C ,  6-H ) :   0.9514
B(  1-C ,  7-H ) :   0.9514

Dispersion correction           -0.001324605
FINAL SINGLE POINT ENERGY      -539.373091959705

DIPOLE MOMENT
-------------

Method             : SCF
Type of density    : Electron Density
Multiplicity       :   1
Irrep              :   0
Energy             :  -539.3780195682138583 Eh
Relativity type    :
Basis              : AO
                                X                 Y                 Z
Electronic contribution:      7.124377251      -0.372240792       0.000053577
Nuclear contribution   :     -8.193166324       0.795885141      -0.000050743
                        -----------------------------------------
Total Dipole Moment    :     -1.068789073       0.423644348       0.000002835
                        -----------------------------------------
Magnitude (a.u.)       :      1.149688921
Magnitude (Debye)      :      2.922277001

Rotational constants in cm-1:             1.047542             0.181979             0.164676
Rotational constants in MHz :         31404.511904          5455.581650          4936.874225

                             ****ORCA TERMINATED NORMALLY****
TOTAL RUN TIME: 0 days 0 hours 0 minutes 21 seconds 76 msec
