                         Program Version 6.0.0  -   RELEASE  -
|  1> ! pbe def2-sv(p) def2/J RI DEFGRID1 loosescf d4 GCP(DFT/SV(P)) printgap
|  2> %output
|  3>     printlevel normal
|  4> end
|  5> * xyz 0 1
|  6> C 2.6292519539 1.6338992375 -1.7870980614
|  7> C 3.0860368437 0.2356910341 -1.4236144299
|  8> O 3.4772673213 0.1381598384 -0.0450649494
|  9> P 2.487505494 0.0399635674 1.1990623397
| 10> S 1.4064210051 1.604192046 1.6633206428
| 11> O 3.4994865621 -0.2579626698 2.3654663305
| 12> C 4.6784703944 -1.0955555644 2.2798941597
| 13> C 4.341005248 -2.5447109352 2.0021369637
| 14> S 1.3512227076 -1.750359566 0.8867704692
| 15> C -0.2649480899 -1.0202993682 0.61464036
| 16> S -0.4195994343 -0.4506418727 -1.1247410047
| 17> P -2.4653221511 0.0332887692 -1.0958046236
| 18> S -3.2804601876 0.6209234677 -2.7763509383
| 19> O -2.6521424705 1.0352610695 0.1356669598
| 20> C -2.6947882104 2.4580490281 -0.0531950959
| 21> C -1.3637489064 3.0120939496 -0.5178466263
| 22> O -3.0180754614 -1.3267138751 -0.4860314737
| 23> C -4.400157852 -1.7137357894 -0.6324275416
| 24> C -5.3252350743 -0.8230775352 0.1698473966
| 25> H 3.401280449 2.3590766001 -1.5440961888
| 26> H 2.4162273366 1.6741861651 -2.8502573475
| 27> H 1.7254009111 1.8908041391 -1.239527227
| 28> H 3.9892094422 -0.0401618223 -1.9713362081
| 29> H 2.294485483 -0.4930738629 -1.6266539949
| 30> H 5.3320284789 -0.6877584075 1.5069835774
| 31> H 5.1399022678 -0.9716926198 3.2608174431
| 32> H 3.6317028102 -2.9167605618 2.736797143
| 33> H 3.9036131186 -2.6520601242 1.0110945485
| 34> H 5.2503756827 -3.1356382964 2.0516605347
| 35> H -0.3932078864 -0.1629069884 1.2783148014
| 36> H -1.003362886 -1.7954101526 0.7969048655
| 37> H -3.4763565297 2.6842950013 -0.7858733282
| 38> H -2.9734687885 2.8484417147 0.9262073564
| 39> H -1.4331879849 4.0912070118 -0.6070147878
| 40> H -0.5766270029 2.7651194987 0.1920370669
| 41> H -1.1108297496 2.5932990801 -1.4924562029
| 42> H -4.6573007342 -1.6794254291 -1.6957395728
| 43> H -4.4207168893 -2.7452182984 -0.278076328
| 44> H -6.3355067036 -1.2169405631 0.1197722305
| 45> H -5.0033299148 -0.7807036248 1.2072166568
| 46> H -5.3185660758 0.185024605 -0.2425555052
| 47> *
| 48>
| 49>                          ****END OF INPUT****

CARTESIAN COORDINATES (ANGSTROEM)
---------------------------------
  C      2.629252    1.633899   -1.787098
  C      3.086037    0.235691   -1.423614
  O      3.477267    0.138160   -0.045065
  P      2.487505    0.039964    1.199062
  S      1.406421    1.604192    1.663321
  O      3.499487   -0.257963    2.365466
  C      4.678470   -1.095556    2.279894
  C      4.341005   -2.544711    2.002137
  S      1.351223   -1.750360    0.886770
  C     -0.264948   -1.020299    0.614640
  S     -0.419599   -0.450642   -1.124741
  P     -2.465322    0.033289   -1.095805
  S     -3.280460    0.620923   -2.776351
  O     -2.652142    1.035261    0.135667
  C     -2.694788    2.458049   -0.053195
  C     -1.363749    3.012094   -0.517847
  O     -3.018075   -1.326714   -0.486031
  C     -4.400158   -1.713736   -0.632428
  C     -5.325235   -0.823078    0.169847
  H      3.401280    2.359077   -1.544096
  H      2.416227    1.674186   -2.850257
  H      1.725401    1.890804   -1.239527
  H      3.989209   -0.040162   -1.971336
  H      2.294485   -0.493074   -1.626654
  H      5.332028   -0.687758    1.506984
  H      5.139902   -0.971693    3.260817
  H      3.631703   -2.916761    2.736797
  H      3.903613   -2.652060    1.011095
  H      5.250376   -3.135638    2.051661
  H     -0.393208   -0.162907    1.278315
  H     -1.003363   -1.795410    0.796905
  H     -3.476357    2.684295   -0.785873
  H     -2.973469    2.848442    0.926207
  H     -1.433188    4.091207   -0.607015
  H     -0.576627    2.765119    0.192037
  H     -1.110830    2.593299   -1.492456
  H     -4.657301   -1.679425   -1.695740
  H     -4.420717   -2.745218   -0.278076
  H     -6.335507   -1.216941    0.119772
  H     -5.003330   -0.780704    1.207217
  H     -5.318566    0.185025   -0.242556

 Total Charge           Charge          ....    0
 Multiplicity           Mult            ....    1
 Number of Electrons    NEL             ....  202
 Basis Dimension        Dim             ....  334

ORBITAL ENERGIES
----------------

  NO   OCC          E(Eh)            E(eV)
   0   2.0000     -88.053317     -2396.0526
   1   2.0000     -88.040596     -2395.7064
   2   2.0000     -87.989526     -2394.3167
   3   2.0000     -87.988356     -2394.2849
   4   2.0000     -76.432201     -2079.8259
   5   2.0000     -76.425391     -2079.6406
   6   2.0000     -18.798478      -511.5326
   7   2.0000     -18.796719      -511.4847
   8   2.0000     -18.790879      -511.3258
   9   2.0000     -18.788503      -511.2612
  10   2.0000      -9.962752      -271.1003
  11   2.0000      -9.956777      -270.9377
  12   2.0000      -9.953434      -270.8467
  13   2.0000      -9.953141      -270.8387
  14   2.0000      -9.945998      -270.6444
  15   2.0000      -9.897084      -269.3133
  16   2.0000      -9.884777      -268.9785
  17   2.0000      -9.879206      -268.8269
  18   2.0000      -9.872597      -268.6470
  19   2.0000      -7.697808      -209.4680
  20   2.0000      -7.685742      -209.1397
  21   2.0000      -7.634334      -207.7408
  22   2.0000      -7.633481      -207.7176
  23   2.0000      -6.429488      -174.9553
  24   2.0000      -6.423139      -174.7825
  25   2.0000      -5.725696      -155.8041
  26   2.0000      -5.722178      -155.7084
  27   2.0000      -5.715052      -155.5145
  28   2.0000      -5.714055      -155.4873
  29   2.0000      -5.710190      -155.3822
  30   2.0000      -5.702354      -155.1689
  31   2.0000      -5.663358      -154.1078
  32   2.0000      -5.662405      -154.0819
  33   2.0000      -5.654744      -153.8734
  34   2.0000      -5.654571      -153.8687
  35   2.0000      -5.654190      -153.8583
  36   2.0000      -5.653562      -153.8412
  37   2.0000      -4.652326      -126.5962
  38   2.0000      -4.651276      -126.5677
  39   2.0000      -4.649718      -126.5253
  40   2.0000      -4.645514      -126.4109
  41   2.0000      -4.645015      -126.3973
  42   2.0000      -4.643696      -126.3614
  43   2.0000      -0.993924       -27.0460
  44   2.0000      -0.984580       -26.7918
  45   2.0000      -0.949025       -25.8243
  46   2.0000      -0.943714       -25.6798
  47   2.0000      -0.765282       -20.8244
  48   2.0000      -0.725812       -19.7504
  49   2.0000      -0.712496       -19.3880
  50   2.0000      -0.694128       -18.8882
  51   2.0000      -0.682410       -18.5693
  52   2.0000      -0.675340       -18.3769
  53   2.0000      -0.656768       -17.8716
  54   2.0000      -0.640638       -17.4326
  55   2.0000      -0.598066       -16.2742
  56   2.0000      -0.593096       -16.1390
  57   2.0000      -0.583455       -15.8766
  58   2.0000      -0.569046       -15.4845
  59   2.0000      -0.563740       -15.3401
  60   2.0000      -0.503175       -13.6921
  61   2.0000      -0.492135       -13.3917
  62   2.0000      -0.478450       -13.0193
  63   2.0000      -0.468966       -12.7612
  64   2.0000      -0.455921       -12.4062
  65   2.0000      -0.452270       -12.3069
  66   2.0000      -0.446828       -12.1588
  67   2.0000      -0.435072       -11.8389
  68   2.0000      -0.431304       -11.7364
  69   2.0000      -0.419783       -11.4229
  70   2.0000      -0.415798       -11.3144
  71   2.0000      -0.403833       -10.9889
  72   2.0000      -0.394605       -10.7377
  73   2.0000      -0.392316       -10.6755
  74   2.0000      -0.389292       -10.5932
  75   2.0000      -0.375334       -10.2134
  76   2.0000      -0.364770        -9.9259
  77   2.0000      -0.360258        -9.8031
  78   2.0000      -0.355512        -9.6740
  79   2.0000      -0.351284        -9.5589
  80   2.0000      -0.346297        -9.4232
  81   2.0000      -0.344769        -9.3816
  82   2.0000      -0.338648        -9.2151
  83   2.0000      -0.334804        -9.1105
  84   2.0000      -0.327853        -8.9213
  85   2.0000      -0.321293        -8.7428
  86   2.0000      -0.314784        -8.5657
  87   2.0000      -0.301635        -8.2079
  88   2.0000      -0.296500        -8.0682
  89   2.0000      -0.291013        -7.9189
  90   2.0000      -0.287215        -7.8155
  91   2.0000      -0.281536        -7.6610
  92   2.0000      -0.272718        -7.4210
  93   2.0000      -0.265958        -7.2371
  94   2.0000      -0.261239        -7.1087
  95   2.0000      -0.235536        -6.4092
  96   2.0000      -0.220693        -6.0054
  97   2.0000      -0.209703        -5.7063
  98   2.0000      -0.207600        -5.6491
  99   2.0000      -0.204979        -5.5778
 100   2.0000      -0.200896        -5.4666
 101   0.0000      -0.047112        -1.2820
 102   0.0000      -0.028894        -0.7862
 103   0.0000      -0.022833        -0.6213
 104   0.0000       0.002331         0.0634
 105   0.0000       0.008286         0.2255

MULLIKEN ATOMIC CHARGES
-----------------------
   0 C :   -0.311991
   1 C :   -0.021731
   2 O :   -0.380012
   3 P :    0.616950
   4 S :   -0.301846
   5 O :   -0.358756
   6 C :    0.003258
   7 C :   -0.334407
   8 S :   -0.116515
   9 C :   -0.337592
  10 S :   -0.096091
  11 P :    0.623519
  12 S :   -0.317863
  13 O :   -0.381542
  14 C :   -0.001612
  15 C :   -0.344852
  16 O :   -0.388434
  17 C :   -0.004422
  18 C :   -0.307604
  19 H :    0.113836
  20 H :    0.111436
  21 H :    0.148833
  22 H :    0.104640
  23 H :    0.117244
  24 H :    0.113848
  25 H :    0.114038
  26 H :    0.130710
  27 H :    0.131128
  28 H :    0.120912
  29 H :    0.196312
  30 H :    0.189637
  31 H :    0.107892
  32 H :    0.104241
  33 H :    0.107669
  34 H :    0.152493
  35 H :    0.123004
  36 H :    0.114273
  37 H :    0.104623
  38 H :    0.112679
  39 H :    0.117255
  40 H :    0.124840
Sum of atomic charges:    0.0000000

LOEWDIN ATOMIC CHARGES
----------------------
   0 C :   -0.367344
   1 C :   -0.118743
   2 O :   -0.244351
   3 P :    0.568710
   4 S :   -0.280664
   5 O :   -0.233549
   6 C :   -0.108940
   7 C :   -0.371201
   8 S :    0.086852
   9 C :   -0.478954
  10 S :    0.082037
  11 P :    0.571739
  12 S :   -0.318206
  13 O :   -0.247369
  14 C :   -0.120592
  15 C :   -0.376480
  16 O :   -0.248613
  17 C :   -0.116087
  18 C :   -0.365062
  19 H :    0.126464
  20 H :    0.131372
  21 H :    0.124600
  22 H :    0.118427
  23 H :    0.098690
  24 H :    0.116210
  25 H :    0.124529
  26 H :    0.130164
  27 H :    0.117534
  28 H :    0.135454
  29 H :    0.122376
  30 H :    0.134828
  31 H :    0.107219
  32 H :    0.118822
  33 H :    0.129696
  34 H :    0.120261
  35 H :    0.118292
  36 H :    0.112333
  37 H :    0.118367
  38 H :    0.130710
  39 H :    0.126790
  40 H :    0.123680

  Mayer bond orders larger than 0.100000
B(  0-C ,  1-C ) :   1.1677 B(  0-C , 19-H ) :   0.9445 B(  0-C , 20-H ) :   0.9378
B(  0-C , 21-H ) :   0.9274 B(  1-C ,  2-O ) :   0.9083 B(  1-C , 22-H ) :   0.9341
B(  1-C , 23-H ) :   0.9071 B(  2-O ,  3-P ) :   1.0771 B(  3-P ,  4-S ) :   1.6549
B(  3-P ,  5-O ) :   1.1478 B(  3-P ,  8-S ) :   0.9234 B(  4-S ,  8-S ) :   0.1167
B(  5-O ,  6-C ) :   0.8977 B(  6-C ,  7-C ) :   1.1693 B(  6-C , 24-H ) :   0.9264
B(  6-C , 25-H ) :   0.9333 B(  7-C , 26-H ) :   0.9429 B(  7-C , 27-H ) :   0.9314
B(  7-C , 28-H ) :   0.9353 B(  8-S ,  9-C ) :   1.0251 B(  9-C , 10-S ) :   0.9617
B(  9-C , 29-H ) :   0.8566 B(  9-C , 30-H ) :   0.8911 B( 10-S , 11-P ) :   0.9809
B( 11-P , 12-S ) :   1.6302 B( 11-P , 13-O ) :   1.0768 B( 11-P , 16-O ) :   1.0903
B( 13-O , 14-C ) :   0.9067 B( 14-C , 15-C ) :   1.1659 B( 14-C , 31-H ) :   0.9161
B( 14-C , 32-H ) :   0.9321 B( 15-C , 33-H ) :   0.9357 B( 15-C , 34-H ) :   0.9220
B( 15-C , 35-H ) :   0.9322 B( 16-O , 17-C ) :   0.9075 B( 17-C , 18-C ) :   1.1628
B( 17-C , 36-H ) :   0.9173 B( 17-C , 37-H ) :   0.9355 B( 18-C , 38-H ) :   0.9382
B( 18-C , 39-H ) :   0.9459 B( 18-C , 40-H ) :   0.9366

Dispersion correction           -0.064243212
FINAL SINGLE POINT ENERGY     -2929.517480792785

DIPOLE MOMENT
-------------

Method             : SCF
Type of density    : Electron Density
Multiplicity       :   1
Irrep              :   0
Energy             : -2929.6398637231309294 Eh
Relativity type    :
Basis              : AO
                                X                 Y                 Z
Electronic contribution:      0.301352001      -2.543838645      -0.229959580
Nuclear contribution   :      0.384970504       1.629324893       0.683610412
                        -----------------------------------------
Total Dipole Moment    :      0.686322505      -0.914513753       0.453650833
                        -----------------------------------------
Magnitude (a.u.)       :      1.230110996
Magnitude (Debye)      :      3.126693669

Rotational constants in cm-1:             0.014181             0.004241             0.003952
Rotational constants in MHz :           425.133509           127.127293           118.467508

                             ****ORCA TERMINATED NORMALLY****
TOTAL RUN TIME: 0 days 0 hours 0 minutes 21 seconds 99 msec
