                         Program Version 6.0.0  -   RELEASE  -
|  1> ! pbe def2-sv(p) def2/J RI DEFGRID1 loosescf d4 GCP(DFT/SV(P)) printgap
|  2> %output
|  3>     printlevel normal
|  4> end
|  5> * xyz 0 1
|  6> C 4.3900162107 -1.6417627013 -0.7251511736
|  7> C 4.5668952264 -0.143373854 -0.5885502951
|  8> O 3.4816686535 0.4811331206 0.1199266385
|  9> P 1.9948177119 0.535599142 -0.4515163188
| 10> S 1.8660570796 0.8154755587 -2.3803251806
| 11> O 1.374540962 1.7030190635 0.4063749589
| 12> C 1.4265215703 1.7361509096 1.8533554305
| 13> C 2.5176214168 2.673689991 2.3264316835
| 14> S 1.1509917155 -1.2653496272 0.3092829811
| 15> C 0.0076682988 -1.6998521179 -1.039728244
| 16> S -1.6722977803 -1.9974216691 -0.4567773395
| 17> P -2.1263640281 -0.0052538502 0.1360852866
| 18> S -1.4559713277 1.4163332403 -1.0351205957
| 19> O -1.5666012384 0.1857799791 1.5986939479
| 20> C -1.9637013512 -0.6857789533 2.6954670518
| 21> C -0.7544298487 -0.974999497 3.5601939104
| 22> O -3.6891279623 -0.0694610196 0.4143169683
| 23> C -4.6775283244 -0.6120541958 -0.4819808247
| 24> C -4.6267514029 0.0122844021 -1.8602970118
| 25> H 4.1874429122 -2.0912661631 0.2436354645
| 26> H 3.561429232 -1.8572981205 -1.3979774291
| 27> H 5.2970450783 -2.0696282378 -1.1398472512
| 28> H 4.645335131 0.3245283727 -1.5745961814
| 29> H 5.4433568227 0.1048478757 0.0117764585
| 30> H 0.4352887287 2.0843350675 2.1531575209
| 31> H 1.587676161 0.7200933057 2.2248937348
| 32> H 2.3646938761 3.663420753 1.9046285545
| 33> H 2.4866643932 2.7353015067 3.4097263728
| 34> H 3.4907179513 2.3049979642 2.0132216658
| 35> H 0.3406491209 -2.6337252109 -1.4855511202
| 36> H 0.0130858011 -0.8870634288 -1.771588437
| 37> H -2.7392313853 -0.1545985856 3.2492630591
| 38> H -2.3801222796 -1.6076455003 2.2800963806
| 39> H -1.0606412602 -1.6064223782 4.3880510658
| 40> H 0.0080538337 -1.4910090815 2.9817567298
| 41> H -0.3395817131 -0.0498541 3.9494604374
| 42> H -4.5255126699 -1.6932233775 -0.541549942
| 43> H -5.6222531244 -0.3954052027 0.0196587277
| 44> H -4.7164441823 1.0939621852 -1.7914165823
| 45> H -3.6790029306 -0.2200937787 -2.3444629097
| 46> H -5.4384054937 -0.3790691083 -2.4649975913
| 47> *
| 48>
| 49>                          ****END OF INPUT****

CARTESIAN COORDINATES (ANGSTROEM)
---------------------------------
  C      4.390016   -1.641763   -0.725151
  C      4.566895   -0.143374   -0.588550
  O      3.481669    0.481133    0.119927
  P      1.994818    0.535599   -0.451516
  S      1.866057    0.815476   -2.380325
  O      1.374541    1.703019    0.406375
  C      1.426522    1.736151    1.853355
  C      2.517621    2.673690    2.326432
  S      1.150992   -1.265350    0.309283
  C      0.007668   -1.699852   -1.039728
  S     -1.672298   -1.997422   -0.456777
  P     -2.126364   -0.005254    0.136085
  S     -1.455971    1.416333   -1.035121
  O     -1.566601    0.185780    1.598694
  C     -1.963701   -0.685779    2.695467
  C     -0.754430   -0.974999    3.560194
  O     -3.689128   -0.069461    0.414317
  C     -4.677528   -0.612054   -0.481981
  C     -4.626751    0.012284   -1.860297
  H      4.187443   -2.091266    0.243635
  H      3.561429   -1.857298   -1.397977
  H      5.297045   -2.069628   -1.139847
  H      4.645335    0.324528   -1.574596
  H      5.443357    0.104848    0.011776
  H      0.435289    2.084335    2.153158
  H      1.587676    0.720093    2.224894
  H      2.364694    3.663421    1.904629
  H      2.486664    2.735302    3.409726
  H      3.490718    2.304998    2.013222
  H      0.340649   -2.633725   -1.485551
  H      0.013086   -0.887063   -1.771588
  H     -2.739231   -0.154599    3.249263
  H     -2.380122   -1.607646    2.280096
  H     -1.060641   -1.606422    4.388051
  H      0.008054   -1.491009    2.981757
  H     -0.339582   -0.049854    3.949460
  H     -4.525513   -1.693223   -0.541550
  H     -5.622253   -0.395405    0.019659
  H     -4.716444    1.093962   -1.791417
  H     -3.679003   -0.220094   -2.344463
  H     -5.438405   -0.379069   -2.464998

 Total Charge           Charge          ....    0
 Multiplicity           Mult            ....    1
 Number of Electrons    NEL             ....  202
 Basis Dimension        Dim             ....  334

ORBITAL ENERGIES
----------------

  NO   OCC          E(Eh)            E(eV)
   0   2.0000     -88.045981     -2395.8529
   1   2.0000     -88.039186     -2395.6681
   2   2.0000     -87.980447     -2394.0697
   3   2.0000     -87.976574     -2393.9643
   4   2.0000     -76.422465     -2079.5610
   5   2.0000     -76.420984     -2079.5207
   6   2.0000     -18.792685      -511.3750
   7   2.0000     -18.788999      -511.2746
   8   2.0000     -18.788514      -511.2615
   9   2.0000     -18.780897      -511.0542
  10   2.0000      -9.959031      -270.9990
  11   2.0000      -9.955869      -270.9130
  12   2.0000      -9.954306      -270.8704
  13   2.0000      -9.949979      -270.7527
  14   2.0000      -9.947494      -270.6851
  15   2.0000      -9.889166      -269.0979
  16   2.0000      -9.881988      -268.9026
  17   2.0000      -9.881790      -268.8972
  18   2.0000      -9.880381      -268.8588
  19   2.0000      -7.690979      -209.2822
  20   2.0000      -7.683768      -209.0860
  21   2.0000      -7.625668      -207.5050
  22   2.0000      -7.621465      -207.3906
  23   2.0000      -6.419731      -174.6898
  24   2.0000      -6.418330      -174.6516
  25   2.0000      -5.718702      -155.6138
  26   2.0000      -5.715249      -155.5198
  27   2.0000      -5.711646      -155.4218
  28   2.0000      -5.708383      -155.3330
  29   2.0000      -5.708272      -155.3300
  30   2.0000      -5.700752      -155.1253
  31   2.0000      -5.654744      -153.8734
  32   2.0000      -5.650656      -153.7622
  33   2.0000      -5.646175      -153.6402
  34   2.0000      -5.645736      -153.6283
  35   2.0000      -5.641866      -153.5230
  36   2.0000      -5.641607      -153.5159
  37   2.0000      -4.642546      -126.3301
  38   2.0000      -4.641843      -126.3110
  39   2.0000      -4.641105      -126.2909
  40   2.0000      -4.639955      -126.2596
  41   2.0000      -4.639640      -126.2510
  42   2.0000      -4.638785      -126.2278
  43   2.0000      -0.987362       -26.8675
  44   2.0000      -0.981727       -26.7142
  45   2.0000      -0.942770       -25.6541
  46   2.0000      -0.937357       -25.5068
  47   2.0000      -0.761768       -20.7288
  48   2.0000      -0.718438       -19.5497
  49   2.0000      -0.709297       -19.3010
  50   2.0000      -0.690495       -18.7893
  51   2.0000      -0.685730       -18.6597
  52   2.0000      -0.675872       -18.3914
  53   2.0000      -0.647689       -17.6245
  54   2.0000      -0.632620       -17.2145
  55   2.0000      -0.593055       -16.1379
  56   2.0000      -0.585295       -15.9267
  57   2.0000      -0.573322       -15.6009
  58   2.0000      -0.568217       -15.4620
  59   2.0000      -0.563818       -15.3423
  60   2.0000      -0.508190       -13.8286
  61   2.0000      -0.494680       -13.4609
  62   2.0000      -0.473483       -12.8841
  63   2.0000      -0.468789       -12.7564
  64   2.0000      -0.452564       -12.3149
  65   2.0000      -0.445808       -12.1311
  66   2.0000      -0.440103       -11.9758
  67   2.0000      -0.435875       -11.8608
  68   2.0000      -0.428306       -11.6548
  69   2.0000      -0.421698       -11.4750
  70   2.0000      -0.413354       -11.2479
  71   2.0000      -0.396109       -10.7787
  72   2.0000      -0.388340       -10.5673
  73   2.0000      -0.388045       -10.5592
  74   2.0000      -0.381331       -10.3765
  75   2.0000      -0.363482        -9.8909
  76   2.0000      -0.360982        -9.8228
  77   2.0000      -0.353646        -9.6232
  78   2.0000      -0.352384        -9.5889
  79   2.0000      -0.347446        -9.4545
  80   2.0000      -0.346444        -9.4272
  81   2.0000      -0.344415        -9.3720
  82   2.0000      -0.339699        -9.2437
  83   2.0000      -0.337065        -9.1720
  84   2.0000      -0.334472        -9.1014
  85   2.0000      -0.318555        -8.6683
  86   2.0000      -0.309701        -8.4274
  87   2.0000      -0.296773        -8.0756
  88   2.0000      -0.295281        -8.0350
  89   2.0000      -0.291907        -7.9432
  90   2.0000      -0.286834        -7.8052
  91   2.0000      -0.277443        -7.5496
  92   2.0000      -0.264355        -7.1935
  93   2.0000      -0.260882        -7.0990
  94   2.0000      -0.255593        -6.9550
  95   2.0000      -0.235987        -6.4215
  96   2.0000      -0.217421        -5.9163
  97   2.0000      -0.210361        -5.7242
  98   2.0000      -0.197424        -5.3722
  99   2.0000      -0.188813        -5.1378
 100   2.0000      -0.182396        -4.9632
 101   0.0000      -0.040557        -1.1036
 102   0.0000      -0.031611        -0.8602
 103   0.0000      -0.011096        -0.3019
 104   0.0000       0.008319         0.2264
 105   0.0000       0.019970         0.5434

MULLIKEN ATOMIC CHARGES
-----------------------
   0 C :   -0.311117
   1 C :    0.002539
   2 O :   -0.385822
   3 P :    0.607650
   4 S :   -0.293137
   5 O :   -0.339525
   6 C :   -0.025134
   7 C :   -0.282035
   8 S :   -0.123215
   9 C :   -0.341078
  10 S :   -0.123328
  11 P :    0.574248
  12 S :   -0.269831
  13 O :   -0.353581
  14 C :   -0.007197
  15 C :   -0.295002
  16 O :   -0.380618
  17 C :   -0.012022
  18 C :   -0.308039
  19 H :    0.115409
  20 H :    0.120185
  21 H :    0.111186
  22 H :    0.111471
  23 H :    0.101867
  24 H :    0.118920
  25 H :    0.102925
  26 H :    0.121294
  27 H :    0.103976
  28 H :    0.116705
  29 H :    0.179742
  30 H :    0.209770
  31 H :    0.109535
  32 H :    0.097681
  33 H :    0.109019
  34 H :    0.131930
  35 H :    0.118097
  36 H :    0.111551
  37 H :    0.108588
  38 H :    0.127720
  39 H :    0.128341
  40 H :    0.110334
Sum of atomic charges:    0.0000000

LOEWDIN ATOMIC CHARGES
----------------------
   0 C :   -0.371031
   1 C :   -0.117035
   2 O :   -0.251848
   3 P :    0.574165
   4 S :   -0.294204
   5 O :   -0.224826
   6 C :   -0.114137
   7 C :   -0.358214
   8 S :    0.067722
   9 C :   -0.478596
  10 S :    0.059303
  11 P :    0.555824
  12 S :   -0.278792
  13 O :   -0.237443
  14 C :   -0.114219
  15 C :   -0.356604
  16 O :   -0.248701
  17 C :   -0.114798
  18 C :   -0.369073
  19 H :    0.121976
  20 H :    0.119253
  21 H :    0.129747
  22 H :    0.112159
  23 H :    0.116881
  24 H :    0.121015
  25 H :    0.101447
  26 H :    0.129627
  27 H :    0.126740
  28 H :    0.124794
  29 H :    0.134961
  30 H :    0.126208
  31 H :    0.117489
  32 H :    0.102257
  33 H :    0.129465
  34 H :    0.121743
  35 H :    0.125212
  36 H :    0.107042
  37 H :    0.120989
  38 H :    0.131283
  39 H :    0.122638
  40 H :    0.129579

  Mayer bond orders larger than 0.100000
B(  0-C ,  1-C ) :   1.1672 B(  0-C , 19-H ) :   0.9426 B(  0-C , 20-H ) :   0.9368
B(  0-C , 21-H ) :   0.9371 B(  1-C ,  2-O ) :   0.9125 B(  1-C , 22-H ) :   0.9176
B(  1-C , 23-H ) :   0.9343 B(  2-O ,  3-P ) :   1.0684 B(  3-P ,  4-S ) :   1.6313
B(  3-P ,  5-O ) :   1.1470 B(  3-P ,  8-S ) :   0.9443 B(  4-S ,  8-S ) :   0.1124
B(  5-O ,  6-C ) :   0.8961 B(  6-C ,  7-C ) :   1.1578 B(  6-C , 24-H ) :   0.9278
B(  6-C , 25-H ) :   0.9119 B(  7-C , 26-H ) :   0.9468 B(  7-C , 27-H ) :   0.9407
B(  7-C , 28-H ) :   0.9425 B(  8-S ,  9-C ) :   0.9958 B(  9-C , 10-S ) :   1.0037
B(  9-C , 29-H ) :   0.9103 B(  9-C , 30-H ) :   0.8444 B( 10-S , 11-P ) :   0.9271
B( 10-S , 12-S ) :   0.1087 B( 11-P , 12-S ) :   1.6862 B( 11-P , 13-O ) :   1.1187
B( 11-P , 16-O ) :   1.0800 B( 13-O , 14-C ) :   0.8874 B( 14-C , 15-C ) :   1.1667
B( 14-C , 31-H ) :   0.9343 B( 14-C , 32-H ) :   0.9110 B( 15-C , 33-H ) :   0.9388
B( 15-C , 34-H ) :   0.9363 B( 15-C , 35-H ) :   0.9450 B( 16-O , 17-C ) :   0.9151
B( 17-C , 18-C ) :   1.1668 B( 17-C , 36-H ) :   0.9266 B( 17-C , 37-H ) :   0.9335
B( 18-C , 38-H ) :   0.9430 B( 18-C , 39-H ) :   0.9319 B( 18-C , 40-H ) :   0.9348

Dispersion correction           -0.067818298
FINAL SINGLE POINT ENERGY     -2929.514287590907

DIPOLE MOMENT
-------------

Method             : SCF
Type of density    : Electron Density
Multiplicity       :   1
Irrep              :   0
Energy             : -2929.6325475198827917 Eh
Relativity type    :
Basis              : AO
                                X                 Y                 Z
Electronic contribution:     -3.514403176       2.958488466     -12.334241591
Nuclear contribution   :      3.267325936      -4.260974323      13.854707735
                        -----------------------------------------
Total Dipole Moment    :     -0.247077240      -1.302485856       1.520466144
                        -----------------------------------------
Magnitude (a.u.)       :      2.017258997
Magnitude (Debye)      :      5.127464885

Rotational constants in cm-1:             0.012235             0.005477             0.005074
Rotational constants in MHz :           366.785002           164.189877           152.109439

                             ****ORCA TERMINATED NORMALLY****
TOTAL RUN TIME: 0 days 0 hours 0 minutes 21 seconds 688 msec
