                         Program Version 6.0.0  -   RELEASE  -
|  1> ! pbe def2-sv(p) def2/J RI DEFGRID1 loosescf d4 GCP(DFT/SV(P)) printgap
|  2> %output
|  3>     printlevel normal
|  4> end
|  5> * xyz 0 1
|  6> C -0.7257267485 -1.2525928668 0.2414285525
|  7> C -1.4476560197 0.0022463636 -0.2416782298
|  8> C -0.721836857 1.2546639718 0.2418582887
|  9> C 0.7255566315 1.2525855575 -0.2418594795
| 10> C 1.4476392713 -0.0020539236 0.2416334228
| 11> C 0.7220343808 -1.2548091271 -0.2414186694
| 12> H -1.2415293434 -2.1429311093 -0.1244531937
| 13> H -0.7421684849 -1.2806981279 1.3335778463
| 14> H -1.4800128698 0.0025767014 -1.333715339
| 15> H -2.4766267016 0.0036165774 0.1240639132
| 16> H -1.2351483921 2.14667974 -0.1231219696
| 17> H -0.7375786384 1.2820787772 1.3339613939
| 18> H 0.7413204179 1.2801944235 -1.3338973213
| 19> H 1.2415198298 2.1430599676 0.1232808854
| 20> H 2.476560093 -0.0035958414 -0.1239922017
| 21> H 1.4798143298 -0.0016453915 1.3335692745
| 22> H 0.7386926024 -1.2832723309 -1.3335205663
| 23> H 1.2350301425 -2.1465397665 0.1246776518
| 24> *
| 25>
| 26>                          ****END OF INPUT****

CARTESIAN COORDINATES (ANGSTROEM)
---------------------------------
  C     -0.725727   -1.252593    0.241429
  C     -1.447656    0.002246   -0.241678
  C     -0.721837    1.254664    0.241858
  C      0.725557    1.252586   -0.241859
  C      1.447639   -0.002054    0.241633
  C      0.722034   -1.254809   -0.241419
  H     -1.241529   -2.142931   -0.124453
  H     -0.742168   -1.280698    1.333578
  H     -1.480013    0.002577   -1.333715
  H     -2.476627    0.003617    0.124064
  H     -1.235148    2.146680   -0.123122
  H     -0.737579    1.282079    1.333961
  H      0.741320    1.280194   -1.333897
  H      1.241520    2.143060    0.123281
  H      2.476560   -0.003596   -0.123992
  H      1.479814   -0.001645    1.333569
  H      0.738693   -1.283272   -1.333521
  H      1.235030   -2.146540    0.124678

 Total Charge           Charge          ....    0
 Multiplicity           Mult            ....    1
 Number of Electrons    NEL             ....   48
 Basis Dimension        Dim             ....  108

ORBITAL ENERGIES
----------------

  NO   OCC          E(Eh)            E(eV)
   0   2.0000      -9.876560      -268.7549
   1   2.0000      -9.876541      -268.7543
   2   2.0000      -9.876522      -268.7538
   3   2.0000      -9.876499      -268.7532
   4   2.0000      -9.876478      -268.7526
   5   2.0000      -9.876454      -268.7520
   6   2.0000      -0.748913       -20.3790
   7   2.0000      -0.660307       -17.9679
   8   2.0000      -0.660301       -17.9677
   9   2.0000      -0.534392       -14.5415
  10   2.0000      -0.534382       -14.5413
  11   2.0000      -0.490098       -13.3362
  12   2.0000      -0.428996       -11.6736
  13   2.0000      -0.388321       -10.5667
  14   2.0000      -0.388315       -10.5666
  15   2.0000      -0.386102       -10.5064
  16   2.0000      -0.330134        -8.9834
  17   2.0000      -0.330120        -8.9830
  18   2.0000      -0.326129        -8.8744
  19   2.0000      -0.297183        -8.0868
  20   2.0000      -0.297178        -8.0866
  21   2.0000      -0.275930        -7.5084
  22   2.0000      -0.253117        -6.8877
  23   2.0000      -0.253102        -6.8873
  24   0.0000       0.036196         0.9849
  25   0.0000       0.052698         1.4340
  26   0.0000       0.074057         2.0152
  27   0.0000       0.074114         2.0168
  28   0.0000       0.110454         3.0056

MULLIKEN ATOMIC CHARGES
-----------------------
   0 C :   -0.157022
   1 C :   -0.157278
   2 C :   -0.156901
   3 C :   -0.156883
   4 C :   -0.157238
   5 C :   -0.156919
   6 H :    0.083312
   7 H :    0.073730
   8 H :    0.073829
   9 H :    0.083290
  10 H :    0.083289
  11 H :    0.073697
  12 H :    0.073692
  13 H :    0.083296
  14 H :    0.083277
  15 H :    0.073799
  16 H :    0.073739
  17 H :    0.083290
Sum of atomic charges:    0.0000000

LOEWDIN ATOMIC CHARGES
----------------------
   0 C :   -0.227561
   1 C :   -0.227643
   2 C :   -0.227580
   3 C :   -0.227578
   4 C :   -0.227655
   5 C :   -0.227582
   6 H :    0.114591
   7 H :    0.112981
   8 H :    0.113046
   9 H :    0.114594
  10 H :    0.114592
  11 H :    0.112978
  12 H :    0.112981
  13 H :    0.114591
  14 H :    0.114599
  15 H :    0.113058
  16 H :    0.112984
  17 H :    0.114604

  Mayer bond orders larger than 0.100000
B(  0-C ,  1-C ) :   1.1331 B(  0-C ,  5-C ) :   1.1329 B(  0-C ,  6-H ) :   0.9208
B(  0-C ,  7-H ) :   0.9163 B(  1-C ,  2-C ) :   1.1330 B(  1-C ,  8-H ) :   0.9162
B(  1-C ,  9-H ) :   0.9208 B(  2-C ,  3-C ) :   1.1329 B(  2-C , 10-H ) :   0.9208
B(  2-C , 11-H ) :   0.9163 B(  3-C ,  4-C ) :   1.1330 B(  3-C , 12-H ) :   0.9163
B(  3-C , 13-H ) :   0.9208 B(  4-C ,  5-C ) :   1.1331 B(  4-C , 14-H ) :   0.9208
B(  4-C , 15-H ) :   0.9162 B(  5-C , 16-H ) :   0.9163 B(  5-C , 17-H ) :   0.9208

Dispersion correction           -0.014843447
FINAL SINGLE POINT ENERGY      -235.277049711797

DIPOLE MOMENT
-------------

Method             : SCF
Type of density    : Electron Density
Multiplicity       :   1
Irrep              :   0
Energy             :  -235.3387663276110970 Eh
Relativity type    :
Basis              : AO
                                X                 Y                 Z
Electronic contribution:      0.000169789       0.000430342      -0.000400169
Nuclear contribution   :     -0.000119161      -0.000446923       0.000403761
                        -----------------------------------------
Total Dipole Moment    :      0.000050628      -0.000016580       0.000003591
                        -----------------------------------------
Magnitude (a.u.)       :      0.000053395
Magnitude (Debye)      :      0.000135719

Rotational constants in cm-1:             0.145653             0.145649             0.083718
Rotational constants in MHz :          4366.555874          4366.455544          2509.806522

                             ****ORCA TERMINATED NORMALLY****
TOTAL RUN TIME: 0 days 0 hours 0 minutes 7 seconds 228 msec
