                         Program Version 6.0.1  -  RELEASE   -
|  1> ! pbe def2-sv(p) def2/J RI DEFGRID1 loosescf d4 GCP(DFT/SV(P)) printgap
|  2> %output
|  3>     printlevel normal
|  4> end
|  5> * xyz 0 1
|  6> C 3.2153392007 -4.61575019 -0.5983851921
|  7> C 3.5573820827 -3.5519702652 -1.6294949462
|  8> O 3.4574594282 -2.2329539843 -1.0573204978
|  9> C 2.285192733 -1.629344331 -1.0708532322
| 10> O 1.2776283937 -2.0894658008 -1.5611053872
| 11> C 2.3642199953 -0.2729345367 -0.3996039549
| 12> C 0.9886796138 0.3641500473 -0.3137525134
| 13> H 0.4664082344 0.2380593946 -1.2744540139
| 14> C 1.0324863454 1.8558372016 -0.0411467624
| 15> O 1.9532037746 2.5649925127 -0.3717934703
| 16> O -0.0734931984 2.2671197642 0.5438942781
| 17> C -0.2250865497 3.6714931542 0.8345063224
| 18> C 0.3594804178 4.0022325168 2.19733317
| 19> S -0.0399120063 -0.4832538484 0.930956997
| 20> P -1.9343610717 0.1740976209 0.2263202128
| 21> S -2.0381964738 0.8532179692 -1.6073982429
| 22> O -2.8485823602 -1.1172273644 0.4944196745
| 23> C -2.6978739238 -2.295777368 -0.3016477093
| 24> O -2.5415013296 1.1731203758 1.2861530344
| 25> C -2.6214975758 0.8467761327 2.6882342463
| 26> H 3.3575619576 -5.5982598084 -1.0360579888
| 27> H 3.8579227023 -4.5133550872 0.2715544252
| 28> H 2.1783062756 -4.5141155306 -0.2870604011
| 29> H 2.8831955215 -3.6123724694 -2.488611868
| 30> H 4.5950525418 -3.6303385574 -1.9538672946
| 31> H 3.0222698071 0.3762434688 -0.9825190128
| 32> H 2.8062291742 -0.3960299753 0.5899862708
| 33> H 0.2701180036 4.240591726 0.0431551876
| 34> H -1.3026934636 3.8370648332 0.8030446598
| 35> H 0.1681680319 5.0463656359 2.4209416108
| 36> H -0.0974583318 3.3814492716 2.9630405252
| 37> H 1.4335777976 3.8320830119 2.1940498359
| 38> H -3.4635363737 -2.9843788523 0.0454647051
| 39> H -1.7035604898 -2.7217489175 -0.1620011163
| 40> H -2.8445478277 -2.0574046676 -1.3561833899
| 41> H -2.9399555301 1.7643625089 3.1760904501
| 42> H -1.6440335469 0.5299756624 3.0526807799
| 43> H -3.3506112109 0.0537534709 2.8418108378
| 44> *
| 45>
| 46>                          ****END OF INPUT****

CARTESIAN COORDINATES (ANGSTROEM)
---------------------------------
  C      3.215339   -4.615750   -0.598385
  C      3.557382   -3.551970   -1.629495
  O      3.457459   -2.232954   -1.057320
  C      2.285193   -1.629344   -1.070853
  O      1.277628   -2.089466   -1.561105
  C      2.364220   -0.272935   -0.399604
  C      0.988680    0.364150   -0.313753
  H      0.466408    0.238059   -1.274454
  C      1.032486    1.855837   -0.041147
  O      1.953204    2.564993   -0.371793
  O     -0.073493    2.267120    0.543894
  C     -0.225087    3.671493    0.834506
  C      0.359480    4.002233    2.197333
  S     -0.039912   -0.483254    0.930957
  P     -1.934361    0.174098    0.226320
  S     -2.038196    0.853218   -1.607398
  O     -2.848582   -1.117227    0.494420
  C     -2.697874   -2.295777   -0.301648
  O     -2.541501    1.173120    1.286153
  C     -2.621498    0.846776    2.688234
  H      3.357562   -5.598260   -1.036058
  H      3.857923   -4.513355    0.271554
  H      2.178306   -4.514116   -0.287060
  H      2.883196   -3.612372   -2.488612
  H      4.595053   -3.630339   -1.953867
  H      3.022270    0.376243   -0.982519
  H      2.806229   -0.396030    0.589986
  H      0.270118    4.240592    0.043155
  H     -1.302693    3.837065    0.803045
  H      0.168168    5.046366    2.420942
  H     -0.097458    3.381449    2.963041
  H      1.433578    3.832083    2.194050
  H     -3.463536   -2.984379    0.045465
  H     -1.703560   -2.721749   -0.162001
  H     -2.844548   -2.057405   -1.356183
  H     -2.939956    1.764363    3.176090
  H     -1.644034    0.529976    3.052681
  H     -3.350611    0.053753    2.841811

 Total Charge           Charge          ....    0
 Multiplicity           Mult            ....    1
 Number of Electrons    NEL             ....  174
 Basis Dimension        Dim             ....  316

ORBITAL ENERGIES
----------------

  NO   OCC          E(Eh)            E(eV)
   0   2.0000     -88.037747     -2395.6289
   1   2.0000     -87.979475     -2394.0432
   2   2.0000     -76.422519     -2079.5625
   3   2.0000     -18.808504      -511.8054
   4   2.0000     -18.805034      -511.7110
   5   2.0000     -18.793604      -511.4000
   6   2.0000     -18.787533      -511.2348
   7   2.0000     -18.743730      -510.0428
   8   2.0000     -18.740756      -509.9619
   9   2.0000     -10.015093      -272.5245
  10   2.0000     -10.014027      -272.4955
  11   2.0000      -9.951812      -270.8026
  12   2.0000      -9.951463      -270.7931
  13   2.0000      -9.947788      -270.6931
  14   2.0000      -9.940158      -270.4854
  15   2.0000      -9.937455      -270.4119
  16   2.0000      -9.913504      -269.7602
  17   2.0000      -9.890885      -269.1447
  18   2.0000      -9.889525      -269.1077
  19   2.0000      -7.682451      -209.0501
  20   2.0000      -7.624677      -207.4780
  21   2.0000      -6.419601      -174.6862
  22   2.0000      -5.710155      -155.3812
  23   2.0000      -5.707244      -155.3020
  24   2.0000      -5.699384      -155.0881
  25   2.0000      -5.653881      -153.8499
  26   2.0000      -5.645230      -153.6145
  27   2.0000      -5.644583      -153.5969
  28   2.0000      -4.642342      -126.3245
  29   2.0000      -4.641456      -126.3004
  30   2.0000      -4.639920      -126.2586
  31   2.0000      -1.015935       -27.6450
  32   2.0000      -1.013765       -27.5859
  33   2.0000      -0.985071       -26.8052
  34   2.0000      -0.940279       -25.5863
  35   2.0000      -0.921579       -25.0775
  36   2.0000      -0.920030       -25.0353
  37   2.0000      -0.764141       -20.7933
  38   2.0000      -0.716784       -19.5047
  39   2.0000      -0.702135       -19.1061
  40   2.0000      -0.694457       -18.8971
  41   2.0000      -0.659587       -17.9483
  42   2.0000      -0.633433       -17.2366
  43   2.0000      -0.621677       -16.9167
  44   2.0000      -0.615325       -16.7439
  45   2.0000      -0.601892       -16.3783
  46   2.0000      -0.563147       -15.3240
  47   2.0000      -0.513397       -13.9702
  48   2.0000      -0.504186       -13.7196
  49   2.0000      -0.495658       -13.4876
  50   2.0000      -0.476699       -12.9717
  51   2.0000      -0.472785       -12.8651
  52   2.0000      -0.466785       -12.7019
  53   2.0000      -0.446050       -12.1376
  54   2.0000      -0.437853       -11.9146
  55   2.0000      -0.430350       -11.7104
  56   2.0000      -0.427817       -11.6415
  57   2.0000      -0.420235       -11.4352
  58   2.0000      -0.413781       -11.2596
  59   2.0000      -0.406373       -11.0580
  60   2.0000      -0.403368       -10.9762
  61   2.0000      -0.400493       -10.8980
  62   2.0000      -0.398376       -10.8404
  63   2.0000      -0.382702       -10.4138
  64   2.0000      -0.379267       -10.3204
  65   2.0000      -0.369937       -10.0665
  66   2.0000      -0.361939        -9.8489
  67   2.0000      -0.352655        -9.5962
  68   2.0000      -0.345925        -9.4131
  69   2.0000      -0.338942        -9.2231
  70   2.0000      -0.336756        -9.1636
  71   2.0000      -0.332328        -9.0431
  72   2.0000      -0.326297        -8.8790
  73   2.0000      -0.314151        -8.5485
  74   2.0000      -0.306151        -8.3308
  75   2.0000      -0.297825        -8.1042
  76   2.0000      -0.294297        -8.0082
  77   2.0000      -0.291524        -7.9328
  78   2.0000      -0.270616        -7.3638
  79   2.0000      -0.267537        -7.2801
  80   2.0000      -0.264253        -7.1907
  81   2.0000      -0.255571        -6.9545
  82   2.0000      -0.244766        -6.6604
  83   2.0000      -0.227458        -6.1894
  84   2.0000      -0.208202        -5.6655
  85   2.0000      -0.200149        -5.4463
  86   2.0000      -0.194535        -5.2936
  87   0.0000      -0.041757        -1.1363
  88   0.0000      -0.028160        -0.7663
  89   0.0000      -0.020569        -0.5597
  90   0.0000       0.011077         0.3014
  91   0.0000       0.019941         0.5426

MULLIKEN ATOMIC CHARGES
-----------------------
   0 C :   -0.304266
   1 C :   -0.012206
   2 O :   -0.231973
   3 C :    0.137823
   4 O :   -0.198463
   5 C :   -0.120928
   6 C :   -0.347204
   7 H :    0.172958
   8 C :    0.251058
   9 O :   -0.196461
  10 O :   -0.227501
  11 C :   -0.002806
  12 C :   -0.307701
  13 S :   -0.110448
  14 P :    0.630246
  15 S :   -0.315867
  16 O :   -0.392521
  17 C :   -0.102516
  18 O :   -0.365548
  19 C :   -0.110244
  20 H :    0.114628
  21 H :    0.115003
  22 H :    0.125880
  23 H :    0.111241
  24 H :    0.105241
  25 H :    0.143859
  26 H :    0.120987
  27 H :    0.111999
  28 H :    0.112361
  29 H :    0.114929
  30 H :    0.112351
  31 H :    0.124626
  32 H :    0.119947
  33 H :    0.122036
  34 H :    0.121883
  35 H :    0.129295
  36 H :    0.120569
  37 H :    0.127735
Sum of atomic charges:    0.0000000

LOEWDIN ATOMIC CHARGES
----------------------
   0 C :   -0.355601
   1 C :   -0.109929
   2 O :   -0.061415
   3 C :    0.034172
   4 O :   -0.161822
   5 C :   -0.251771
   6 C :   -0.277091
   7 H :    0.146296
   8 C :    0.024001
   9 O :   -0.158230
  10 O :   -0.053932
  11 C :   -0.106819
  12 C :   -0.354836
  13 S :    0.091142
  14 P :    0.582149
  15 S :   -0.306839
  16 O :   -0.263659
  17 C :   -0.217621
  18 O :   -0.238476
  19 C :   -0.211582
  20 H :    0.131398
  21 H :    0.125255
  22 H :    0.130170
  23 H :    0.121031
  24 H :    0.119003
  25 H :    0.159415
  26 H :    0.141818
  27 H :    0.122152
  28 H :    0.122091
  29 H :    0.131679
  30 H :    0.122896
  31 H :    0.129844
  32 H :    0.119618
  33 H :    0.110915
  34 H :    0.114476
  35 H :    0.123949
  36 H :    0.108118
  37 H :    0.118036

  Mayer bond orders larger than 0.100000
B(  0-C ,  1-C ) :   1.1746 B(  0-C , 20-H ) :   0.9442 B(  0-C , 21-H ) :   0.9490
B(  0-C , 22-H ) :   0.9465 B(  1-C ,  2-O ) :   0.9130 B(  1-C , 23-H ) :   0.9138
B(  1-C , 24-H ) :   0.9372 B(  2-O ,  3-C ) :   1.2407 B(  3-C ,  4-O ) :   2.0318
B(  3-C ,  5-C ) :   1.0000 B(  5-C ,  6-C ) :   1.0932 B(  5-C , 25-H ) :   0.8677
B(  5-C , 26-H ) :   0.8983 B(  6-C ,  7-H ) :   0.8149 B(  6-C ,  8-C ) :   0.8855
B(  6-C , 13-S ) :   1.0112 B(  8-C ,  9-O ) :   2.0620 B(  8-C , 10-O ) :   1.2454
B( 10-O , 11-C ) :   0.9013 B( 11-C , 12-C ) :   1.1755 B( 11-C , 27-H ) :   0.9165
B( 11-C , 28-H ) :   0.9312 B( 12-C , 29-H ) :   0.9445 B( 12-C , 30-H ) :   0.9484
B( 12-C , 31-H ) :   0.9463 B( 13-S , 14-P ) :   0.9510 B( 13-S , 15-S ) :   0.1156
B( 14-P , 15-S ) :   1.6406 B( 14-P , 16-O ) :   1.0679 B( 14-P , 18-O ) :   1.1174
B( 16-O , 17-C ) :   0.9311 B( 17-C , 32-H ) :   0.9581 B( 17-C , 33-H ) :   0.9412
B( 17-C , 34-H ) :   0.9401 B( 18-O , 19-C ) :   0.9199 B( 19-C , 35-H ) :   0.9588
B( 19-C , 36-H ) :   0.9346 B( 19-C , 37-H ) :   0.9483

Dispersion correction           -0.051026075
FINAL SINGLE POINT ENERGY     -1979.023265456017

DIPOLE MOMENT
-------------

Method             : SCF
Type of density    : Electron Density
Multiplicity       :   1
Irrep              :   0
Energy             : -1979.1539984905966776 Eh
Relativity type    :
Basis              : AO
                                X                 Y                 Z
Electronic contribution:     -8.617173969       5.650530233      -6.695059398
Nuclear contribution   :      9.023462327      -6.469959131       8.120700242
                        -----------------------------------------
Total Dipole Moment    :      0.406288358      -0.819428898       1.425640844
                        -----------------------------------------
Magnitude (a.u.)       :      1.693808066
Magnitude (Debye)      :      4.305317955

Rotational constants in cm-1:             0.012832             0.006762             0.005285
Rotational constants in MHz :           384.688949           202.730483           158.437872

                             ****ORCA TERMINATED NORMALLY****
TOTAL RUN TIME: 0 days 0 hours 0 minutes 29 seconds 58 msec
