                         Program Version 6.0.0  -   RELEASE  -
|  1> ! pbe def2-sv(p) def2/J RI DEFGRID1 loosescf d4 GCP(DFT/SV(P)) printgap
|  2> %output
|  3>     printlevel normal
|  4> end
|  5> * xyz 0 1
|  6> C 5.0114201816 -1.2770055873 -1.5705416672
|  7> C 3.6051905044 -1.8200574359 -1.7368430968
|  8> O 2.8399852552 -1.6955016252 -0.5221344741
|  9> P 2.0593529511 -0.3801626035 -0.0989336328
| 10> S 3.1012608546 1.2449868888 0.26283127
| 11> O 1.2409729229 -0.9585942353 1.1236422634
| 12> C 1.4350743554 -0.514635397 2.4777399908
| 13> C 2.6269838088 -1.209701009 3.1017968881
| 14> S 0.6104885541 -0.2024908333 -1.6370305586
| 15> C 0.106434847 1.4954130509 -1.2661403512
| 16> S -0.6054537246 1.6843426454 0.3946593953
| 17> P -2.250610969 0.396049955 0.1164024089
| 18> S -3.0611992214 0.2943774293 -1.6687978384
| 19> O -3.2745454829 0.7947648312 1.2682898733
| 20> C -4.3091282469 1.7757468501 1.0767515114
| 21> C -3.7464046078 3.1745109893 0.9285793762
| 22> O -1.645094104 -0.938986245 0.7146745426
| 23> C -2.2292217397 -2.2399603692 0.4773506084
| 24> C -1.3704978969 -3.0248025406 -0.494724662
| 25> H 5.5129391847 -1.7813938433 -0.7491604131
| 26> H 5.5684912556 -1.4431009639 -2.4869620546
| 27> H 4.9851417196 -0.2102116031 -1.360119148
| 28> H 3.6163134936 -2.8939701806 -1.9330233466
| 29> H 3.0772666788 -1.3077193238 -2.5465570415
| 30> H 1.572063703 0.57223078 2.4811700372
| 31> H 0.5002728499 -0.7661311023 2.9811951555
| 32> H 3.5325189704 -0.9311900946 2.5642326102
| 33> H 2.7217755295 -0.9050182105 4.1391480853
| 34> H 2.5043086975 -2.2878899795 3.0478792529
| 35> H -0.6340777986 1.766311157 -2.0175604946
| 36> H 0.9737923674 2.1541428779 -1.3014900476
| 37> H -4.8876047626 1.4976705344 0.189860027
| 38> H -4.9280278919 1.6814302691 1.9699309944
| 39> H -3.1825819611 3.2525777356 -0.0001823557
| 40> H -4.56242016 3.8896181974 0.9058532454
| 41> H -3.0846590218 3.406128891 1.7594606078
| 42> H -2.2649196797 -2.7188155048 1.4572261625
| 43> H -3.2451962584 -2.1156860716 0.0911944782
| 44> H -1.3898666322 -2.556612518 -1.4769140405
| 45> H -0.3418919126 -3.0501480304 -0.142050552
| 46> H -1.7516016123 -4.0377572524 -0.5743489668
| 47> *
| 48>
| 49>                          ****END OF INPUT****

CARTESIAN COORDINATES (ANGSTROEM)
---------------------------------
  C      5.011420   -1.277006   -1.570542
  C      3.605191   -1.820057   -1.736843
  O      2.839985   -1.695502   -0.522134
  P      2.059353   -0.380163   -0.098934
  S      3.101261    1.244987    0.262831
  O      1.240973   -0.958594    1.123642
  C      1.435074   -0.514635    2.477740
  C      2.626984   -1.209701    3.101797
  S      0.610489   -0.202491   -1.637031
  C      0.106435    1.495413   -1.266140
  S     -0.605454    1.684343    0.394659
  P     -2.250611    0.396050    0.116402
  S     -3.061199    0.294377   -1.668798
  O     -3.274545    0.794765    1.268290
  C     -4.309128    1.775747    1.076752
  C     -3.746405    3.174511    0.928579
  O     -1.645094   -0.938986    0.714675
  C     -2.229222   -2.239960    0.477351
  C     -1.370498   -3.024803   -0.494725
  H      5.512939   -1.781394   -0.749160
  H      5.568491   -1.443101   -2.486962
  H      4.985142   -0.210212   -1.360119
  H      3.616313   -2.893970   -1.933023
  H      3.077267   -1.307719   -2.546557
  H      1.572064    0.572231    2.481170
  H      0.500273   -0.766131    2.981195
  H      3.532519   -0.931190    2.564233
  H      2.721776   -0.905018    4.139148
  H      2.504309   -2.287890    3.047879
  H     -0.634078    1.766311   -2.017560
  H      0.973792    2.154143   -1.301490
  H     -4.887605    1.497671    0.189860
  H     -4.928028    1.681430    1.969931
  H     -3.182582    3.252578   -0.000182
  H     -4.562420    3.889618    0.905853
  H     -3.084659    3.406129    1.759461
  H     -2.264920   -2.718816    1.457226
  H     -3.245196   -2.115686    0.091194
  H     -1.389867   -2.556613   -1.476914
  H     -0.341892   -3.050148   -0.142051
  H     -1.751602   -4.037757   -0.574349

 Total Charge           Charge          ....    0
 Multiplicity           Mult            ....    1
 Number of Electrons    NEL             ....  202
 Basis Dimension        Dim             ....  334

ORBITAL ENERGIES
----------------

  NO   OCC          E(Eh)            E(eV)
   0   2.0000     -88.044833     -2395.8217
   1   2.0000     -88.042578     -2395.7603
   2   2.0000     -87.989570     -2394.3179
   3   2.0000     -87.989561     -2394.3177
   4   2.0000     -76.427265     -2079.6916
   5   2.0000     -76.426139     -2079.6610
   6   2.0000     -18.795696      -511.4569
   7   2.0000     -18.792613      -511.3730
   8   2.0000     -18.787098      -511.2229
   9   2.0000     -18.785554      -511.1809
  10   2.0000      -9.956613      -270.9332
  11   2.0000      -9.955830      -270.9119
  12   2.0000      -9.951594      -270.7966
  13   2.0000      -9.949568      -270.7415
  14   2.0000      -9.945673      -270.6355
  15   2.0000      -9.884018      -268.9578
  16   2.0000      -9.881957      -268.9017
  17   2.0000      -9.879908      -268.8460
  18   2.0000      -9.875677      -268.7308
  19   2.0000      -7.689698      -209.2473
  20   2.0000      -7.687364      -209.1838
  21   2.0000      -7.634515      -207.7457
  22   2.0000      -7.634390      -207.7423
  23   2.0000      -6.424597      -174.8222
  24   2.0000      -6.423733      -174.7987
  25   2.0000      -5.717552      -155.5825
  26   2.0000      -5.715191      -155.5182
  27   2.0000      -5.714352      -155.4954
  28   2.0000      -5.711861      -155.4276
  29   2.0000      -5.706530      -155.2826
  30   2.0000      -5.704383      -155.2241
  31   2.0000      -5.663302      -154.1063
  32   2.0000      -5.663231      -154.1043
  33   2.0000      -5.655332      -153.8894
  34   2.0000      -5.654915      -153.8781
  35   2.0000      -5.654744      -153.8734
  36   2.0000      -5.654647      -153.8708
  37   2.0000      -4.646921      -126.4492
  38   2.0000      -4.646502      -126.4378
  39   2.0000      -4.646131      -126.4277
  40   2.0000      -4.645452      -126.4092
  41   2.0000      -4.645174      -126.4016
  42   2.0000      -4.644399      -126.3805
  43   2.0000      -0.987749       -26.8780
  44   2.0000      -0.984428       -26.7876
  45   2.0000      -0.945341       -25.7240
  46   2.0000      -0.942107       -25.6360
  47   2.0000      -0.766540       -20.8586
  48   2.0000      -0.720959       -19.6183
  49   2.0000      -0.707654       -19.2562
  50   2.0000      -0.684871       -18.6363
  51   2.0000      -0.683236       -18.5918
  52   2.0000      -0.672863       -18.3095
  53   2.0000      -0.651827       -17.7371
  54   2.0000      -0.640871       -17.4390
  55   2.0000      -0.600193       -16.3321
  56   2.0000      -0.593507       -16.1501
  57   2.0000      -0.572859       -15.5883
  58   2.0000      -0.567630       -15.4460
  59   2.0000      -0.558985       -15.2107
  60   2.0000      -0.501348       -13.6424
  61   2.0000      -0.496788       -13.5183
  62   2.0000      -0.474729       -12.9180
  63   2.0000      -0.468885       -12.7590
  64   2.0000      -0.457132       -12.4392
  65   2.0000      -0.439637       -11.9631
  66   2.0000      -0.438574       -11.9342
  67   2.0000      -0.436141       -11.8680
  68   2.0000      -0.426601       -11.6084
  69   2.0000      -0.412960       -11.2372
  70   2.0000      -0.406403       -11.0588
  71   2.0000      -0.397171       -10.8076
  72   2.0000      -0.392701       -10.6859
  73   2.0000      -0.386801       -10.5254
  74   2.0000      -0.379468       -10.3258
  75   2.0000      -0.376080       -10.2337
  76   2.0000      -0.369742       -10.0612
  77   2.0000      -0.354015        -9.6332
  78   2.0000      -0.349223        -9.5028
  79   2.0000      -0.348893        -9.4939
  80   2.0000      -0.346700        -9.4342
  81   2.0000      -0.345597        -9.4042
  82   2.0000      -0.338592        -9.2136
  83   2.0000      -0.336743        -9.1632
  84   2.0000      -0.333461        -9.0739
  85   2.0000      -0.321437        -8.7468
  86   2.0000      -0.304439        -8.2842
  87   2.0000      -0.297403        -8.0927
  88   2.0000      -0.295972        -8.0538
  89   2.0000      -0.288120        -7.8401
  90   2.0000      -0.281387        -7.6569
  91   2.0000      -0.278285        -7.5725
  92   2.0000      -0.270926        -7.3723
  93   2.0000      -0.263819        -7.1789
  94   2.0000      -0.257622        -7.0103
  95   2.0000      -0.233054        -6.3417
  96   2.0000      -0.219090        -5.9617
  97   2.0000      -0.215191        -5.8557
  98   2.0000      -0.208379        -5.6703
  99   2.0000      -0.202208        -5.5023
 100   2.0000      -0.199452        -5.4274
 101   0.0000      -0.046420        -1.2632
 102   0.0000      -0.025037        -0.6813
 103   0.0000      -0.002669        -0.0726
 104   0.0000       0.000472         0.0128
 105   0.0000       0.008693         0.2366

MULLIKEN ATOMIC CHARGES
-----------------------
   0 C :   -0.299096
   1 C :   -0.015141
   2 O :   -0.369483
   3 P :    0.623888
   4 S :   -0.335334
   5 O :   -0.353361
   6 C :   -0.007861
   7 C :   -0.293868
   8 S :   -0.081048
   9 C :   -0.357391
  10 S :   -0.076220
  11 P :    0.612314
  12 S :   -0.339565
  13 O :   -0.372551
  14 C :   -0.004113
  15 C :   -0.313924
  16 O :   -0.356637
  17 C :   -0.001702
  18 C :   -0.294760
  19 H :    0.114854
  20 H :    0.108234
  21 H :    0.131275
  22 H :    0.108775
  23 H :    0.106571
  24 H :    0.114043
  25 H :    0.102818
  26 H :    0.118699
  27 H :    0.109420
  28 H :    0.112040
  29 H :    0.190191
  30 H :    0.192027
  31 H :    0.111156
  32 H :    0.104717
  33 H :    0.124386
  34 H :    0.113038
  35 H :    0.118006
  36 H :    0.103189
  37 H :    0.101845
  38 H :    0.126767
  39 H :    0.120826
  40 H :    0.102975
Sum of atomic charges:    0.0000000

LOEWDIN ATOMIC CHARGES
----------------------
   0 C :   -0.365207
   1 C :   -0.116782
   2 O :   -0.241653
   3 P :    0.569571
   4 S :   -0.318395
   5 O :   -0.225707
   6 C :   -0.121215
   7 C :   -0.361823
   8 S :    0.096742
   9 C :   -0.480324
  10 S :    0.102124
  11 P :    0.570304
  12 S :   -0.327924
  13 O :   -0.248587
  14 C :   -0.120206
  15 C :   -0.368702
  16 O :   -0.236503
  17 C :   -0.110699
  18 C :   -0.362320
  19 H :    0.126509
  20 H :    0.129114
  21 H :    0.124006
  22 H :    0.119853
  23 H :    0.105735
  24 H :    0.106363
  25 H :    0.116734
  26 H :    0.122400
  27 H :    0.129150
  28 H :    0.124190
  29 H :    0.131139
  30 H :    0.130692
  31 H :    0.109931
  32 H :    0.118447
  33 H :    0.120252
  34 H :    0.130949
  35 H :    0.124623
  36 H :    0.116645
  37 H :    0.107652
  38 H :    0.123499
  39 H :    0.124015
  40 H :    0.125411

  Mayer bond orders larger than 0.100000
B(  0-C ,  1-C ) :   1.1653 B(  0-C , 19-H ) :   0.9476 B(  0-C , 20-H ) :   0.9386
B(  0-C , 21-H ) :   0.9317 B(  1-C ,  2-O ) :   0.9096 B(  1-C , 22-H ) :   0.9357
B(  1-C , 23-H ) :   0.9167 B(  2-O ,  3-P ) :   1.1164 B(  3-P ,  4-S ) :   1.5892
B(  3-P ,  5-O ) :   1.1253 B(  3-P ,  8-S ) :   0.9539 B(  4-S ,  8-S ) :   0.1081
B(  5-O ,  6-C ) :   0.8997 B(  6-C ,  7-C ) :   1.1624 B(  6-C , 24-H ) :   0.9089
B(  6-C , 25-H ) :   0.9317 B(  7-C , 26-H ) :   0.9387 B(  7-C , 27-H ) :   0.9412
B(  7-C , 28-H ) :   0.9476 B(  8-S ,  9-C ) :   1.0118 B(  9-C , 10-S ) :   0.9993
B(  9-C , 29-H ) :   0.8870 B(  9-C , 30-H ) :   0.8821 B( 10-S , 11-P ) :   0.9556
B( 10-S , 12-S ) :   0.1092 B( 11-P , 12-S ) :   1.5830 B( 11-P , 13-O ) :   1.1117
B( 11-P , 16-O ) :   1.1403 B( 13-O , 14-C ) :   0.9107 B( 14-C , 15-C ) :   1.1645
B( 14-C , 31-H ) :   0.9150 B( 14-C , 32-H ) :   0.9339 B( 15-C , 33-H ) :   0.9361
B( 15-C , 34-H ) :   0.9382 B( 15-C , 35-H ) :   0.9451 B( 16-O , 17-C ) :   0.8935
B( 17-C , 18-C ) :   1.1719 B( 17-C , 36-H ) :   0.9340 B( 17-C , 37-H ) :   0.9128
B( 18-C , 38-H ) :   0.9393 B( 18-C , 39-H ) :   0.9422 B( 18-C , 40-H ) :   0.9394

Dispersion correction           -0.067404596
FINAL SINGLE POINT ENERGY     -2929.527622321456

DIPOLE MOMENT
-------------

Method             : SCF
Type of density    : Electron Density
Multiplicity       :   1
Irrep              :   0
Energy             : -2929.6447858904184613 Eh
Relativity type    :
Basis              : AO
                                X                 Y                 Z
Electronic contribution:     -4.360269262       7.808831470      -6.198960069
Nuclear contribution   :      4.183831370      -8.385435365       6.665390232
                        -----------------------------------------
Total Dipole Moment    :     -0.176437893      -0.576603895       0.466430162
                        -----------------------------------------
Magnitude (a.u.)       :      0.762338165
Magnitude (Debye)      :      1.937709624

Rotational constants in cm-1:             0.013131             0.005098             0.004933
Rotational constants in MHz :           393.643113           152.822002           147.877623

                             ****ORCA TERMINATED NORMALLY****
TOTAL RUN TIME: 0 days 0 hours 0 minutes 21 seconds 737 msec
