                         Program Version 6.0.0  -   RELEASE  -
|  1> ! wb97x-v def2-tzvp def2/J RIJCOSX DEFGRID2 scfconv7 GCP(DFT/TZ) printgap
|  2> %output
|  3>     printlevel normal
|  4> end
|  5> * xyz 0 1
|  6> C 0.6614082670222007 1.6774751748506596 -0.019532868237907914
|  7> C 1.39050351037661 0.36566875978759966 -0.2614653157811764
|  8> H 1.5798807455794666 0.24773965840916118 -1.3411735772993523
|  9> C 0.5282967448526971 -0.8007333256246439 0.21134946168466515
| 10> H 0.3988491185662979 -0.7340857780295252 1.2990833215394602
| 11> C -0.8348489310509705 -0.7352912497679011 -0.47921099294686087
| 12> H -0.6901628002589392 -0.8783748457949192 -1.5568561571905173
| 13> C -1.4806730237423247 0.6426893077463798 -0.2828751214873911
| 14> H -2.3647010948991 0.743768868205948 -0.9221260337872953
| 15> O -0.6017116073525678 1.679071298601888 -0.7080181006472879
| 16> O -1.8339080937598273 0.7619677677649663 1.081961966286489
| 17> O -1.7118538861716033 -1.778235042154547 -0.058360506732308054
| 18> O 1.1845985631697173 -2.0529719170029477 -0.02103498922546228
| 19> O 2.6274782596310122 0.4280410576299572 0.4542832740827914
| 20> H 1.2294172291434389 2.5174654156948977 -0.425852142737082
| 21> H 0.5174675869521562 1.8345159439690484 1.0576995164209286
| 22> H -2.4904334528963235 1.4670977386790065 1.16036778073455
| 23> H -1.8973556570604733 -1.6370565801567354 0.8811907779384518
| 24> H 1.2719748615439572 -2.1626788171877367 -0.9795296357961415
| 25> H 3.03504752793034 -0.4469905885462821 0.38781499358947974
| 26> *
| 27>
| 28>                          ****END OF INPUT****

CARTESIAN COORDINATES (ANGSTROEM)
---------------------------------
  C      0.661408    1.677475   -0.019533
  C      1.390504    0.365669   -0.261465
  H      1.579881    0.247740   -1.341174
  C      0.528297   -0.800733    0.211349
  H      0.398849   -0.734086    1.299083
  C     -0.834849   -0.735291   -0.479211
  H     -0.690163   -0.878375   -1.556856
  C     -1.480673    0.642689   -0.282875
  H     -2.364701    0.743769   -0.922126
  O     -0.601712    1.679071   -0.708018
  O     -1.833908    0.761968    1.081962
  O     -1.711854   -1.778235   -0.058361
  O      1.184599   -2.052972   -0.021035
  O      2.627478    0.428041    0.454283
  H      1.229417    2.517465   -0.425852
  H      0.517468    1.834516    1.057700
  H     -2.490433    1.467098    1.160368
  H     -1.897356   -1.637057    0.881191
  H      1.271975   -2.162679   -0.979530
  H      3.035048   -0.446991    0.387815

 Total Charge           Charge          ....    0
 Multiplicity           Mult            ....    1
 Number of Electrons    NEL             ....   80
 Basis Dimension        Dim             ....  370

ORBITAL ENERGIES
----------------

  NO   OCC          E(Eh)            E(eV)
   0   2.0000     -21.702285      -590.5492
   1   2.0000     -21.693032      -590.2974
   2   2.0000     -21.687226      -590.1394
   3   2.0000     -21.679327      -589.9245
   4   2.0000     -21.678408      -589.8995
   5   2.0000     -12.161272      -330.9250
   6   2.0000     -12.112289      -329.5921
   7   2.0000     -12.108481      -329.4885
   8   2.0000     -12.107093      -329.4508
   9   2.0000     -12.100262      -329.2649
  10   2.0000      -1.727792       -47.0156
  11   2.0000      -1.692020       -46.0422
  12   2.0000      -1.685772       -45.8722
  13   2.0000      -1.680608       -45.7317
  14   2.0000      -1.678020       -45.6612
  15   2.0000      -1.333353       -36.2824
  16   2.0000      -1.309625       -35.6367
  17   2.0000      -1.203866       -32.7589
  18   2.0000      -1.191774       -32.4298
  19   2.0000      -1.142645       -31.0930
  20   2.0000      -1.082041       -29.4438
  21   2.0000      -1.071797       -29.1651
  22   2.0000      -1.046307       -28.4715
  23   2.0000      -1.032799       -28.1039
  24   2.0000      -1.018845       -27.7242
  25   2.0000      -0.988940       -26.9104
  26   2.0000      -0.984533       -26.7905
  27   2.0000      -0.980353       -26.6768
  28   2.0000      -0.972131       -26.4530
  29   2.0000      -0.955513       -26.0008
  30   2.0000      -0.938271       -25.5317
  31   2.0000      -0.925865       -25.1941
  32   2.0000      -0.916071       -24.9276
  33   2.0000      -0.909887       -24.7593
  34   2.0000      -0.884448       -24.0671
  35   2.0000      -0.849926       -23.1277
  36   2.0000      -0.833885       -22.6912
  37   2.0000      -0.825017       -22.4499
  38   2.0000      -0.806630       -21.9495
  39   2.0000      -0.778712       -21.1898
  40   0.0000      -0.237601        -6.4654
  41   0.0000      -0.173738        -4.7276
  42   0.0000      -0.171706        -4.6724
  43   0.0000      -0.156888        -4.2691
  44   0.0000      -0.125351        -3.4110

MULLIKEN ATOMIC CHARGES
-----------------------
   0 C :   -0.004821
   1 C :    0.042421
   2 H :    0.064420
   3 C :    0.007265
   4 H :    0.105635
   5 C :    0.042659
   6 H :    0.087315
   7 C :    0.101144
   8 H :    0.105312
   9 O :   -0.289653
  10 O :   -0.438889
  11 O :   -0.426984
  12 O :   -0.425358
  13 O :   -0.435526
  14 H :    0.123710
  15 H :    0.101259
  16 H :    0.317476
  17 H :    0.311186
  18 H :    0.299309
  19 H :    0.312120
Sum of atomic charges:   -0.0000000

LOEWDIN ATOMIC CHARGES
----------------------
   0 C :   -0.267005
   1 C :   -0.339085
   2 H :    0.133931
   3 C :   -0.318475
   4 H :    0.153114
   5 C :   -0.317821
   6 H :    0.149347
   7 C :   -0.410869
   8 H :    0.132121
   9 O :    0.162123
  10 O :   -0.003417
  11 O :   -0.005901
  12 O :   -0.014798
  13 O :   -0.015267
  14 H :    0.132188
  15 H :    0.128301
  16 H :    0.180111
  17 H :    0.175453
  18 H :    0.171867
  19 H :    0.174083

  Mayer bond orders larger than 0.100000
B(  0-C ,  1-C ) :   0.9506 B(  0-C ,  9-O ) :   0.9703 B(  0-C , 14-H ) :   0.9629
B(  0-C , 15-H ) :   0.9674 B(  1-C ,  2-H ) :   0.9506 B(  1-C ,  3-C ) :   0.9893
B(  1-C , 13-O ) :   1.0918 B(  3-C ,  4-H ) :   0.9418 B(  3-C ,  5-C ) :   1.0291
B(  3-C , 12-O ) :   1.0136 B(  5-C ,  6-H ) :   0.9383 B(  5-C ,  7-C ) :   0.9586
B(  5-C , 11-O ) :   1.0461 B(  7-C ,  8-H ) :   0.9574 B(  7-C ,  9-O ) :   1.0585
B(  7-C , 10-O ) :   1.1798 B( 10-O , 16-H ) :   0.8909 B( 11-O , 17-H ) :   0.8831
B( 12-O , 18-H ) :   0.8943 B( 13-O , 19-H ) :   0.8846

FINAL SINGLE POINT ENERGY      -572.704704623020

DIPOLE MOMENT
-------------

Method             : SCF
Type of density    : Electron Density
Multiplicity       :   1
Irrep              :   0
Energy             :  -572.7203094730203929 Eh
Relativity type    :
Basis              : AO
                                X                 Y                 Z
Electronic contribution:     -1.010642947      -0.520172140       0.190267236
Nuclear contribution   :      0.648828547       0.917635811      -0.498621516
                        -----------------------------------------
Total Dipole Moment    :     -0.361814400       0.397463670      -0.308354280
                        -----------------------------------------
Magnitude (a.u.)       :      0.619652638
Magnitude (Debye)      :      1.575031836

Rotational constants in cm-1:             0.056585             0.043912             0.028635
Rotational constants in MHz :          1696.362355          1316.434328           858.458944

                             ****ORCA TERMINATED NORMALLY****
TOTAL RUN TIME: 0 days 0 hours 3 minutes 47 seconds 81 msec
