                         Program Version 6.0.0  -   RELEASE  -
|  1> ! wb97x-v def2-tzvp def2/J RIJCOSX DEFGRID2 scfconv7 GCP(DFT/TZ) printgap
|  2> %output
|  3>     printlevel normal
|  4> end
|  5> %cpcm
|  6>     smd true
|  7>     smdsolvent "water"
|  8> end
|  9> * xyz 0 1
| 10> C 0.6614082670222007 1.6774751748506596 -0.019532868237907914
| 11> C 1.39050351037661 0.36566875978759966 -0.2614653157811764
| 12> H 1.5798807455794666 0.24773965840916118 -1.3411735772993523
| 13> C 0.5282967448526971 -0.8007333256246439 0.21134946168466515
| 14> H 0.3988491185662979 -0.7340857780295252 1.2990833215394602
| 15> C -0.8348489310509705 -0.7352912497679011 -0.47921099294686087
| 16> H -0.6901628002589392 -0.8783748457949192 -1.5568561571905173
| 17> C -1.4806730237423247 0.6426893077463798 -0.2828751214873911
| 18> H -2.3647010948991 0.743768868205948 -0.9221260337872953
| 19> O -0.6017116073525678 1.679071298601888 -0.7080181006472879
| 20> O -1.8339080937598273 0.7619677677649663 1.081961966286489
| 21> O -1.7118538861716033 -1.778235042154547 -0.058360506732308054
| 22> O 1.1845985631697173 -2.0529719170029477 -0.02103498922546228
| 23> O 2.6274782596310122 0.4280410576299572 0.4542832740827914
| 24> H 1.2294172291434389 2.5174654156948977 -0.425852142737082
| 25> H 0.5174675869521562 1.8345159439690484 1.0576995164209286
| 26> H -2.4904334528963235 1.4670977386790065 1.16036778073455
| 27> H -1.8973556570604733 -1.6370565801567354 0.8811907779384518
| 28> H 1.2719748615439572 -2.1626788171877367 -0.9795296357961415
| 29> H 3.03504752793034 -0.4469905885462821 0.38781499358947974
| 30> *
| 31>
| 32>                          ****END OF INPUT****

CARTESIAN COORDINATES (ANGSTROEM)
---------------------------------
  C      0.661408    1.677475   -0.019533
  C      1.390504    0.365669   -0.261465
  H      1.579881    0.247740   -1.341174
  C      0.528297   -0.800733    0.211349
  H      0.398849   -0.734086    1.299083
  C     -0.834849   -0.735291   -0.479211
  H     -0.690163   -0.878375   -1.556856
  C     -1.480673    0.642689   -0.282875
  H     -2.364701    0.743769   -0.922126
  O     -0.601712    1.679071   -0.708018
  O     -1.833908    0.761968    1.081962
  O     -1.711854   -1.778235   -0.058361
  O      1.184599   -2.052972   -0.021035
  O      2.627478    0.428041    0.454283
  H      1.229417    2.517465   -0.425852
  H      0.517468    1.834516    1.057700
  H     -2.490433    1.467098    1.160368
  H     -1.897356   -1.637057    0.881191
  H      1.271975   -2.162679   -0.979530
  H      3.035048   -0.446991    0.387815

 Total Charge           Charge          ....    0
 Multiplicity           Mult            ....    1
 Number of Electrons    NEL             ....   80
 Basis Dimension        Dim             ....  370

ORBITAL ENERGIES
----------------

  NO   OCC          E(Eh)            E(eV)
   0   2.0000     -21.691898      -590.2666
   1   2.0000     -21.688620      -590.1774
   2   2.0000     -21.682035      -589.9982
   3   2.0000     -21.681915      -589.9949
   4   2.0000     -21.680402      -589.9537
   5   2.0000     -12.150535      -330.6329
   6   2.0000     -12.103085      -329.3417
   7   2.0000     -12.100166      -329.2623
   8   2.0000     -12.098925      -329.2285
   9   2.0000     -12.092900      -329.0645
  10   2.0000      -1.719723       -46.7960
  11   2.0000      -1.689223       -45.9661
  12   2.0000      -1.685121       -45.8545
  13   2.0000      -1.677719       -45.6531
  14   2.0000      -1.676641       -45.6237
  15   2.0000      -1.325987       -36.0819
  16   2.0000      -1.302493       -35.4426
  17   2.0000      -1.196456       -32.5572
  18   2.0000      -1.187742       -32.3201
  19   2.0000      -1.136114       -30.9152
  20   2.0000      -1.079173       -29.3658
  21   2.0000      -1.064307       -28.9613
  22   2.0000      -1.045204       -28.4414
  23   2.0000      -1.027525       -27.9604
  24   2.0000      -1.012725       -27.5577
  25   2.0000      -0.987200       -26.8631
  26   2.0000      -0.982072       -26.7235
  27   2.0000      -0.979086       -26.6423
  28   2.0000      -0.969765       -26.3887
  29   2.0000      -0.956144       -26.0180
  30   2.0000      -0.936680       -25.4884
  31   2.0000      -0.920264       -25.0417
  32   2.0000      -0.917152       -24.9570
  33   2.0000      -0.907857       -24.7040
  34   2.0000      -0.876675       -23.8555
  35   2.0000      -0.844137       -22.9701
  36   2.0000      -0.827031       -22.5046
  37   2.0000      -0.818899       -22.2834
  38   2.0000      -0.798872       -21.7384
  39   2.0000      -0.770379       -20.9631
  40   0.0000      -0.232136        -6.3168
  41   0.0000      -0.168357        -4.5812
  42   0.0000      -0.161509        -4.3949
  43   0.0000      -0.149271        -4.0619
  44   0.0000      -0.116142        -3.1604

MULLIKEN ATOMIC CHARGES
-----------------------
   0 C :   -0.033686
   1 C :    0.037374
   2 H :    0.105635
   3 C :    0.051562
   4 H :    0.126475
   5 C :    0.070251
   6 H :    0.135703
   7 C :    0.118016
   8 H :    0.137310
   9 O :   -0.356140
  10 O :   -0.509077
  11 O :   -0.531763
  12 O :   -0.533272
  13 O :   -0.531225
  14 H :    0.149085
  15 H :    0.115094
  16 H :    0.371285
  17 H :    0.357341
  18 H :    0.361738
  19 H :    0.358293
Sum of atomic charges:   -0.0000000

LOEWDIN ATOMIC CHARGES
----------------------
   0 C :   -0.271383
   1 C :   -0.329648
   2 H :    0.147848
   3 C :   -0.314683
   4 H :    0.156356
   5 C :   -0.311748
   6 H :    0.162077
   7 C :   -0.402245
   8 H :    0.142453
   9 O :    0.138963
  10 O :   -0.019324
  11 O :   -0.043967
  12 O :   -0.050041
  13 O :   -0.049196
  14 H :    0.137139
  15 H :    0.129911
  16 H :    0.200503
  17 H :    0.190480
  18 H :    0.196552
  19 H :    0.189951

  Mayer bond orders larger than 0.100000
B(  0-C ,  1-C ) :   0.9479 B(  0-C ,  9-O ) :   0.9509 B(  0-C , 14-H ) :   0.9581
B(  0-C , 15-H ) :   0.9670 B(  1-C ,  2-H ) :   0.9678 B(  1-C ,  3-C ) :   0.9801
B(  1-C , 13-O ) :   1.0407 B(  3-C ,  4-H ) :   0.9480 B(  3-C ,  5-C ) :   1.0070
B(  3-C , 12-O ) :   0.9898 B(  5-C ,  6-H ) :   0.9420 B(  5-C ,  7-C ) :   0.9593
B(  5-C , 11-O ) :   0.9882 B(  7-C ,  8-H ) :   0.9608 B(  7-C ,  9-O ) :   1.0205
B(  7-C , 10-O ) :   1.1576 B( 10-O , 16-H ) :   0.8552 B( 11-O , 17-H ) :   0.8561
B( 12-O , 18-H ) :   0.8605 B( 13-O , 19-H ) :   0.8579

FINAL SINGLE POINT ENERGY      -572.737411251221

DIPOLE MOMENT
-------------

Method             : SCF
Type of density    : Electron Density
Multiplicity       :   1
Irrep              :   0
Energy             :  -572.7530161012210783 Eh
Relativity type    :
Basis              : AO
                                X                 Y                 Z
Electronic contribution:     -1.090190953      -0.417673157      -0.060868446
Nuclear contribution   :      0.648828547       0.917635811      -0.498621516
                        -----------------------------------------
Total Dipole Moment    :     -0.441362407       0.499962654      -0.559489962
                        -----------------------------------------
Magnitude (a.u.)       :      0.870512749
Magnitude (Debye)      :      2.212667566

Rotational constants in cm-1:             0.056585             0.043912             0.028635
Rotational constants in MHz :          1696.362355          1316.434328           858.458944

                             ****ORCA TERMINATED NORMALLY****
TOTAL RUN TIME: 0 days 0 hours 4 minutes 11 seconds 126 msec
