                         Program Version 6.0.0  -   RELEASE  -
|  1> ! pbe def2-sv(p) def2/J RI DEFGRID1 loosescf d4 GCP(DFT/SV(P)) printgap
|  2> %output
|  3>     printlevel normal
|  4> end
|  5> * xyz 0 1
|  6> C -1.2611525128 0.2721997588 5.816e-07
|  7> C 2.2103e-06 -0.5838212332 -1.956e-06
|  8> C 1.2611473178 0.2722058221 5.29e-08
|  9> H -1.2880304178 0.9085760606 -0.8818198448
| 10> H -2.1502667906 -0.3537318645 -3.64521e-05
| 11> H -1.2880771331 0.908534782 0.8818505575
| 12> H -3.685e-07 -1.228527821 0.8816341025
| 13> H 3.06575e-05 -1.2285105321 -0.881646927
| 14> H 2.1502353391 -0.3537514961 5.38119e-05
| 15> H 1.2880421363 0.9085552922 0.8818383019
| 16> H 1.2881021425 0.9085369462 -0.8818578027
| 17> *
| 18>
| 19>                          ****END OF INPUT****

CARTESIAN COORDINATES (ANGSTROEM)
---------------------------------
  C     -1.261153    0.272200    0.000001
  C      0.000002   -0.583821   -0.000002
  C      1.261147    0.272206    0.000000
  H     -1.288030    0.908576   -0.881820
  H     -2.150267   -0.353732   -0.000036
  H     -1.288077    0.908535    0.881851
  H     -0.000000   -1.228528    0.881634
  H      0.000031   -1.228511   -0.881647
  H      2.150235   -0.353751    0.000054
  H      1.288042    0.908555    0.881838
  H      1.288102    0.908537   -0.881858

 Total Charge           Charge          ....    0
 Multiplicity           Mult            ....    1
 Number of Electrons    NEL             ....   26
 Basis Dimension        Dim             ....   58

ORBITAL ENERGIES
----------------

  NO   OCC          E(Eh)            E(eV)
   0   2.0000      -9.880831      -268.8711
   1   2.0000      -9.869513      -268.5631
   2   2.0000      -9.869497      -268.5627
   3   2.0000      -0.700887       -19.0721
   4   2.0000      -0.605138       -16.4666
   5   2.0000      -0.515804       -14.0358
   6   2.0000      -0.409218       -11.1354
   7   2.0000      -0.387845       -10.5538
   8   2.0000      -0.351749        -9.5716
   9   2.0000      -0.334594        -9.1048
  10   2.0000      -0.292366        -7.9557
  11   2.0000      -0.291678        -7.9370
  12   2.0000      -0.284718        -7.7476
  13   0.0000       0.041093         1.1182
  14   0.0000       0.087687         2.3861
  15   0.0000       0.089149         2.4259
  16   0.0000       0.089352         2.4314
  17   0.0000       0.118101         3.2137

MULLIKEN ATOMIC CHARGES
-----------------------
   0 C :   -0.284377
   1 C :   -0.205793
   2 C :   -0.284380
   3 H :    0.097858
   4 H :    0.102449
   5 H :    0.097859
   6 H :    0.089108
   7 H :    0.089108
   8 H :    0.102446
   9 H :    0.097859
  10 H :    0.097862
Sum of atomic charges:   -0.0000000

LOEWDIN ATOMIC CHARGES
----------------------
   0 C :   -0.342216
   1 C :   -0.242408
   2 C :   -0.342216
   3 H :    0.115885
   4 H :    0.117590
   5 H :    0.115885
   6 H :    0.114059
   7 H :    0.114059
   8 H :    0.117591
   9 H :    0.115885
  10 H :    0.115885

  Mayer bond orders larger than 0.100000
B(  0-C ,  1-C ) :   1.1508 B(  0-C ,  3-H ) :   0.9577 B(  0-C ,  4-H ) :   0.9548
B(  0-C ,  5-H ) :   0.9577 B(  1-C ,  2-C ) :   1.1508 B(  1-C ,  6-H ) :   0.9346
B(  1-C ,  7-H ) :   0.9346 B(  2-C ,  8-H ) :   0.9548 B(  2-C ,  9-H ) :   0.9577
B(  2-C , 10-H ) :   0.9577

Dispersion correction           -0.005213754
FINAL SINGLE POINT ENERGY      -118.811332593663

DIPOLE MOMENT
-------------

Method             : SCF
Type of density    : Electron Density
Multiplicity       :   1
Irrep              :   0
Energy             :  -118.8489115480848852 Eh
Relativity type    :
Basis              : AO
                                X                 Y                 Z
Electronic contribution:     -0.000025231      -0.464865486      -0.000011945
Nuclear contribution   :      0.000033367       0.440641017       0.000014774
                        -----------------------------------------
Total Dipole Moment    :      0.000008135      -0.024224469       0.000002829
                        -----------------------------------------
Magnitude (a.u.)       :      0.024224471
Magnitude (Debye)      :      0.061573711

Rotational constants in cm-1:             0.980124             0.286110             0.252683
Rotational constants in MHz :         29383.383882          8577.369371          7575.240901

                             ****ORCA TERMINATED NORMALLY****
TOTAL RUN TIME: 0 days 0 hours 0 minutes 4 seconds 240 msec
