                         Program Version 6.0.0  -   RELEASE  -
|  1> ! pbe def2-sv(p) def2/J RI DEFGRID1 loosescf d4 GCP(DFT/SV(P)) printgap
|  2> %output
|  3>     printlevel normal
|  4> end
|  5> * xyz 0 1
|  6> C 4.2262389415 -1.6175244582 -1.9959010728
|  7> C 4.3230731899 -1.4007649715 -0.4988045581
|  8> O 3.9009649685 -0.0838414952 -0.103147954
|  9> P 2.438034464 0.4900436557 -0.2923846864
| 10> S 1.95752095 1.174514001 -2.0714176919
| 11> O 2.5893814585 1.586825702 0.8363126876
| 12> C 1.7247282584 2.7233184439 0.9926432445
| 13> C 0.8527886779 2.5538885388 2.2212667505
| 14> S 1.1811839583 -1.035926307 0.4929503238
| 15> C 0.1652384142 -1.413440159 -0.9833508298
| 16> S -1.5232494882 -1.8490166892 -0.5355753571
| 17> P -2.0933277921 0.0148542121 0.3230148545
| 18> S -1.3971029311 1.6287744924 -0.5438790144
| 19> O -1.6668592051 -0.0431568637 1.8404979497
| 20> C -1.6852437592 -1.207232778 2.7036119089
| 21> C -3.0399596994 -1.8777329785 2.7598508267
| 22> O -3.6783576372 -0.0607234403 0.4023653724
| 23> C -4.5325171986 0.3673696409 -0.670800199
| 24> C -4.402603088 -0.5124408065 -1.8976915634
| 25> H 4.6206528159 -2.597385904 -2.2450909789
| 26> H 3.1888442094 -1.5544705156 -2.3217901225
| 27> H 4.793325679 -0.8550234639 -2.5241454074
| 28> H 5.3581435841 -1.450223352 -0.1563982589
| 29> H 3.7212471309 -2.1368705427 0.0431346566
| 30> H 2.3937706242 3.5796414184 1.1002399311
| 31> H 1.1179040528 2.8539672516 0.0893513226
| 32> H 0.1491131546 1.735782921 2.0804586468
| 33> H 1.4723577123 2.3437521615 3.0882860349
| 34> H 0.2916912584 3.4682290533 2.3855680452
| 35> H 0.5750781653 -2.2842243332 -1.4889628503
| 36> H 0.1719641738 -0.5328438299 -1.6331800321
| 37> H -0.9143978865 -1.899642748 2.3521787202
| 38> H -1.3959570187 -0.7993024696 3.6732038017
| 39> H -3.0089443472 -2.672053739 3.4992109263
| 40> H -3.8051040478 -1.1572261152 3.0364524406
| 41> H -3.291468341 -2.3047218459 1.7912430671
| 42> H -5.5340673337 0.3142262759 -0.241638549
| 43> H -4.2882275759 1.4061387049 -0.9153728014
| 44> H -3.4211390473 -0.3793881422 -2.3504862157
| 45> H -4.5278226925 -1.558409718 -1.6298930565
| 46> H -5.1612621302 -0.231549942 -2.6212143794
| 47> *
| 48>
| 49>                          ****END OF INPUT****

CARTESIAN COORDINATES (ANGSTROEM)
---------------------------------
  C      4.226239   -1.617524   -1.995901
  C      4.323073   -1.400765   -0.498805
  O      3.900965   -0.083841   -0.103148
  P      2.438034    0.490044   -0.292385
  S      1.957521    1.174514   -2.071418
  O      2.589381    1.586826    0.836313
  C      1.724728    2.723318    0.992643
  C      0.852789    2.553889    2.221267
  S      1.181184   -1.035926    0.492950
  C      0.165238   -1.413440   -0.983351
  S     -1.523249   -1.849017   -0.535575
  P     -2.093328    0.014854    0.323015
  S     -1.397103    1.628774   -0.543879
  O     -1.666859   -0.043157    1.840498
  C     -1.685244   -1.207233    2.703612
  C     -3.039960   -1.877733    2.759851
  O     -3.678358   -0.060723    0.402365
  C     -4.532517    0.367370   -0.670800
  C     -4.402603   -0.512441   -1.897692
  H      4.620653   -2.597386   -2.245091
  H      3.188844   -1.554471   -2.321790
  H      4.793326   -0.855023   -2.524145
  H      5.358144   -1.450223   -0.156398
  H      3.721247   -2.136871    0.043135
  H      2.393771    3.579641    1.100240
  H      1.117904    2.853967    0.089351
  H      0.149113    1.735783    2.080459
  H      1.472358    2.343752    3.088286
  H      0.291691    3.468229    2.385568
  H      0.575078   -2.284224   -1.488963
  H      0.171964   -0.532844   -1.633180
  H     -0.914398   -1.899643    2.352179
  H     -1.395957   -0.799302    3.673204
  H     -3.008944   -2.672054    3.499211
  H     -3.805104   -1.157226    3.036452
  H     -3.291468   -2.304722    1.791243
  H     -5.534067    0.314226   -0.241639
  H     -4.288228    1.406139   -0.915373
  H     -3.421139   -0.379388   -2.350486
  H     -4.527823   -1.558410   -1.629893
  H     -5.161262   -0.231550   -2.621214

 Total Charge           Charge          ....    0
 Multiplicity           Mult            ....    1
 Number of Electrons    NEL             ....  202
 Basis Dimension        Dim             ....  334

ORBITAL ENERGIES
----------------

  NO   OCC          E(Eh)            E(eV)
   0   2.0000     -88.051914     -2396.0144
   1   2.0000     -88.044882     -2395.8230
   2   2.0000     -87.984610     -2394.1830
   3   2.0000     -87.982088     -2394.1143
   4   2.0000     -76.429865     -2079.7624
   5   2.0000     -76.422531     -2079.5628
   6   2.0000     -18.796756      -511.4857
   7   2.0000     -18.795112      -511.4410
   8   2.0000     -18.784897      -511.1630
   9   2.0000     -18.781561      -511.0723
  10   2.0000      -9.958526      -270.9853
  11   2.0000      -9.957057      -270.9453
  12   2.0000      -9.955311      -270.8978
  13   2.0000      -9.952625      -270.8247
  14   2.0000      -9.936728      -270.3921
  15   2.0000      -9.890816      -269.1428
  16   2.0000      -9.886608      -269.0283
  17   2.0000      -9.882874      -268.9267
  18   2.0000      -9.866625      -268.4845
  19   2.0000      -7.696606      -209.4353
  20   2.0000      -7.689093      -209.2308
  21   2.0000      -7.629408      -207.6068
  22   2.0000      -7.627079      -207.5434
  23   2.0000      -6.426897      -174.8848
  24   2.0000      -6.419651      -174.6876
  25   2.0000      -5.724484      -155.7711
  26   2.0000      -5.720940      -155.6747
  27   2.0000      -5.716909      -155.5650
  28   2.0000      -5.713812      -155.4807
  29   2.0000      -5.713590      -155.4747
  30   2.0000      -5.706279      -155.2758
  31   2.0000      -5.658411      -153.9732
  32   2.0000      -5.656006      -153.9077
  33   2.0000      -5.649866      -153.7407
  34   2.0000      -5.649639      -153.7345
  35   2.0000      -5.647663      -153.6807
  36   2.0000      -5.647267      -153.6699
  37   2.0000      -4.649640      -126.5231
  38   2.0000      -4.648804      -126.5004
  39   2.0000      -4.647136      -126.4550
  40   2.0000      -4.641871      -126.3117
  41   2.0000      -4.641804      -126.3099
  42   2.0000      -4.640090      -126.2633
  43   2.0000      -0.990460       -26.9518
  44   2.0000      -0.982447       -26.7338
  45   2.0000      -0.949267       -25.8309
  46   2.0000      -0.936792       -25.4914
  47   2.0000      -0.765325       -20.8255
  48   2.0000      -0.720615       -19.6089
  49   2.0000      -0.710772       -19.3411
  50   2.0000      -0.693487       -18.8707
  51   2.0000      -0.682256       -18.5651
  52   2.0000      -0.672829       -18.3086
  53   2.0000      -0.651384       -17.7250
  54   2.0000      -0.633545       -17.2396
  55   2.0000      -0.600459       -16.3393
  56   2.0000      -0.591606       -16.0984
  57   2.0000      -0.580398       -15.7934
  58   2.0000      -0.568387       -15.4666
  59   2.0000      -0.556161       -15.1339
  60   2.0000      -0.498352       -13.5609
  61   2.0000      -0.491393       -13.3715
  62   2.0000      -0.475002       -12.9255
  63   2.0000      -0.464322       -12.6348
  64   2.0000      -0.452205       -12.3051
  65   2.0000      -0.450661       -12.2631
  66   2.0000      -0.445555       -12.1242
  67   2.0000      -0.436816       -11.8864
  68   2.0000      -0.420396       -11.4395
  69   2.0000      -0.414558       -11.2807
  70   2.0000      -0.413037       -11.2393
  71   2.0000      -0.409147       -11.1334
  72   2.0000      -0.401361       -10.9216
  73   2.0000      -0.383069       -10.4238
  74   2.0000      -0.378556       -10.3010
  75   2.0000      -0.371296       -10.1035
  76   2.0000      -0.365185        -9.9372
  77   2.0000      -0.358550        -9.7566
  78   2.0000      -0.355413        -9.6713
  79   2.0000      -0.349888        -9.5209
  80   2.0000      -0.347309        -9.4508
  81   2.0000      -0.342859        -9.3297
  82   2.0000      -0.341236        -9.2855
  83   2.0000      -0.335708        -9.1351
  84   2.0000      -0.322592        -8.7782
  85   2.0000      -0.317080        -8.6282
  86   2.0000      -0.311737        -8.4828
  87   2.0000      -0.296964        -8.0808
  88   2.0000      -0.294858        -8.0235
  89   2.0000      -0.292132        -7.9493
  90   2.0000      -0.278380        -7.5751
  91   2.0000      -0.277651        -7.5553
  92   2.0000      -0.266247        -7.2449
  93   2.0000      -0.263676        -7.1750
  94   2.0000      -0.256676        -6.9845
  95   2.0000      -0.236216        -6.4278
  96   2.0000      -0.225128        -6.1260
  97   2.0000      -0.211921        -5.7667
  98   2.0000      -0.202613        -5.5134
  99   2.0000      -0.197435        -5.3725
 100   2.0000      -0.187389        -5.0991
 101   0.0000      -0.048019        -1.3067
 102   0.0000      -0.036599        -0.9959
 103   0.0000      -0.013388        -0.3643
 104   0.0000       0.007627         0.2075
 105   0.0000       0.014815         0.4031

MULLIKEN ATOMIC CHARGES
-----------------------
   0 C :   -0.311574
   1 C :   -0.006836
   2 O :   -0.356066
   3 P :    0.612138
   4 S :   -0.308878
   5 O :   -0.356389
   6 C :   -0.011782
   7 C :   -0.307702
   8 S :   -0.136838
   9 C :   -0.348055
  10 S :   -0.113772
  11 P :    0.599579
  12 S :   -0.300959
  13 O :   -0.351515
  14 C :   -0.002836
  15 C :   -0.305315
  16 O :   -0.371965
  17 C :   -0.001206
  18 C :   -0.320228
  19 H :    0.108104
  20 H :    0.121453
  21 H :    0.125843
  22 H :    0.108453
  23 H :    0.105037
  24 H :    0.099669
  25 H :    0.123203
  26 H :    0.140596
  27 H :    0.102015
  28 H :    0.103792
  29 H :    0.181525
  30 H :    0.216269
  31 H :    0.112367
  32 H :    0.111302
  33 H :    0.114723
  34 H :    0.123489
  35 H :    0.118494
  36 H :    0.105333
  37 H :    0.115372
  38 H :    0.132030
  39 H :    0.115493
  40 H :    0.115636
Sum of atomic charges:   -0.0000000

LOEWDIN ATOMIC CHARGES
----------------------
   0 C :   -0.367436
   1 C :   -0.119526
   2 O :   -0.235241
   3 P :    0.567643
   4 S :   -0.293856
   5 O :   -0.231357
   6 C :   -0.118190
   7 C :   -0.366050
   8 S :    0.064621
   9 C :   -0.481498
  10 S :    0.082005
  11 P :    0.569843
  12 S :   -0.291930
  13 O :   -0.229871
  14 C :   -0.115056
  15 C :   -0.366195
  16 O :   -0.241817
  17 C :   -0.117804
  18 C :   -0.370816
  19 H :    0.127927
  20 H :    0.117523
  21 H :    0.131248
  22 H :    0.120912
  23 H :    0.101941
  24 H :    0.115054
  25 H :    0.106013
  26 H :    0.122046
  27 H :    0.119550
  28 H :    0.128389
  29 H :    0.132232
  30 H :    0.124247
  31 H :    0.103036
  32 H :    0.123436
  33 H :    0.132135
  34 H :    0.129501
  35 H :    0.116927
  36 H :    0.118939
  37 H :    0.113673
  38 H :    0.123012
  39 H :    0.122389
  40 H :    0.132402

  Mayer bond orders larger than 0.100000
B(  0-C ,  1-C ) :   1.1603 B(  0-C , 19-H ) :   0.9370 B(  0-C , 20-H ) :   0.9333
B(  0-C , 21-H ) :   0.9447 B(  1-C ,  2-O ) :   0.9266 B(  1-C , 22-H ) :   0.9340
B(  1-C , 23-H ) :   0.9163 B(  2-O ,  3-P ) :   1.1186 B(  3-P ,  4-S ) :   1.6276
B(  3-P ,  5-O ) :   1.1484 B(  3-P ,  8-S ) :   0.9221 B(  4-S ,  8-S ) :   0.1256
B(  5-O ,  6-C ) :   0.9014 B(  6-C ,  7-C ) :   1.1698 B(  6-C , 24-H ) :   0.9342
B(  6-C , 25-H ) :   0.9012 B(  7-C , 26-H ) :   0.9268 B(  7-C , 27-H ) :   0.9465
B(  7-C , 28-H ) :   0.9409 B(  8-S ,  9-C ) :   0.9907 B(  9-C , 10-S ) :   1.0086
B(  9-C , 29-H ) :   0.9049 B(  9-C , 30-H ) :   0.8412 B( 10-S , 11-P ) :   0.9305
B( 10-S , 12-S ) :   0.1064 B( 11-P , 12-S ) :   1.6404 B( 11-P , 13-O ) :   1.1270
B( 11-P , 16-O ) :   1.0947 B( 13-O , 14-C ) :   0.8966 B( 14-C , 15-C ) :   1.1713
B( 14-C , 31-H ) :   0.9133 B( 14-C , 32-H ) :   0.9332 B( 15-C , 33-H ) :   0.9361
B( 15-C , 34-H ) :   0.9427 B( 15-C , 35-H ) :   0.9379 B( 16-O , 17-C ) :   0.9047
B( 17-C , 18-C ) :   1.1653 B( 17-C , 36-H ) :   0.9339 B( 17-C , 37-H ) :   0.9158
B( 18-C , 38-H ) :   0.9348 B( 18-C , 39-H ) :   0.9448 B( 18-C , 40-H ) :   0.9375

Dispersion correction           -0.067433019
FINAL SINGLE POINT ENERGY     -2929.519229107106

DIPOLE MOMENT
-------------

Method             : SCF
Type of density    : Electron Density
Multiplicity       :   1
Irrep              :   0
Energy             : -2929.6372662670678437 Eh
Relativity type    :
Basis              : AO
                                X                 Y                 Z
Electronic contribution:      6.587859116       5.289823393      -4.085578241
Nuclear contribution   :     -7.328297296      -6.724677072       4.794971101
                        -----------------------------------------
Total Dipole Moment    :     -0.740438179      -1.434853679       0.709392859
                        -----------------------------------------
Magnitude (a.u.)       :      1.763601998
Magnitude (Debye)      :      4.482720031

Rotational constants in cm-1:             0.012344             0.005119             0.004986
Rotational constants in MHz :           370.050529           153.473299           149.465655

                             ****ORCA TERMINATED NORMALLY****
TOTAL RUN TIME: 0 days 0 hours 0 minutes 21 seconds 457 msec
