                         Program Version 6.0.0  -   RELEASE  -
|  1> ! r2scan-3c def2/J RI DEFGRID2 scfconv6 printgap
|  2> %output
|  3>     printlevel normal
|  4> end
|  5> * xyz 0 1
|  6> C 3.0640591486 0.5993718625 3.1258974459
|  7> C 1.6604809476 0.2482271903 2.6813460681
|  8> O 1.4676019334 0.5153162962 1.2736630807
|  9> P 2.1946867207 -0.3451613279 0.1635864683
| 10> S 2.5839373893 -2.2149569924 0.6182516799
| 11> O 3.4610097725 0.5533501536 -0.1639688439
| 12> C 4.4901220786 0.1100752962 -1.0714686399
| 13> C 5.7449832354 0.9084742729 -0.7805218239
| 14> S 0.9389024183 -0.040168937 -1.5109242437
| 15> C -0.1652900766 -1.4423856213 -1.1821641424
| 16> S -1.2003201455 -1.1955746304 0.2769829644
| 17> P -2.3875559818 0.3786067459 -0.5556694611
| 18> S -2.7642379532 0.2474272372 -2.4673142598
| 19> O -1.6211119104 1.7079583621 -0.1910601758
| 20> C -1.3496225368 2.1209287248 1.1702027994
| 21> C -2.3553830705 3.1594631245 1.6217639675
| 22> O -3.6526124152 0.4359666815 0.4050997711
| 23> C -4.8332995939 -0.3567470947 0.1785931367
| 24> C -4.5708332117 -1.8417059231 0.3203921651
| 25> H 3.7801215839 -0.0586147671 2.6348865884
| 26> H 3.2955987897 1.6283310766 2.8640279855
| 27> H 3.1453298811 0.4699841579 4.2005264896
| 28> H 0.9111503493 0.8699373857 3.1725808464
| 29> H 1.4464929847 -0.8094109646 2.864934302
| 30> H 4.6522334497 -0.9625644682 -0.9190543024
| 31> H 4.1377683379 0.276310938 -2.0931394316
| 32> H 6.5223614784 0.6151846449 -1.4783052334
| 33> H 5.5420529521 1.9695823962 -0.8922944507
| 34> H 6.0840535093 0.718925788 0.2339726412
| 35> H 0.4286237973 -2.3383887859 -1.0012213261
| 36> H -0.7980137254 -1.5501344517 -2.0631544091
| 37> H -1.3707519091 1.2390663129 1.8170239888
| 38> H -0.3369750326 2.528466835 1.1365069374
| 39> H -3.3529986685 2.7294412514 1.6489520725
| 40> H -2.0865302197 3.5072445914 2.6143037751
| 41> H -2.354113912 4.0001592569 0.9334925487
| 42> H -5.5340362692 0.0013445063 0.9341387199
| 43> H -5.2129388054 -0.1275278274 -0.8215619302
| 44> H -4.0803402435 -2.0529493328 1.2673897789
| 45> H -5.5138918276 -2.3768426951 0.2751112757
| 46> H -3.9318171688 -2.1869700651 -0.4908938281
| 47> *
| 48>
| 49>                          ****END OF INPUT****

CARTESIAN COORDINATES (ANGSTROEM)
---------------------------------
  C      3.064059    0.599372    3.125897
  C      1.660481    0.248227    2.681346
  O      1.467602    0.515316    1.273663
  P      2.194687   -0.345161    0.163586
  S      2.583937   -2.214957    0.618252
  O      3.461010    0.553350   -0.163969
  C      4.490122    0.110075   -1.071469
  C      5.744983    0.908474   -0.780522
  S      0.938902   -0.040169   -1.510924
  C     -0.165290   -1.442386   -1.182164
  S     -1.200320   -1.195575    0.276983
  P     -2.387556    0.378607   -0.555669
  S     -2.764238    0.247427   -2.467314
  O     -1.621112    1.707958   -0.191060
  C     -1.349623    2.120929    1.170203
  C     -2.355383    3.159463    1.621764
  O     -3.652612    0.435967    0.405100
  C     -4.833300   -0.356747    0.178593
  C     -4.570833   -1.841706    0.320392
  H      3.780122   -0.058615    2.634887
  H      3.295599    1.628331    2.864028
  H      3.145330    0.469984    4.200526
  H      0.911150    0.869937    3.172581
  H      1.446493   -0.809411    2.864934
  H      4.652233   -0.962564   -0.919054
  H      4.137768    0.276311   -2.093139
  H      6.522361    0.615185   -1.478305
  H      5.542053    1.969582   -0.892294
  H      6.084054    0.718926    0.233973
  H      0.428624   -2.338389   -1.001221
  H     -0.798014   -1.550134   -2.063154
  H     -1.370752    1.239066    1.817024
  H     -0.336975    2.528467    1.136507
  H     -3.352999    2.729441    1.648952
  H     -2.086530    3.507245    2.614304
  H     -2.354114    4.000159    0.933493
  H     -5.534036    0.001345    0.934139
  H     -5.212939   -0.127528   -0.821562
  H     -4.080340   -2.052949    1.267390
  H     -5.513892   -2.376843    0.275111
  H     -3.931817   -2.186970   -0.490894

 Total Charge           Charge          ....    0
 Multiplicity           Mult            ....    1
 Number of Electrons    NEL             ....  202
 Basis Dimension        Dim             ....  539

ORBITAL ENERGIES
----------------

  NO   OCC          E(Eh)            E(eV)
   0   2.0000     -88.572860     -2410.1901
   1   2.0000     -88.571501     -2410.1531
   2   2.0000     -88.522000     -2408.8061
   3   2.0000     -88.519740     -2408.7446
   4   2.0000     -76.914288     -2092.9442
   5   2.0000     -76.912941     -2092.9075
   6   2.0000     -18.995503      -516.8939
   7   2.0000     -18.994577      -516.8687
   8   2.0000     -18.993529      -516.8402
   9   2.0000     -18.987316      -516.6711
  10   2.0000     -10.101817      -274.8844
  11   2.0000     -10.101394      -274.8729
  12   2.0000     -10.100791      -274.8565
  13   2.0000     -10.100225      -274.8411
  14   2.0000     -10.099390      -274.8184
  15   2.0000     -10.034852      -273.0622
  16   2.0000     -10.032132      -272.9882
  17   2.0000     -10.030318      -272.9388
  18   2.0000     -10.029352      -272.9126
  19   2.0000      -7.866946      -214.0705
  20   2.0000      -7.865848      -214.0406
  21   2.0000      -7.816844      -212.7071
  22   2.0000      -7.814555      -212.6448
  23   2.0000      -6.593030      -179.4055
  24   2.0000      -6.591419      -179.3616
  25   2.0000      -5.813825      -158.2022
  26   2.0000      -5.812661      -158.1706
  27   2.0000      -5.810848      -158.1212
  28   2.0000      -5.809749      -158.0913
  29   2.0000      -5.804063      -157.9366
  30   2.0000      -5.802987      -157.9073
  31   2.0000      -5.764391      -156.8571
  32   2.0000      -5.762256      -156.7990
  33   2.0000      -5.757126      -156.6594
  34   2.0000      -5.756930      -156.6540
  35   2.0000      -5.754731      -156.5942
  36   2.0000      -5.754591      -156.5904
  37   2.0000      -4.738410      -128.9387
  38   2.0000      -4.737956      -128.9263
  39   2.0000      -4.737307      -128.9087
  40   2.0000      -4.736828      -128.8956
  41   2.0000      -4.736256      -128.8801
  42   2.0000      -4.734897      -128.8431
  43   2.0000      -1.052736       -28.6464
  44   2.0000      -1.051171       -28.6038
  45   2.0000      -1.014014       -27.5927
  46   2.0000      -1.009815       -27.4785
  47   2.0000      -0.799923       -21.7670
  48   2.0000      -0.759719       -20.6730
  49   2.0000      -0.750697       -20.4275
  50   2.0000      -0.735829       -20.0229
  51   2.0000      -0.735071       -20.0023
  52   2.0000      -0.710003       -19.3202
  53   2.0000      -0.685345       -18.6492
  54   2.0000      -0.668299       -18.1854
  55   2.0000      -0.633000       -17.2248
  56   2.0000      -0.624884       -17.0040
  57   2.0000      -0.607461       -16.5299
  58   2.0000      -0.602127       -16.3847
  59   2.0000      -0.591312       -16.0904
  60   2.0000      -0.532018       -14.4769
  61   2.0000      -0.522671       -14.2226
  62   2.0000      -0.499686       -13.5971
  63   2.0000      -0.494165       -13.4469
  64   2.0000      -0.476574       -12.9682
  65   2.0000      -0.468622       -12.7518
  66   2.0000      -0.458555       -12.4779
  67   2.0000      -0.453878       -12.3506
  68   2.0000      -0.444652       -12.0996
  69   2.0000      -0.437305       -11.8997
  70   2.0000      -0.425954       -11.5908
  71   2.0000      -0.416144       -11.3239
  72   2.0000      -0.409645       -11.1470
  73   2.0000      -0.398306       -10.8385
  74   2.0000      -0.394235       -10.7277
  75   2.0000      -0.388976       -10.5846
  76   2.0000      -0.383343       -10.4313
  77   2.0000      -0.376818       -10.2537
  78   2.0000      -0.374989       -10.2040
  79   2.0000      -0.368628       -10.0309
  80   2.0000      -0.364415        -9.9162
  81   2.0000      -0.362199        -9.8559
  82   2.0000      -0.359261        -9.7760
  83   2.0000      -0.357216        -9.7203
  84   2.0000      -0.349351        -9.5063
  85   2.0000      -0.335479        -9.1288
  86   2.0000      -0.324804        -8.8384
  87   2.0000      -0.317154        -8.6302
  88   2.0000      -0.312743        -8.5102
  89   2.0000      -0.308772        -8.4021
  90   2.0000      -0.303467        -8.2578
  91   2.0000      -0.293858        -7.9963
  92   2.0000      -0.283560        -7.7161
  93   2.0000      -0.278816        -7.5870
  94   2.0000      -0.272191        -7.4067
  95   2.0000      -0.245226        -6.6729
  96   2.0000      -0.229688        -6.2501
  97   2.0000      -0.227176        -6.1818
  98   2.0000      -0.218559        -5.9473
  99   2.0000      -0.214473        -5.8361
 100   2.0000      -0.212885        -5.7929
 101   0.0000      -0.044784        -1.2186
 102   0.0000      -0.023239        -0.6324
 103   0.0000      -0.000152        -0.0041
 104   0.0000       0.001781         0.0485
 105   0.0000       0.015177         0.4130

MULLIKEN ATOMIC CHARGES
-----------------------
   0 C :   -0.441419
   1 C :   -0.155138
   2 O :   -0.258755
   3 P :    0.695748
   4 S :   -0.495226
   5 O :   -0.288758
   6 C :   -0.154993
   7 C :   -0.440930
   8 S :   -0.124277
   9 C :   -0.240280
  10 S :   -0.162322
  11 P :    0.649015
  12 S :   -0.443553
  13 O :   -0.256287
  14 C :   -0.103301
  15 C :   -0.486363
  16 O :   -0.290922
  17 C :   -0.168963
  18 C :   -0.440625
  19 H :    0.171036
  20 H :    0.155469
  21 H :    0.147768
  22 H :    0.145900
  23 H :    0.177670
  24 H :    0.170685
  25 H :    0.154056
  26 H :    0.147858
  27 H :    0.154922
  28 H :    0.154086
  29 H :    0.213814
  30 H :    0.215873
  31 H :    0.155146
  32 H :    0.169911
  33 H :    0.165538
  34 H :    0.143687
  35 H :    0.160306
  36 H :    0.147441
  37 H :    0.175046
  38 H :    0.153500
  39 H :    0.147913
  40 H :    0.179725
Sum of atomic charges:    0.0000000

LOEWDIN ATOMIC CHARGES
----------------------
   0 C :   -0.399425
   1 C :    0.015997
   2 O :   -0.674729
   3 P :    0.374246
   4 S :   -0.138862
   5 O :   -0.664274
   6 C :    0.020693
   7 C :   -0.385660
   8 S :    0.178054
   9 C :   -0.425351
  10 S :    0.141309
  11 P :    0.383767
  12 S :   -0.100288
  13 O :   -0.649624
  14 C :    0.018559
  15 C :   -0.392649
  16 O :   -0.673601
  17 C :    0.022138
  18 C :   -0.408783
  19 H :    0.166508
  20 H :    0.160686
  21 H :    0.159806
  22 H :    0.177217
  23 H :    0.182454
  24 H :    0.180816
  25 H :    0.173053
  26 H :    0.160490
  27 H :    0.160372
  28 H :    0.159684
  29 H :    0.191496
  30 H :    0.191490
  31 H :    0.175215
  32 H :    0.187188
  33 H :    0.165363
  34 H :    0.157636
  35 H :    0.162878
  36 H :    0.178971
  37 H :    0.180800
  38 H :    0.160245
  39 H :    0.159410
  40 H :    0.166702

  Mayer bond orders larger than 0.100000
B(  0-C ,  1-C ) :   0.9259 B(  0-C , 19-H ) :   0.9591 B(  0-C , 20-H ) :   0.9713
B(  0-C , 21-H ) :   0.9622 B(  1-C ,  2-O ) :   0.7772 B(  1-C , 22-H ) :   0.9606
B(  1-C , 23-H ) :   0.9624 B(  2-O ,  3-P ) :   1.1496 B(  3-P ,  4-S ) :   1.7268
B(  3-P ,  5-O ) :   1.0939 B(  3-P ,  8-S ) :   1.0829 B(  5-O ,  6-C ) :   0.7779
B(  6-C ,  7-C ) :   0.9572 B(  6-C , 24-H ) :   0.9523 B(  6-C , 25-H ) :   0.9456
B(  7-C , 26-H ) :   0.9642 B(  7-C , 27-H ) :   0.9716 B(  7-C , 28-H ) :   0.9713
B(  8-S ,  9-C ) :   0.9169 B(  9-C , 10-S ) :   0.9076 B(  9-C , 29-H ) :   0.9046
B(  9-C , 30-H ) :   0.9072 B( 10-S , 11-P ) :   1.0121 B( 11-P , 12-S ) :   1.8358
B( 11-P , 13-O ) :   1.1424 B( 11-P , 16-O ) :   1.0320 B( 13-O , 14-C ) :   0.7344
B( 14-C , 15-C ) :   0.9298 B( 14-C , 31-H ) :   0.9692 B( 14-C , 32-H ) :   0.9541
B( 15-C , 33-H ) :   0.9708 B( 15-C , 34-H ) :   0.9660 B( 15-C , 35-H ) :   0.9739
B( 16-O , 17-C ) :   0.8184 B( 17-C , 18-C ) :   0.9180 B( 17-C , 36-H ) :   0.9615
B( 17-C , 37-H ) :   0.9685 B( 18-C , 38-H ) :   0.9668 B( 18-C , 39-H ) :   0.9563
B( 18-C , 40-H ) :   0.9634

Dispersion correction           -0.021290011
FINAL SINGLE POINT ENERGY     -2932.464719935955

DIPOLE MOMENT
-------------

Method             : SCF
Type of density    : Electron Density
Multiplicity       :   1
Irrep              :   0
Energy             : -2932.4898086267298822 Eh
Relativity type    :
Basis              : AO
                                X                 Y                 Z
Electronic contribution:     -5.021642300      -7.140935021     -14.829039829
Nuclear contribution   :      5.221157955       7.700771374      16.256323445
                        -----------------------------------------
Total Dipole Moment    :      0.199515655       0.559836353       1.427283616
                        -----------------------------------------
Magnitude (a.u.)       :      1.546079480
Magnitude (Debye)      :      3.929821731

Rotational constants in cm-1:             0.013201             0.004625             0.004385
Rotational constants in MHz :           395.743293           138.668198           131.461254

                             ****ORCA TERMINATED NORMALLY****
TOTAL RUN TIME: 0 days 0 hours 1 minutes 22 seconds 885 msec
