                         Program Version 6.0.0  -   RELEASE  -
|  1> ! r2scan-3c def2/J RI DEFGRID2 scfconv6 printgap
|  2> %output
|  3>     printlevel normal
|  4> end
|  5> %cpcm
|  6>     smd true
|  7>     smdsolvent "water"
|  8> end
|  9> * xyz 0 1
| 10> C 3.0640591486 0.5993718625 3.1258974459
| 11> C 1.6604809476 0.2482271903 2.6813460681
| 12> O 1.4676019334 0.5153162962 1.2736630807
| 13> P 2.1946867207 -0.3451613279 0.1635864683
| 14> S 2.5839373893 -2.2149569924 0.6182516799
| 15> O 3.4610097725 0.5533501536 -0.1639688439
| 16> C 4.4901220786 0.1100752962 -1.0714686399
| 17> C 5.7449832354 0.9084742729 -0.7805218239
| 18> S 0.9389024183 -0.040168937 -1.5109242437
| 19> C -0.1652900766 -1.4423856213 -1.1821641424
| 20> S -1.2003201455 -1.1955746304 0.2769829644
| 21> P -2.3875559818 0.3786067459 -0.5556694611
| 22> S -2.7642379532 0.2474272372 -2.4673142598
| 23> O -1.6211119104 1.7079583621 -0.1910601758
| 24> C -1.3496225368 2.1209287248 1.1702027994
| 25> C -2.3553830705 3.1594631245 1.6217639675
| 26> O -3.6526124152 0.4359666815 0.4050997711
| 27> C -4.8332995939 -0.3567470947 0.1785931367
| 28> C -4.5708332117 -1.8417059231 0.3203921651
| 29> H 3.7801215839 -0.0586147671 2.6348865884
| 30> H 3.2955987897 1.6283310766 2.8640279855
| 31> H 3.1453298811 0.4699841579 4.2005264896
| 32> H 0.9111503493 0.8699373857 3.1725808464
| 33> H 1.4464929847 -0.8094109646 2.864934302
| 34> H 4.6522334497 -0.9625644682 -0.9190543024
| 35> H 4.1377683379 0.276310938 -2.0931394316
| 36> H 6.5223614784 0.6151846449 -1.4783052334
| 37> H 5.5420529521 1.9695823962 -0.8922944507
| 38> H 6.0840535093 0.718925788 0.2339726412
| 39> H 0.4286237973 -2.3383887859 -1.0012213261
| 40> H -0.7980137254 -1.5501344517 -2.0631544091
| 41> H -1.3707519091 1.2390663129 1.8170239888
| 42> H -0.3369750326 2.528466835 1.1365069374
| 43> H -3.3529986685 2.7294412514 1.6489520725
| 44> H -2.0865302197 3.5072445914 2.6143037751
| 45> H -2.354113912 4.0001592569 0.9334925487
| 46> H -5.5340362692 0.0013445063 0.9341387199
| 47> H -5.2129388054 -0.1275278274 -0.8215619302
| 48> H -4.0803402435 -2.0529493328 1.2673897789
| 49> H -5.5138918276 -2.3768426951 0.2751112757
| 50> H -3.9318171688 -2.1869700651 -0.4908938281
| 51> *
| 52>
| 53>                          ****END OF INPUT****

CARTESIAN COORDINATES (ANGSTROEM)
---------------------------------
  C      3.064059    0.599372    3.125897
  C      1.660481    0.248227    2.681346
  O      1.467602    0.515316    1.273663
  P      2.194687   -0.345161    0.163586
  S      2.583937   -2.214957    0.618252
  O      3.461010    0.553350   -0.163969
  C      4.490122    0.110075   -1.071469
  C      5.744983    0.908474   -0.780522
  S      0.938902   -0.040169   -1.510924
  C     -0.165290   -1.442386   -1.182164
  S     -1.200320   -1.195575    0.276983
  P     -2.387556    0.378607   -0.555669
  S     -2.764238    0.247427   -2.467314
  O     -1.621112    1.707958   -0.191060
  C     -1.349623    2.120929    1.170203
  C     -2.355383    3.159463    1.621764
  O     -3.652612    0.435967    0.405100
  C     -4.833300   -0.356747    0.178593
  C     -4.570833   -1.841706    0.320392
  H      3.780122   -0.058615    2.634887
  H      3.295599    1.628331    2.864028
  H      3.145330    0.469984    4.200526
  H      0.911150    0.869937    3.172581
  H      1.446493   -0.809411    2.864934
  H      4.652233   -0.962564   -0.919054
  H      4.137768    0.276311   -2.093139
  H      6.522361    0.615185   -1.478305
  H      5.542053    1.969582   -0.892294
  H      6.084054    0.718926    0.233973
  H      0.428624   -2.338389   -1.001221
  H     -0.798014   -1.550134   -2.063154
  H     -1.370752    1.239066    1.817024
  H     -0.336975    2.528467    1.136507
  H     -3.352999    2.729441    1.648952
  H     -2.086530    3.507245    2.614304
  H     -2.354114    4.000159    0.933493
  H     -5.534036    0.001345    0.934139
  H     -5.212939   -0.127528   -0.821562
  H     -4.080340   -2.052949    1.267390
  H     -5.513892   -2.376843    0.275111
  H     -3.931817   -2.186970   -0.490894

 Total Charge           Charge          ....    0
 Multiplicity           Mult            ....    1
 Number of Electrons    NEL             ....  202
 Basis Dimension        Dim             ....  539

ORBITAL ENERGIES
----------------

  NO   OCC          E(Eh)            E(eV)
   0   2.0000     -88.579129     -2410.3606
   1   2.0000     -88.575988     -2410.2752
   2   2.0000     -88.531004     -2409.0511
   3   2.0000     -88.528664     -2408.9874
   4   2.0000     -76.920202     -2093.1051
   5   2.0000     -76.918960     -2093.0713
   6   2.0000     -18.996685      -516.9261
   7   2.0000     -18.996379      -516.9177
   8   2.0000     -18.994006      -516.8532
   9   2.0000     -18.993241      -516.8324
  10   2.0000     -10.102874      -274.9132
  11   2.0000     -10.091294      -274.5981
  12   2.0000     -10.091026      -274.5908
  13   2.0000     -10.090549      -274.5778
  14   2.0000     -10.089751      -274.5561
  15   2.0000     -10.019814      -272.6530
  16   2.0000     -10.018836      -272.6264
  17   2.0000     -10.018539      -272.6183
  18   2.0000     -10.018273      -272.6111
  19   2.0000      -7.873337      -214.2444
  20   2.0000      -7.870310      -214.1620
  21   2.0000      -7.826174      -212.9610
  22   2.0000      -7.823781      -212.8959
  23   2.0000      -6.598713      -179.5601
  24   2.0000      -6.597725      -179.5332
  25   2.0000      -5.820151      -158.3744
  26   2.0000      -5.817208      -158.2943
  27   2.0000      -5.817145      -158.2926
  28   2.0000      -5.814243      -158.2136
  29   2.0000      -5.810552      -158.1132
  30   2.0000      -5.807403      -158.0275
  31   2.0000      -5.773762      -157.1121
  32   2.0000      -5.771282      -157.0446
  33   2.0000      -5.766329      -156.9098
  34   2.0000      -5.766277      -156.9084
  35   2.0000      -5.764055      -156.8479
  36   2.0000      -5.763871      -156.8429
  37   2.0000      -4.744528      -129.1052
  38   2.0000      -4.743524      -129.0779
  39   2.0000      -4.743034      -129.0645
  40   2.0000      -4.742651      -129.0541
  41   2.0000      -4.742325      -129.0452
  42   2.0000      -4.741628      -129.0263
  43   2.0000      -1.054290       -28.6887
  44   2.0000      -1.053467       -28.6663
  45   2.0000      -1.014017       -27.5928
  46   2.0000      -1.012623       -27.5549
  47   2.0000      -0.803833       -21.8734
  48   2.0000      -0.756091       -20.5743
  49   2.0000      -0.744840       -20.2681
  50   2.0000      -0.726313       -19.7640
  51   2.0000      -0.724713       -19.7204
  52   2.0000      -0.709750       -19.3133
  53   2.0000      -0.689139       -18.7524
  54   2.0000      -0.675139       -18.3715
  55   2.0000      -0.629870       -17.1396
  56   2.0000      -0.620788       -16.8925
  57   2.0000      -0.602441       -16.3932
  58   2.0000      -0.593339       -16.1456
  59   2.0000      -0.589945       -16.0532
  60   2.0000      -0.528503       -14.3813
  61   2.0000      -0.519225       -14.1288
  62   2.0000      -0.495252       -13.4765
  63   2.0000      -0.490478       -13.3466
  64   2.0000      -0.476474       -12.9655
  65   2.0000      -0.464798       -12.6478
  66   2.0000      -0.454393       -12.3647
  67   2.0000      -0.445529       -12.1235
  68   2.0000      -0.439689       -11.9645
  69   2.0000      -0.434140       -11.8135
  70   2.0000      -0.423323       -11.5192
  71   2.0000      -0.411149       -11.1879
  72   2.0000      -0.406132       -11.0514
  73   2.0000      -0.397116       -10.8061
  74   2.0000      -0.393418       -10.7054
  75   2.0000      -0.384937       -10.4747
  76   2.0000      -0.382252       -10.4016
  77   2.0000      -0.371864       -10.1189
  78   2.0000      -0.363697        -9.8967
  79   2.0000      -0.363121        -9.8810
  80   2.0000      -0.354088        -9.6352
  81   2.0000      -0.352895        -9.6028
  82   2.0000      -0.351845        -9.5742
  83   2.0000      -0.348632        -9.4868
  84   2.0000      -0.345183        -9.3929
  85   2.0000      -0.331343        -9.0163
  86   2.0000      -0.322086        -8.7644
  87   2.0000      -0.313095        -8.5198
  88   2.0000      -0.308484        -8.3943
  89   2.0000      -0.304280        -8.2799
  90   2.0000      -0.299735        -8.1562
  91   2.0000      -0.291229        -7.9248
  92   2.0000      -0.282851        -7.6968
  93   2.0000      -0.278478        -7.5778
  94   2.0000      -0.274665        -7.4740
  95   2.0000      -0.250887        -6.8270
  96   2.0000      -0.238413        -6.4875
  97   2.0000      -0.236687        -6.4406
  98   2.0000      -0.227524        -6.1912
  99   2.0000      -0.224037        -6.0964
 100   2.0000      -0.220613        -6.0032
 101   0.0000      -0.051440        -1.3997
 102   0.0000      -0.030967        -0.8427
 103   0.0000      -0.005694        -0.1549
 104   0.0000      -0.002917        -0.0794
 105   0.0000       0.013778         0.3749

MULLIKEN ATOMIC CHARGES
-----------------------
   0 C :   -0.484286
   1 C :   -0.147707
   2 O :   -0.282441
   3 P :    0.727578
   4 S :   -0.536943
   5 O :   -0.313531
   6 C :   -0.146900
   7 C :   -0.483428
   8 S :   -0.153843
   9 C :   -0.247025
  10 S :   -0.161034
  11 P :    0.664685
  12 S :   -0.497836
  13 O :   -0.292181
  14 C :   -0.088178
  15 C :   -0.532211
  16 O :   -0.307396
  17 C :   -0.161491
  18 C :   -0.478575
  19 H :    0.168800
  20 H :    0.170327
  21 H :    0.172966
  22 H :    0.180669
  23 H :    0.178115
  24 H :    0.172377
  25 H :    0.172258
  26 H :    0.169797
  27 H :    0.166435
  28 H :    0.166241
  29 H :    0.233609
  30 H :    0.232621
  31 H :    0.175510
  32 H :    0.181542
  33 H :    0.170493
  34 H :    0.171274
  35 H :    0.168835
  36 H :    0.176369
  37 H :    0.179762
  38 H :    0.168049
  39 H :    0.172741
  40 H :    0.173957
Sum of atomic charges:    0.0000000

LOEWDIN ATOMIC CHARGES
----------------------
   0 C :   -0.402727
   1 C :    0.022438
   2 O :   -0.683200
   3 P :    0.378628
   4 S :   -0.164691
   5 O :   -0.676189
   6 C :    0.025051
   7 C :   -0.389253
   8 S :    0.159053
   9 C :   -0.420629
  10 S :    0.146136
  11 P :    0.386254
  12 S :   -0.141138
  13 O :   -0.674895
  14 C :    0.025317
  15 C :   -0.394762
  16 O :   -0.676153
  17 C :    0.028431
  18 C :   -0.411459
  19 H :    0.162973
  20 H :    0.164319
  21 H :    0.169237
  22 H :    0.191368
  23 H :    0.182659
  24 H :    0.181899
  25 H :    0.180141
  26 H :    0.169039
  27 H :    0.163476
  28 H :    0.162640
  29 H :    0.197125
  30 H :    0.196460
  31 H :    0.183752
  32 H :    0.192549
  33 H :    0.165472
  34 H :    0.168957
  35 H :    0.164305
  36 H :    0.191484
  37 H :    0.181911
  38 H :    0.163786
  39 H :    0.168476
  40 H :    0.161762

  Mayer bond orders larger than 0.100000
B(  0-C ,  1-C ) :   0.9125 B(  0-C , 19-H ) :   0.9591 B(  0-C , 20-H ) :   0.9708
B(  0-C , 21-H ) :   0.9562 B(  1-C ,  2-O ) :   0.7649 B(  1-C , 22-H ) :   0.9498
B(  1-C , 23-H ) :   0.9590 B(  2-O ,  3-P ) :   1.1604 B(  3-P ,  4-S ) :   1.6945
B(  3-P ,  5-O ) :   1.1014 B(  3-P ,  8-S ) :   1.0887 B(  5-O ,  6-C ) :   0.7702
B(  6-C ,  7-C ) :   0.9531 B(  6-C , 24-H ) :   0.9488 B(  6-C , 25-H ) :   0.9373
B(  7-C , 26-H ) :   0.9584 B(  7-C , 27-H ) :   0.9689 B(  7-C , 28-H ) :   0.9687
B(  8-S ,  9-C ) :   0.9037 B(  9-C , 10-S ) :   0.8978 B(  9-C , 29-H ) :   0.9013
B(  9-C , 30-H ) :   0.9028 B( 10-S , 11-P ) :   1.0210 B( 11-P , 12-S ) :   1.8128
B( 11-P , 13-O ) :   1.1477 B( 11-P , 16-O ) :   1.0472 B( 13-O , 14-C ) :   0.7223
B( 14-C , 15-C ) :   0.9267 B( 14-C , 31-H ) :   0.9557 B( 14-C , 32-H ) :   0.9454
B( 15-C , 33-H ) :   0.9696 B( 15-C , 34-H ) :   0.9587 B( 15-C , 35-H ) :   0.9725
B( 16-O , 17-C ) :   0.8059 B( 17-C , 18-C ) :   0.9054 B( 17-C , 36-H ) :   0.9505
B( 17-C , 37-H ) :   0.9675 B( 18-C , 38-H ) :   0.9642 B( 18-C , 39-H ) :   0.9510
B( 18-C , 40-H ) :   0.9654

Dispersion correction           -0.021290011
FINAL SINGLE POINT ENERGY     -2932.474381283002

DIPOLE MOMENT
-------------

Method             : SCF
Type of density    : Electron Density
Multiplicity       :   1
Irrep              :   0
Energy             : -2932.4994699737767405 Eh
Relativity type    :
Basis              : AO
                                X                 Y                 Z
Electronic contribution:     -5.058466723      -7.143168323     -14.162901518
Nuclear contribution   :      5.221157955       7.700771374      16.256323445
                        -----------------------------------------
Total Dipole Moment    :      0.162691232       0.557603051       2.093421926
                        -----------------------------------------
Magnitude (a.u.)       :      2.172511211
Magnitude (Debye)      :      5.522084651

Rotational constants in cm-1:             0.013201             0.004625             0.004385
Rotational constants in MHz :           395.743293           138.668198           131.461254

                             ****ORCA TERMINATED NORMALLY****
TOTAL RUN TIME: 0 days 0 hours 1 minutes 46 seconds 833 msec
