                         Program Version 6.0.0  -   RELEASE  -
|  1> ! r2scan-3c def2/J RI DEFGRID2 scfconv6 printgap
|  2> %output
|  3>     printlevel normal
|  4> end
|  5> * xyz 0 1
|  6> C 5.4035399621 -1.8306626006 -1.950833392
|  7> C 4.3424822716 -0.7715341022 -1.7305494838
|  8> O 3.3886417368 -1.2903025395 -0.781025562
|  9> P 2.3843077676 -0.3335258045 -0.0102981481
| 10> S 3.2068488519 1.2367942779 0.8372280506
| 11> O 1.6372277364 -1.3436630686 0.9473191761
| 12> C 2.0549521803 -1.5542735076 2.3120602147
| 13> C 3.3872794112 -2.2696773991 2.3795704535
| 14> S 0.8863880576 0.0621439269 -1.4476681029
| 15> C 0.1634355443 1.4890170522 -0.5941116691
| 16> S -0.7292012535 1.0408747101 0.9226122874
| 17> P -2.6098834619 0.5913346695 0.0678418316
| 18> S -2.7604682631 0.6585170981 -1.890715165
| 19> O -3.4536969744 1.6294921195 0.9133228481
| 20> C -4.8933873541 1.7270368431 0.8151423838
| 21> C -5.2981256746 2.7470538474 -0.2310535651
| 22> O -3.1131359324 -0.7843736591 0.6955452445
| 23> C -2.9004218477 -2.0573918944 0.0649471773
| 24> C -1.5295007332 -2.6151985412 0.3885917057
| 25> H 5.9254225532 -2.038661176 -1.0212014244
| 26> H 4.9422082455 -2.7462814036 -2.3088029425
| 27> H 6.1147112756 -1.4733287057 -2.6882785746
| 28> H 3.8102725071 -0.5400117661 -2.6571819416
| 29> H 4.7722403124 0.1507095628 -1.3248338524
| 30> H 2.1067069628 -0.5822963502 2.8129130077
| 31> H 1.249946555 -2.1498864725 2.7437024283
| 32> H 3.6276776136 -2.4908308841 3.4147160441
| 33> H 3.3457458156 -3.193586534 1.8090303366
| 34> H 4.1666895292 -1.6328081919 1.9627638081
| 35> H -0.5197207313 1.9578895968 -1.3003660648
| 36> H 0.9627809488 2.1670450184 -0.2955345359
| 37> H -5.3061715792 0.7408784345 0.5886324294
| 38> H -5.2089574311 2.0353636021 1.8134189466
| 39> H -6.3785329998 2.8506124438 -0.2313574269
| 40> H -4.8443930832 3.7087102483 -0.0079477048
| 41> H -4.9717917869 2.4277731315 -1.218516237
| 42> H -3.692516538 -2.6917070659 0.4664137359
| 43> H -3.0307957226 -1.9397300466 -1.0163946359
| 44> H -0.7507230097 -1.9976629966 -0.0559533111
| 45> H -1.3819386778 -2.6403599955 1.4651966318
| 46> H -1.4464813096 -3.6208417698 -0.0105808555
| 47> *
| 48>
| 49>                          ****END OF INPUT****

CARTESIAN COORDINATES (ANGSTROEM)
---------------------------------
  C      5.403540   -1.830663   -1.950833
  C      4.342482   -0.771534   -1.730549
  O      3.388642   -1.290303   -0.781026
  P      2.384308   -0.333526   -0.010298
  S      3.206849    1.236794    0.837228
  O      1.637228   -1.343663    0.947319
  C      2.054952   -1.554274    2.312060
  C      3.387279   -2.269677    2.379570
  S      0.886388    0.062144   -1.447668
  C      0.163436    1.489017   -0.594112
  S     -0.729201    1.040875    0.922612
  P     -2.609883    0.591335    0.067842
  S     -2.760468    0.658517   -1.890715
  O     -3.453697    1.629492    0.913323
  C     -4.893387    1.727037    0.815142
  C     -5.298126    2.747054   -0.231054
  O     -3.113136   -0.784374    0.695545
  C     -2.900422   -2.057392    0.064947
  C     -1.529501   -2.615199    0.388592
  H      5.925423   -2.038661   -1.021201
  H      4.942208   -2.746281   -2.308803
  H      6.114711   -1.473329   -2.688279
  H      3.810273   -0.540012   -2.657182
  H      4.772240    0.150710   -1.324834
  H      2.106707   -0.582296    2.812913
  H      1.249947   -2.149886    2.743702
  H      3.627678   -2.490831    3.414716
  H      3.345746   -3.193587    1.809030
  H      4.166690   -1.632808    1.962764
  H     -0.519721    1.957890   -1.300366
  H      0.962781    2.167045   -0.295535
  H     -5.306172    0.740878    0.588632
  H     -5.208957    2.035364    1.813419
  H     -6.378533    2.850612   -0.231357
  H     -4.844393    3.708710   -0.007948
  H     -4.971792    2.427773   -1.218516
  H     -3.692517   -2.691707    0.466414
  H     -3.030796   -1.939730   -1.016395
  H     -0.750723   -1.997663   -0.055953
  H     -1.381939   -2.640360    1.465197
  H     -1.446481   -3.620842   -0.010581

 Total Charge           Charge          ....    0
 Multiplicity           Mult            ....    1
 Number of Electrons    NEL             ....  202
 Basis Dimension        Dim             ....  539

ORBITAL ENERGIES
----------------

  NO   OCC          E(Eh)            E(eV)
   0   2.0000     -88.574324     -2410.2299
   1   2.0000     -88.574300     -2410.2292
   2   2.0000     -88.522535     -2408.8206
   3   2.0000     -88.521890     -2408.8031
   4   2.0000     -76.913889     -2092.9333
   5   2.0000     -76.913773     -2092.9302
   6   2.0000     -18.994580      -516.8688
   7   2.0000     -18.992258      -516.8056
   8   2.0000     -18.990701      -516.7632
   9   2.0000     -18.988520      -516.7039
  10   2.0000     -10.101887      -274.8863
  11   2.0000     -10.100315      -274.8436
  12   2.0000     -10.099439      -274.8197
  13   2.0000     -10.098672      -274.7988
  14   2.0000     -10.094060      -274.6733
  15   2.0000     -10.034869      -273.0627
  16   2.0000     -10.029828      -272.9255
  17   2.0000     -10.024796      -272.7886
  18   2.0000     -10.022037      -272.7135
  19   2.0000      -7.868451      -214.1114
  20   2.0000      -7.868401      -214.1101
  21   2.0000      -7.817368      -212.7214
  22   2.0000      -7.816662      -212.7022
  23   2.0000      -6.592708      -179.3967
  24   2.0000      -6.592191      -179.3826
  25   2.0000      -5.815364      -158.2441
  26   2.0000      -5.815286      -158.2420
  27   2.0000      -5.812335      -158.1617
  28   2.0000      -5.812302      -158.1608
  29   2.0000      -5.805662      -157.9801
  30   2.0000      -5.805375      -157.9723
  31   2.0000      -5.764984      -156.8732
  32   2.0000      -5.764200      -156.8519
  33   2.0000      -5.757755      -156.6765
  34   2.0000      -5.757278      -156.6635
  35   2.0000      -5.756954      -156.6547
  36   2.0000      -5.756760      -156.6494
  37   2.0000      -4.738064      -128.9293
  38   2.0000      -4.737652      -128.9181
  39   2.0000      -4.737643      -128.9178
  40   2.0000      -4.737002      -128.9004
  41   2.0000      -4.736501      -128.8867
  42   2.0000      -4.736101      -128.8759
  43   2.0000      -1.052423       -28.6379
  44   2.0000      -1.048824       -28.5400
  45   2.0000      -1.013770       -27.5861
  46   2.0000      -1.007915       -27.4268
  47   2.0000      -0.799747       -21.7622
  48   2.0000      -0.760304       -20.6889
  49   2.0000      -0.748647       -20.3717
  50   2.0000      -0.734491       -19.9865
  51   2.0000      -0.728073       -19.8119
  52   2.0000      -0.709661       -19.3109
  53   2.0000      -0.684863       -18.6361
  54   2.0000      -0.668921       -18.2023
  55   2.0000      -0.632905       -17.2222
  56   2.0000      -0.623668       -16.9709
  57   2.0000      -0.605729       -16.4827
  58   2.0000      -0.601416       -16.3653
  59   2.0000      -0.588417       -16.0117
  60   2.0000      -0.529883       -14.4188
  61   2.0000      -0.523973       -14.2580
  62   2.0000      -0.498803       -13.5731
  63   2.0000      -0.489602       -13.3227
  64   2.0000      -0.477591       -12.9959
  65   2.0000      -0.464227       -12.6323
  66   2.0000      -0.454907       -12.3786
  67   2.0000      -0.452242       -12.3061
  68   2.0000      -0.447487       -12.1767
  69   2.0000      -0.431284       -11.7358
  70   2.0000      -0.422282       -11.4909
  71   2.0000      -0.415284       -11.3004
  72   2.0000      -0.412662       -11.2291
  73   2.0000      -0.398535       -10.8447
  74   2.0000      -0.391432       -10.6514
  75   2.0000      -0.390332       -10.6215
  76   2.0000      -0.383678       -10.4404
  77   2.0000      -0.374500       -10.1907
  78   2.0000      -0.369420       -10.0524
  79   2.0000      -0.364740        -9.9251
  80   2.0000      -0.363258        -9.8847
  81   2.0000      -0.361285        -9.8311
  82   2.0000      -0.356154        -9.6914
  83   2.0000      -0.352011        -9.5787
  84   2.0000      -0.345696        -9.4069
  85   2.0000      -0.332808        -9.0562
  86   2.0000      -0.322016        -8.7625
  87   2.0000      -0.317082        -8.6282
  88   2.0000      -0.307613        -8.3706
  89   2.0000      -0.306219        -8.3326
  90   2.0000      -0.300466        -8.1761
  91   2.0000      -0.291836        -7.9412
  92   2.0000      -0.289294        -7.8721
  93   2.0000      -0.280091        -7.6216
  94   2.0000      -0.274029        -7.4567
  95   2.0000      -0.244370        -6.6496
  96   2.0000      -0.230318        -6.2673
  97   2.0000      -0.228101        -6.2069
  98   2.0000      -0.218608        -5.9486
  99   2.0000      -0.217068        -5.9067
 100   2.0000      -0.214257        -5.8302
 101   0.0000      -0.044567        -1.2127
 102   0.0000      -0.028006        -0.7621
 103   0.0000      -0.004187        -0.1139
 104   0.0000       0.002474         0.0673
 105   0.0000       0.017231         0.4689

MULLIKEN ATOMIC CHARGES
-----------------------
   0 C :   -0.439506
   1 C :   -0.157448
   2 O :   -0.285805
   3 P :    0.698718
   4 S :   -0.490285
   5 O :   -0.275364
   6 C :   -0.147925
   7 C :   -0.444004
   8 S :   -0.129069
   9 C :   -0.243741
  10 S :   -0.103322
  11 P :    0.696579
  12 S :   -0.479584
  13 O :   -0.299920
  14 C :   -0.149158
  15 C :   -0.435016
  16 O :   -0.288075
  17 C :   -0.156604
  18 C :   -0.439691
  19 H :    0.154501
  20 H :    0.154520
  21 H :    0.147741
  22 H :    0.153836
  23 H :    0.170684
  24 H :    0.174101
  25 H :    0.151261
  26 H :    0.147668
  27 H :    0.156273
  28 H :    0.168824
  29 H :    0.207437
  30 H :    0.218612
  31 H :    0.152729
  32 H :    0.150140
  33 H :    0.143526
  34 H :    0.153281
  35 H :    0.176733
  36 H :    0.144487
  37 H :    0.171436
  38 H :    0.182035
  39 H :    0.145127
  40 H :    0.144269
Sum of atomic charges:    0.0000000

LOEWDIN ATOMIC CHARGES
----------------------
   0 C :   -0.385434
   1 C :    0.020273
   2 O :   -0.664201
   3 P :    0.372003
   4 S :   -0.137492
   5 O :   -0.671548
   6 C :    0.020782
   7 C :   -0.399322
   8 S :    0.156446
   9 C :   -0.422472
  10 S :    0.189128
  11 P :    0.387000
  12 S :   -0.129083
  13 O :   -0.667003
  14 C :    0.028960
  15 C :   -0.400248
  16 O :   -0.668281
  17 C :    0.018665
  18 C :   -0.403030
  19 H :    0.159980
  20 H :    0.160329
  21 H :    0.160458
  22 H :    0.172855
  23 H :    0.180653
  24 H :    0.181495
  25 H :    0.180057
  26 H :    0.159781
  27 H :    0.160911
  28 H :    0.165517
  29 H :    0.192836
  30 H :    0.192408
  31 H :    0.174650
  32 H :    0.179875
  33 H :    0.157442
  34 H :    0.160107
  35 H :    0.167998
  36 H :    0.176955
  37 H :    0.181215
  38 H :    0.172789
  39 H :    0.157920
  40 H :    0.158625

  Mayer bond orders larger than 0.100000
B(  0-C ,  1-C ) :   0.9563 B(  0-C , 19-H ) :   0.9714 B(  0-C , 20-H ) :   0.9715
B(  0-C , 21-H ) :   0.9642 B(  1-C ,  2-O ) :   0.7799 B(  1-C , 22-H ) :   0.9456
B(  1-C , 23-H ) :   0.9512 B(  2-O ,  3-P ) :   1.0894 B(  3-P ,  4-S ) :   1.7360
B(  3-P ,  5-O ) :   1.1585 B(  3-P ,  8-S ) :   1.0705 B(  5-O ,  6-C ) :   0.7831
B(  6-C ,  7-C ) :   0.9242 B(  6-C , 24-H ) :   0.9630 B(  6-C , 25-H ) :   0.9622
B(  7-C , 26-H ) :   0.9621 B(  7-C , 27-H ) :   0.9718 B(  7-C , 28-H ) :   0.9595
B(  8-S ,  9-C ) :   0.9215 B(  9-C , 10-S ) :   0.9031 B(  9-C , 29-H ) :   0.9050
B(  9-C , 30-H ) :   0.9047 B( 10-S , 11-P ) :   1.0959 B( 11-P , 12-S ) :   1.7202
B( 11-P , 13-O ) :   1.1940 B( 11-P , 16-O ) :   1.0626 B( 13-O , 14-C ) :   0.7769
B( 14-C , 15-C ) :   0.9535 B( 14-C , 31-H ) :   0.9688 B( 14-C , 32-H ) :   0.9629
B( 15-C , 33-H ) :   0.9653 B( 15-C , 34-H ) :   0.9725 B( 15-C , 35-H ) :   0.9556
B( 16-O , 17-C ) :   0.7961 B( 17-C , 18-C ) :   0.9458 B( 17-C , 36-H ) :   0.9636
B( 17-C , 37-H ) :   0.9579 B( 18-C , 38-H ) :   0.9494 B( 18-C , 39-H ) :   0.9714
B( 18-C , 40-H ) :   0.9628

Dispersion correction           -0.020755423
FINAL SINGLE POINT ENERGY     -2932.465651023128

DIPOLE MOMENT
-------------

Method             : SCF
Type of density    : Electron Density
Multiplicity       :   1
Irrep              :   0
Energy             : -2932.4913694208944435 Eh
Relativity type    :
Basis              : AO
                                X                 Y                 Z
Electronic contribution:     -3.546136305      12.107057681      -2.423531157
Nuclear contribution   :      3.437711372     -13.195666258       2.778642339
                        -----------------------------------------
Total Dipole Moment    :     -0.108424933      -1.088608577       0.355111182
                        -----------------------------------------
Magnitude (a.u.)       :      1.150186312
Magnitude (Debye)      :      2.923541267

Rotational constants in cm-1:             0.014686             0.004058             0.003948
Rotational constants in MHz :           440.269235           121.653869           118.369407

                             ****ORCA TERMINATED NORMALLY****
TOTAL RUN TIME: 0 days 0 hours 1 minutes 19 seconds 795 msec
