                         Program Version 6.0.0  -   RELEASE  -
|  1> ! r2scan-3c def2/J RI DEFGRID2 scfconv6 printgap
|  2> %output
|  3>     printlevel normal
|  4> end
|  5> %cpcm
|  6>     smd true
|  7>     smdsolvent "water"
|  8> end
|  9> * xyz 0 1
| 10> C 5.4035399621 -1.8306626006 -1.950833392
| 11> C 4.3424822716 -0.7715341022 -1.7305494838
| 12> O 3.3886417368 -1.2903025395 -0.781025562
| 13> P 2.3843077676 -0.3335258045 -0.0102981481
| 14> S 3.2068488519 1.2367942779 0.8372280506
| 15> O 1.6372277364 -1.3436630686 0.9473191761
| 16> C 2.0549521803 -1.5542735076 2.3120602147
| 17> C 3.3872794112 -2.2696773991 2.3795704535
| 18> S 0.8863880576 0.0621439269 -1.4476681029
| 19> C 0.1634355443 1.4890170522 -0.5941116691
| 20> S -0.7292012535 1.0408747101 0.9226122874
| 21> P -2.6098834619 0.5913346695 0.0678418316
| 22> S -2.7604682631 0.6585170981 -1.890715165
| 23> O -3.4536969744 1.6294921195 0.9133228481
| 24> C -4.8933873541 1.7270368431 0.8151423838
| 25> C -5.2981256746 2.7470538474 -0.2310535651
| 26> O -3.1131359324 -0.7843736591 0.6955452445
| 27> C -2.9004218477 -2.0573918944 0.0649471773
| 28> C -1.5295007332 -2.6151985412 0.3885917057
| 29> H 5.9254225532 -2.038661176 -1.0212014244
| 30> H 4.9422082455 -2.7462814036 -2.3088029425
| 31> H 6.1147112756 -1.4733287057 -2.6882785746
| 32> H 3.8102725071 -0.5400117661 -2.6571819416
| 33> H 4.7722403124 0.1507095628 -1.3248338524
| 34> H 2.1067069628 -0.5822963502 2.8129130077
| 35> H 1.249946555 -2.1498864725 2.7437024283
| 36> H 3.6276776136 -2.4908308841 3.4147160441
| 37> H 3.3457458156 -3.193586534 1.8090303366
| 38> H 4.1666895292 -1.6328081919 1.9627638081
| 39> H -0.5197207313 1.9578895968 -1.3003660648
| 40> H 0.9627809488 2.1670450184 -0.2955345359
| 41> H -5.3061715792 0.7408784345 0.5886324294
| 42> H -5.2089574311 2.0353636021 1.8134189466
| 43> H -6.3785329998 2.8506124438 -0.2313574269
| 44> H -4.8443930832 3.7087102483 -0.0079477048
| 45> H -4.9717917869 2.4277731315 -1.218516237
| 46> H -3.692516538 -2.6917070659 0.4664137359
| 47> H -3.0307957226 -1.9397300466 -1.0163946359
| 48> H -0.7507230097 -1.9976629966 -0.0559533111
| 49> H -1.3819386778 -2.6403599955 1.4651966318
| 50> H -1.4464813096 -3.6208417698 -0.0105808555
| 51> *
| 52>
| 53>                          ****END OF INPUT****

CARTESIAN COORDINATES (ANGSTROEM)
---------------------------------
  C      5.403540   -1.830663   -1.950833
  C      4.342482   -0.771534   -1.730549
  O      3.388642   -1.290303   -0.781026
  P      2.384308   -0.333526   -0.010298
  S      3.206849    1.236794    0.837228
  O      1.637228   -1.343663    0.947319
  C      2.054952   -1.554274    2.312060
  C      3.387279   -2.269677    2.379570
  S      0.886388    0.062144   -1.447668
  C      0.163436    1.489017   -0.594112
  S     -0.729201    1.040875    0.922612
  P     -2.609883    0.591335    0.067842
  S     -2.760468    0.658517   -1.890715
  O     -3.453697    1.629492    0.913323
  C     -4.893387    1.727037    0.815142
  C     -5.298126    2.747054   -0.231054
  O     -3.113136   -0.784374    0.695545
  C     -2.900422   -2.057392    0.064947
  C     -1.529501   -2.615199    0.388592
  H      5.925423   -2.038661   -1.021201
  H      4.942208   -2.746281   -2.308803
  H      6.114711   -1.473329   -2.688279
  H      3.810273   -0.540012   -2.657182
  H      4.772240    0.150710   -1.324834
  H      2.106707   -0.582296    2.812913
  H      1.249947   -2.149886    2.743702
  H      3.627678   -2.490831    3.414716
  H      3.345746   -3.193587    1.809030
  H      4.166690   -1.632808    1.962764
  H     -0.519721    1.957890   -1.300366
  H      0.962781    2.167045   -0.295535
  H     -5.306172    0.740878    0.588632
  H     -5.208957    2.035364    1.813419
  H     -6.378533    2.850612   -0.231357
  H     -4.844393    3.708710   -0.007948
  H     -4.971792    2.427773   -1.218516
  H     -3.692517   -2.691707    0.466414
  H     -3.030796   -1.939730   -1.016395
  H     -0.750723   -1.997663   -0.055953
  H     -1.381939   -2.640360    1.465197
  H     -1.446481   -3.620842   -0.010581

 Total Charge           Charge          ....    0
 Multiplicity           Mult            ....    1
 Number of Electrons    NEL             ....  202
 Basis Dimension        Dim             ....  539

ORBITAL ENERGIES
----------------

  NO   OCC          E(Eh)            E(eV)
   0   2.0000     -88.581647     -2410.4292
   1   2.0000     -88.580499     -2410.3979
   2   2.0000     -88.530981     -2409.0505
   3   2.0000     -88.529784     -2409.0179
   4   2.0000     -76.920639     -2093.1170
   5   2.0000     -76.919722     -2093.0920
   6   2.0000     -18.997013      -516.9350
   7   2.0000     -18.995641      -516.8977
   8   2.0000     -18.994783      -516.8743
   9   2.0000     -18.993560      -516.8410
  10   2.0000     -10.105207      -274.9767
  11   2.0000     -10.090921      -274.5879
  12   2.0000     -10.090725      -274.5826
  13   2.0000     -10.090297      -274.5709
  14   2.0000     -10.087976      -274.5078
  15   2.0000     -10.019944      -272.6565
  16   2.0000     -10.019134      -272.6345
  17   2.0000     -10.016878      -272.5731
  18   2.0000     -10.016121      -272.5525
  19   2.0000      -7.875831      -214.3122
  20   2.0000      -7.874695      -214.2814
  21   2.0000      -7.826040      -212.9574
  22   2.0000      -7.824819      -212.9242
  23   2.0000      -6.599102      -179.5707
  24   2.0000      -6.598569      -179.5562
  25   2.0000      -5.822752      -158.4451
  26   2.0000      -5.821501      -158.4111
  27   2.0000      -5.819721      -158.3627
  28   2.0000      -5.818540      -158.3305
  29   2.0000      -5.812893      -158.1769
  30   2.0000      -5.811941      -158.1509
  31   2.0000      -5.773620      -157.1082
  32   2.0000      -5.772308      -157.0725
  33   2.0000      -5.766405      -156.9118
  34   2.0000      -5.765968      -156.9000
  35   2.0000      -5.765101      -156.8764
  36   2.0000      -5.764929      -156.8717
  37   2.0000      -4.744503      -129.1045
  38   2.0000      -4.743919      -129.0886
  39   2.0000      -4.743869      -129.0872
  40   2.0000      -4.743515      -129.0776
  41   2.0000      -4.743074      -129.0656
  42   2.0000      -4.742445      -129.0485
  43   2.0000      -1.055058       -28.7096
  44   2.0000      -1.053011       -28.6539
  45   2.0000      -1.015636       -27.6369
  46   2.0000      -1.011494       -27.5242
  47   2.0000      -0.804831       -21.9006
  48   2.0000      -0.758597       -20.6425
  49   2.0000      -0.744113       -20.2483
  50   2.0000      -0.725269       -19.7356
  51   2.0000      -0.722597       -19.6629
  52   2.0000      -0.710326       -19.3290
  53   2.0000      -0.689522       -18.7628
  54   2.0000      -0.676509       -18.4087
  55   2.0000      -0.632055       -17.1991
  56   2.0000      -0.621548       -16.9132
  57   2.0000      -0.601893       -16.3783
  58   2.0000      -0.593440       -16.1483
  59   2.0000      -0.588987       -16.0271
  60   2.0000      -0.527134       -14.3440
  61   2.0000      -0.521881       -14.2011
  62   2.0000      -0.496633       -13.5141
  63   2.0000      -0.487991       -13.2789
  64   2.0000      -0.479090       -13.0367
  65   2.0000      -0.461413       -12.5557
  66   2.0000      -0.450988       -12.2720
  67   2.0000      -0.449005       -12.2180
  68   2.0000      -0.445268       -12.1164
  69   2.0000      -0.431691       -11.7469
  70   2.0000      -0.420514       -11.4428
  71   2.0000      -0.414461       -11.2781
  72   2.0000      -0.409209       -11.1351
  73   2.0000      -0.398956       -10.8561
  74   2.0000      -0.390496       -10.6259
  75   2.0000      -0.387506       -10.5446
  76   2.0000      -0.383722       -10.4416
  77   2.0000      -0.366860        -9.9828
  78   2.0000      -0.364310        -9.9134
  79   2.0000      -0.362891        -9.8748
  80   2.0000      -0.355960        -9.6862
  81   2.0000      -0.353123        -9.6090
  82   2.0000      -0.350014        -9.5244
  83   2.0000      -0.347429        -9.4540
  84   2.0000      -0.343074        -9.3355
  85   2.0000      -0.329981        -8.9792
  86   2.0000      -0.321364        -8.7447
  87   2.0000      -0.314055        -8.5459
  88   2.0000      -0.306552        -8.3417
  89   2.0000      -0.304375        -8.2825
  90   2.0000      -0.298531        -8.1234
  91   2.0000      -0.291641        -7.9360
  92   2.0000      -0.290065        -7.8931
  93   2.0000      -0.281813        -7.6685
  94   2.0000      -0.276138        -7.5141
  95   2.0000      -0.250088        -6.8052
  96   2.0000      -0.238568        -6.4918
  97   2.0000      -0.236470        -6.4347
  98   2.0000      -0.227421        -6.1884
  99   2.0000      -0.225640        -6.1400
 100   2.0000      -0.222470        -6.0537
 101   0.0000      -0.052237        -1.4214
 102   0.0000      -0.035940        -0.9780
 103   0.0000      -0.009417        -0.2563
 104   0.0000      -0.004266        -0.1161
 105   0.0000       0.013156         0.3580

MULLIKEN ATOMIC CHARGES
-----------------------
   0 C :   -0.482452
   1 C :   -0.147622
   2 O :   -0.311090
   3 P :    0.727877
   4 S :   -0.533520
   5 O :   -0.301365
   6 C :   -0.143788
   7 C :   -0.484236
   8 S :   -0.142454
   9 C :   -0.250970
  10 S :   -0.128405
  11 P :    0.727606
  12 S :   -0.514959
  13 O :   -0.333858
  14 C :   -0.143310
  15 C :   -0.477126
  16 O :   -0.311024
  17 C :   -0.147307
  18 C :   -0.483697
  19 H :    0.166376
  20 H :    0.166258
  21 H :    0.169968
  22 H :    0.171986
  23 H :    0.172606
  24 H :    0.177296
  25 H :    0.179938
  26 H :    0.173018
  27 H :    0.170841
  28 H :    0.168178
  29 H :    0.226421
  30 H :    0.236275
  31 H :    0.171779
  32 H :    0.174970
  33 H :    0.169528
  34 H :    0.166027
  35 H :    0.168876
  36 H :    0.173188
  37 H :    0.172447
  38 H :    0.166839
  39 H :    0.168313
  40 H :    0.170573
Sum of atomic charges:    0.0000000

LOEWDIN ATOMIC CHARGES
----------------------
   0 C :   -0.388836
   1 C :    0.025239
   2 O :   -0.675626
   3 P :    0.376180
   4 S :   -0.164465
   5 O :   -0.684660
   6 C :    0.025179
   7 C :   -0.402068
   8 S :    0.148295
   9 C :   -0.417002
  10 S :    0.174733
  11 P :    0.390930
  12 S :   -0.151450
  13 O :   -0.684496
  14 C :    0.034290
  15 C :   -0.404566
  16 O :   -0.676667
  17 C :    0.024604
  18 C :   -0.407656
  19 H :    0.162796
  20 H :    0.163507
  21 H :    0.169199
  22 H :    0.180127
  23 H :    0.181874
  24 H :    0.182514
  25 H :    0.191495
  26 H :    0.169326
  27 H :    0.164591
  28 H :    0.162900
  29 H :    0.199074
  30 H :    0.197400
  31 H :    0.182230
  32 H :    0.190530
  33 H :    0.167596
  34 H :    0.162606
  35 H :    0.162457
  36 H :    0.189254
  37 H :    0.181779
  38 H :    0.164851
  39 H :    0.163761
  40 H :    0.168178

  Mayer bond orders larger than 0.100000
B(  0-C ,  1-C ) :   0.9522 B(  0-C , 19-H ) :   0.9690 B(  0-C , 20-H ) :   0.9689
B(  0-C , 21-H ) :   0.9582 B(  1-C ,  2-O ) :   0.7724 B(  1-C , 22-H ) :   0.9369
B(  1-C , 23-H ) :   0.9477 B(  2-O ,  3-P ) :   1.0981 B(  3-P ,  4-S ) :   1.6998
B(  3-P ,  5-O ) :   1.1661 B(  3-P ,  8-S ) :   1.0817 B(  5-O ,  6-C ) :   0.7706
B(  6-C ,  7-C ) :   0.9134 B(  6-C , 24-H ) :   0.9585 B(  6-C , 25-H ) :   0.9515
B(  7-C , 26-H ) :   0.9560 B(  7-C , 27-H ) :   0.9707 B(  7-C , 28-H ) :   0.9587
B(  8-S ,  9-C ) :   0.9149 B(  9-C , 10-S ) :   0.8956 B(  9-C , 29-H ) :   0.9001
B(  9-C , 30-H ) :   0.9006 B( 10-S , 11-P ) :   1.0959 B( 11-P , 12-S ) :   1.6980
B( 11-P , 13-O ) :   1.1961 B( 11-P , 16-O ) :   1.0709 B( 13-O , 14-C ) :   0.7665
B( 14-C , 15-C ) :   0.9404 B( 14-C , 31-H ) :   0.9599 B( 14-C , 32-H ) :   0.9527
B( 15-C , 33-H ) :   0.9594 B( 15-C , 34-H ) :   0.9713 B( 15-C , 35-H ) :   0.9603
B( 16-O , 17-C ) :   0.7851 B( 17-C , 18-C ) :   0.9329 B( 17-C , 36-H ) :   0.9542
B( 17-C , 37-H ) :   0.9559 B( 18-C , 38-H ) :   0.9545 B( 18-C , 39-H ) :   0.9684
B( 18-C , 40-H ) :   0.9566

Dispersion correction           -0.020755423
FINAL SINGLE POINT ENERGY     -2932.472942239583

DIPOLE MOMENT
-------------

Method             : SCF
Type of density    : Electron Density
Multiplicity       :   1
Irrep              :   0
Energy             : -2932.4986606373495306 Eh
Relativity type    :
Basis              : AO
                                X                 Y                 Z
Electronic contribution:     -3.699275953      11.766555409      -2.320408953
Nuclear contribution   :      3.437711372     -13.195666258       2.778642339
                        -----------------------------------------
Total Dipole Moment    :     -0.261564581      -1.429110849       0.458233387
                        -----------------------------------------
Magnitude (a.u.)       :      1.523401354
Magnitude (Debye)      :      3.872178515

Rotational constants in cm-1:             0.014686             0.004058             0.003948
Rotational constants in MHz :           440.269235           121.653869           118.369407

                             ****ORCA TERMINATED NORMALLY****
TOTAL RUN TIME: 0 days 0 hours 1 minutes 43 seconds 703 msec
