                         Program Version 6.0.0  -   RELEASE  -
|  1> ! pbe def2-sv(p) def2/J RI DEFGRID1 loosescf d4 GCP(DFT/SV(P)) printgap
|  2> %output
|  3>     printlevel normal
|  4> end
|  5> * xyz 0 1
|  6> C 2.9702684445 0.5618035303 -2.6948094657
|  7> C 3.7900771764 0.761548683 -1.4361216151
|  8> O 3.4877069545 -0.2267535388 -0.4400807692
|  9> P 2.1067030447 -0.2502186204 0.3495062643
| 10> S 1.4914969667 1.5408505355 0.8746000207
| 11> O 2.3969704837 -1.2389459341 1.5509346083
| 12> C 2.865230733 -0.7725592147 2.8343363296
| 13> C 4.3003073148 -0.2953443253 2.7648679667
| 14> S 0.9543505361 -1.5724584878 -0.8336796886
| 15> C -0.3197519506 -2.0567044815 0.3717272802
| 16> S -1.2038865429 -0.672967122 1.1421587917
| 17> P -2.0425209171 0.2283309016 -0.6110323687
| 18> S -0.909118133 1.1647987386 -1.8985562079
| 19> O -3.2061388653 1.1179731149 0.0073879835
| 20> C -3.0084793159 2.4784295357 0.4263430787
| 21> C -2.2129590413 2.5654594125 1.7126677118
| 22> O -2.8107201487 -0.9642446426 -1.2980843711
| 23> C -3.8720545406 -1.7243175446 -0.6645357689
| 24> C -5.229060714 -1.1630221699 -1.0363808625
| 25> H 3.3028036017 1.2566197611 -3.459156713
| 26> H 3.0779283993 -0.4570153921 -3.0590661825
| 27> H 1.9147741769 0.7499861808 -2.491893297
| 28> H 3.6045128623 1.7542213955 -1.0116605724
| 29> H 4.8564600692 0.6294577004 -1.6241730046
| 30> H 2.2047819734 0.0325471359 3.1721211038
| 31> H 2.7579992152 -1.6422937819 3.48364406
| 32> H 4.6484505568 -0.0528966851 3.7639554309
| 33> H 4.9330059813 -1.0681045923 2.3362867547
| 34> H 4.3633377465 0.5957992703 2.141773414
| 35> H 0.1429500865 -2.6066126114 1.1881755943
| 36> H -1.0149170316 -2.6853770613 -0.1808812535
| 37> H -2.5029863232 3.0215669042 -0.3787385459
| 38> H -4.0217187634 2.8624032854 0.5545125615
| 39> H -2.6490721844 1.9213767726 2.472099541
| 40> H -1.1809656374 2.2598627507 1.5413984425
| 41> H -2.2119923437 3.591491998 2.0659158296
| 42> H -3.7468464294 -2.7379917021 -1.0502964403
| 43> H -3.723640926 -1.7119368197 0.4185352927
| 44> H -5.3432852126 -0.1576429508 -0.6406660128
| 45> H -5.3328739736 -1.1276459622 -2.1174195237
| 46> H -6.0026403452 -1.8020652532 -0.6220157623
| 47> *
| 48>
| 49>                          ****END OF INPUT****

CARTESIAN COORDINATES (ANGSTROEM)
---------------------------------
  C      2.970268    0.561804   -2.694809
  C      3.790077    0.761549   -1.436122
  O      3.487707   -0.226754   -0.440081
  P      2.106703   -0.250219    0.349506
  S      1.491497    1.540851    0.874600
  O      2.396970   -1.238946    1.550935
  C      2.865231   -0.772559    2.834336
  C      4.300307   -0.295344    2.764868
  S      0.954351   -1.572458   -0.833680
  C     -0.319752   -2.056704    0.371727
  S     -1.203887   -0.672967    1.142159
  P     -2.042521    0.228331   -0.611032
  S     -0.909118    1.164799   -1.898556
  O     -3.206139    1.117973    0.007388
  C     -3.008479    2.478430    0.426343
  C     -2.212959    2.565459    1.712668
  O     -2.810720   -0.964245   -1.298084
  C     -3.872055   -1.724318   -0.664536
  C     -5.229061   -1.163022   -1.036381
  H      3.302804    1.256620   -3.459157
  H      3.077928   -0.457015   -3.059066
  H      1.914774    0.749986   -2.491893
  H      3.604513    1.754221   -1.011661
  H      4.856460    0.629458   -1.624173
  H      2.204782    0.032547    3.172121
  H      2.757999   -1.642294    3.483644
  H      4.648451   -0.052897    3.763955
  H      4.933006   -1.068105    2.336287
  H      4.363338    0.595799    2.141773
  H      0.142950   -2.606613    1.188176
  H     -1.014917   -2.685377   -0.180881
  H     -2.502986    3.021567   -0.378739
  H     -4.021719    2.862403    0.554513
  H     -2.649072    1.921377    2.472100
  H     -1.180966    2.259863    1.541398
  H     -2.211992    3.591492    2.065916
  H     -3.746846   -2.737992   -1.050296
  H     -3.723641   -1.711937    0.418535
  H     -5.343285   -0.157643   -0.640666
  H     -5.332874   -1.127646   -2.117420
  H     -6.002640   -1.802065   -0.622016

 Total Charge           Charge          ....    0
 Multiplicity           Mult            ....    1
 Number of Electrons    NEL             ....  202
 Basis Dimension        Dim             ....  334

ORBITAL ENERGIES
----------------

  NO   OCC          E(Eh)            E(eV)
   0   2.0000     -88.039555     -2395.6781
   1   2.0000     -88.035382     -2395.5645
   2   2.0000     -87.979765     -2394.0511
   3   2.0000     -87.975365     -2393.9314
   4   2.0000     -76.422053     -2079.5498
   5   2.0000     -76.421358     -2079.5309
   6   2.0000     -18.791991      -511.3561
   7   2.0000     -18.791231      -511.3354
   8   2.0000     -18.789190      -511.2799
   9   2.0000     -18.786954      -511.2190
  10   2.0000      -9.959087      -271.0005
  11   2.0000      -9.957043      -270.9449
  12   2.0000      -9.949489      -270.7394
  13   2.0000      -9.948484      -270.7120
  14   2.0000      -9.945021      -270.6178
  15   2.0000      -9.886353      -269.0214
  16   2.0000      -9.881772      -268.8967
  17   2.0000      -9.877687      -268.7855
  18   2.0000      -9.874725      -268.7049
  19   2.0000      -7.683997      -209.0922
  20   2.0000      -7.680606      -208.9999
  21   2.0000      -7.624341      -207.4689
  22   2.0000      -7.620349      -207.3602
  23   2.0000      -6.419378      -174.6802
  24   2.0000      -6.418805      -174.6646
  25   2.0000      -5.711891      -155.4285
  26   2.0000      -5.708754      -155.3431
  27   2.0000      -5.708533      -155.3371
  28   2.0000      -5.705232      -155.2473
  29   2.0000      -5.700988      -155.1318
  30   2.0000      -5.697122      -155.0266
  31   2.0000      -5.653164      -153.8304
  32   2.0000      -5.649434      -153.7289
  33   2.0000      -5.644898      -153.6055
  34   2.0000      -5.644703      -153.6002
  35   2.0000      -5.640860      -153.4956
  36   2.0000      -5.640433      -153.4840
  37   2.0000      -4.642555      -126.3303
  38   2.0000      -4.641432      -126.2998
  39   2.0000      -4.641149      -126.2921
  40   2.0000      -4.640617      -126.2776
  41   2.0000      -4.639281      -126.2413
  42   2.0000      -4.639172      -126.2383
  43   2.0000      -0.986696       -26.8494
  44   2.0000      -0.982901       -26.7461
  45   2.0000      -0.944989       -25.7144
  46   2.0000      -0.943453       -25.6727
  47   2.0000      -0.759939       -20.6790
  48   2.0000      -0.716815       -19.5055
  49   2.0000      -0.706408       -19.2223
  50   2.0000      -0.687686       -18.7129
  51   2.0000      -0.681931       -18.5563
  52   2.0000      -0.666966       -18.1491
  53   2.0000      -0.648905       -17.6576
  54   2.0000      -0.633881       -17.2488
  55   2.0000      -0.595236       -16.1972
  56   2.0000      -0.586416       -15.9572
  57   2.0000      -0.575487       -15.6598
  58   2.0000      -0.568415       -15.4674
  59   2.0000      -0.559277       -15.2187
  60   2.0000      -0.500857       -13.6290
  61   2.0000      -0.489481       -13.3195
  62   2.0000      -0.474329       -12.9071
  63   2.0000      -0.469629       -12.7792
  64   2.0000      -0.456737       -12.4284
  65   2.0000      -0.446415       -12.1476
  66   2.0000      -0.434812       -11.8318
  67   2.0000      -0.431995       -11.7552
  68   2.0000      -0.425969       -11.5912
  69   2.0000      -0.412122       -11.2144
  70   2.0000      -0.409857       -11.1528
  71   2.0000      -0.392480       -10.6799
  72   2.0000      -0.390423       -10.6239
  73   2.0000      -0.385565       -10.4918
  74   2.0000      -0.377628       -10.2758
  75   2.0000      -0.371280       -10.1030
  76   2.0000      -0.361479        -9.8363
  77   2.0000      -0.359360        -9.7787
  78   2.0000      -0.351348        -9.5607
  79   2.0000      -0.350206        -9.5296
  80   2.0000      -0.347816        -9.4646
  81   2.0000      -0.343398        -9.3443
  82   2.0000      -0.341298        -9.2872
  83   2.0000      -0.335694        -9.1347
  84   2.0000      -0.327210        -8.9038
  85   2.0000      -0.315519        -8.5857
  86   2.0000      -0.308154        -8.3853
  87   2.0000      -0.296552        -8.0696
  88   2.0000      -0.289718        -7.8836
  89   2.0000      -0.288051        -7.8383
  90   2.0000      -0.279053        -7.5934
  91   2.0000      -0.272326        -7.4104
  92   2.0000      -0.266428        -7.2499
  93   2.0000      -0.257429        -7.0050
  94   2.0000      -0.256822        -6.9885
  95   2.0000      -0.246370        -6.7041
  96   2.0000      -0.218970        -5.9585
  97   2.0000      -0.206246        -5.6122
  98   2.0000      -0.188393        -5.1264
  99   2.0000      -0.183217        -4.9856
 100   2.0000      -0.180796        -4.9197
 101   0.0000      -0.048091        -1.3086
 102   0.0000      -0.023874        -0.6496
 103   0.0000      -0.005897        -0.1605
 104   0.0000      -0.003002        -0.0817
 105   0.0000       0.022667         0.6168

MULLIKEN ATOMIC CHARGES
-----------------------
   0 C :   -0.343585
   1 C :   -0.003216
   2 O :   -0.371719
   3 P :    0.620506
   4 S :   -0.309170
   5 O :   -0.375428
   6 C :   -0.005216
   7 C :   -0.304073
   8 S :   -0.082880
   9 C :   -0.335638
  10 S :   -0.111451
  11 P :    0.606467
  12 S :   -0.283794
  13 O :   -0.382562
  14 C :    0.000970
  15 C :   -0.346219
  16 O :   -0.363867
  17 C :   -0.023442
  18 C :   -0.283587
  19 H :    0.112078
  20 H :    0.117136
  21 H :    0.159475
  22 H :    0.109756
  23 H :    0.101961
  24 H :    0.111067
  25 H :    0.100350
  26 H :    0.110595
  27 H :    0.117092
  28 H :    0.123156
  29 H :    0.187517
  30 H :    0.183893
  31 H :    0.112751
  32 H :    0.101158
  33 H :    0.112755
  34 H :    0.161972
  35 H :    0.112805
  36 H :    0.106879
  37 H :    0.102261
  38 H :    0.124673
  39 H :    0.120669
  40 H :    0.107900
Sum of atomic charges:   -0.0000000

LOEWDIN ATOMIC CHARGES
----------------------
   0 C :   -0.373841
   1 C :   -0.121631
   2 O :   -0.243316
   3 P :    0.570978
   4 S :   -0.303519
   5 O :   -0.244577
   6 C :   -0.119613
   7 C :   -0.363848
   8 S :    0.093179
   9 C :   -0.474111
  10 S :    0.071709
  11 P :    0.566386
  12 S :   -0.291266
  13 O :   -0.247205
  14 C :   -0.118013
  15 C :   -0.375646
  16 O :   -0.239788
  17 C :   -0.118899
  18 C :   -0.357850
  19 H :    0.131597
  20 H :    0.123966
  21 H :    0.124447
  22 H :    0.108921
  23 H :    0.116913
  24 H :    0.110183
  25 H :    0.116020
  26 H :    0.129687
  27 H :    0.126748
  28 H :    0.123723
  29 H :    0.134516
  30 H :    0.130866
  31 H :    0.112319
  32 H :    0.116193
  33 H :    0.122136
  34 H :    0.123268
  35 H :    0.132128
  36 H :    0.117371
  37 H :    0.104028
  38 H :    0.127574
  39 H :    0.129282
  40 H :    0.128982

  Mayer bond orders larger than 0.100000
B(  0-C ,  1-C ) :   1.1647 B(  0-C , 19-H ) :   0.9379 B(  0-C , 20-H ) :   0.9440
B(  0-C , 21-H ) :   0.9226 B(  1-C ,  2-O ) :   0.9079 B(  1-C , 22-H ) :   0.9117
B(  1-C , 23-H ) :   0.9327 B(  2-O ,  3-P ) :   1.1055 B(  3-P ,  4-S ) :   1.6145
B(  3-P ,  5-O ) :   1.1079 B(  3-P ,  8-S ) :   0.9621 B(  4-S ,  8-S ) :   0.1155
B(  5-O ,  6-C ) :   0.9053 B(  6-C ,  7-C ) :   1.1662 B(  6-C , 24-H ) :   0.9128
B(  6-C , 25-H ) :   0.9342 B(  7-C , 26-H ) :   0.9393 B(  7-C , 27-H ) :   0.9463
B(  7-C , 28-H ) :   0.9367 B(  8-S ,  9-C ) :   1.0014 B(  9-C , 10-S ) :   0.9980
B(  9-C , 29-H ) :   0.9042 B(  9-C , 30-H ) :   0.9052 B( 10-S , 11-P ) :   0.9385
B( 10-S , 12-S ) :   0.1137 B( 11-P , 12-S ) :   1.6906 B( 11-P , 13-O ) :   1.0774
B( 11-P , 16-O ) :   1.1171 B( 13-O , 14-C ) :   0.9058 B( 14-C , 15-C ) :   1.1657
B( 14-C , 31-H ) :   0.9123 B( 14-C , 32-H ) :   0.9333 B( 15-C , 33-H ) :   0.9438
B( 15-C , 34-H ) :   0.9198 B( 15-C , 35-H ) :   0.9376 B( 16-O , 17-C ) :   0.8939
B( 17-C , 18-C ) :   1.1694 B( 17-C , 36-H ) :   0.9332 B( 17-C , 37-H ) :   0.9069
B( 18-C , 38-H ) :   0.9416 B( 18-C , 39-H ) :   0.9472 B( 18-C , 40-H ) :   0.9394

Dispersion correction           -0.067738253
FINAL SINGLE POINT ENERGY     -2929.513446877147

DIPOLE MOMENT
-------------

Method             : SCF
Type of density    : Electron Density
Multiplicity       :   1
Irrep              :   0
Energy             : -2929.6304225793010119 Eh
Relativity type    :
Basis              : AO
                                X                 Y                 Z
Electronic contribution:      1.449890870      -3.204103437      -5.429096549
Nuclear contribution   :     -1.873920672       2.450209085       6.352138430
                        -----------------------------------------
Total Dipole Moment    :     -0.424029802      -0.753894352       0.923041880
                        -----------------------------------------
Magnitude (a.u.)       :      1.264975999
Magnitude (Debye)      :      3.215313465

Rotational constants in cm-1:             0.012770             0.005146             0.005047
Rotational constants in MHz :           382.845323           154.278866           151.312533

                             ****ORCA TERMINATED NORMALLY****
TOTAL RUN TIME: 0 days 0 hours 0 minutes 21 seconds 465 msec
