                         Program Version 6.0.0  -   RELEASE  -
|  1> ! pbe def2-sv(p) def2/J RI DEFGRID1 loosescf d4 GCP(DFT/SV(P)) printgap
|  2> %output
|  3>     printlevel normal
|  4> end
|  5> * xyz 0 1
|  6> C 5.7055738084 1.4295920102 -0.2551242702
|  7> C 4.4657644282 0.8208763346 -0.8774255932
|  8> O 3.4902590147 0.6396500747 0.1716465931
|  9> P 1.9748176033 0.3316792677 -0.171377205
| 10> S 1.0933540446 1.5993192081 -1.3792957081
| 11> O 1.2882608101 0.3233267465 1.2458138297
| 12> C 1.8850358042 -0.1295190981 2.4904478244
| 13> C 2.3063639768 -1.5824768323 2.4527530939
| 14> S 2.0361369534 -1.6490190257 -0.9518142779
| 15> C 0.2781385859 -1.7949138805 -1.3176068104
| 16> S -0.7342867125 -1.9537624192 0.19589008
| 17> P -2.108400592 -0.3853726718 -0.0490019856
| 18> S -2.3569663551 0.2900601483 -1.8766119998
| 19> O -1.7812935751 0.7280421351 1.0449337172
| 20> C -1.5409689093 2.1173535829 0.778480129
| 21> C -2.6527915873 2.9507640635 1.3838026434
| 22> O -3.2977816764 -1.187639031 0.6330521925
| 23> C -4.4793555308 -0.5645028637 1.173741554
| 24> C -5.4121587289 -0.0706946678 0.0857678023
| 25> H 5.467364922 2.3923892805 0.1881560046
| 26> H 6.0966969646 0.7719834956 0.5154598665
| 27> H 6.4574089281 1.5671742935 -1.0251190993
| 28> H 4.6751464879 -0.1568343768 -1.3188317581
| 29> H 4.0351653171 1.4742868879 -1.642993686
| 30> H 2.7332266758 0.5212010856 2.7090158599
| 31> H 1.086796218 0.0357757434 3.2161333918
| 32> H 3.1232187984 -1.7251794058 1.7489011533
| 33> H 2.6394051726 -1.8742249563 3.4440452876
| 34> H 1.4711503261 -2.2139487412 2.1571586709
| 35> H 0.1607724092 -2.7042925606 -1.9010578263
| 36> H -0.0626711321 -0.9201111953 -1.8804401148
| 37> H -0.5714321619 2.3502190174 1.2241247097
| 38> H -1.4777059472 2.2715167262 -0.3042343636
| 39> H -3.5980373663 2.7284893841 0.8934568724
| 40> H -2.7415881918 2.7416291445 2.4463939809
| 41> H -2.4208701206 4.001379979 1.2425218038
| 42> H -4.9409357739 -1.3593142076 1.762381735
| 43> H -4.1741716394 0.2528014974 1.8325316478
| 44> H -6.3124849126 0.3333056145 0.5380219298
| 45> H -4.929376018 0.7063104471 -0.5053304587
| 46> H -5.6782535893 -0.8876857004 -0.579982755
| 47> *
| 48>
| 49>                          ****END OF INPUT****

CARTESIAN COORDINATES (ANGSTROEM)
---------------------------------
  C      5.705574    1.429592   -0.255124
  C      4.465764    0.820876   -0.877426
  O      3.490259    0.639650    0.171647
  P      1.974818    0.331679   -0.171377
  S      1.093354    1.599319   -1.379296
  O      1.288261    0.323327    1.245814
  C      1.885036   -0.129519    2.490448
  C      2.306364   -1.582477    2.452753
  S      2.036137   -1.649019   -0.951814
  C      0.278139   -1.794914   -1.317607
  S     -0.734287   -1.953762    0.195890
  P     -2.108401   -0.385373   -0.049002
  S     -2.356966    0.290060   -1.876612
  O     -1.781294    0.728042    1.044934
  C     -1.540969    2.117354    0.778480
  C     -2.652792    2.950764    1.383803
  O     -3.297782   -1.187639    0.633052
  C     -4.479356   -0.564503    1.173742
  C     -5.412159   -0.070695    0.085768
  H      5.467365    2.392389    0.188156
  H      6.096697    0.771983    0.515460
  H      6.457409    1.567174   -1.025119
  H      4.675146   -0.156834   -1.318832
  H      4.035165    1.474287   -1.642994
  H      2.733227    0.521201    2.709016
  H      1.086796    0.035776    3.216133
  H      3.123219   -1.725179    1.748901
  H      2.639405   -1.874225    3.444045
  H      1.471150   -2.213949    2.157159
  H      0.160772   -2.704293   -1.901058
  H     -0.062671   -0.920111   -1.880440
  H     -0.571432    2.350219    1.224125
  H     -1.477706    2.271517   -0.304234
  H     -3.598037    2.728489    0.893457
  H     -2.741588    2.741629    2.446394
  H     -2.420870    4.001380    1.242522
  H     -4.940936   -1.359314    1.762382
  H     -4.174172    0.252801    1.832532
  H     -6.312485    0.333306    0.538022
  H     -4.929376    0.706310   -0.505330
  H     -5.678254   -0.887686   -0.579983

 Total Charge           Charge          ....    0
 Multiplicity           Mult            ....    1
 Number of Electrons    NEL             ....  202
 Basis Dimension        Dim             ....  334

ORBITAL ENERGIES
----------------

  NO   OCC          E(Eh)            E(eV)
   0   2.0000     -88.041164     -2395.7219
   1   2.0000     -88.035213     -2395.5599
   2   2.0000     -87.979525     -2394.0446
   3   2.0000     -87.979203     -2394.0358
   4   2.0000     -76.426517     -2079.6713
   5   2.0000     -76.419527     -2079.4810
   6   2.0000     -18.800985      -511.6008
   7   2.0000     -18.793534      -511.3981
   8   2.0000     -18.785172      -511.1705
   9   2.0000     -18.783052      -511.1128
  10   2.0000      -9.959112      -271.0012
  11   2.0000      -9.957877      -270.9676
  12   2.0000      -9.951557      -270.7956
  13   2.0000      -9.950187      -270.7583
  14   2.0000      -9.934954      -270.3439
  15   2.0000      -9.893680      -269.2207
  16   2.0000      -9.885861      -269.0080
  17   2.0000      -9.880135      -268.8521
  18   2.0000      -9.879896      -268.8456
  19   2.0000      -7.686391      -209.1573
  20   2.0000      -7.680598      -208.9997
  21   2.0000      -7.624419      -207.4710
  22   2.0000      -7.624271      -207.4670
  23   2.0000      -6.423881      -174.8027
  24   2.0000      -6.417072      -174.6174
  25   2.0000      -5.714189      -155.4910
  26   2.0000      -5.710913      -155.4018
  27   2.0000      -5.708589      -155.3386
  28   2.0000      -5.705112      -155.2440
  29   2.0000      -5.703420      -155.1980
  30   2.0000      -5.697331      -155.0323
  31   2.0000      -5.653301      -153.8341
  32   2.0000      -5.653177      -153.8308
  33   2.0000      -5.645351      -153.6178
  34   2.0000      -5.645083      -153.6105
  35   2.0000      -5.644295      -153.5891
  36   2.0000      -5.644198      -153.5864
  37   2.0000      -4.647040      -126.4524
  38   2.0000      -4.645560      -126.4121
  39   2.0000      -4.643852      -126.3656
  40   2.0000      -4.639745      -126.2539
  41   2.0000      -4.638409      -126.2175
  42   2.0000      -4.637876      -126.2030
  43   2.0000      -0.992853       -27.0169
  44   2.0000      -0.978792       -26.6343
  45   2.0000      -0.948699       -25.8154
  46   2.0000      -0.935171       -25.4473
  47   2.0000      -0.759720       -20.6730
  48   2.0000      -0.722864       -19.6701
  49   2.0000      -0.709833       -19.3155
  50   2.0000      -0.696236       -18.9455
  51   2.0000      -0.681379       -18.5413
  52   2.0000      -0.671298       -18.2670
  53   2.0000      -0.647771       -17.6268
  54   2.0000      -0.629401       -17.1269
  55   2.0000      -0.595374       -16.2010
  56   2.0000      -0.588115       -16.0034
  57   2.0000      -0.576897       -15.6982
  58   2.0000      -0.568888       -15.4802
  59   2.0000      -0.556976       -15.1561
  60   2.0000      -0.510550       -13.8928
  61   2.0000      -0.491530       -13.3752
  62   2.0000      -0.475978       -12.9520
  63   2.0000      -0.469446       -12.7743
  64   2.0000      -0.451042       -12.2735
  65   2.0000      -0.449261       -12.2250
  66   2.0000      -0.445680       -12.1276
  67   2.0000      -0.432872       -11.7790
  68   2.0000      -0.424330       -11.5466
  69   2.0000      -0.412615       -11.2278
  70   2.0000      -0.404962       -11.0196
  71   2.0000      -0.403409       -10.9773
  72   2.0000      -0.391395       -10.6504
  73   2.0000      -0.381103       -10.3703
  74   2.0000      -0.378427       -10.2975
  75   2.0000      -0.369510       -10.0549
  76   2.0000      -0.368333       -10.0228
  77   2.0000      -0.357008        -9.7147
  78   2.0000      -0.351236        -9.5576
  79   2.0000      -0.347453        -9.4547
  80   2.0000      -0.344510        -9.3746
  81   2.0000      -0.343740        -9.3536
  82   2.0000      -0.339685        -9.2433
  83   2.0000      -0.334590        -9.1047
  84   2.0000      -0.333563        -9.0767
  85   2.0000      -0.323299        -8.7974
  86   2.0000      -0.309950        -8.4342
  87   2.0000      -0.305736        -8.3195
  88   2.0000      -0.295927        -8.0526
  89   2.0000      -0.286721        -7.8021
  90   2.0000      -0.281764        -7.6672
  91   2.0000      -0.277271        -7.5449
  92   2.0000      -0.268817        -7.3149
  93   2.0000      -0.260578        -7.0907
  94   2.0000      -0.255179        -6.9438
  95   2.0000      -0.231656        -6.3037
  96   2.0000      -0.215417        -5.8618
  97   2.0000      -0.213026        -5.7967
  98   2.0000      -0.197443        -5.3727
  99   2.0000      -0.188506        -5.1295
 100   2.0000      -0.184191        -5.0121
 101   0.0000      -0.040194        -1.0937
 102   0.0000      -0.027517        -0.7488
 103   0.0000      -0.006785        -0.1846
 104   0.0000       0.012073         0.3285
 105   0.0000       0.019814         0.5392

MULLIKEN ATOMIC CHARGES
-----------------------
   0 C :   -0.280379
   1 C :   -0.014258
   2 O :   -0.386440
   3 P :    0.599438
   4 S :   -0.305334
   5 O :   -0.353945
   6 C :    0.010978
   7 C :   -0.324918
   8 S :   -0.112873
   9 C :   -0.363091
  10 S :   -0.094681
  11 P :    0.639550
  12 S :   -0.316643
  13 O :   -0.380665
  14 C :   -0.024318
  15 C :   -0.291409
  16 O :   -0.378098
  17 C :   -0.015607
  18 C :   -0.314147
  19 H :    0.122068
  20 H :    0.114905
  21 H :    0.115503
  22 H :    0.108204
  23 H :    0.110297
  24 H :    0.108295
  25 H :    0.109888
  26 H :    0.120063
  27 H :    0.111442
  28 H :    0.135812
  29 H :    0.184924
  30 H :    0.216080
  31 H :    0.104646
  32 H :    0.132586
  33 H :    0.112500
  34 H :    0.109831
  35 H :    0.112525
  36 H :    0.106325
  37 H :    0.107833
  38 H :    0.106883
  39 H :    0.135056
  40 H :    0.121174
Sum of atomic charges:   -0.0000000

LOEWDIN ATOMIC CHARGES
----------------------
   0 C :   -0.350170
   1 C :   -0.118749
   2 O :   -0.250304
   3 P :    0.563032
   4 S :   -0.295695
   5 O :   -0.230825
   6 C :   -0.105319
   7 C :   -0.372671
   8 S :    0.067091
   9 C :   -0.479845
  10 S :    0.086646
  11 P :    0.566003
  12 S :   -0.299541
  13 O :   -0.243650
  14 C :   -0.127716
  15 C :   -0.358475
  16 O :   -0.249181
  17 C :   -0.114589
  18 C :   -0.366919
  19 H :    0.129757
  20 H :    0.125973
  21 H :    0.132848
  22 H :    0.110416
  23 H :    0.112443
  24 H :    0.114140
  25 H :    0.122825
  26 H :    0.116739
  27 H :    0.130559
  28 H :    0.123583
  29 H :    0.137899
  30 H :    0.125561
  31 H :    0.111108
  32 H :    0.106177
  33 H :    0.120860
  34 H :    0.120848
  35 H :    0.131219
  36 H :    0.119821
  37 H :    0.109196
  38 H :    0.127763
  39 H :    0.121085
  40 H :    0.130059

  Mayer bond orders larger than 0.100000
B(  0-C ,  1-C ) :   1.1607 B(  0-C , 19-H ) :   0.9506 B(  0-C , 20-H ) :   0.9511
B(  0-C , 21-H ) :   0.9413 B(  1-C ,  2-O ) :   0.8987 B(  1-C , 22-H ) :   0.9291
B(  1-C , 23-H ) :   0.9102 B(  2-O ,  3-P ) :   1.0769 B(  3-P ,  4-S ) :   1.6622
B(  3-P ,  5-O ) :   1.1383 B(  3-P ,  8-S ) :   0.9429 B(  4-S ,  8-S ) :   0.1057
B(  5-O ,  6-C ) :   0.8882 B(  6-C ,  7-C ) :   1.1720 B(  6-C , 24-H ) :   0.9306
B(  6-C , 25-H ) :   0.9332 B(  7-C , 26-H ) :   0.9390 B(  7-C , 27-H ) :   0.9343
B(  7-C , 28-H ) :   0.9347 B(  8-S ,  9-C ) :   1.0060 B(  9-C , 10-S ) :   0.9971
B(  9-C , 29-H ) :   0.9116 B(  9-C , 30-H ) :   0.8417 B( 10-S , 11-P ) :   0.9674
B( 10-S , 12-S ) :   0.1142 B( 11-P , 12-S ) :   1.6273 B( 11-P , 13-O ) :   1.0989
B( 11-P , 16-O ) :   1.1063 B( 13-O , 14-C ) :   0.9054 B( 14-C , 15-C ) :   1.1532
B( 14-C , 31-H ) :   0.9274 B( 14-C , 32-H ) :   0.8974 B( 15-C , 33-H ) :   0.9412
B( 15-C , 34-H ) :   0.9460 B( 15-C , 35-H ) :   0.9413 B( 16-O , 17-C ) :   0.9176
B( 17-C , 18-C ) :   1.1638 B( 17-C , 36-H ) :   0.9355 B( 17-C , 37-H ) :   0.9209
B( 18-C , 38-H ) :   0.9381 B( 18-C , 39-H ) :   0.9305 B( 18-C , 40-H ) :   0.9451

Dispersion correction           -0.066597982
FINAL SINGLE POINT ENERGY     -2929.515626497064

DIPOLE MOMENT
-------------

Method             : SCF
Type of density    : Electron Density
Multiplicity       :   1
Irrep              :   0
Energy             : -2929.6349262965613889 Eh
Relativity type    :
Basis              : AO
                                X                 Y                 Z
Electronic contribution:     -0.275004516      -9.785359780     -12.727284782
Nuclear contribution   :      1.088395687       9.774644899      14.206594884
                        -----------------------------------------
Total Dipole Moment    :      0.813391171      -0.010714881       1.479310103
                        -----------------------------------------
Magnitude (a.u.)       :      1.688217517
Magnitude (Debye)      :      4.291107909

Rotational constants in cm-1:             0.013802             0.004944             0.004755
Rotational constants in MHz :           413.782918           148.229601           142.536908

                             ****ORCA TERMINATED NORMALLY****
TOTAL RUN TIME: 0 days 0 hours 0 minutes 21 seconds 487 msec
