                         Program Version 6.0.0  -   RELEASE  -
|  1> ! pbe def2-sv(p) def2/J RI DEFGRID1 loosescf d4 GCP(DFT/SV(P)) printgap
|  2> %output
|  3>     printlevel normal
|  4> end
|  5> * xyz 0 1
|  6> C 4.4649394849 -1.6268554627 -0.8421178582
|  7> C 4.6121622145 -0.1388500914 -0.5993866095
|  8> O 3.5146113992 0.4126977036 0.1501541332
|  9> P 2.029121922 0.480739209 -0.4213153071
| 10> S 1.8990925655 0.8879673873 -2.3272417985
| 11> O 1.3825640725 1.5738918064 0.5131508931
| 12> C 1.4975941524 1.5453657134 1.9570568523
| 13> C 2.5766984185 2.4980035843 2.4275642975
| 14> S 1.2188598548 -1.3880574282 0.2062110309
| 15> C 0.0520831203 -1.7139416238 -1.1533678395
| 16> S -1.6339588487 -1.9908126564 -0.5782150324
| 17> P -2.0247542156 -0.0126207393 0.1039681118
| 18> S -1.4483376838 1.4411479799 -1.0761629556
| 19> O -1.3156436262 0.1317803352 1.50612182
| 20> C -1.5612191832 -0.7731820769 2.6153620151
| 21> C -2.488978757 -0.1303062336 3.6249736187
| 22> O -3.5560502181 -0.0847884761 0.5155643972
| 23> C -4.6115021597 -0.6109433967 -0.3114354617
| 24> C -4.6727392498 0.0466690354 -1.6736212028
| 25> H 4.2710064213 -2.1479851533 0.0919502977
| 26> H 3.6407615624 -1.810700161 -1.5295104185
| 27> H 5.3803637186 -2.0061932383 -1.2846459806
| 28> H 4.681500127 0.3992009493 -1.549617302
| 29> H 5.4833530113 0.0831850298 0.0186038979
| 30> H 0.5107125356 1.8482539501 2.3129882321
| 31> H 1.7066592271 0.5195028981 2.2741278503
| 32> H 2.5854347132 2.5140444906 3.5129415001
| 33> H 3.5485578642 2.1761174266 2.0632824042
| 34> H 2.3754125986 3.4983783736 2.0538852269
| 35> H 0.3552465708 -2.6325343373 -1.6492674997
| 36> H 0.0779004068 -0.8650352068 -1.8429815546
| 37> H -1.9808185611 -1.705454366 2.2277548191
| 38> H -0.5746287861 -0.9672934841 3.0407247918
| 39> H -2.064429563 0.8026362197 3.9851479464
| 40> H -3.4529035902 0.0785338284 3.1684918354
| 41> H -2.6260947588 -0.8083110218 4.4613854305
| 42> H -4.4610348477 -1.68953487 -0.4093717004
| 43> H -5.514859453 -0.4115889621 0.2676514553
| 44> H -4.7601149523 1.1258960711 -1.5712669651
| 45> H -3.7656290421 -0.1690281255 -2.2369350605
| 46> H -5.5286272802 -0.334227011 -2.2213302577
| 47> *
| 48>
| 49>                          ****END OF INPUT****

CARTESIAN COORDINATES (ANGSTROEM)
---------------------------------
  C      4.464939   -1.626855   -0.842118
  C      4.612162   -0.138850   -0.599387
  O      3.514611    0.412698    0.150154
  P      2.029122    0.480739   -0.421315
  S      1.899093    0.887967   -2.327242
  O      1.382564    1.573892    0.513151
  C      1.497594    1.545366    1.957057
  C      2.576698    2.498004    2.427564
  S      1.218860   -1.388057    0.206211
  C      0.052083   -1.713942   -1.153368
  S     -1.633959   -1.990813   -0.578215
  P     -2.024754   -0.012621    0.103968
  S     -1.448338    1.441148   -1.076163
  O     -1.315644    0.131780    1.506122
  C     -1.561219   -0.773182    2.615362
  C     -2.488979   -0.130306    3.624974
  O     -3.556050   -0.084788    0.515564
  C     -4.611502   -0.610943   -0.311435
  C     -4.672739    0.046669   -1.673621
  H      4.271006   -2.147985    0.091950
  H      3.640762   -1.810700   -1.529510
  H      5.380364   -2.006193   -1.284646
  H      4.681500    0.399201   -1.549617
  H      5.483353    0.083185    0.018604
  H      0.510713    1.848254    2.312988
  H      1.706659    0.519503    2.274128
  H      2.585435    2.514044    3.512942
  H      3.548558    2.176117    2.063282
  H      2.375413    3.498378    2.053885
  H      0.355247   -2.632534   -1.649267
  H      0.077900   -0.865035   -1.842982
  H     -1.980819   -1.705454    2.227755
  H     -0.574629   -0.967293    3.040725
  H     -2.064430    0.802636    3.985148
  H     -3.452904    0.078534    3.168492
  H     -2.626095   -0.808311    4.461385
  H     -4.461035   -1.689535   -0.409372
  H     -5.514859   -0.411589    0.267651
  H     -4.760115    1.125896   -1.571267
  H     -3.765629   -0.169028   -2.236935
  H     -5.528627   -0.334227   -2.221330

 Total Charge           Charge          ....    0
 Multiplicity           Mult            ....    1
 Number of Electrons    NEL             ....  202
 Basis Dimension        Dim             ....  334

ORBITAL ENERGIES
----------------

  NO   OCC          E(Eh)            E(eV)
   0   2.0000     -88.044679     -2395.8175
   1   2.0000     -88.038344     -2395.6451
   2   2.0000     -87.979984     -2394.0571
   3   2.0000     -87.975406     -2393.9325
   4   2.0000     -76.422682     -2079.5669
   5   2.0000     -76.420535     -2079.5085
   6   2.0000     -18.795111      -511.4410
   7   2.0000     -18.789491      -511.2880
   8   2.0000     -18.789201      -511.2802
   9   2.0000     -18.780920      -511.0548
  10   2.0000      -9.960514      -271.0394
  11   2.0000      -9.955105      -270.8922
  12   2.0000      -9.953686      -270.8536
  13   2.0000      -9.950136      -270.7570
  14   2.0000      -9.948376      -270.7091
  15   2.0000      -9.888557      -269.0813
  16   2.0000      -9.882539      -268.9176
  17   2.0000      -9.881712      -268.8951
  18   2.0000      -9.880682      -268.8670
  19   2.0000      -7.689743      -209.2485
  20   2.0000      -7.683092      -209.0676
  21   2.0000      -7.625189      -207.4919
  22   2.0000      -7.620403      -207.3617
  23   2.0000      -6.419946      -174.6956
  24   2.0000      -6.417945      -174.6412
  25   2.0000      -5.717452      -155.5798
  26   2.0000      -5.714050      -155.4872
  27   2.0000      -5.710959      -155.4031
  28   2.0000      -5.707626      -155.3124
  29   2.0000      -5.707114      -155.2985
  30   2.0000      -5.700059      -155.1065
  31   2.0000      -5.654237      -153.8596
  32   2.0000      -5.649606      -153.7336
  33   2.0000      -5.645716      -153.6278
  34   2.0000      -5.645263      -153.6154
  35   2.0000      -5.640844      -153.4952
  36   2.0000      -5.640483      -153.4854
  37   2.0000      -4.642832      -126.3379
  38   2.0000      -4.642063      -126.3170
  39   2.0000      -4.640750      -126.2812
  40   2.0000      -4.639770      -126.2546
  41   2.0000      -4.639548      -126.2485
  42   2.0000      -4.638373      -126.2166
  43   2.0000      -0.988719       -26.9044
  44   2.0000      -0.982000       -26.7216
  45   2.0000      -0.945045       -25.7160
  46   2.0000      -0.937349       -25.5066
  47   2.0000      -0.761058       -20.7094
  48   2.0000      -0.718006       -19.5379
  49   2.0000      -0.708817       -19.2879
  50   2.0000      -0.692030       -18.8311
  51   2.0000      -0.686063       -18.6687
  52   2.0000      -0.675386       -18.3782
  53   2.0000      -0.647690       -17.6245
  54   2.0000      -0.632035       -17.1986
  55   2.0000      -0.592892       -16.1334
  56   2.0000      -0.586077       -15.9480
  57   2.0000      -0.574944       -15.6450
  58   2.0000      -0.569294       -15.4913
  59   2.0000      -0.564154       -15.3514
  60   2.0000      -0.505228       -13.7479
  61   2.0000      -0.493892       -13.4395
  62   2.0000      -0.475216       -12.9313
  63   2.0000      -0.469223       -12.7682
  64   2.0000      -0.452962       -12.3257
  65   2.0000      -0.445351       -12.1186
  66   2.0000      -0.441129       -12.0037
  67   2.0000      -0.436335       -11.8733
  68   2.0000      -0.428345       -11.6559
  69   2.0000      -0.421726       -11.4758
  70   2.0000      -0.410825       -11.1791
  71   2.0000      -0.398599       -10.8464
  72   2.0000      -0.389101       -10.5880
  73   2.0000      -0.386745       -10.5239
  74   2.0000      -0.381790       -10.3890
  75   2.0000      -0.363203        -9.8833
  76   2.0000      -0.359847        -9.7919
  77   2.0000      -0.357161        -9.7188
  78   2.0000      -0.351350        -9.5607
  79   2.0000      -0.349530        -9.5112
  80   2.0000      -0.346238        -9.4216
  81   2.0000      -0.344897        -9.3851
  82   2.0000      -0.339231        -9.2309
  83   2.0000      -0.337132        -9.1738
  84   2.0000      -0.334509        -9.1025
  85   2.0000      -0.320533        -8.7221
  86   2.0000      -0.310569        -8.4510
  87   2.0000      -0.297087        -8.0842
  88   2.0000      -0.292243        -7.9523
  89   2.0000      -0.290800        -7.9131
  90   2.0000      -0.286914        -7.8073
  91   2.0000      -0.278939        -7.5903
  92   2.0000      -0.264719        -7.2034
  93   2.0000      -0.260969        -7.1013
  94   2.0000      -0.255020        -6.9395
  95   2.0000      -0.235502        -6.4083
  96   2.0000      -0.217243        -5.9115
  97   2.0000      -0.210677        -5.7328
  98   2.0000      -0.197528        -5.3750
  99   2.0000      -0.187269        -5.0958
 100   2.0000      -0.180802        -4.9199
 101   0.0000      -0.039096        -1.0639
 102   0.0000      -0.030130        -0.8199
 103   0.0000      -0.012144        -0.3305
 104   0.0000       0.009382         0.2553
 105   0.0000       0.020518         0.5583

MULLIKEN ATOMIC CHARGES
-----------------------
   0 C :   -0.310648
   1 C :    0.002180
   2 O :   -0.387187
   3 P :    0.605782
   4 S :   -0.290364
   5 O :   -0.340419
   6 C :   -0.024409
   7 C :   -0.279116
   8 S :   -0.121439
   9 C :   -0.342426
  10 S :   -0.120075
  11 P :    0.572589
  12 S :   -0.269430
  13 O :   -0.349572
  14 C :   -0.009734
  15 C :   -0.285057
  16 O :   -0.379269
  17 C :   -0.014930
  18 C :   -0.307785
  19 H :    0.115290
  20 H :    0.120876
  21 H :    0.111153
  22 H :    0.111647
  23 H :    0.101683
  24 H :    0.119996
  25 H :    0.097144
  26 H :    0.103369
  27 H :    0.117528
  28 H :    0.121637
  29 H :    0.180415
  30 H :    0.208610
  31 H :    0.098050
  32 H :    0.106546
  33 H :    0.117252
  34 H :    0.120716
  35 H :    0.108716
  36 H :    0.113936
  37 H :    0.108949
  38 H :    0.127966
  39 H :    0.129057
  40 H :    0.110770
Sum of atomic charges:    0.0000000

LOEWDIN ATOMIC CHARGES
----------------------
   0 C :   -0.371008
   1 C :   -0.117045
   2 O :   -0.251441
   3 P :    0.574718
   4 S :   -0.292519
   5 O :   -0.225108
   6 C :   -0.114611
   7 C :   -0.358347
   8 S :    0.061412
   9 C :   -0.478891
  10 S :    0.059987
  11 P :    0.555985
  12 S :   -0.280593
  13 O :   -0.231072
  14 C :   -0.118807
  15 C :   -0.357602
  16 O :   -0.246792
  17 C :   -0.115360
  18 C :   -0.369286
  19 H :    0.121972
  20 H :    0.119537
  21 H :    0.129778
  22 H :    0.112206
  23 H :    0.116740
  24 H :    0.120325
  25 H :    0.100245
  26 H :    0.126658
  27 H :    0.124890
  28 H :    0.130002
  29 H :    0.135727
  30 H :    0.126233
  31 H :    0.102642
  32 H :    0.114406
  33 H :    0.126280
  34 H :    0.127155
  35 H :    0.128903
  36 H :    0.107614
  37 H :    0.120881
  38 H :    0.131438
  39 H :    0.122889
  40 H :    0.129860

  Mayer bond orders larger than 0.100000
B(  0-C ,  1-C ) :   1.1677 B(  0-C , 19-H ) :   0.9427 B(  0-C , 20-H ) :   0.9365
B(  0-C , 21-H ) :   0.9370 B(  1-C ,  2-O ) :   0.9113 B(  1-C , 22-H ) :   0.9174
B(  1-C , 23-H ) :   0.9342 B(  2-O ,  3-P ) :   1.0669 B(  3-P ,  4-S ) :   1.6328
B(  3-P ,  5-O ) :   1.1464 B(  3-P ,  8-S ) :   0.9433 B(  4-S ,  8-S ) :   0.1140
B(  5-O ,  6-C ) :   0.8963 B(  6-C ,  7-C ) :   1.1580 B(  6-C , 24-H ) :   0.9264
B(  6-C , 25-H ) :   0.9144 B(  7-C , 26-H ) :   0.9404 B(  7-C , 27-H ) :   0.9422
B(  7-C , 28-H ) :   0.9466 B(  8-S ,  9-C ) :   0.9966 B(  9-C , 10-S ) :   1.0024
B(  9-C , 29-H ) :   0.9111 B(  9-C , 30-H ) :   0.8438 B( 10-S , 11-P ) :   0.9334
B( 10-S , 12-S ) :   0.1092 B( 11-P , 12-S ) :   1.6904 B( 11-P , 13-O ) :   1.1181
B( 11-P , 16-O ) :   1.0736 B( 13-O , 14-C ) :   0.8849 B( 14-C , 15-C ) :   1.1646
B( 14-C , 31-H ) :   0.9110 B( 14-C , 32-H ) :   0.9298 B( 15-C , 33-H ) :   0.9487
B( 15-C , 34-H ) :   0.9425 B( 15-C , 35-H ) :   0.9405 B( 16-O , 17-C ) :   0.9134
B( 17-C , 18-C ) :   1.1669 B( 17-C , 36-H ) :   0.9261 B( 17-C , 37-H ) :   0.9333
B( 18-C , 38-H ) :   0.9428 B( 18-C , 39-H ) :   0.9311 B( 18-C , 40-H ) :   0.9345

Dispersion correction           -0.067821466
FINAL SINGLE POINT ENERGY     -2929.512937499321

DIPOLE MOMENT
-------------

Method             : SCF
Type of density    : Electron Density
Multiplicity       :   1
Irrep              :   0
Energy             : -2929.6318445664796855 Eh
Relativity type    :
Basis              : AO
                                X                 Y                 Z
Electronic contribution:     -0.134257863       1.397074981     -13.132949650
Nuclear contribution   :     -0.109850368      -2.705195243      14.677813307
                        -----------------------------------------
Total Dipole Moment    :     -0.244108231      -1.308120262       1.544863657
                        -----------------------------------------
Magnitude (a.u.)       :      2.038963258
Magnitude (Debye)      :      5.182632731

Rotational constants in cm-1:             0.012472             0.005449             0.004961
Rotational constants in MHz :           373.899231           163.368999           148.714732

                             ****ORCA TERMINATED NORMALLY****
TOTAL RUN TIME: 0 days 0 hours 0 minutes 21 seconds 622 msec
