                         Program Version 6.0.1  -  RELEASE   -
|  1> ! pbe def2-sv(p) def2/J RI DEFGRID1 loosescf d4 GCP(DFT/SV(P)) printgap
|  2> %output
|  3>     printlevel normal
|  4> end
|  5> * xyz 0 1
|  6> C 3.3046583827 -1.4015168696 1.6907705544
|  7> C 3.0572847495 -2.1266823458 0.3785324895
|  8> O 2.7304713137 -1.1818670558 -0.6591614566
|  9> C 1.4839778147 -1.0284009324 -1.0282047203
| 10> O 0.5435378994 -1.6608917965 -0.5765732725
| 11> C 1.3290052906 0.0150436717 -2.1102520685
| 12> C 0.1723081762 0.9576714437 -1.797509306
| 13> H 0.0303285497 1.6589832893 -2.6260549024
| 14> C 0.3467623892 1.7778122199 -0.528038053
| 15> O -0.5828247626 2.3458379461 0.0073547636
| 16> O 1.5918445739 1.8249134276 -0.1348953906
| 17> C 1.9028671803 2.5728807914 1.0589201355
| 18> C 3.3941627602 2.8402049717 1.0675015477
| 19> S -1.4512411945 0.1194623231 -1.6974885195
| 20> P -1.5958629724 -0.5572615261 0.322878177
| 21> S -0.3468544196 -0.1958226494 1.7881340497
| 22> O -3.0681513135 0.0075973078 0.6790567833
| 23> C -3.3358090949 1.3760498707 0.9747395379
| 24> O -1.9633018739 -2.0918771275 0.2554547214
| 25> C -2.9307315722 -2.632483863 -0.6616543459
| 26> H 2.3958009162 -0.8993146095 2.0185874479
| 27> H 3.5972410019 -2.1214103826 2.4477782229
| 28> H 4.0947611901 -0.6664327087 1.5697396198
| 29> H 2.2342485779 -2.8398799767 0.4775893911
| 30> H 3.9590933828 -2.6300869614 0.0270201262
| 31> H 1.1131465439 -0.5003900711 -3.0482986173
| 32> H 2.2590141518 0.5747872135 -2.1997379757
| 33> H 1.3147333564 3.4953250045 1.0507250763
| 34> H 1.5872451247 1.9675729856 1.9152083204
| 35> H 3.9367040933 1.9011773084 1.0198656131
| 36> H 3.6721742571 3.4533643846 0.2155021318
| 37> H 3.6558458865 3.3583564098 1.9836331378
| 38> H -4.352539923 1.3989661818 1.3585459028
| 39> H -3.2457417797 1.9810121391 0.0724402053
| 40> H -2.6328182241 1.7460879759 1.7227853274
| 41> H -2.6075685661 -2.4582237966 -1.6879593467
| 42> H -3.9040192316 -2.1750517758 -0.4906415183
| 43> H -2.9580735766 -3.6969351201 -0.4433018465
| 44> *
| 45>
| 46>                          ****END OF INPUT****

CARTESIAN COORDINATES (ANGSTROEM)
---------------------------------
  C      3.304658   -1.401517    1.690771
  C      3.057285   -2.126682    0.378532
  O      2.730471   -1.181867   -0.659161
  C      1.483978   -1.028401   -1.028205
  O      0.543538   -1.660892   -0.576573
  C      1.329005    0.015044   -2.110252
  C      0.172308    0.957671   -1.797509
  H      0.030329    1.658983   -2.626055
  C      0.346762    1.777812   -0.528038
  O     -0.582825    2.345838    0.007355
  O      1.591845    1.824913   -0.134895
  C      1.902867    2.572881    1.058920
  C      3.394163    2.840205    1.067502
  S     -1.451241    0.119462   -1.697489
  P     -1.595863   -0.557262    0.322878
  S     -0.346854   -0.195823    1.788134
  O     -3.068151    0.007597    0.679057
  C     -3.335809    1.376050    0.974740
  O     -1.963302   -2.091877    0.255455
  C     -2.930732   -2.632484   -0.661654
  H      2.395801   -0.899315    2.018587
  H      3.597241   -2.121410    2.447778
  H      4.094761   -0.666433    1.569740
  H      2.234249   -2.839880    0.477589
  H      3.959093   -2.630087    0.027020
  H      1.113147   -0.500390   -3.048299
  H      2.259014    0.574787   -2.199738
  H      1.314733    3.495325    1.050725
  H      1.587245    1.967573    1.915208
  H      3.936704    1.901177    1.019866
  H      3.672174    3.453364    0.215502
  H      3.655846    3.358356    1.983633
  H     -4.352540    1.398966    1.358546
  H     -3.245742    1.981012    0.072440
  H     -2.632818    1.746088    1.722785
  H     -2.607569   -2.458224   -1.687959
  H     -3.904019   -2.175052   -0.490642
  H     -2.958074   -3.696935   -0.443302

 Total Charge           Charge          ....    0
 Multiplicity           Mult            ....    1
 Number of Electrons    NEL             ....  174
 Basis Dimension        Dim             ....  316

ORBITAL ENERGIES
----------------

  NO   OCC          E(Eh)            E(eV)
   0   2.0000     -88.031184     -2395.4503
   1   2.0000     -87.968797     -2393.7527
   2   2.0000     -76.415822     -2079.3802
   3   2.0000     -18.812081      -511.9028
   4   2.0000     -18.806905      -511.7619
   5   2.0000     -18.774787      -510.8879
   6   2.0000     -18.767980      -510.7027
   7   2.0000     -18.740768      -509.9622
   8   2.0000     -18.737463      -509.8723
   9   2.0000     -10.017098      -272.5791
  10   2.0000     -10.013041      -272.4687
  11   2.0000      -9.952665      -270.8258
  12   2.0000      -9.947348      -270.6811
  13   2.0000      -9.945437      -270.6291
  14   2.0000      -9.937059      -270.4011
  15   2.0000      -9.919460      -269.9222
  16   2.0000      -9.913251      -269.7533
  17   2.0000      -9.890704      -269.1397
  18   2.0000      -9.881526      -268.8900
  19   2.0000      -7.675960      -208.8735
  20   2.0000      -7.614011      -207.1878
  21   2.0000      -6.411079      -174.4543
  22   2.0000      -5.704281      -155.2214
  23   2.0000      -5.700673      -155.1232
  24   2.0000      -5.692287      -154.8950
  25   2.0000      -5.643293      -153.5618
  26   2.0000      -5.634605      -153.3254
  27   2.0000      -5.633664      -153.2998
  28   2.0000      -4.633861      -126.0938
  29   2.0000      -4.633256      -126.0773
  30   2.0000      -4.631466      -126.0286
  31   2.0000      -1.019655       -27.7462
  32   2.0000      -1.013697       -27.5841
  33   2.0000      -0.967276       -26.3209
  34   2.0000      -0.920839       -25.0573
  35   2.0000      -0.919121       -25.0105
  36   2.0000      -0.916890       -24.9498
  37   2.0000      -0.763701       -20.7814
  38   2.0000      -0.710933       -19.3455
  39   2.0000      -0.708298       -19.2738
  40   2.0000      -0.684905       -18.6372
  41   2.0000      -0.654696       -17.8152
  42   2.0000      -0.620806       -16.8930
  43   2.0000      -0.613033       -16.6815
  44   2.0000      -0.607241       -16.5239
  45   2.0000      -0.592456       -16.1216
  46   2.0000      -0.565184       -15.3794
  47   2.0000      -0.513889       -13.9836
  48   2.0000      -0.502210       -13.6658
  49   2.0000      -0.497111       -13.5271
  50   2.0000      -0.482704       -13.1350
  51   2.0000      -0.459042       -12.4912
  52   2.0000      -0.452941       -12.3251
  53   2.0000      -0.451451       -12.2846
  54   2.0000      -0.438019       -11.9191
  55   2.0000      -0.424743       -11.5579
  56   2.0000      -0.418204       -11.3799
  57   2.0000      -0.412048       -11.2124
  58   2.0000      -0.409758       -11.1501
  59   2.0000      -0.402642       -10.9564
  60   2.0000      -0.394301       -10.7295
  61   2.0000      -0.389052       -10.5866
  62   2.0000      -0.384520       -10.4633
  63   2.0000      -0.378554       -10.3010
  64   2.0000      -0.373424       -10.1614
  65   2.0000      -0.367206        -9.9922
  66   2.0000      -0.361119        -9.8266
  67   2.0000      -0.355675        -9.6784
  68   2.0000      -0.347320        -9.4510
  69   2.0000      -0.339094        -9.2272
  70   2.0000      -0.334133        -9.0922
  71   2.0000      -0.325832        -8.8663
  72   2.0000      -0.317844        -8.6490
  73   2.0000      -0.306297        -8.3348
  74   2.0000      -0.302837        -8.2406
  75   2.0000      -0.293808        -7.9949
  76   2.0000      -0.282100        -7.6763
  77   2.0000      -0.280942        -7.6448
  78   2.0000      -0.266275        -7.2457
  79   2.0000      -0.260606        -7.0915
  80   2.0000      -0.252383        -6.8677
  81   2.0000      -0.247736        -6.7412
  82   2.0000      -0.231009        -6.2861
  83   2.0000      -0.227309        -6.1854
  84   2.0000      -0.197780        -5.3819
  85   2.0000      -0.189199        -5.1484
  86   2.0000      -0.178592        -4.8597
  87   0.0000      -0.044393        -1.2080
  88   0.0000      -0.034864        -0.9487
  89   0.0000      -0.028539        -0.7766
  90   0.0000       0.006683         0.1818
  91   0.0000       0.030073         0.8183

MULLIKEN ATOMIC CHARGES
-----------------------
   0 C :   -0.323037
   1 C :   -0.021613
   2 O :   -0.216531
   3 C :    0.106688
   4 O :   -0.202739
   5 C :    0.002268
   6 C :   -0.323117
   7 H :    0.153614
   8 C :    0.176514
   9 O :   -0.182842
  10 O :   -0.220925
  11 C :   -0.029898
  12 C :   -0.288828
  13 S :   -0.096287
  14 P :    0.634799
  15 S :   -0.325414
  16 O :   -0.396838
  17 C :   -0.092695
  18 O :   -0.357740
  19 C :   -0.106087
  20 H :    0.144865
  21 H :    0.109994
  22 H :    0.117866
  23 H :    0.120510
  24 H :    0.101683
  25 H :    0.117242
  26 H :    0.107660
  27 H :    0.109874
  28 H :    0.125801
  29 H :    0.125650
  30 H :    0.111050
  31 H :    0.113758
  32 H :    0.109798
  33 H :    0.112739
  34 H :    0.115693
  35 H :    0.119406
  36 H :    0.120245
  37 H :    0.126873
Sum of atomic charges:   -0.0000000

LOEWDIN ATOMIC CHARGES
----------------------
   0 C :   -0.360199
   1 C :   -0.109428
   2 O :   -0.042800
   3 C :    0.032926
   4 O :   -0.171987
   5 C :   -0.253349
   6 C :   -0.259002
   7 H :    0.153566
   8 C :   -0.006057
   9 O :   -0.160968
  10 O :   -0.040558
  11 C :   -0.107287
  12 C :   -0.351871
  13 S :    0.102398
  14 P :    0.597309
  15 S :   -0.293494
  16 O :   -0.268315
  17 C :   -0.217549
  18 O :   -0.233814
  19 C :   -0.211438
  20 H :    0.125838
  21 H :    0.130762
  22 H :    0.120109
  23 H :    0.125109
  24 H :    0.116660
  25 H :    0.146657
  26 H :    0.138737
  27 H :    0.119240
  28 H :    0.119130
  29 H :    0.126612
  30 H :    0.124770
  31 H :    0.132361
  32 H :    0.113613
  33 H :    0.107333
  34 H :    0.109379
  35 H :    0.108035
  36 H :    0.113246
  37 H :    0.124328

  Mayer bond orders larger than 0.100000
B(  0-C ,  1-C ) :   1.1804 B(  0-C , 20-H ) :   0.9268 B(  0-C , 21-H ) :   0.9399
B(  0-C , 22-H ) :   0.9403 B(  1-C ,  2-O ) :   0.9047 B(  1-C , 23-H ) :   0.9059
B(  1-C , 24-H ) :   0.9360 B(  2-O ,  3-C ) :   1.2661 B(  3-C ,  4-O ) :   1.9451
B(  3-C ,  5-C ) :   1.0051 B(  5-C ,  6-C ) :   1.0278 B(  5-C , 25-H ) :   0.8765
B(  5-C , 26-H ) :   0.8833 B(  6-C ,  7-H ) :   0.8707 B(  6-C ,  8-C ) :   0.8934
B(  6-C , 13-S ) :   1.0404 B(  8-C ,  9-O ) :   2.0447 B(  8-C , 10-O ) :   1.2679
B( 10-O , 11-C ) :   0.8893 B( 11-C , 12-C ) :   1.1551 B( 11-C , 27-H ) :   0.9235
B( 11-C , 28-H ) :   0.9189 B( 12-C , 29-H ) :   0.9417 B( 12-C , 30-H ) :   0.9500
B( 12-C , 31-H ) :   0.9429 B( 13-S , 14-P ) :   0.9221 B( 13-S , 15-S ) :   0.1204
B( 14-P , 15-S ) :   1.5679 B( 14-P , 16-O ) :   1.0563 B( 14-P , 18-O ) :   1.1299
B( 16-O , 17-C ) :   0.9404 B( 17-C , 32-H ) :   0.9567 B( 17-C , 33-H ) :   0.9451
B( 17-C , 34-H ) :   0.9381 B( 18-O , 19-C ) :   0.9283 B( 19-C , 35-H ) :   0.9386
B( 19-C , 36-H ) :   0.9451 B( 19-C , 37-H ) :   0.9603

Dispersion correction           -0.056542923
FINAL SINGLE POINT ENERGY     -1979.004359603212

DIPOLE MOMENT
-------------

Method             : SCF
Type of density    : Electron Density
Multiplicity       :   1
Irrep              :   0
Energy             : -1979.1322056252033690 Eh
Relativity type    :
Basis              : AO
                                X                 Y                 Z
Electronic contribution:    -13.722799885      -3.612240083      -5.651235109
Nuclear contribution   :     14.741608531       3.817471618       4.753108275
                        -----------------------------------------
Total Dipole Moment    :      1.018808646       0.205231535      -0.898126834
                        -----------------------------------------
Magnitude (a.u.)       :      1.373580303
Magnitude (Debye)      :      3.491363668

Rotational constants in cm-1:             0.013640             0.008844             0.007510
Rotational constants in MHz :           408.909216           265.129991           225.132736

                             ****ORCA TERMINATED NORMALLY****
TOTAL RUN TIME: 0 days 0 hours 1 minutes 32 seconds 350 msec
