                         Program Version 6.0.1  -  RELEASE   -
|  1> ! wb97x-v def2-tzvp def2/J RIJCOSX DEFGRID2 scfconv7 GCP(DFT/TZ) printgap
|  2> %output
|  3>     printlevel normal
|  4> end
|  5> * xyz 0 1
|  6> C 5.668568323994759 -2.8638984004977055 -1.6248338179431134
|  7> C 4.874392748022699 -1.6199311273777093 -1.3248922516132897
|  8> O 3.476469622117292 -2.031558161339938 -1.1480517501693954
|  9> C 2.6064218334868374 -1.059712302676624 -0.8602126351089211
| 10> O 2.9066012487984394 0.11658876624886179 -0.738164459209568
| 11> C 1.2057614107764258 -1.5981701458517925 -0.7117716515427762
| 12> C 0.25534154146957005 -0.4771112354168703 -0.3206974157843141
| 13> H 0.17943474661766648 0.273310953489369 -1.1119730536404462
| 14> C 0.6556820862721577 0.16944186304018774 0.9926109869760332
| 15> O 1.1826096176913243 -0.4312489317382126 1.911709288375095
| 16> O 0.3033892334986901 1.4559403783977953 1.0156142520937173
| 17> C 0.5209531815168311 2.1879004145843974 2.268259393252309
| 18> C 1.9303670922558862 2.726285412612957 2.329382923166839
| 19> S -1.4334645091650198 -1.209894984492642 -0.06740388247934108
| 20> P -2.694993816698764 0.4777944691295635 -0.3795113452977473
| 21> S -2.2950767542832056 1.5828259158006073 -1.9222111847999495
| 22> O -4.120011481692085 -0.2725121740357938 -0.32633225144932887
| 23> C -4.62586261534394 -0.9766944009009411 -1.4977905266367206
| 24> O -2.7414857109540516 1.3455211161527718 0.966807752345329
| 25> C -2.875457219318289 0.7313351073121371 2.283456276146783
| 26> H 6.7176006422298435 -2.5874869387734822 -1.7657225324953914
| 27> H 5.609875717924279 -3.577975805742566 -0.7985758678063147
| 28> H 5.3146456288928245 -3.3463137151567732 -2.5401945181677466
| 29> H 4.913450807291419 -0.8973795682778447 -2.1451031321330074
| 30> H 5.2033605170848105 -1.1327405785219957 -0.40259614534234694
| 31> H 1.2203411020568198 -2.400793568731749 0.03288039374133457
| 32> H 0.9015383845449246 -2.042353962826186 -1.6651273894069745
| 33> H -0.21906261843063474 2.9894031814599735 2.2308730910202996
| 34> H 0.29338866753674603 1.5210810836626003 3.1034245926935657
| 35> H 2.0437979687647707 3.319602686566945 3.2420824984882732
| 36> H 2.664993826885301 1.9169147924671477 2.351222773296625
| 37> H 2.1361268500178676 3.372658130463197 1.4714816120142036
| 38> H -5.5612685940919855 -1.43589216215302 -1.179025584087683
| 39> H -3.920836542896591 -1.7484808086183632 -1.8179541067109815
| 40> H -4.807164804725968 -0.26563956592656657 -2.3070314950056567
| 41> H -1.9918186741945525 0.12844955385229284 2.5078735146279487
| 42> H -3.7792319939025347 0.11900214795199356 2.329116999950908
| 43> H -2.948264514916632 1.5640619567460858 2.9828418107073116
| 44> *
| 45>
| 46>                          ****END OF INPUT****

CARTESIAN COORDINATES (ANGSTROEM)
---------------------------------
  C      5.668568   -2.863898   -1.624834
  C      4.874393   -1.619931   -1.324892
  O      3.476470   -2.031558   -1.148052
  C      2.606422   -1.059712   -0.860213
  O      2.906601    0.116589   -0.738164
  C      1.205761   -1.598170   -0.711772
  C      0.255342   -0.477111   -0.320697
  H      0.179435    0.273311   -1.111973
  C      0.655682    0.169442    0.992611
  O      1.182610   -0.431249    1.911709
  O      0.303389    1.455940    1.015614
  C      0.520953    2.187900    2.268259
  C      1.930367    2.726285    2.329383
  S     -1.433465   -1.209895   -0.067404
  P     -2.694994    0.477794   -0.379511
  S     -2.295077    1.582826   -1.922211
  O     -4.120011   -0.272512   -0.326332
  C     -4.625863   -0.976694   -1.497791
  O     -2.741486    1.345521    0.966808
  C     -2.875457    0.731335    2.283456
  H      6.717601   -2.587487   -1.765723
  H      5.609876   -3.577976   -0.798576
  H      5.314646   -3.346314   -2.540195
  H      4.913451   -0.897380   -2.145103
  H      5.203361   -1.132741   -0.402596
  H      1.220341   -2.400794    0.032880
  H      0.901538   -2.042354   -1.665127
  H     -0.219063    2.989403    2.230873
  H      0.293389    1.521081    3.103425
  H      2.043798    3.319603    3.242082
  H      2.664994    1.916915    2.351223
  H      2.136127    3.372658    1.471482
  H     -5.561269   -1.435892   -1.179026
  H     -3.920837   -1.748481   -1.817954
  H     -4.807165   -0.265640   -2.307031
  H     -1.991819    0.128450    2.507874
  H     -3.779232    0.119002    2.329117
  H     -2.948265    1.564062    2.982842

 Total Charge           Charge          ....    0
 Multiplicity           Mult            ....    1
 Number of Electrons    NEL             ....  174
 Basis Dimension        Dim             ....  721

ORBITAL ENERGIES
----------------

  NO   OCC          E(Eh)            E(eV)
   0   2.0000     -88.882947     -2418.6280
   1   2.0000     -88.814900     -2416.7763
   2   2.0000     -77.213178     -2101.0774
   3   2.0000     -19.265634      -524.2446
   4   2.0000     -19.260465      -524.1039
   5   2.0000     -19.259270      -524.0714
   6   2.0000     -19.256715      -524.0018
   7   2.0000     -19.205147      -522.5986
   8   2.0000     -19.199350      -522.4409
   9   2.0000     -10.410334      -283.2796
  10   2.0000     -10.407363      -283.1987
  11   2.0000     -10.340469      -281.3785
  12   2.0000     -10.339578      -281.3542
  13   2.0000     -10.337834      -281.3068
  14   2.0000     -10.334946      -281.2282
  15   2.0000     -10.331795      -281.1424
  16   2.0000     -10.303018      -280.3594
  17   2.0000     -10.275884      -279.6210
  18   2.0000     -10.263641      -279.2879
  19   2.0000      -8.061636      -219.3683
  20   2.0000      -7.994886      -217.5519
  21   2.0000      -6.775633      -184.3744
  22   2.0000      -6.017136      -163.7346
  23   2.0000      -6.014201      -163.6547
  24   2.0000      -6.008710      -163.5053
  25   2.0000      -5.950786      -161.9291
  26   2.0000      -5.944608      -161.7610
  27   2.0000      -5.944219      -161.7504
  28   2.0000      -4.930497      -134.1656
  29   2.0000      -4.930025      -134.1528
  30   2.0000      -4.927825      -134.0929
  31   2.0000      -1.243965       -33.8500
  32   2.0000      -1.237802       -33.6823
  33   2.0000      -1.213856       -33.0307
  34   2.0000      -1.171829       -31.8871
  35   2.0000      -1.150952       -31.3190
  36   2.0000      -1.145350       -31.1666
  37   2.0000      -0.979334       -26.6490
  38   2.0000      -0.926536       -25.2123
  39   2.0000      -0.907638       -24.6981
  40   2.0000      -0.901341       -24.5267
  41   2.0000      -0.865483       -23.5510
  42   2.0000      -0.843254       -22.9461
  43   2.0000      -0.824090       -22.4246
  44   2.0000      -0.808989       -22.0137
  45   2.0000      -0.779487       -21.2109
  46   2.0000      -0.748600       -20.3704
  47   2.0000      -0.697989       -18.9932
  48   2.0000      -0.691258       -18.8101
  49   2.0000      -0.669846       -18.2274
  50   2.0000      -0.647754       -17.6263
  51   2.0000      -0.641045       -17.4437
  52   2.0000      -0.636966       -17.3327
  53   2.0000      -0.620103       -16.8739
  54   2.0000      -0.610733       -16.6189
  55   2.0000      -0.600837       -16.3496
  56   2.0000      -0.598381       -16.2828
  57   2.0000      -0.594101       -16.1663
  58   2.0000      -0.584728       -15.9113
  59   2.0000      -0.577152       -15.7051
  60   2.0000      -0.575635       -15.6638
  61   2.0000      -0.564956       -15.3732
  62   2.0000      -0.549493       -14.9525
  63   2.0000      -0.545880       -14.8541
  64   2.0000      -0.531932       -14.4746
  65   2.0000      -0.520218       -14.1559
  66   2.0000      -0.515881       -14.0378
  67   2.0000      -0.508417       -13.8347
  68   2.0000      -0.499315       -13.5871
  69   2.0000      -0.495224       -13.4757
  70   2.0000      -0.490046       -13.3348
  71   2.0000      -0.473877       -12.8949
  72   2.0000      -0.471845       -12.8395
  73   2.0000      -0.468303       -12.7432
  74   2.0000      -0.466938       -12.7060
  75   2.0000      -0.463380       -12.6092
  76   2.0000      -0.452864       -12.3230
  77   2.0000      -0.445704       -12.1282
  78   2.0000      -0.428957       -11.6725
  79   2.0000      -0.418527       -11.3887
  80   2.0000      -0.411880       -11.2078
  81   2.0000      -0.408332       -11.1113
  82   2.0000      -0.399080       -10.8595
  83   2.0000      -0.390428       -10.6241
  84   2.0000      -0.370089       -10.0706
  85   2.0000      -0.341341        -9.2883
  86   2.0000      -0.333761        -9.0821
  87   0.0000       0.054706         1.4886
  88   0.0000       0.082689         2.2501
  89   0.0000       0.092042         2.5046
  90   0.0000       0.106130         2.8879
  91   0.0000       0.110971         3.0197

MULLIKEN ATOMIC CHARGES
-----------------------
   0 C :   -0.310827
   1 C :   -0.052186
   2 O :   -0.232931
   3 C :    0.288309
   4 O :   -0.353871
   5 C :   -0.203637
   6 C :    0.037251
   7 H :    0.152977
   8 C :    0.255909
   9 O :   -0.358662
  10 O :   -0.213498
  11 C :   -0.044397
  12 C :   -0.336166
  13 S :   -0.190504
  14 P :    0.634580
  15 S :   -0.387115
  16 O :   -0.320250
  17 C :   -0.193775
  18 O :   -0.283052
  19 C :   -0.216006
  20 H :    0.115613
  21 H :    0.119226
  22 H :    0.116468
  23 H :    0.116318
  24 H :    0.118624
  25 H :    0.147265
  26 H :    0.148610
  27 H :    0.123820
  28 H :    0.112254
  29 H :    0.111191
  30 H :    0.141335
  31 H :    0.123135
  32 H :    0.132693
  33 H :    0.128980
  34 H :    0.147385
  35 H :    0.143904
  36 H :    0.146563
  37 H :    0.134467
Sum of atomic charges:   -0.0000000

LOEWDIN ATOMIC CHARGES
----------------------
   0 C :   -0.303448
   1 C :   -0.276686
   2 O :    0.251482
   3 C :   -0.462180
   4 O :    0.099827
   5 C :   -0.225199
   6 C :   -0.388658
   7 H :    0.155343
   8 C :   -0.506169
   9 O :    0.088781
  10 O :    0.271735
  11 C :   -0.282071
  12 C :   -0.300362
  13 S :    0.403412
  14 P :   -0.035422
  15 S :   -0.096347
  16 O :    0.007563
  17 C :   -0.322939
  18 O :    0.024363
  19 C :   -0.324744
  20 H :    0.126194
  21 H :    0.122374
  22 H :    0.121628
  23 H :    0.127488
  24 H :    0.128678
  25 H :    0.160549
  26 H :    0.157178
  27 H :    0.127639
  28 H :    0.125603
  29 H :    0.123952
  30 H :    0.127380
  31 H :    0.124373
  32 H :    0.111208
  33 H :    0.103371
  34 H :    0.109183
  35 H :    0.104948
  36 H :    0.107754
  37 H :    0.112219

  Mayer bond orders larger than 0.100000
B(  0-C ,  1-C ) :   1.0023 B(  0-C , 20-H ) :   0.9733 B(  0-C , 21-H ) :   0.9738
B(  0-C , 22-H ) :   0.9738 B(  1-C ,  2-O ) :   0.8727 B(  1-C , 23-H ) :   0.9736
B(  1-C , 24-H ) :   0.9717 B(  2-O ,  3-C ) :   1.2553 B(  3-C ,  4-O ) :   2.0005
B(  3-C ,  5-C ) :   1.0052 B(  5-C ,  6-C ) :   0.9925 B(  5-C , 25-H ) :   0.9228
B(  5-C , 26-H ) :   0.9561 B(  6-C ,  7-H ) :   0.9516 B(  6-C ,  8-C ) :   0.9324
B(  6-C , 13-S ) :   0.8973 B(  8-C ,  9-O ) :   2.0332 B(  8-C , 10-O ) :   1.2452
B( 10-O , 11-C ) :   0.8633 B( 11-C , 12-C ) :   1.0031 B( 11-C , 27-H ) :   0.9651
B( 11-C , 28-H ) :   0.9711 B( 12-C , 29-H ) :   0.9713 B( 12-C , 30-H ) :   0.9747
B( 12-C , 31-H ) :   0.9743 B( 13-S , 14-P ) :   1.0477 B( 14-P , 15-S ) :   1.8885
B( 14-P , 16-O ) :   1.1547 B( 14-P , 18-O ) :   1.2175 B( 16-O , 17-C ) :   0.8968
B( 17-C , 32-H ) :   0.9711 B( 17-C , 33-H ) :   0.9704 B( 17-C , 34-H ) :   0.9722
B( 18-O , 19-C ) :   0.8872 B( 19-C , 35-H ) :   0.9683 B( 19-C , 36-H ) :   0.9693
B( 19-C , 37-H ) :   0.9739

FINAL SINGLE POINT ENERGY     -1981.628374116266

DIPOLE MOMENT
-------------

Method             : SCF
Type of density    : Electron Density
Multiplicity       :   1
Irrep              :   0
Energy             : -1981.6560886407655744 Eh
Relativity type    :
Basis              : AO
                                X                 Y                 Z
Electronic contribution:    -18.174554318       2.934357206      -5.561488321
Nuclear contribution   :     18.210623654      -3.994126326       5.978527135
                        -----------------------------------------
Total Dipole Moment    :      0.036069336      -1.059769120       0.417038815
                        -----------------------------------------
Magnitude (a.u.)       :      1.139444144
Magnitude (Debye)      :      2.896236847

Rotational constants in cm-1:             0.014361             0.005443             0.004593
Rotational constants in MHz :           430.541534           163.185692           137.684870

                             ****ORCA TERMINATED NORMALLY****
TOTAL RUN TIME: 0 days 0 hours 13 minutes 2 seconds 803 msec
