                         Program Version 6.0.1  -  RELEASE   -
|  1> ! wb97x-v def2-tzvp def2/J RIJCOSX DEFGRID2 scfconv7 GCP(DFT/TZ) printgap
|  2> %output
|  3>     printlevel normal
|  4> end
|  5> %cpcm
|  6>     smd true
|  7>     smdsolvent "water"
|  8> end
|  9> * xyz 0 1
| 10> C 5.668568323994759 -2.8638984004977055 -1.6248338179431134
| 11> C 4.874392748022699 -1.6199311273777093 -1.3248922516132897
| 12> O 3.476469622117292 -2.031558161339938 -1.1480517501693954
| 13> C 2.6064218334868374 -1.059712302676624 -0.8602126351089211
| 14> O 2.9066012487984394 0.11658876624886179 -0.738164459209568
| 15> C 1.2057614107764258 -1.5981701458517925 -0.7117716515427762
| 16> C 0.25534154146957005 -0.4771112354168703 -0.3206974157843141
| 17> H 0.17943474661766648 0.273310953489369 -1.1119730536404462
| 18> C 0.6556820862721577 0.16944186304018774 0.9926109869760332
| 19> O 1.1826096176913243 -0.4312489317382126 1.911709288375095
| 20> O 0.3033892334986901 1.4559403783977953 1.0156142520937173
| 21> C 0.5209531815168311 2.1879004145843974 2.268259393252309
| 22> C 1.9303670922558862 2.726285412612957 2.329382923166839
| 23> S -1.4334645091650198 -1.209894984492642 -0.06740388247934108
| 24> P -2.694993816698764 0.4777944691295635 -0.3795113452977473
| 25> S -2.2950767542832056 1.5828259158006073 -1.9222111847999495
| 26> O -4.120011481692085 -0.2725121740357938 -0.32633225144932887
| 27> C -4.62586261534394 -0.9766944009009411 -1.4977905266367206
| 28> O -2.7414857109540516 1.3455211161527718 0.966807752345329
| 29> C -2.875457219318289 0.7313351073121371 2.283456276146783
| 30> H 6.7176006422298435 -2.5874869387734822 -1.7657225324953914
| 31> H 5.609875717924279 -3.577975805742566 -0.7985758678063147
| 32> H 5.3146456288928245 -3.3463137151567732 -2.5401945181677466
| 33> H 4.913450807291419 -0.8973795682778447 -2.1451031321330074
| 34> H 5.2033605170848105 -1.1327405785219957 -0.40259614534234694
| 35> H 1.2203411020568198 -2.400793568731749 0.03288039374133457
| 36> H 0.9015383845449246 -2.042353962826186 -1.6651273894069745
| 37> H -0.21906261843063474 2.9894031814599735 2.2308730910202996
| 38> H 0.29338866753674603 1.5210810836626003 3.1034245926935657
| 39> H 2.0437979687647707 3.319602686566945 3.2420824984882732
| 40> H 2.664993826885301 1.9169147924671477 2.351222773296625
| 41> H 2.1361268500178676 3.372658130463197 1.4714816120142036
| 42> H -5.5612685940919855 -1.43589216215302 -1.179025584087683
| 43> H -3.920836542896591 -1.7484808086183632 -1.8179541067109815
| 44> H -4.807164804725968 -0.26563956592656657 -2.3070314950056567
| 45> H -1.9918186741945525 0.12844955385229284 2.5078735146279487
| 46> H -3.7792319939025347 0.11900214795199356 2.329116999950908
| 47> H -2.948264514916632 1.5640619567460858 2.9828418107073116
| 48> *
| 49>
| 50>                          ****END OF INPUT****

CARTESIAN COORDINATES (ANGSTROEM)
---------------------------------
  C      5.668568   -2.863898   -1.624834
  C      4.874393   -1.619931   -1.324892
  O      3.476470   -2.031558   -1.148052
  C      2.606422   -1.059712   -0.860213
  O      2.906601    0.116589   -0.738164
  C      1.205761   -1.598170   -0.711772
  C      0.255342   -0.477111   -0.320697
  H      0.179435    0.273311   -1.111973
  C      0.655682    0.169442    0.992611
  O      1.182610   -0.431249    1.911709
  O      0.303389    1.455940    1.015614
  C      0.520953    2.187900    2.268259
  C      1.930367    2.726285    2.329383
  S     -1.433465   -1.209895   -0.067404
  P     -2.694994    0.477794   -0.379511
  S     -2.295077    1.582826   -1.922211
  O     -4.120011   -0.272512   -0.326332
  C     -4.625863   -0.976694   -1.497791
  O     -2.741486    1.345521    0.966808
  C     -2.875457    0.731335    2.283456
  H      6.717601   -2.587487   -1.765723
  H      5.609876   -3.577976   -0.798576
  H      5.314646   -3.346314   -2.540195
  H      4.913451   -0.897380   -2.145103
  H      5.203361   -1.132741   -0.402596
  H      1.220341   -2.400794    0.032880
  H      0.901538   -2.042354   -1.665127
  H     -0.219063    2.989403    2.230873
  H      0.293389    1.521081    3.103425
  H      2.043798    3.319603    3.242082
  H      2.664994    1.916915    2.351223
  H      2.136127    3.372658    1.471482
  H     -5.561269   -1.435892   -1.179026
  H     -3.920837   -1.748481   -1.817954
  H     -4.807165   -0.265640   -2.307031
  H     -1.991819    0.128450    2.507874
  H     -3.779232    0.119002    2.329117
  H     -2.948265    1.564062    2.982842

 Total Charge           Charge          ....    0
 Multiplicity           Mult            ....    1
 Number of Electrons    NEL             ....  174
 Basis Dimension        Dim             ....  721

ORBITAL ENERGIES
----------------

  NO   OCC          E(Eh)            E(eV)
   0   2.0000     -88.888223     -2418.7715
   1   2.0000     -88.828561     -2417.1480
   2   2.0000     -77.221093     -2101.2928
   3   2.0000     -19.270500      -524.3770
   4   2.0000     -19.268059      -524.3105
   5   2.0000     -19.261758      -524.1391
   6   2.0000     -19.261114      -524.1216
   7   2.0000     -19.216932      -522.9193
   8   2.0000     -19.216693      -522.9128
   9   2.0000     -10.422331      -283.6060
  10   2.0000     -10.419305      -283.5237
  11   2.0000     -10.339166      -281.3430
  12   2.0000     -10.326757      -281.0053
  13   2.0000     -10.326627      -281.0018
  14   2.0000     -10.326473      -280.9976
  15   2.0000     -10.325675      -280.9759
  16   2.0000     -10.298823      -280.2452
  17   2.0000     -10.259475      -279.1745
  18   2.0000     -10.258913      -279.1592
  19   2.0000      -8.066745      -219.5073
  20   2.0000      -8.008976      -217.9353
  21   2.0000      -6.783615      -184.5915
  22   2.0000      -6.022307      -163.8753
  23   2.0000      -6.019354      -163.7950
  24   2.0000      -6.013717      -163.6415
  25   2.0000      -5.964760      -162.3094
  26   2.0000      -5.958705      -162.1446
  27   2.0000      -5.958379      -162.1357
  28   2.0000      -4.938425      -134.3814
  29   2.0000      -4.937925      -134.3678
  30   2.0000      -4.935993      -134.3152
  31   2.0000      -1.251691       -34.0603
  32   2.0000      -1.247329       -33.9415
  33   2.0000      -1.216314       -33.0976
  34   2.0000      -1.173525       -31.9332
  35   2.0000      -1.162855       -31.6429
  36   2.0000      -1.158876       -31.5346
  37   2.0000      -0.982587       -26.7376
  38   2.0000      -0.920886       -25.0586
  39   2.0000      -0.907648       -24.6984
  40   2.0000      -0.898800       -24.4576
  41   2.0000      -0.863635       -23.5007
  42   2.0000      -0.835849       -22.7446
  43   2.0000      -0.823853       -22.4182
  44   2.0000      -0.812711       -22.1150
  45   2.0000      -0.774807       -21.0836
  46   2.0000      -0.744247       -20.2520
  47   2.0000      -0.696422       -18.9506
  48   2.0000      -0.689870       -18.7723
  49   2.0000      -0.673863       -18.3368
  50   2.0000      -0.652046       -17.7431
  51   2.0000      -0.642480       -17.4828
  52   2.0000      -0.635471       -17.2921
  53   2.0000      -0.619616       -16.8606
  54   2.0000      -0.617002       -16.7895
  55   2.0000      -0.609580       -16.5875
  56   2.0000      -0.599705       -16.3188
  57   2.0000      -0.594091       -16.1660
  58   2.0000      -0.585690       -15.9374
  59   2.0000      -0.577600       -15.7173
  60   2.0000      -0.572645       -15.5825
  61   2.0000      -0.555696       -15.1213
  62   2.0000      -0.548331       -14.9208
  63   2.0000      -0.544677       -14.8214
  64   2.0000      -0.531488       -14.4625
  65   2.0000      -0.519349       -14.1322
  66   2.0000      -0.514996       -14.0138
  67   2.0000      -0.498976       -13.5778
  68   2.0000      -0.496439       -13.5088
  69   2.0000      -0.492001       -13.3880
  70   2.0000      -0.486910       -13.2495
  71   2.0000      -0.473637       -12.8883
  72   2.0000      -0.472252       -12.8506
  73   2.0000      -0.464676       -12.6445
  74   2.0000      -0.464468       -12.6388
  75   2.0000      -0.463387       -12.6094
  76   2.0000      -0.453990       -12.3537
  77   2.0000      -0.446479       -12.1493
  78   2.0000      -0.429657       -11.6916
  79   2.0000      -0.422242       -11.4898
  80   2.0000      -0.418782       -11.3956
  81   2.0000      -0.415621       -11.3096
  82   2.0000      -0.413364       -11.2482
  83   2.0000      -0.402076       -10.9410
  84   2.0000      -0.379272       -10.3205
  85   2.0000      -0.356400        -9.6981
  86   2.0000      -0.347937        -9.4678
  87   0.0000       0.047298         1.2871
  88   0.0000       0.074229         2.0199
  89   0.0000       0.086296         2.3482
  90   0.0000       0.104921         2.8550
  91   0.0000       0.110922         3.0184

MULLIKEN ATOMIC CHARGES
-----------------------
   0 C :   -0.367785
   1 C :   -0.056129
   2 O :   -0.253898
   3 C :    0.358694
   4 O :   -0.454263
   5 C :   -0.215459
   6 C :    0.029995
   7 H :    0.159827
   8 C :    0.312971
   9 O :   -0.448595
  10 O :   -0.248045
  11 C :   -0.049722
  12 C :   -0.377367
  13 S :   -0.175909
  14 P :    0.646791
  15 S :   -0.445218
  16 O :   -0.336301
  17 C :   -0.211658
  18 O :   -0.327921
  19 C :   -0.222734
  20 H :    0.138655
  21 H :    0.132852
  22 H :    0.132379
  23 H :    0.136010
  24 H :    0.135752
  25 H :    0.174825
  26 H :    0.183303
  27 H :    0.144970
  28 H :    0.137431
  29 H :    0.143534
  30 H :    0.138252
  31 H :    0.133428
  32 H :    0.163255
  33 H :    0.150180
  34 H :    0.153409
  35 H :    0.154175
  36 H :    0.167687
  37 H :    0.162629
Sum of atomic charges:   -0.0000000

LOEWDIN ATOMIC CHARGES
----------------------
   0 C :   -0.305561
   1 C :   -0.273276
   2 O :    0.249602
   3 C :   -0.445152
   4 O :    0.047464
   5 C :   -0.216271
   6 C :   -0.389740
   7 H :    0.156715
   8 C :   -0.497143
   9 O :    0.046300
  10 O :    0.260914
  11 C :   -0.274123
  12 C :   -0.305170
  13 S :    0.416001
  14 P :   -0.033248
  15 S :   -0.140779
  16 O :    0.002395
  17 C :   -0.316220
  18 O :    0.005158
  19 C :   -0.314096
  20 H :    0.133138
  21 H :    0.124598
  22 H :    0.124525
  23 H :    0.132577
  24 H :    0.132572
  25 H :    0.167973
  26 H :    0.171275
  27 H :    0.135559
  28 H :    0.132923
  29 H :    0.133460
  30 H :    0.123685
  31 H :    0.125273
  32 H :    0.121486
  33 H :    0.109854
  34 H :    0.111225
  35 H :    0.109856
  36 H :    0.114360
  37 H :    0.121889

  Mayer bond orders larger than 0.100000
B(  0-C ,  1-C ) :   1.0115 B(  0-C , 20-H ) :   0.9689 B(  0-C , 21-H ) :   0.9714
B(  0-C , 22-H ) :   0.9712 B(  1-C ,  2-O ) :   0.8477 B(  1-C , 23-H ) :   0.9662
B(  1-C , 24-H ) :   0.9650 B(  2-O ,  3-C ) :   1.2757 B(  3-C ,  4-O ) :   1.8946
B(  3-C ,  5-C ) :   1.0155 B(  5-C ,  6-C ) :   1.0016 B(  5-C , 25-H ) :   0.9253
B(  5-C , 26-H ) :   0.9340 B(  6-C ,  7-H ) :   0.9499 B(  6-C ,  8-C ) :   0.9313
B(  6-C , 13-S ) :   0.9010 B(  8-C ,  9-O ) :   1.9366 B(  8-C , 10-O ) :   1.2634
B( 10-O , 11-C ) :   0.8349 B( 11-C , 12-C ) :   0.9925 B( 11-C , 27-H ) :   0.9613
B( 11-C , 28-H ) :   0.9730 B( 12-C , 29-H ) :   0.9685 B( 12-C , 30-H ) :   0.9737
B( 12-C , 31-H ) :   0.9712 B( 13-S , 14-P ) :   1.0636 B( 14-P , 15-S ) :   1.8521
B( 14-P , 16-O ) :   1.1720 B( 14-P , 18-O ) :   1.2226 B( 16-O , 17-C ) :   0.8669
B( 17-C , 32-H ) :   0.9652 B( 17-C , 33-H ) :   0.9662 B( 17-C , 34-H ) :   0.9698
B( 18-O , 19-C ) :   0.8501 B( 19-C , 35-H ) :   0.9674 B( 19-C , 36-H ) :   0.9642
B( 19-C , 37-H ) :   0.9666

FINAL SINGLE POINT ENERGY     -1981.647356902156

DIPOLE MOMENT
-------------

Method             : SCF
Type of density    : Electron Density
Multiplicity       :   1
Irrep              :   0
Energy             : -1981.6750714266559044 Eh
Relativity type    :
Basis              : AO
                                X                 Y                 Z
Electronic contribution:    -18.405493275       2.389321857      -5.423255999
Nuclear contribution   :     18.210623654      -3.994126326       5.978527135
                        -----------------------------------------
Total Dipole Moment    :     -0.194869621      -1.604804470       0.555271136
                        -----------------------------------------
Magnitude (a.u.)       :      1.709297396
Magnitude (Debye)      :      4.344688704

Rotational constants in cm-1:             0.014361             0.005443             0.004593
Rotational constants in MHz :           430.541534           163.185692           137.684870

                             ****ORCA TERMINATED NORMALLY****
TOTAL RUN TIME: 0 days 0 hours 14 minutes 14 seconds 825 msec
