                         Program Version 6.0.0  -   RELEASE  -
|  1> ! pbe def2-sv(p) def2/J RI DEFGRID1 loosescf d4 GCP(DFT/SV(P)) printgap
|  2> %output
|  3>     printlevel normal
|  4> end
|  5> * xyz 0 1
|  6> C 5.6453544801 0.5283748427 -0.9715827692
|  7> C 4.2336066044 0.0275296195 -1.2000140832
|  8> O 3.5097273824 0.1649651924 0.0391117519
|  9> P 1.9226308815 0.1178512377 0.0861112964
| 10> S 1.0742741222 1.383384613 -1.1522860351
| 11> O 1.6155392614 0.4320383789 1.5994073627
| 12> C 2.2659659023 -0.2597890712 2.6982153747
| 13> C 3.4326144772 0.5500630299 3.2246969727
| 14> S 1.6415120653 -1.9829946057 -0.1619924241
| 15> C -0.1578664848 -2.2050321121 -0.1506340982
| 16> S -0.9935048881 -1.3293508744 -1.5198940094
| 17> P -2.0865768912 0.083689515 -0.3995586827
| 18> S -2.8230978526 1.5686814404 -1.437899114
| 19> O -1.1391325697 0.440542921 0.8253581095
| 20> C -1.2731767901 1.7173799126 1.4844234222
| 21> C -2.5444780293 1.7819135853 2.3015133448
| 22> O -3.1415731731 -0.8333694074 0.379742133
| 23> C -4.2385620703 -1.4696375996 -0.3013740567
| 24> C -5.4911371883 -0.6178296689 -0.2301817154
| 25> H 6.1233975558 -0.0517614088 -0.187678703
| 26> H 6.2116602593 0.4244508452 -1.8911357202
| 27> H 5.6278326447 1.5745053152 -0.6788836889
| 28> H 4.2251800236 -1.0280066825 -1.4842431818
| 29> H 3.7188531197 0.6112283892 -1.9703983853
| 30> H 1.484925274 -0.3690496478 3.4530430673
| 31> H 2.5923760289 -1.2449726854 2.3545333397
| 32> H 3.0986481591 1.5403956388 3.5219118529
| 33> H 3.8564335753 0.0414066241 4.0849748023
| 34> H 4.1943804109 0.6540315099 2.4571344122
| 35> H -0.5767622427 -1.870458435 0.7948281905
| 36> H -0.3099023791 -3.2709126204 -0.3035985686
| 37> H -0.3766417944 1.7905901985 2.1008878028
| 38> H -1.2533168596 2.5042292006 0.7228125155
| 39> H -2.5861084373 0.9510449509 3.0006193122
| 40> H -2.5722175099 2.720319997 2.8460898284
| 41> H -3.4065160012 1.7305590362 1.6374184514
| 42> H -3.9534950165 -1.6601622514 -1.3415423975
| 43> H -4.3747266982 -2.4190864703 0.2200251677
| 44> H -6.3103212777 -1.1460524916 -0.7070552993
| 45> H -5.7470939763 -0.415632733 0.8060259551
| 46> H -5.3315426615 0.3274397812 -0.7445284254
| 47> *
| 48>
| 49>                          ****END OF INPUT****

CARTESIAN COORDINATES (ANGSTROEM)
---------------------------------
  C      5.645354    0.528375   -0.971583
  C      4.233607    0.027530   -1.200014
  O      3.509727    0.164965    0.039112
  P      1.922631    0.117851    0.086111
  S      1.074274    1.383385   -1.152286
  O      1.615539    0.432038    1.599407
  C      2.265966   -0.259789    2.698215
  C      3.432614    0.550063    3.224697
  S      1.641512   -1.982995   -0.161992
  C     -0.157866   -2.205032   -0.150634
  S     -0.993505   -1.329351   -1.519894
  P     -2.086577    0.083690   -0.399559
  S     -2.823098    1.568681   -1.437899
  O     -1.139133    0.440543    0.825358
  C     -1.273177    1.717380    1.484423
  C     -2.544478    1.781914    2.301513
  O     -3.141573   -0.833369    0.379742
  C     -4.238562   -1.469638   -0.301374
  C     -5.491137   -0.617830   -0.230182
  H      6.123398   -0.051761   -0.187679
  H      6.211660    0.424451   -1.891136
  H      5.627833    1.574505   -0.678884
  H      4.225180   -1.028007   -1.484243
  H      3.718853    0.611228   -1.970398
  H      1.484925   -0.369050    3.453043
  H      2.592376   -1.244973    2.354533
  H      3.098648    1.540396    3.521912
  H      3.856434    0.041407    4.084975
  H      4.194380    0.654032    2.457134
  H     -0.576762   -1.870458    0.794828
  H     -0.309902   -3.270913   -0.303599
  H     -0.376642    1.790590    2.100888
  H     -1.253317    2.504229    0.722813
  H     -2.586108    0.951045    3.000619
  H     -2.572218    2.720320    2.846090
  H     -3.406516    1.730559    1.637418
  H     -3.953495   -1.660162   -1.341542
  H     -4.374727   -2.419086    0.220025
  H     -6.310321   -1.146052   -0.707055
  H     -5.747094   -0.415633    0.806026
  H     -5.331543    0.327440   -0.744528

 Total Charge           Charge          ....    0
 Multiplicity           Mult            ....    1
 Number of Electrons    NEL             ....  202
 Basis Dimension        Dim             ....  334

ORBITAL ENERGIES
----------------

  NO   OCC          E(Eh)            E(eV)
   0   2.0000     -88.045167     -2395.8308
   1   2.0000     -88.037844     -2395.6315
   2   2.0000     -87.980797     -2394.0792
   3   2.0000     -87.978328     -2394.0120
   4   2.0000     -76.425876     -2079.6538
   5   2.0000     -76.420232     -2079.5002
   6   2.0000     -18.796468      -511.4779
   7   2.0000     -18.796020      -511.4657
   8   2.0000     -18.784503      -511.1523
   9   2.0000     -18.783385      -511.1219
  10   2.0000      -9.961259      -271.0596
  11   2.0000      -9.960058      -271.0270
  12   2.0000      -9.954026      -270.8628
  13   2.0000      -9.948740      -270.7190
  14   2.0000      -9.938632      -270.4439
  15   2.0000      -9.890364      -269.1305
  16   2.0000      -9.889880      -269.1173
  17   2.0000      -9.876408      -268.7507
  18   2.0000      -9.875778      -268.7336
  19   2.0000      -7.690155      -209.2598
  20   2.0000      -7.683057      -209.0666
  21   2.0000      -7.625958      -207.5129
  22   2.0000      -7.623168      -207.4370
  23   2.0000      -6.423193      -174.7840
  24   2.0000      -6.417697      -174.6344
  25   2.0000      -5.717873      -155.5912
  26   2.0000      -5.714539      -155.5005
  27   2.0000      -5.711421      -155.4157
  28   2.0000      -5.707437      -155.3073
  29   2.0000      -5.707429      -155.3070
  30   2.0000      -5.699636      -155.0950
  31   2.0000      -5.654983      -153.8799
  32   2.0000      -5.652460      -153.8112
  33   2.0000      -5.646709      -153.6548
  34   2.0000      -5.645870      -153.6319
  35   2.0000      -5.643420      -153.5653
  36   2.0000      -5.643346      -153.5632
  37   2.0000      -4.646256      -126.4311
  38   2.0000      -4.645094      -126.3994
  39   2.0000      -4.643071      -126.3444
  40   2.0000      -4.640071      -126.2628
  41   2.0000      -4.639716      -126.2531
  42   2.0000      -4.638117      -126.2096
  43   2.0000      -0.992057       -26.9952
  44   2.0000      -0.979954       -26.6659
  45   2.0000      -0.948867       -25.8200
  46   2.0000      -0.936837       -25.4926
  47   2.0000      -0.761072       -20.7098
  48   2.0000      -0.720855       -19.6154
  49   2.0000      -0.706312       -19.2197
  50   2.0000      -0.695475       -18.9248
  51   2.0000      -0.678658       -18.4672
  52   2.0000      -0.670473       -18.2445
  53   2.0000      -0.649565       -17.6756
  54   2.0000      -0.635915       -17.3041
  55   2.0000      -0.590061       -16.0564
  56   2.0000      -0.587037       -15.9741
  57   2.0000      -0.575765       -15.6674
  58   2.0000      -0.567887       -15.4530
  59   2.0000      -0.558415       -15.1952
  60   2.0000      -0.510915       -13.9027
  61   2.0000      -0.493971       -13.4416
  62   2.0000      -0.485919       -13.2225
  63   2.0000      -0.467060       -12.7093
  64   2.0000      -0.455406       -12.3922
  65   2.0000      -0.448005       -12.1908
  66   2.0000      -0.440443       -11.9851
  67   2.0000      -0.434368       -11.8197
  68   2.0000      -0.428088       -11.6489
  69   2.0000      -0.414092       -11.2680
  70   2.0000      -0.408770       -11.1232
  71   2.0000      -0.394471       -10.7341
  72   2.0000      -0.393347       -10.7035
  73   2.0000      -0.385565       -10.4918
  74   2.0000      -0.380575       -10.3560
  75   2.0000      -0.368134       -10.0174
  76   2.0000      -0.361537        -9.8379
  77   2.0000      -0.358704        -9.7608
  78   2.0000      -0.356190        -9.6924
  79   2.0000      -0.351932        -9.5765
  80   2.0000      -0.348521        -9.4837
  81   2.0000      -0.341989        -9.3060
  82   2.0000      -0.339030        -9.2255
  83   2.0000      -0.333100        -9.0641
  84   2.0000      -0.324041        -8.8176
  85   2.0000      -0.320398        -8.7185
  86   2.0000      -0.315998        -8.5987
  87   2.0000      -0.301037        -8.1916
  88   2.0000      -0.296073        -8.0565
  89   2.0000      -0.290575        -7.9069
  90   2.0000      -0.283186        -7.7059
  91   2.0000      -0.275163        -7.4876
  92   2.0000      -0.267961        -7.2916
  93   2.0000      -0.261545        -7.1170
  94   2.0000      -0.255151        -6.9430
  95   2.0000      -0.241733        -6.5779
  96   2.0000      -0.218707        -5.9513
  97   2.0000      -0.202430        -5.5084
  98   2.0000      -0.197649        -5.3783
  99   2.0000      -0.189316        -5.1516
 100   2.0000      -0.184511        -5.0208
 101   0.0000      -0.043931        -1.1954
 102   0.0000      -0.022774        -0.6197
 103   0.0000      -0.014065        -0.3827
 104   0.0000      -0.004094        -0.1114
 105   0.0000       0.023022         0.6265

MULLIKEN ATOMIC CHARGES
-----------------------
   0 C :   -0.285067
   1 C :   -0.012640
   2 O :   -0.386176
   3 P :    0.606396
   4 S :   -0.283290
   5 O :   -0.358909
   6 C :   -0.013362
   7 C :   -0.291146
   8 S :   -0.125329
   9 C :   -0.340440
  10 S :   -0.054068
  11 P :    0.602838
  12 S :   -0.307113
  13 O :   -0.380984
  14 C :   -0.017624
  15 C :   -0.296262
  16 O :   -0.377124
  17 C :   -0.010341
  18 C :   -0.291016
  19 H :    0.114729
  20 H :    0.114575
  21 H :    0.123179
  22 H :    0.105176
  23 H :    0.110374
  24 H :    0.107376
  25 H :    0.103173
  26 H :    0.118371
  27 H :    0.109712
  28 H :    0.126444
  29 H :    0.195201
  30 H :    0.183197
  31 H :    0.109427
  32 H :    0.121108
  33 H :    0.106320
  34 H :    0.108344
  35 H :    0.123049
  36 H :    0.097005
  37 H :    0.099110
  38 H :    0.104983
  39 H :    0.111116
  40 H :    0.129688
Sum of atomic charges:   -0.0000000

LOEWDIN ATOMIC CHARGES
----------------------
   0 C :   -0.351012
   1 C :   -0.121101
   2 O :   -0.251380
   3 P :    0.563019
   4 S :   -0.286492
   5 O :   -0.229161
   6 C :   -0.116540
   7 C :   -0.359311
   8 S :    0.059229
   9 C :   -0.472709
  10 S :    0.094388
  11 P :    0.573389
  12 S :   -0.304274
  13 O :   -0.242664
  14 C :   -0.124639
  15 C :   -0.365527
  16 O :   -0.257018
  17 C :   -0.120647
  18 C :   -0.364402
  19 H :    0.124753
  20 H :    0.132175
  21 H :    0.129724
  22 H :    0.109231
  23 H :    0.111209
  24 H :    0.118516
  25 H :    0.104071
  26 H :    0.127877
  27 H :    0.129727
  28 H :    0.127482
  29 H :    0.131689
  30 H :    0.138212
  31 H :    0.114627
  32 H :    0.111958
  33 H :    0.121607
  34 H :    0.129025
  35 H :    0.121167
  36 H :    0.103922
  37 H :    0.114560
  38 H :    0.127264
  39 H :    0.123745
  40 H :    0.124309

  Mayer bond orders larger than 0.100000
B(  0-C ,  1-C ) :   1.1598 B(  0-C , 19-H ) :   0.9508 B(  0-C , 20-H ) :   0.9418
B(  0-C , 21-H ) :   0.9507 B(  1-C ,  2-O ) :   0.9045 B(  1-C , 22-H ) :   0.9287
B(  1-C , 23-H ) :   0.9073 B(  2-O ,  3-P ) :   1.0677 B(  3-P ,  4-S ) :   1.6711
B(  3-P ,  5-O ) :   1.1131 B(  3-P ,  8-S ) :   0.9532 B(  4-S ,  8-S ) :   0.1211
B(  5-O ,  6-C ) :   0.8900 B(  6-C ,  7-C ) :   1.1663 B(  6-C , 24-H ) :   0.9348
B(  6-C , 25-H ) :   0.9083 B(  7-C , 26-H ) :   0.9477 B(  7-C , 27-H ) :   0.9394
B(  7-C , 28-H ) :   0.9405 B(  8-S ,  9-C ) :   0.9861 B(  9-C , 10-S ) :   0.9826
B(  9-C , 29-H ) :   0.8897 B(  9-C , 30-H ) :   0.9120 B( 10-S , 11-P ) :   0.9813
B( 11-P , 12-S ) :   1.6450 B( 11-P , 13-O ) :   1.0929 B( 11-P , 16-O ) :   1.0626
B( 13-O , 14-C ) :   0.8879 B( 14-C , 15-C ) :   1.1599 B( 14-C , 31-H ) :   0.9231
B( 14-C , 32-H ) :   0.9131 B( 15-C , 33-H ) :   0.9462 B( 15-C , 34-H ) :   0.9397
B( 15-C , 35-H ) :   0.9322 B( 16-O , 17-C ) :   0.9158 B( 17-C , 18-C ) :   1.1668
B( 17-C , 36-H ) :   0.9117 B( 17-C , 37-H ) :   0.9368 B( 18-C , 38-H ) :   0.9399
B( 18-C , 39-H ) :   0.9462 B( 18-C , 40-H ) :   0.9303

Dispersion correction           -0.066362563
FINAL SINGLE POINT ENERGY     -2929.511653153062

DIPOLE MOMENT
-------------

Method             : SCF
Type of density    : Electron Density
Multiplicity       :   1
Irrep              :   0
Energy             : -2929.6324032158072441 Eh
Relativity type    :
Basis              : AO
                                X                 Y                 Z
Electronic contribution:     -3.398912021      -2.471484941     -16.431353153
Nuclear contribution   :      4.257874643       1.141286276      17.981440549
                        -----------------------------------------
Total Dipole Moment    :      0.858962622      -1.330198665       1.550087397
                        -----------------------------------------
Magnitude (a.u.)       :      2.215855638
Magnitude (Debye)      :      5.632257430

Rotational constants in cm-1:             0.013840             0.004895             0.004647
Rotational constants in MHz :           414.921772           146.735705           139.316418

                             ****ORCA TERMINATED NORMALLY****
TOTAL RUN TIME: 0 days 0 hours 0 minutes 21 seconds 157 msec
