                         Program Version 6.0.1  -  RELEASE   -
|  1> ! r2scan-3c def2/J RI DEFGRID2 scfconv6 printgap
|  2> %output
|  3>     printlevel normal
|  4> end
|  5> * xyz 0 1
|  6> C 4.630384838 -4.4295490109 -1.336090041
|  7> C 3.2758306907 -3.7784518307 -1.5326682418
|  8> O 3.256934125 -2.5524665525 -0.7741338522
|  9> C 2.1763112652 -1.8035619822 -0.8444096595
| 10> O 1.1973365712 -2.0810972781 -1.503182962
| 11> C 2.313494502 -0.5543357404 0.001628913
| 12> C 1.0128438689 0.2295089842 0.0129981585
| 13> H 0.6068618586 0.2712858844 -1.0097328793
| 14> C 1.180688415 1.6685033472 0.4623894861
| 15> O 2.1922839227 2.303404915 0.276951811
| 16> O 0.0881564553 2.1259137627 1.0377990763
| 17> C 0.0384722174 3.5118890355 1.4344016276
| 18> C -0.6176587691 4.3506426006 0.3516913193
| 19> S -0.2482787116 -0.6198643867 1.0179411029
| 20> P -1.9565028566 0.3068552157 0.1552352563
| 21> S -1.7337926332 1.1790928759 -1.5827503174
| 22> O -3.0180582255 -0.896588444 0.1530617084
| 23> C -2.8681858015 -1.998843851 -0.745763857
| 24> O -2.6062311866 1.2563269448 1.2348479715
| 25> C -2.9096668921 0.8054696644 2.5698937006
| 26> H 5.4162548869 -3.7679397508 -1.6877108875
| 27> H 4.7931830738 -4.6378844074 -0.2830920602
| 28> H 4.6664032438 -5.3581428142 -1.8957861127
| 29> H 2.4614355075 -4.4155877731 -1.1744049426
| 30> H 3.0863969434 -3.5372019726 -2.5832673233
| 31> H 3.103951528 0.0741209469 -0.4164279625
| 32> H 2.6124234255 -0.8432091098 1.0100514697
| 33> H -0.5514615489 3.5166563929 2.3512407472
| 34> H 1.0606286994 3.8472450934 1.6295917034
| 35> H -0.0165271494 4.3344991115 -0.5548538275
| 36> H -1.6025696571 3.9524413152 0.1183004848
| 37> H -0.7145343326 5.3742004336 0.6973101707
| 38> H -3.7344224832 -2.6334224743 -0.5789069537
| 39> H -1.9458489244 -2.5400827006 -0.5308644344
| 40> H -2.8459685622 -1.6420255536 -1.7765487632
| 41> H -3.2505942944 1.6919230125 3.0982875157
| 42> H -2.0134898838 0.3950035731 3.0354182016
| 43> H -3.6922501 0.0500842543 2.537056481
| 44> *
| 45>
| 46>                          ****END OF INPUT****

CARTESIAN COORDINATES (ANGSTROEM)
---------------------------------
  C      4.630385   -4.429549   -1.336090
  C      3.275831   -3.778452   -1.532668
  O      3.256934   -2.552467   -0.774134
  C      2.176311   -1.803562   -0.844410
  O      1.197337   -2.081097   -1.503183
  C      2.313495   -0.554336    0.001629
  C      1.012844    0.229509    0.012998
  H      0.606862    0.271286   -1.009733
  C      1.180688    1.668503    0.462389
  O      2.192284    2.303405    0.276952
  O      0.088156    2.125914    1.037799
  C      0.038472    3.511889    1.434402
  C     -0.617659    4.350643    0.351691
  S     -0.248279   -0.619864    1.017941
  P     -1.956503    0.306855    0.155235
  S     -1.733793    1.179093   -1.582750
  O     -3.018058   -0.896588    0.153062
  C     -2.868186   -1.998844   -0.745764
  O     -2.606231    1.256327    1.234848
  C     -2.909667    0.805470    2.569894
  H      5.416255   -3.767940   -1.687711
  H      4.793183   -4.637884   -0.283092
  H      4.666403   -5.358143   -1.895786
  H      2.461436   -4.415588   -1.174405
  H      3.086397   -3.537202   -2.583267
  H      3.103952    0.074121   -0.416428
  H      2.612423   -0.843209    1.010051
  H     -0.551462    3.516656    2.351241
  H      1.060629    3.847245    1.629592
  H     -0.016527    4.334499   -0.554854
  H     -1.602570    3.952441    0.118300
  H     -0.714534    5.374200    0.697310
  H     -3.734422   -2.633422   -0.578907
  H     -1.945849   -2.540083   -0.530864
  H     -2.845969   -1.642026   -1.776549
  H     -3.250594    1.691923    3.098288
  H     -2.013490    0.395004    3.035418
  H     -3.692250    0.050084    2.537056

 Total Charge           Charge          ....    0
 Multiplicity           Mult            ....    1
 Number of Electrons    NEL             ....  174
 Basis Dimension        Dim             ....  510

ORBITAL ENERGIES
----------------

  NO   OCC          E(Eh)            E(eV)
   0   2.0000     -88.571519     -2410.1536
   1   2.0000     -88.516435     -2408.6547
   2   2.0000     -76.911373     -2092.8649
   3   2.0000     -19.006000      -517.1796
   4   2.0000     -19.002065      -517.0725
   5   2.0000     -18.993971      -516.8522
   6   2.0000     -18.987620      -516.6794
   7   2.0000     -18.937764      -515.3227
   8   2.0000     -18.937461      -515.3145
   9   2.0000     -10.162538      -276.5367
  10   2.0000     -10.162402      -276.5330
  11   2.0000     -10.098857      -274.8039
  12   2.0000     -10.098805      -274.8025
  13   2.0000     -10.091964      -274.6163
  14   2.0000     -10.088958      -274.5345
  15   2.0000     -10.084434      -274.4114
  16   2.0000     -10.061812      -273.7958
  17   2.0000     -10.036785      -273.1148
  18   2.0000     -10.021471      -272.6981
  19   2.0000      -7.865939      -214.0431
  20   2.0000      -7.811146      -212.5521
  21   2.0000      -6.589732      -179.3157
  22   2.0000      -5.812744      -158.1728
  23   2.0000      -5.810013      -158.0985
  24   2.0000      -5.802885      -157.9045
  25   2.0000      -5.759071      -156.7123
  26   2.0000      -5.751381      -156.5030
  27   2.0000      -5.750929      -156.4907
  28   2.0000      -4.735423      -128.8574
  29   2.0000      -4.734759      -128.8393
  30   2.0000      -4.733239      -128.7980
  31   2.0000      -1.083210       -29.4756
  32   2.0000      -1.081200       -29.4209
  33   2.0000      -1.049187       -28.5498
  34   2.0000      -1.006823       -27.3971
  35   2.0000      -0.987814       -26.8798
  36   2.0000      -0.985852       -26.8264
  37   2.0000      -0.809041       -22.0151
  38   2.0000      -0.761021       -20.7084
  39   2.0000      -0.740258       -20.1434
  40   2.0000      -0.733126       -19.9494
  41   2.0000      -0.697916       -18.9913
  42   2.0000      -0.672701       -18.3051
  43   2.0000      -0.657030       -17.8787
  44   2.0000      -0.648780       -17.6542
  45   2.0000      -0.627058       -17.0631
  46   2.0000      -0.591534       -16.0965
  47   2.0000      -0.542296       -14.7566
  48   2.0000      -0.539100       -14.6697
  49   2.0000      -0.523778       -14.2527
  50   2.0000      -0.498776       -13.5724
  51   2.0000      -0.491794       -13.3824
  52   2.0000      -0.484708       -13.1896
  53   2.0000      -0.470163       -12.7938
  54   2.0000      -0.461271       -12.5518
  55   2.0000      -0.450118       -12.2483
  56   2.0000      -0.446095       -12.1389
  57   2.0000      -0.440808       -11.9950
  58   2.0000      -0.435163       -11.8414
  59   2.0000      -0.430054       -11.7024
  60   2.0000      -0.427026       -11.6200
  61   2.0000      -0.417461       -11.3597
  62   2.0000      -0.408787       -11.1237
  63   2.0000      -0.405520       -11.0348
  64   2.0000      -0.382721       -10.4144
  65   2.0000      -0.381719       -10.3871
  66   2.0000      -0.371669       -10.1136
  67   2.0000      -0.370270       -10.0756
  68   2.0000      -0.366107        -9.9623
  69   2.0000      -0.353931        -9.6310
  70   2.0000      -0.349007        -9.4970
  71   2.0000      -0.341111        -9.2821
  72   2.0000      -0.336493        -9.1564
  73   2.0000      -0.327207        -8.9038
  74   2.0000      -0.323238        -8.7957
  75   2.0000      -0.322661        -8.7801
  76   2.0000      -0.311361        -8.4726
  77   2.0000      -0.305364        -8.3094
  78   2.0000      -0.286236        -7.7889
  79   2.0000      -0.282230        -7.6799
  80   2.0000      -0.278329        -7.5737
  81   2.0000      -0.272641        -7.4190
  82   2.0000      -0.262548        -7.1443
  83   2.0000      -0.244507        -6.6534
  84   2.0000      -0.223110        -6.0711
  85   2.0000      -0.216648        -5.8953
  86   2.0000      -0.210423        -5.7259
  87   0.0000      -0.043221        -1.1761
  88   0.0000      -0.026234        -0.7139
  89   0.0000      -0.016973        -0.4618
  90   0.0000       0.009804         0.2668
  91   0.0000       0.019447         0.5292

MULLIKEN ATOMIC CHARGES
-----------------------
   0 C :   -0.440963
   1 C :   -0.150946
   2 O :   -0.149551
   3 C :    0.364965
   4 O :   -0.415336
   5 C :   -0.435491
   6 C :    0.013677
   7 H :    0.250162
   8 C :    0.321956
   9 O :   -0.415786
  10 O :   -0.122624
  11 C :   -0.147678
  12 C :   -0.460746
  13 S :   -0.245686
  14 P :    0.781537
  15 S :   -0.451529
  16 O :   -0.345664
  17 C :   -0.286806
  18 O :   -0.318456
  19 C :   -0.297338
  20 H :    0.154496
  21 H :    0.152882
  22 H :    0.149454
  23 H :    0.155525
  24 H :    0.160242
  25 H :    0.213373
  26 H :    0.184734
  27 H :    0.143889
  28 H :    0.172430
  29 H :    0.163515
  30 H :    0.176587
  31 H :    0.144161
  32 H :    0.147446
  33 H :    0.166657
  34 H :    0.172989
  35 H :    0.155402
  36 H :    0.168261
  37 H :    0.170259
Sum of atomic charges:   -0.0000000

LOEWDIN ATOMIC CHARGES
----------------------
   0 C :   -0.384953
   1 C :    0.036725
   2 O :   -0.586030
   3 C :    0.355100
   4 O :   -0.434045
   5 C :   -0.203812
   6 C :   -0.197787
   7 H :    0.227860
   8 C :    0.356357
   9 O :   -0.427005
  10 O :   -0.625049
  11 C :    0.035448
  12 C :   -0.389122
  13 S :    0.216179
  14 P :    0.399936
  15 S :   -0.085423
  16 O :   -0.685536
  17 C :   -0.058329
  18 O :   -0.652308
  19 C :   -0.052857
  20 H :    0.160611
  21 H :    0.160002
  22 H :    0.160476
  23 H :    0.179109
  24 H :    0.181044
  25 H :    0.210003
  26 H :    0.191074
  27 H :    0.178066
  28 H :    0.192131
  29 H :    0.164519
  30 H :    0.167962
  31 H :    0.156714
  32 H :    0.174857
  33 H :    0.174111
  34 H :    0.176929
  35 H :    0.179079
  36 H :    0.173335
  37 H :    0.174628

  Mayer bond orders larger than 0.100000
B(  0-C ,  1-C ) :   0.9451 B(  0-C , 20-H ) :   0.9720 B(  0-C , 21-H ) :   0.9715
B(  0-C , 22-H ) :   0.9684 B(  1-C ,  2-O ) :   0.7881 B(  1-C , 23-H ) :   0.9503
B(  1-C , 24-H ) :   0.9525 B(  2-O ,  3-C ) :   1.1539 B(  3-C ,  4-O ) :   1.8203
B(  3-C ,  5-C ) :   0.9662 B(  5-C ,  6-C ) :   0.9540 B(  5-C , 25-H ) :   0.9176
B(  5-C , 26-H ) :   0.9675 B(  6-C ,  7-H ) :   0.9042 B(  6-C ,  8-C ) :   0.8757
B(  6-C , 13-S ) :   0.7942 B(  8-C ,  9-O ) :   1.8893 B(  8-C , 10-O ) :   1.1869
B( 10-O , 11-C ) :   0.7650 B( 11-C , 12-C ) :   0.9371 B( 11-C , 27-H ) :   0.9637
B( 11-C , 28-H ) :   0.9610 B( 12-C , 29-H ) :   0.9683 B( 12-C , 30-H ) :   0.9656
B( 12-C , 31-H ) :   0.9674 B( 13-S , 14-P ) :   1.0092 B( 14-P , 15-S ) :   1.7887
B( 14-P , 16-O ) :   1.0433 B( 14-P , 18-O ) :   1.1480 B( 16-O , 17-C ) :   0.8344
B( 17-C , 32-H ) :   0.9673 B( 17-C , 33-H ) :   0.9514 B( 17-C , 34-H ) :   0.9585
B( 18-O , 19-C ) :   0.7957 B( 19-C , 35-H ) :   0.9663 B( 19-C , 36-H ) :   0.9562
B( 19-C , 37-H ) :   0.9604

Dispersion correction           -0.017142531
FINAL SINGLE POINT ENERGY     -1981.455273981182

DIPOLE MOMENT
-------------

Method             : SCF
Type of density    : Electron Density
Multiplicity       :   1
Irrep              :   0
Energy             : -1981.4755511427997590 Eh
Relativity type    :
Basis              : AO
                                X                 Y                 Z
Electronic contribution:     -8.642646955       4.739371432      -0.494310977
Nuclear contribution   :      8.801846530      -5.793286813       1.746836197
                        -----------------------------------------
Total Dipole Moment    :      0.159199574      -1.053915381       1.252525220
                        -----------------------------------------
Magnitude (a.u.)       :      1.644658494
Magnitude (Debye)      :      4.180389672

Rotational constants in cm-1:             0.013910             0.006230             0.005035
Rotational constants in MHz :           417.014452           186.778955           150.940235

                             ****ORCA TERMINATED NORMALLY****
TOTAL RUN TIME: 0 days 0 hours 1 minutes 22 seconds 691 msec
