                         Program Version 6.0.1  -  RELEASE   -
|  1> ! r2scan-3c def2/J RI DEFGRID2 scfconv6 printgap
|  2> %output
|  3>     printlevel normal
|  4> end
|  5> %cpcm
|  6>     smd true
|  7>     smdsolvent "water"
|  8> end
|  9> * xyz 0 1
| 10> C 4.630384838 -4.4295490109 -1.336090041
| 11> C 3.2758306907 -3.7784518307 -1.5326682418
| 12> O 3.256934125 -2.5524665525 -0.7741338522
| 13> C 2.1763112652 -1.8035619822 -0.8444096595
| 14> O 1.1973365712 -2.0810972781 -1.503182962
| 15> C 2.313494502 -0.5543357404 0.001628913
| 16> C 1.0128438689 0.2295089842 0.0129981585
| 17> H 0.6068618586 0.2712858844 -1.0097328793
| 18> C 1.180688415 1.6685033472 0.4623894861
| 19> O 2.1922839227 2.303404915 0.276951811
| 20> O 0.0881564553 2.1259137627 1.0377990763
| 21> C 0.0384722174 3.5118890355 1.4344016276
| 22> C -0.6176587691 4.3506426006 0.3516913193
| 23> S -0.2482787116 -0.6198643867 1.0179411029
| 24> P -1.9565028566 0.3068552157 0.1552352563
| 25> S -1.7337926332 1.1790928759 -1.5827503174
| 26> O -3.0180582255 -0.896588444 0.1530617084
| 27> C -2.8681858015 -1.998843851 -0.745763857
| 28> O -2.6062311866 1.2563269448 1.2348479715
| 29> C -2.9096668921 0.8054696644 2.5698937006
| 30> H 5.4162548869 -3.7679397508 -1.6877108875
| 31> H 4.7931830738 -4.6378844074 -0.2830920602
| 32> H 4.6664032438 -5.3581428142 -1.8957861127
| 33> H 2.4614355075 -4.4155877731 -1.1744049426
| 34> H 3.0863969434 -3.5372019726 -2.5832673233
| 35> H 3.103951528 0.0741209469 -0.4164279625
| 36> H 2.6124234255 -0.8432091098 1.0100514697
| 37> H -0.5514615489 3.5166563929 2.3512407472
| 38> H 1.0606286994 3.8472450934 1.6295917034
| 39> H -0.0165271494 4.3344991115 -0.5548538275
| 40> H -1.6025696571 3.9524413152 0.1183004848
| 41> H -0.7145343326 5.3742004336 0.6973101707
| 42> H -3.7344224832 -2.6334224743 -0.5789069537
| 43> H -1.9458489244 -2.5400827006 -0.5308644344
| 44> H -2.8459685622 -1.6420255536 -1.7765487632
| 45> H -3.2505942944 1.6919230125 3.0982875157
| 46> H -2.0134898838 0.3950035731 3.0354182016
| 47> H -3.6922501 0.0500842543 2.537056481
| 48> *
| 49>
| 50>                          ****END OF INPUT****

CARTESIAN COORDINATES (ANGSTROEM)
---------------------------------
  C      4.630385   -4.429549   -1.336090
  C      3.275831   -3.778452   -1.532668
  O      3.256934   -2.552467   -0.774134
  C      2.176311   -1.803562   -0.844410
  O      1.197337   -2.081097   -1.503183
  C      2.313495   -0.554336    0.001629
  C      1.012844    0.229509    0.012998
  H      0.606862    0.271286   -1.009733
  C      1.180688    1.668503    0.462389
  O      2.192284    2.303405    0.276952
  O      0.088156    2.125914    1.037799
  C      0.038472    3.511889    1.434402
  C     -0.617659    4.350643    0.351691
  S     -0.248279   -0.619864    1.017941
  P     -1.956503    0.306855    0.155235
  S     -1.733793    1.179093   -1.582750
  O     -3.018058   -0.896588    0.153062
  C     -2.868186   -1.998844   -0.745764
  O     -2.606231    1.256327    1.234848
  C     -2.909667    0.805470    2.569894
  H      5.416255   -3.767940   -1.687711
  H      4.793183   -4.637884   -0.283092
  H      4.666403   -5.358143   -1.895786
  H      2.461436   -4.415588   -1.174405
  H      3.086397   -3.537202   -2.583267
  H      3.103952    0.074121   -0.416428
  H      2.612423   -0.843209    1.010051
  H     -0.551462    3.516656    2.351241
  H      1.060629    3.847245    1.629592
  H     -0.016527    4.334499   -0.554854
  H     -1.602570    3.952441    0.118300
  H     -0.714534    5.374200    0.697310
  H     -3.734422   -2.633422   -0.578907
  H     -1.945849   -2.540083   -0.530864
  H     -2.845969   -1.642026   -1.776549
  H     -3.250594    1.691923    3.098288
  H     -2.013490    0.395004    3.035418
  H     -3.692250    0.050084    2.537056

 Total Charge           Charge          ....    0
 Multiplicity           Mult            ....    1
 Number of Electrons    NEL             ....  174
 Basis Dimension        Dim             ....  510

ORBITAL ENERGIES
----------------

  NO   OCC          E(Eh)            E(eV)
   0   2.0000     -88.578073     -2410.3319
   1   2.0000     -88.529961     -2409.0227
   2   2.0000     -76.920306     -2093.1079
   3   2.0000     -19.009596      -517.2774
   4   2.0000     -19.007731      -517.2267
   5   2.0000     -18.998005      -516.9620
   6   2.0000     -18.994056      -516.8545
   7   2.0000     -18.952908      -515.7348
   8   2.0000     -18.949321      -515.6372
   9   2.0000     -10.174981      -276.8753
  10   2.0000     -10.170752      -276.7602
  11   2.0000     -10.094243      -274.6783
  12   2.0000     -10.087001      -274.4812
  13   2.0000     -10.086774      -274.4751
  14   2.0000     -10.085234      -274.4332
  15   2.0000     -10.081003      -274.3180
  16   2.0000     -10.058849      -273.7152
  17   2.0000     -10.019655      -272.6487
  18   2.0000     -10.018547      -272.6185
  19   2.0000      -7.872413      -214.2192
  20   2.0000      -7.825021      -212.9296
  21   2.0000      -6.598740      -179.5608
  22   2.0000      -5.819242      -158.3496
  23   2.0000      -5.816500      -158.2750
  24   2.0000      -5.809330      -158.0799
  25   2.0000      -5.772806      -157.0860
  26   2.0000      -5.765336      -156.8828
  27   2.0000      -5.764795      -156.8680
  28   2.0000      -4.744378      -129.1011
  29   2.0000      -4.743729      -129.0834
  30   2.0000      -4.742374      -129.0466
  31   2.0000      -1.090124       -29.6638
  32   2.0000      -1.086551       -29.5666
  33   2.0000      -1.053964       -28.6798
  34   2.0000      -1.011451       -27.5230
  35   2.0000      -1.001086       -27.2409
  36   2.0000      -0.995450       -27.0876
  37   2.0000      -0.812927       -22.1209
  38   2.0000      -0.755078       -20.5467
  39   2.0000      -0.739681       -20.1277
  40   2.0000      -0.732427       -19.9303
  41   2.0000      -0.696005       -18.9393
  42   2.0000      -0.670169       -18.2362
  43   2.0000      -0.660453       -17.9718
  44   2.0000      -0.653228       -17.7752
  45   2.0000      -0.622218       -16.9314
  46   2.0000      -0.588153       -16.0045
  47   2.0000      -0.540565       -14.7095
  48   2.0000      -0.537490       -14.6259
  49   2.0000      -0.525327       -14.2949
  50   2.0000      -0.502844       -13.6831
  51   2.0000      -0.491923       -13.3859
  52   2.0000      -0.485990       -13.2245
  53   2.0000      -0.467354       -12.7173
  54   2.0000      -0.465921       -12.6783
  55   2.0000      -0.459637       -12.5074
  56   2.0000      -0.449332       -12.2270
  57   2.0000      -0.448320       -12.1994
  58   2.0000      -0.438071       -11.9205
  59   2.0000      -0.427855       -11.6425
  60   2.0000      -0.425369       -11.5749
  61   2.0000      -0.412025       -11.2118
  62   2.0000      -0.409424       -11.1410
  63   2.0000      -0.405575       -11.0363
  64   2.0000      -0.384092       -10.4517
  65   2.0000      -0.375236       -10.2107
  66   2.0000      -0.371713       -10.1148
  67   2.0000      -0.367030        -9.9874
  68   2.0000      -0.358772        -9.7627
  69   2.0000      -0.353852        -9.6288
  70   2.0000      -0.353396        -9.6164
  71   2.0000      -0.340820        -9.2742
  72   2.0000      -0.332473        -9.0471
  73   2.0000      -0.326431        -8.8826
  74   2.0000      -0.323377        -8.7995
  75   2.0000      -0.320294        -8.7156
  76   2.0000      -0.314916        -8.5693
  77   2.0000      -0.306577        -8.3424
  78   2.0000      -0.287868        -7.8333
  79   2.0000      -0.286498        -7.7960
  80   2.0000      -0.282332        -7.6826
  81   2.0000      -0.278601        -7.5811
  82   2.0000      -0.275123        -7.4865
  83   2.0000      -0.257974        -7.0198
  84   2.0000      -0.235128        -6.3982
  85   2.0000      -0.231134        -6.2895
  86   2.0000      -0.222503        -6.0546
  87   0.0000      -0.050868        -1.3842
  88   0.0000      -0.034780        -0.9464
  89   0.0000      -0.024336        -0.6622
  90   0.0000       0.004181         0.1138
  91   0.0000       0.012821         0.3489

MULLIKEN ATOMIC CHARGES
-----------------------
   0 C :   -0.491025
   1 C :   -0.153398
   2 O :   -0.159427
   3 C :    0.396903
   4 O :   -0.486081
   5 C :   -0.435250
   6 C :    0.014058
   7 H :    0.249772
   8 C :    0.340929
   9 O :   -0.475994
  10 O :   -0.132054
  11 C :   -0.151085
  12 C :   -0.493899
  13 S :   -0.233338
  14 P :    0.799309
  15 S :   -0.506260
  16 O :   -0.366105
  17 C :   -0.308546
  18 O :   -0.356329
  19 C :   -0.299876
  20 H :    0.165933
  21 H :    0.165581
  22 H :    0.171091
  23 H :    0.174237
  24 H :    0.174007
  25 H :    0.226012
  26 H :    0.222635
  27 H :    0.179522
  28 H :    0.179004
  29 H :    0.168436
  30 H :    0.169196
  31 H :    0.171868
  32 H :    0.179662
  33 H :    0.173001
  34 H :    0.178718
  35 H :    0.184198
  36 H :    0.179175
  37 H :    0.185421
Sum of atomic charges:   -0.0000000

LOEWDIN ATOMIC CHARGES
----------------------
   0 C :   -0.388401
   1 C :    0.039991
   2 O :   -0.584296
   3 C :    0.367697
   4 O :   -0.486624
   5 C :   -0.198924
   6 C :   -0.195442
   7 H :    0.226619
   8 C :    0.364761
   9 O :   -0.470276
  10 O :   -0.623461
  11 C :    0.041963
  12 C :   -0.392781
  13 S :    0.227682
  14 P :    0.399525
  15 S :   -0.127571
  16 O :   -0.694830
  17 C :   -0.056741
  18 O :   -0.670467
  19 C :   -0.042845
  20 H :    0.163153
  21 H :    0.163176
  22 H :    0.169106
  23 H :    0.185693
  24 H :    0.185899
  25 H :    0.216962
  26 H :    0.205593
  27 H :    0.191891
  28 H :    0.195145
  29 H :    0.162555
  30 H :    0.163445
  31 H :    0.167335
  32 H :    0.188677
  33 H :    0.175740
  34 H :    0.177097
  35 H :    0.191765
  36 H :    0.179460
  37 H :    0.181729

  Mayer bond orders larger than 0.100000
B(  0-C ,  1-C ) :   0.9418 B(  0-C , 20-H ) :   0.9708 B(  0-C , 21-H ) :   0.9696
B(  0-C , 22-H ) :   0.9620 B(  1-C ,  2-O ) :   0.7757 B(  1-C , 23-H ) :   0.9425
B(  1-C , 24-H ) :   0.9459 B(  2-O ,  3-C ) :   1.1767 B(  3-C ,  4-O ) :   1.7744
B(  3-C ,  5-C ) :   0.9681 B(  5-C ,  6-C ) :   0.9545 B(  5-C , 25-H ) :   0.9096
B(  5-C , 26-H ) :   0.9548 B(  6-C ,  7-H ) :   0.9008 B(  6-C ,  8-C ) :   0.8886
B(  6-C , 13-S ) :   0.8003 B(  8-C ,  9-O ) :   1.8421 B(  8-C , 10-O ) :   1.2078
B( 10-O , 11-C ) :   0.7527 B( 11-C , 12-C ) :   0.9203 B( 11-C , 27-H ) :   0.9542
B( 11-C , 28-H ) :   0.9560 B( 12-C , 29-H ) :   0.9701 B( 12-C , 30-H ) :   0.9680
B( 12-C , 31-H ) :   0.9610 B( 13-S , 14-P ) :   1.0232 B( 14-P , 15-S ) :   1.7617
B( 14-P , 16-O ) :   1.0442 B( 14-P , 18-O ) :   1.1510 B( 16-O , 17-C ) :   0.8239
B( 17-C , 32-H ) :   0.9566 B( 17-C , 33-H ) :   0.9484 B( 17-C , 34-H ) :   0.9556
B( 18-O , 19-C ) :   0.7881 B( 19-C , 35-H ) :   0.9548 B( 19-C , 36-H ) :   0.9476
B( 19-C , 37-H ) :   0.9519

Dispersion correction           -0.017142531
FINAL SINGLE POINT ENERGY     -1981.468830798701

DIPOLE MOMENT
-------------

Method             : SCF
Type of density    : Electron Density
Multiplicity       :   1
Irrep              :   0
Energy             : -1981.4891079603178241 Eh
Relativity type    :
Basis              : AO
                                X                 Y                 Z
Electronic contribution:     -8.507679211       4.421017571       0.235101857
Nuclear contribution   :      8.801846530      -5.793286813       1.746836197
                        -----------------------------------------
Total Dipole Moment    :      0.294167319      -1.372269242       1.981938054
                        -----------------------------------------
Magnitude (a.u.)       :      2.428525424
Magnitude (Debye)      :      6.172821066

Rotational constants in cm-1:             0.013910             0.006230             0.005035
Rotational constants in MHz :           417.014452           186.778955           150.940235

                             ****ORCA TERMINATED NORMALLY****
TOTAL RUN TIME: 0 days 0 hours 1 minutes 45 seconds 727 msec
