                         Program Version 6.0.0  -   RELEASE  -
|  1> ! pbe def2-sv(p) def2/J RI DEFGRID1 loosescf d4 GCP(DFT/SV(P)) printgap
|  2> %output
|  3>     printlevel normal
|  4> end
|  5> * xyz 0 1
|  6> C 1.2680417337 0.3192732733 -1.15937269
|  7> C 0.0354598165 -0.5514402856 -1.1337072066
|  8> Br -1.2270906446 0.0014706283 0.2746779505
|  9> Cl 2.2475923277 0.0936811885 0.3343092723
| 10> H 1.9029607746 0.0352393574 -1.9978537746
| 11> H 1.0171102108 1.3778728814 -1.2139550259
| 12> H 0.2781183928 -1.591544491 -0.9248044783
| 13> H -0.5104242063 -0.4667297268 -2.0724877739
| 14> *
| 15>
| 16>                          ****END OF INPUT****

CARTESIAN COORDINATES (ANGSTROEM)
---------------------------------
  C      1.268042    0.319273   -1.159373
  C      0.035460   -0.551440   -1.133707
  Br    -1.227091    0.001471    0.274678
  Cl     2.247592    0.093681    0.334309
  H      1.902961    0.035239   -1.997854
  H      1.017110    1.377873   -1.213955
  H      0.278118   -1.591544   -0.924804
  H     -0.510424   -0.466730   -2.072488

 Total Charge           Charge          ....    0
 Multiplicity           Mult            ....    1
 Number of Electrons    NEL             ....   68
 Basis Dimension        Dim             ....   86

ORBITAL ENERGIES
----------------

  NO   OCC          E(Eh)            E(eV)
   0   2.0000    -480.926982    -13086.6885
   1   2.0000    -100.627500     -2738.2135
   2   2.0000     -61.769447     -1680.8321
   3   2.0000     -55.700124     -1515.6774
   4   2.0000     -55.696927     -1515.5904
   5   2.0000     -55.696815     -1515.5874
   6   2.0000      -9.961121      -271.0559
   7   2.0000      -9.956988      -270.9434
   8   2.0000      -9.163122      -249.3412
   9   2.0000      -8.394911      -228.4372
  10   2.0000      -6.995041      -190.3448
  11   2.0000      -6.982705      -190.0091
  12   2.0000      -6.982514      -190.0039
  13   2.0000      -6.277325      -170.8147
  14   2.0000      -6.262370      -170.4078
  15   2.0000      -6.262062      -170.3994
  16   2.0000      -2.478296       -67.4379
  17   2.0000      -2.474663       -67.3390
  18   2.0000      -2.474450       -67.3332
  19   2.0000      -2.463245       -67.0283
  20   2.0000      -2.463237       -67.0281
  21   2.0000      -0.793641       -21.5961
  22   2.0000      -0.729792       -19.8586
  23   2.0000      -0.651789       -17.7361
  24   2.0000      -0.556902       -15.1541
  25   2.0000      -0.443553       -12.0697
  26   2.0000      -0.433032       -11.7834
  27   2.0000      -0.393470       -10.7069
  28   2.0000      -0.357114        -9.7176
  29   2.0000      -0.338968        -9.2238
  30   2.0000      -0.258749        -7.0409
  31   2.0000      -0.256833        -6.9888
  32   2.0000      -0.242238        -6.5916
  33   2.0000      -0.237206        -6.4547
  34   0.0000      -0.041701        -1.1347
  35   0.0000       0.001903         0.0518
  36   0.0000       0.036184         0.9846
  37   0.0000       0.072248         1.9660
  38   0.0000       0.087577         2.3831

MULLIKEN ATOMIC CHARGES
-----------------------
   0 C :   -0.153053
   1 C :   -0.225126
   2 Br:   -0.103517
   3 Cl:   -0.133875
   4 H :    0.149778
   5 H :    0.155467
   6 H :    0.158324
   7 H :    0.152002
Sum of atomic charges:   -0.0000000

LOEWDIN ATOMIC CHARGES
----------------------
   0 C :   -0.291281
   1 C :   -0.301858
   2 Br:    0.017522
   3 Cl:    0.033682
   4 H :    0.135009
   5 H :    0.133220
   6 H :    0.136201
   7 H :    0.137505

  Mayer bond orders larger than 0.100000
B(  0-C ,  1-C ) :   1.0869 B(  0-C ,  3-Cl) :   1.0516 B(  0-C ,  4-H ) :   0.9131
B(  0-C ,  5-H ) :   0.9214 B(  1-C ,  2-Br) :   1.0514 B(  1-C ,  6-H ) :   0.9186
B(  1-C ,  7-H ) :   0.9120

Dispersion correction           -0.006685691
FINAL SINGLE POINT ENERGY     -3111.734542840509

DIPOLE MOMENT
-------------

Method             : SCF
Type of density    : Electron Density
Multiplicity       :   1
Irrep              :   0
Energy             : -3111.7645227394896210 Eh
Relativity type    :
Basis              : AO
                                X                 Y                 Z
Electronic contribution:    -10.810003150       0.650316227       7.843914578
Nuclear contribution   :     10.898643142      -0.744674873      -8.824422664
                        -----------------------------------------
Total Dipole Moment    :      0.088639992      -0.094358645      -0.980508086
                        -----------------------------------------
Magnitude (a.u.)       :      0.989018053
Magnitude (Debye)      :      2.513884109

Rotational constants in cm-1:             0.282146             0.050370             0.044667
Rotational constants in MHz :          8458.510744          1510.058147          1339.070173

                             ****ORCA TERMINATED NORMALLY****
TOTAL RUN TIME: 0 days 0 hours 0 minutes 4 seconds 489 msec
