                         Program Version 6.0.0  -   RELEASE  -
|  1> ! r2scan-3c def2/J RI DEFGRID2 scfconv6 printgap
|  2> %output
|  3>     printlevel normal
|  4> end
|  5> * xyz 0 1
|  6> C 0.6004409494 2.927e-07 -1.14697e-05
|  7> O -0.599892132 4.8897e-06 2.8156e-06
|  8> H 1.1835826079 -0.930807284 4.59917e-05
|  9> H 1.1837335274 0.9307261777 4.5996e-05
| 10> *
| 11>
| 12>                          ****END OF INPUT****

CARTESIAN COORDINATES (ANGSTROEM)
---------------------------------
  C      0.600441    0.000000   -0.000011
  O     -0.599892    0.000005    0.000003
  H      1.183583   -0.930807    0.000046
  H      1.183734    0.930726    0.000046

 Total Charge           Charge          ....    0
 Multiplicity           Mult            ....    1
 Number of Electrons    NEL             ....   16
 Basis Dimension        Dim             ....   53

ORBITAL ENERGIES
----------------

  NO   OCC          E(Eh)            E(eV)
   0   2.0000     -18.971875      -516.2510
   1   2.0000     -10.130811      -275.6734
   2   2.0000      -1.031933       -28.0803
   3   2.0000      -0.607792       -16.5389
   4   2.0000      -0.465604       -12.6697
   5   2.0000      -0.419951       -11.4275
   6   2.0000      -0.379741       -10.3333
   7   2.0000      -0.237734        -6.4691
   8   0.0000      -0.082526        -2.2456
   9   0.0000       0.111042         3.0216
  10   0.0000       0.127432         3.4676
  11   0.0000       0.167819         4.5666
  12   0.0000       0.199271         5.4224

MULLIKEN ATOMIC CHARGES
-----------------------
   0 C :    0.113467
   1 O :   -0.319888
   2 H :    0.103209
   3 H :    0.103211
Sum of atomic charges:   -0.0000000

LOEWDIN ATOMIC CHARGES
----------------------
   0 C :    0.160290
   1 O :   -0.439620
   2 H :    0.139667
   3 H :    0.139664

  Mayer bond orders larger than 0.100000
B(  0-C ,  1-O ) :   1.9179 B(  0-C ,  2-H ) :   0.9346 B(  0-C ,  3-H ) :   0.9346

Dispersion correction           -0.000287988
FINAL SINGLE POINT ENERGY      -114.478426300240

DIPOLE MOMENT
-------------

Method             : SCF
Type of density    : Electron Density
Multiplicity       :   1
Irrep              :   0
Energy             :  -114.4803563748686344 Eh
Relativity type    :
Basis              : AO
                                X                 Y                 Z
Electronic contribution:     -1.293255050       0.000073673      -0.000075695
Nuclear contribution   :      2.212058161      -0.000076019       0.000086342
                        -----------------------------------------
Total Dipole Moment    :      0.918803112      -0.000002346       0.000010647
                        -----------------------------------------
Magnitude (a.u.)       :      0.918803112
Magnitude (Debye)      :      2.335411911

Rotational constants in cm-1:             9.652163             1.305540             1.149993
Rotational constants in MHz :        289364.580626         39139.091876         34475.921775

                             ****ORCA TERMINATED NORMALLY****
TOTAL RUN TIME: 0 days 0 hours 0 minutes 4 seconds 936 msec
