                         Program Version 6.0.0  -   RELEASE  -
|  1> ! r2scan-3c def2/J RI DEFGRID2 scfconv6 printgap
|  2> %output
|  3>     printlevel normal
|  4> end
|  5> %cpcm
|  6>     smd true
|  7>     smdsolvent "water"
|  8> end
|  9> * xyz 0 1
| 10> C 0.6004409494 2.927e-07 -1.14697e-05
| 11> O -0.599892132 4.8897e-06 2.8156e-06
| 12> H 1.1835826079 -0.930807284 4.59917e-05
| 13> H 1.1837335274 0.9307261777 4.5996e-05
| 14> *
| 15>
| 16>                          ****END OF INPUT****

CARTESIAN COORDINATES (ANGSTROEM)
---------------------------------
  C      0.600441    0.000000   -0.000011
  O     -0.599892    0.000005    0.000003
  H      1.183583   -0.930807    0.000046
  H      1.183734    0.930726    0.000046

 Total Charge           Charge          ....    0
 Multiplicity           Mult            ....    1
 Number of Electrons    NEL             ....   16
 Basis Dimension        Dim             ....   53

ORBITAL ENERGIES
----------------

  NO   OCC          E(Eh)            E(eV)
   0   2.0000     -18.970546      -516.2148
   1   2.0000     -10.124870      -275.5117
   2   2.0000      -1.033448       -28.1215
   3   2.0000      -0.595844       -16.2138
   4   2.0000      -0.457246       -12.4423
   5   2.0000      -0.425842       -11.5878
   6   2.0000      -0.380471       -10.3531
   7   2.0000      -0.237002        -6.4491
   8   0.0000      -0.074868        -2.0373
   9   0.0000       0.125751         3.4219
  10   0.0000       0.141242         3.8434
  11   0.0000       0.181149         4.9293
  12   0.0000       0.222426         6.0525

MULLIKEN ATOMIC CHARGES
-----------------------
   0 C :    0.142827
   1 O :   -0.418269
   2 H :    0.137716
   3 H :    0.137727
Sum of atomic charges:   -0.0000000

LOEWDIN ATOMIC CHARGES
----------------------
   0 C :    0.196022
   1 O :   -0.511791
   2 H :    0.157884
   3 H :    0.157885

  Mayer bond orders larger than 0.100000
B(  0-C ,  1-O ) :   1.8665 B(  0-C ,  2-H ) :   0.9337 B(  0-C ,  3-H ) :   0.9336

Dispersion correction           -0.000287988
FINAL SINGLE POINT ENERGY      -114.480919570131

DIPOLE MOMENT
-------------

Method             : SCF
Type of density    : Electron Density
Multiplicity       :   1
Irrep              :   0
Energy             :  -114.4828496447591419 Eh
Relativity type    :
Basis              : AO
                                X                 Y                 Z
Electronic contribution:     -0.953685724       0.000074223      -0.000072676
Nuclear contribution   :      2.212058161      -0.000076019       0.000086342
                        -----------------------------------------
Total Dipole Moment    :      1.258372437      -0.000001796       0.000013666
                        -----------------------------------------
Magnitude (a.u.)       :      1.258372437
Magnitude (Debye)      :      3.198528544

Rotational constants in cm-1:             9.652163             1.305540             1.149993
Rotational constants in MHz :        289364.580626         39139.091876         34475.921775

                             ****ORCA TERMINATED NORMALLY****
TOTAL RUN TIME: 0 days 0 hours 0 minutes 5 seconds 219 msec
