                         Program Version 6.0.0  -   RELEASE  -
|  1> ! pbe def2-sv(p) def2/J RI DEFGRID1 loosescf d4 GCP(DFT/SV(P)) printgap
|  2> %output
|  3>     printlevel normal
|  4> end
|  5> * xyz 0 1
|  6> C 5.4424039189 -1.2289945634 -0.9863507726
|  7> C 4.1668563931 -0.7050969191 -1.6135873089
|  8> O 3.582822127 0.3446654769 -0.8025456543
|  9> P 2.4801923302 0.1037582601 0.301453927
| 10> S 2.0897686756 1.7517166954 1.2736722351
| 11> O 3.0709255441 -1.0879361057 1.170651561
| 12> C 2.5917202425 -1.3689128275 2.4987184167
| 13> C 1.1520577457 -1.8400576444 2.4966005682
| 14> S 0.8928761041 -0.835163298 -0.787868319
| 15> C 0.2902176324 0.6678620206 -1.5947598258
| 16> S -0.8596977001 1.6306501297 -0.5739707206
| 17> P -2.4158552832 0.2007465837 -0.5847598807
| 18> S -2.7234576156 -0.7481461838 -2.2628547509
| 19> O -3.7091408693 0.9907548332 -0.1214193859
| 20> C -3.8208516009 1.6757705619 1.1506377374
| 21> C -3.5515001204 3.1586776637 0.9929708823
| 22> O -1.96590302 -0.7048544838 0.6566010953
| 23> C -2.3170050242 -2.100235368 0.7391229635
| 24> C -3.7944579816 -2.2841506621 1.019743642
| 25> H 5.8984986616 -1.9472685242 -1.6605727614
| 26> H 6.1349727753 -0.4098954525 -0.8127875946
| 27> H 5.2266493456 -1.7134397106 -0.0382503619
| 28> H 3.4310609039 -1.5036884005 -1.7430873318
| 29> H 4.3659370404 -0.2249201781 -2.5735112846
| 30> H 3.2683882844 -2.1430132986 2.8631780726
| 31> H 2.6994710185 -0.4625060222 3.1022435187
| 32> H 0.4974647282 -1.0275405767 2.1814746291
| 33> H 1.0313676904 -2.6762514444 1.8115509584
| 34> H 0.8736894352 -2.147727245 3.4996041014
| 35> H -0.2255273043 0.3517367811 -2.5016762998
| 36> H 1.1272985648 1.3261618337 -1.8206294967
| 37> H -4.8506872 1.4938816418 1.4632340774
| 38> H -3.1284924655 1.221725324 1.8636883759
| 39> H -4.1969439595 3.5742664725 0.2240718232
| 40> H -3.7496625216 3.6572352182 1.9366724641
| 41> H -2.514483909 3.3330697858 0.7121477343
| 42> H -2.0373078194 -2.5831864096 -0.2021726343
| 43> H -1.6976253872 -2.4825630502 1.5512274164
| 44> H -4.0716952313 -1.7833022148 1.9437510584
| 45> H -4.3786695277 -1.8654788645 0.2002469331
| 46> H -4.0153551471 -3.3434410687 1.1039245133
| 47> *
| 48>
| 49>                          ****END OF INPUT****

CARTESIAN COORDINATES (ANGSTROEM)
---------------------------------
  C      5.442404   -1.228995   -0.986351
  C      4.166856   -0.705097   -1.613587
  O      3.582822    0.344665   -0.802546
  P      2.480192    0.103758    0.301454
  S      2.089769    1.751717    1.273672
  O      3.070926   -1.087936    1.170652
  C      2.591720   -1.368913    2.498718
  C      1.152058   -1.840058    2.496601
  S      0.892876   -0.835163   -0.787868
  C      0.290218    0.667862   -1.594760
  S     -0.859698    1.630650   -0.573971
  P     -2.415855    0.200747   -0.584760
  S     -2.723458   -0.748146   -2.262855
  O     -3.709141    0.990755   -0.121419
  C     -3.820852    1.675771    1.150638
  C     -3.551500    3.158678    0.992971
  O     -1.965903   -0.704854    0.656601
  C     -2.317005   -2.100235    0.739123
  C     -3.794458   -2.284151    1.019744
  H      5.898499   -1.947269   -1.660573
  H      6.134973   -0.409895   -0.812788
  H      5.226649   -1.713440   -0.038250
  H      3.431061   -1.503688   -1.743087
  H      4.365937   -0.224920   -2.573511
  H      3.268388   -2.143013    2.863178
  H      2.699471   -0.462506    3.102244
  H      0.497465   -1.027541    2.181475
  H      1.031368   -2.676251    1.811551
  H      0.873689   -2.147727    3.499604
  H     -0.225527    0.351737   -2.501676
  H      1.127299    1.326162   -1.820629
  H     -4.850687    1.493882    1.463234
  H     -3.128492    1.221725    1.863688
  H     -4.196944    3.574266    0.224072
  H     -3.749663    3.657235    1.936672
  H     -2.514484    3.333070    0.712148
  H     -2.037308   -2.583186   -0.202173
  H     -1.697625   -2.482563    1.551227
  H     -4.071695   -1.783302    1.943751
  H     -4.378670   -1.865479    0.200247
  H     -4.015355   -3.343441    1.103925

 Total Charge           Charge          ....    0
 Multiplicity           Mult            ....    1
 Number of Electrons    NEL             ....  202
 Basis Dimension        Dim             ....  334

ORBITAL ENERGIES
----------------

  NO   OCC          E(Eh)            E(eV)
   0   2.0000     -88.041426     -2395.7290
   1   2.0000     -88.037562     -2395.6239
   2   2.0000     -87.985204     -2394.1991
   3   2.0000     -87.984840     -2394.1892
   4   2.0000     -76.426990     -2079.6841
   5   2.0000     -76.423198     -2079.5809
   6   2.0000     -18.798141      -511.5234
   7   2.0000     -18.793370      -511.3936
   8   2.0000     -18.793127      -511.3870
   9   2.0000     -18.789889      -511.2989
  10   2.0000      -9.958336      -270.9801
  11   2.0000      -9.957260      -270.9508
  12   2.0000      -9.956761      -270.9372
  13   2.0000      -9.954769      -270.8830
  14   2.0000      -9.950080      -270.7555
  15   2.0000      -9.888105      -269.0690
  16   2.0000      -9.887842      -269.0619
  17   2.0000      -9.887208      -269.0446
  18   2.0000      -9.885259      -268.9916
  19   2.0000      -7.686005      -209.1468
  20   2.0000      -7.682669      -209.0560
  21   2.0000      -7.630421      -207.6343
  22   2.0000      -7.630140      -207.6267
  23   2.0000      -6.424452      -174.8182
  24   2.0000      -6.421193      -174.7296
  25   2.0000      -5.713687      -155.4773
  26   2.0000      -5.710674      -155.3953
  27   2.0000      -5.710541      -155.3917
  28   2.0000      -5.707389      -155.3060
  29   2.0000      -5.703057      -155.1881
  30   2.0000      -5.699419      -155.0891
  31   2.0000      -5.659474      -154.0021
  32   2.0000      -5.659135      -153.9929
  33   2.0000      -5.651003      -153.7716
  34   2.0000      -5.650722      -153.7640
  35   2.0000      -5.650488      -153.7576
  36   2.0000      -5.650197      -153.7497
  37   2.0000      -4.647501      -126.4649
  38   2.0000      -4.646163      -126.4285
  39   2.0000      -4.644518      -126.3838
  40   2.0000      -4.644159      -126.3740
  41   2.0000      -4.642467      -126.3279
  42   2.0000      -4.641734      -126.3080
  43   2.0000      -0.990971       -26.9657
  44   2.0000      -0.984395       -26.7867
  45   2.0000      -0.949164       -25.8281
  46   2.0000      -0.943455       -25.6727
  47   2.0000      -0.762798       -20.7568
  48   2.0000      -0.721801       -19.6412
  49   2.0000      -0.711139       -19.3511
  50   2.0000      -0.693715       -18.8770
  51   2.0000      -0.691661       -18.8210
  52   2.0000      -0.674132       -18.3441
  53   2.0000      -0.650964       -17.7136
  54   2.0000      -0.638563       -17.3762
  55   2.0000      -0.597642       -16.2627
  56   2.0000      -0.590213       -16.0605
  57   2.0000      -0.578841       -15.7511
  58   2.0000      -0.577741       -15.7211
  59   2.0000      -0.558061       -15.1856
  60   2.0000      -0.504533       -13.7290
  61   2.0000      -0.498282       -13.5589
  62   2.0000      -0.479028       -13.0350
  63   2.0000      -0.477051       -12.9812
  64   2.0000      -0.457615       -12.4523
  65   2.0000      -0.451410       -12.2835
  66   2.0000      -0.444860       -12.1052
  67   2.0000      -0.433374       -11.7927
  68   2.0000      -0.430967       -11.7272
  69   2.0000      -0.420941       -11.4544
  70   2.0000      -0.408981       -11.1289
  71   2.0000      -0.400283       -10.8922
  72   2.0000      -0.394869       -10.7449
  73   2.0000      -0.381307       -10.3759
  74   2.0000      -0.375100       -10.2070
  75   2.0000      -0.373172       -10.1545
  76   2.0000      -0.367528       -10.0010
  77   2.0000      -0.361758        -9.8439
  78   2.0000      -0.356468        -9.7000
  79   2.0000      -0.355310        -9.6685
  80   2.0000      -0.353664        -9.6237
  81   2.0000      -0.349239        -9.5033
  82   2.0000      -0.346722        -9.4348
  83   2.0000      -0.345603        -9.4043
  84   2.0000      -0.334294        -9.0966
  85   2.0000      -0.319219        -8.6864
  86   2.0000      -0.316399        -8.6096
  87   2.0000      -0.303159        -8.2494
  88   2.0000      -0.299393        -8.1469
  89   2.0000      -0.294844        -8.0231
  90   2.0000      -0.280367        -7.6292
  91   2.0000      -0.272863        -7.4250
  92   2.0000      -0.270380        -7.3574
  93   2.0000      -0.269912        -7.3447
  94   2.0000      -0.261282        -7.1098
  95   2.0000      -0.233455        -6.3526
  96   2.0000      -0.214190        -5.8284
  97   2.0000      -0.211224        -5.7477
  98   2.0000      -0.204190        -5.5563
  99   2.0000      -0.201986        -5.4963
 100   2.0000      -0.190881        -5.1941
 101   0.0000      -0.040727        -1.1082
 102   0.0000      -0.025881        -0.7043
 103   0.0000      -0.002813        -0.0765
 104   0.0000       0.005571         0.1516
 105   0.0000       0.012564         0.3419

MULLIKEN ATOMIC CHARGES
-----------------------
   0 C :   -0.292370
   1 C :   -0.011751
   2 O :   -0.359308
   3 P :    0.586880
   4 S :   -0.306290
   5 O :   -0.381673
   6 C :    0.012207
   7 C :   -0.358136
   8 S :   -0.084841
   9 C :   -0.351496
  10 S :   -0.071003
  11 P :    0.613920
  12 S :   -0.320735
  13 O :   -0.367358
  14 C :   -0.030886
  15 C :   -0.299576
  16 O :   -0.378252
  17 C :   -0.015073
  18 C :   -0.310490
  19 H :    0.110068
  20 H :    0.120264
  21 H :    0.122952
  22 H :    0.102224
  23 H :    0.108353
  24 H :    0.104039
  25 H :    0.114598
  26 H :    0.152402
  27 H :    0.120510
  28 H :    0.113891
  29 H :    0.194443
  30 H :    0.186787
  31 H :    0.110545
  32 H :    0.113386
  33 H :    0.123790
  34 H :    0.112796
  35 H :    0.139277
  36 H :    0.111865
  37 H :    0.110750
  38 H :    0.110045
  39 H :    0.130822
  40 H :    0.112421
Sum of atomic charges:    0.0000000

LOEWDIN ATOMIC CHARGES
----------------------
   0 C :   -0.360018
   1 C :   -0.117039
   2 O :   -0.240280
   3 P :    0.568442
   4 S :   -0.309207
   5 O :   -0.246749
   6 C :   -0.115641
   7 C :   -0.376889
   8 S :    0.080485
   9 C :   -0.480821
  10 S :    0.096400
  11 P :    0.568094
  12 S :   -0.313575
  13 O :   -0.242656
  14 C :   -0.117837
  15 C :   -0.360560
  16 O :   -0.251578
  17 C :   -0.122126
  18 C :   -0.365723
  19 H :    0.129759
  20 H :    0.128883
  21 H :    0.126106
  22 H :    0.103187
  23 H :    0.120503
  24 H :    0.118127
  25 H :    0.113981
  26 H :    0.127085
  27 H :    0.122306
  28 H :    0.131014
  29 H :    0.131041
  30 H :    0.133918
  31 H :    0.120820
  32 H :    0.111690
  33 H :    0.130863
  34 H :    0.131884
  35 H :    0.121970
  36 H :    0.109043
  37 H :    0.116540
  38 H :    0.121884
  39 H :    0.125619
  40 H :    0.131057

  Mayer bond orders larger than 0.100000
B(  0-C ,  1-C ) :   1.1651 B(  0-C , 19-H ) :   0.9396 B(  0-C , 20-H ) :   0.9471
B(  0-C , 21-H ) :   0.9420 B(  1-C ,  2-O ) :   0.8950 B(  1-C , 22-H ) :   0.9092
B(  1-C , 23-H ) :   0.9362 B(  2-O ,  3-P ) :   1.1231 B(  3-P ,  4-S ) :   1.6555
B(  3-P ,  5-O ) :   1.0814 B(  3-P ,  8-S ) :   0.9520 B(  4-S ,  8-S ) :   0.1133
B(  5-O ,  6-C ) :   0.9051 B(  6-C ,  7-C ) :   1.1625 B(  6-C , 24-H ) :   0.9324
B(  6-C , 25-H ) :   0.9172 B(  7-C , 26-H ) :   0.9254 B(  7-C , 27-H ) :   0.9406
B(  7-C , 28-H ) :   0.9369 B(  8-S ,  9-C ) :   0.9914 B(  9-C , 10-S ) :   1.0100
B(  9-C , 29-H ) :   0.8761 B(  9-C , 30-H ) :   0.8948 B( 10-S , 11-P ) :   0.9738
B( 10-S , 12-S ) :   0.1030 B( 11-P , 12-S ) :   1.6215 B( 11-P , 13-O ) :   1.1241
B( 11-P , 16-O ) :   1.0673 B( 13-O , 14-C ) :   0.8994 B( 14-C , 15-C ) :   1.1688
B( 14-C , 31-H ) :   0.9339 B( 14-C , 32-H ) :   0.9149 B( 15-C , 33-H ) :   0.9459
B( 15-C , 34-H ) :   0.9382 B( 15-C , 35-H ) :   0.9336 B( 16-O , 17-C ) :   0.9053
B( 17-C , 18-C ) :   1.1622 B( 17-C , 36-H ) :   0.9131 B( 17-C , 37-H ) :   0.9279
B( 18-C , 38-H ) :   0.9469 B( 18-C , 39-H ) :   0.9336 B( 18-C , 40-H ) :   0.9401

Dispersion correction           -0.064879901
FINAL SINGLE POINT ENERGY     -2929.518190092451

DIPOLE MOMENT
-------------

Method             : SCF
Type of density    : Electron Density
Multiplicity       :   1
Irrep              :   0
Energy             : -2929.6386145426131407 Eh
Relativity type    :
Basis              : AO
                                X                 Y                 Z
Electronic contribution:      0.643922253       9.969998418     -11.616178295
Nuclear contribution   :     -0.317990747     -10.984943573      12.628679782
                        -----------------------------------------
Total Dipole Moment    :      0.325931505      -1.014945155       1.012501487
                        -----------------------------------------
Magnitude (a.u.)       :      1.470205521
Magnitude (Debye)      :      3.736965454

Rotational constants in cm-1:             0.012478             0.004655             0.004575
Rotational constants in MHz :           374.087857           139.560354           137.145230

                             ****ORCA TERMINATED NORMALLY****
TOTAL RUN TIME: 0 days 0 hours 0 minutes 21 seconds 254 msec
