                         Program Version 6.0.0  -   RELEASE  -
|  1> ! pbe def2-sv(p) def2/J RI DEFGRID1 loosescf d4 GCP(DFT/SV(P)) printgap
|  2> %output
|  3>     printlevel normal
|  4> end
|  5> * xyz 0 1
|  6> C -2.7343761848 -0.2589889998 -0.0034663967
|  7> C -2.3498618793 1.0886395445 0.0090613893
|  8> C -1.0244694275 1.4286899192 0.0092554747
|  9> C -0.0147096854 0.4449387085 -0.0035827836
| 10> C -0.4064886185 -0.9215751624 -0.0056431553
| 11> C -1.781965646 -1.2380132301 -0.0085899914
| 12> C 0.5731802169 -1.9345243544 0.000711319
| 13> C 1.9009255361 -1.6049974036 0.0101093285
| 14> C 2.3017495069 -0.2690166223 -0.0002066182
| 15> C 1.3795224947 0.7617824148 -0.0120937245
| 16> N 1.8114898811 2.0641483646 0.0350284932
| 17> H -3.7837402916 -0.5149639618 -0.0052890575
| 18> H -3.1076875513 1.8579906184 0.0205719958
| 19> H -0.7575533725 2.4743673461 0.033136176
| 20> H -2.0669261824 -2.2807919578 -0.0123939929
| 21> H 0.257445177 -2.9674207916 0.0005862903
| 22> H 2.6547718276 -2.3791303628 0.0172126376
| 23> H 3.3561164619 -0.0318981132 -0.0001965356
| 24> H 2.7834193709 2.209509094 -0.1819465939
| 25> H 1.1886613128 2.7757145022 -0.3054965761
| 26> *
| 27>
| 28>                          ****END OF INPUT****

CARTESIAN COORDINATES (ANGSTROEM)
---------------------------------
  C     -2.734376   -0.258989   -0.003466
  C     -2.349862    1.088640    0.009061
  C     -1.024469    1.428690    0.009255
  C     -0.014710    0.444939   -0.003583
  C     -0.406489   -0.921575   -0.005643
  C     -1.781966   -1.238013   -0.008590
  C      0.573180   -1.934524    0.000711
  C      1.900926   -1.604997    0.010109
  C      2.301750   -0.269017   -0.000207
  C      1.379522    0.761782   -0.012094
  N      1.811490    2.064148    0.035028
  H     -3.783740   -0.514964   -0.005289
  H     -3.107688    1.857991    0.020572
  H     -0.757553    2.474367    0.033136
  H     -2.066926   -2.280792   -0.012394
  H      0.257445   -2.967421    0.000586
  H      2.654772   -2.379130    0.017213
  H      3.356116   -0.031898   -0.000197
  H      2.783419    2.209509   -0.181947
  H      1.188661    2.775715   -0.305497

 Total Charge           Charge          ....    0
 Multiplicity           Mult            ....    1
 Number of Electrons    NEL             ....   76
 Basis Dimension        Dim             ....  172

ORBITAL ENERGIES
----------------

  NO   OCC          E(Eh)            E(eV)
   0   2.0000     -14.000565      -380.9747
   1   2.0000      -9.932393      -270.2741
   2   2.0000      -9.895687      -269.2753
   3   2.0000      -9.893967      -269.2285
   4   2.0000      -9.892471      -269.1878
   5   2.0000      -9.887982      -269.0657
   6   2.0000      -9.887622      -269.0559
   7   2.0000      -9.887281      -269.0466
   8   2.0000      -9.884331      -268.9663
   9   2.0000      -9.879091      -268.8237
  10   2.0000      -9.874552      -268.7002
  11   2.0000      -0.842693       -22.9308
  12   2.0000      -0.778301       -21.1786
  13   2.0000      -0.732710       -19.9380
  14   2.0000      -0.680455       -18.5161
  15   2.0000      -0.661094       -17.9893
  16   2.0000      -0.632915       -17.2225
  17   2.0000      -0.557383       -15.1672
  18   2.0000      -0.552179       -15.0256
  19   2.0000      -0.530429       -14.4337
  20   2.0000      -0.485203       -13.2031
  21   2.0000      -0.469499       -12.7757
  22   2.0000      -0.444379       -12.0922
  23   2.0000      -0.430960       -11.7270
  24   2.0000      -0.411562       -11.1992
  25   2.0000      -0.384346       -10.4586
  26   2.0000      -0.377485       -10.2719
  27   2.0000      -0.362845        -9.8735
  28   2.0000      -0.357708        -9.7337
  29   2.0000      -0.346727        -9.4349
  30   2.0000      -0.325993        -8.8707
  31   2.0000      -0.307897        -8.3783
  32   2.0000      -0.291613        -7.9352
  33   2.0000      -0.288453        -7.8492
  34   2.0000      -0.274535        -7.4705
  35   2.0000      -0.225398        -6.1334
  36   2.0000      -0.218322        -5.9408
  37   2.0000      -0.164206        -4.4683
  38   0.0000      -0.056205        -1.5294
  39   0.0000      -0.032263        -0.8779
  40   0.0000       0.012948         0.3523
  41   0.0000       0.026331         0.7165
  42   0.0000       0.052085         1.4173

MULLIKEN ATOMIC CHARGES
-----------------------
   0 C :   -0.037077
   1 C :   -0.051741
   2 C :   -0.170704
   3 C :    0.138395
   4 C :    0.136595
   5 C :   -0.133451
   6 C :   -0.135919
   7 C :   -0.039368
   8 C :   -0.160363
   9 C :    0.084175
  10 N :   -0.324785
  11 H :    0.049037
  12 H :    0.046330
  13 H :    0.021975
  14 H :    0.037416
  15 H :    0.027935
  16 H :    0.045560
  17 H :    0.013635
  18 H :    0.223515
  19 H :    0.228840
Sum of atomic charges:    0.0000000

LOEWDIN ATOMIC CHARGES
----------------------
   0 C :   -0.127555
   1 C :   -0.130226
   2 C :   -0.120412
   3 C :   -0.044913
   4 C :   -0.019089
   5 C :   -0.108863
   6 C :   -0.149940
   7 C :   -0.118041
   8 C :   -0.174816
   9 C :    0.004524
  10 N :   -0.305313
  11 H :    0.122927
  12 H :    0.122098
  13 H :    0.114966
  14 H :    0.123014
  15 H :    0.119812
  16 H :    0.122555
  17 H :    0.116921
  18 H :    0.227939
  19 H :    0.224411

  Mayer bond orders larger than 0.100000
B(  0-C ,  1-C ) :   1.2648 B(  0-C ,  5-C ) :   1.4556 B(  0-C , 11-H ) :   0.9628
B(  1-C ,  2-C ) :   1.4785 B(  1-C , 12-H ) :   0.9596 B(  2-C ,  3-C ) :   1.2316
B(  2-C , 13-H ) :   0.9518 B(  3-C ,  4-C ) :   1.2715 B(  3-C ,  9-C ) :   1.1987
B(  4-C ,  5-C ) :   1.2446 B(  4-C ,  6-C ) :   1.2347 B(  5-C , 14-H ) :   0.9640
B(  6-C ,  7-C ) :   1.4200 B(  6-C , 15-H ) :   0.9687 B(  7-C ,  8-C ) :   1.2685
B(  7-C , 16-H ) :   0.9605 B(  8-C ,  9-C ) :   1.3901 B(  8-C , 17-H ) :   0.9582
B(  9-C , 10-N ) :   1.2926 B( 10-N , 18-H ) :   0.8782 B( 10-N , 19-H ) :   0.8642

Dispersion correction           -0.024838838
FINAL SINGLE POINT ENERGY      -440.289953243223

DIPOLE MOMENT
-------------

Method             : SCF
Type of density    : Electron Density
Multiplicity       :   1
Irrep              :   0
Energy             :  -440.3428797356199311 Eh
Relativity type    :
Basis              : AO
                                X                 Y                 Z
Electronic contribution:     -0.161512897      -0.400530859       0.100664663
Nuclear contribution   :      0.502019950       1.084012012      -0.406800788
                        -----------------------------------------
Total Dipole Moment    :      0.340507054       0.683481153      -0.306136126
                        -----------------------------------------
Magnitude (a.u.)       :      0.822685157
Magnitude (Debye)      :      2.091099488

Rotational constants in cm-1:             0.065712             0.037829             0.024019
Rotational constants in MHz :          1969.990875          1134.085925           720.057690

                             ****ORCA TERMINATED NORMALLY****
TOTAL RUN TIME: 0 days 0 hours 0 minutes 11 seconds 680 msec
