                         Program Version 6.0.1  -  RELEASE   -
|  1> ! pbe def2-sv(p) def2/J RI DEFGRID1 loosescf d4 GCP(DFT/SV(P)) printgap
|  2> %output
|  3>     printlevel normal
|  4> end
|  5> * xyz 0 1
|  6> C 5.8132186125 -1.5465137788 -0.334788745
|  7> C 4.7707004262 -0.7104093838 -1.0512184922
|  8> O 3.4724088457 -1.2732549189 -0.774783465
|  9> C 2.4589228173 -0.8801387518 -1.5165213095
| 10> O 2.5416880193 -0.0800099217 -2.421139286
| 11> C 1.1670557574 -1.5653187904 -1.1047408631
| 12> C 0.1394301128 -0.4983969586 -0.729974966
| 13> H 0.0514278969 0.231336712 -1.5417278578
| 14> C 0.5481807384 0.2299834392 0.5372566556
| 15> O -0.1284270279 0.2340939802 1.5441832975
| 16> O 1.7027741798 0.8263635117 0.3973936101
| 17> C 2.2432801042 1.5395766872 1.5323890268
| 18> C 2.9542418374 0.588757113 2.4808057767
| 19> S -1.4900989574 -1.2592740614 -0.4416561567
| 20> P -2.5151098208 0.4633694513 0.2593246719
| 21> S -1.7917570328 2.2018325949 -0.2813526781
| 22> O -3.986824309 0.1889801734 -0.3227071322
| 23> C -4.2590845786 0.2498668198 -1.7257077692
| 24> O -2.8311359792 0.3500879936 1.799514675
| 25> C -3.3329478212 -0.8600241311 2.4019088891
| 26> H 5.6240968306 -1.549493624 0.7346102611
| 27> H 5.7845447688 -2.569926957 -0.6966199911
| 28> H 6.7967904786 -1.1288394849 -0.5218421764
| 29> H 4.9220788738 -0.7077627983 -2.1348954934
| 30> H 4.769466297 0.3269686205 -0.7028922458
| 31> H 1.3557578949 -2.2384328019 -0.2693908261
| 32> H 0.7855000812 -2.1331388992 -1.954692747
| 33> H 2.9301042341 2.2603516335 1.0886725341
| 34> H 1.4224456414 2.0595462556 2.0344009997
| 35> H 3.4382682501 1.1632576502 3.2634596021
| 36> H 2.2388183375 -0.0936392062 2.9337229652
| 37> H 3.7010111513 0.0128191069 1.9409990173
| 38> H -3.8186946555 -0.6120761487 -2.2268904086
| 39> H -3.8556368691 1.172750481 -2.1457965608
| 40> H -5.3422354358 0.2343665073 -1.8144344623
| 41> H -3.4939332778 -0.6066067333 3.4463414575
| 42> H -2.5890134827 -1.6508796781 2.3087083105
| 43> H -4.2644773555 -1.1567644212 1.9233806804
| 44> *
| 45>
| 46>                          ****END OF INPUT****

CARTESIAN COORDINATES (ANGSTROEM)
---------------------------------
  C      5.813219   -1.546514   -0.334789
  C      4.770700   -0.710409   -1.051218
  O      3.472409   -1.273255   -0.774783
  C      2.458923   -0.880139   -1.516521
  O      2.541688   -0.080010   -2.421139
  C      1.167056   -1.565319   -1.104741
  C      0.139430   -0.498397   -0.729975
  H      0.051428    0.231337   -1.541728
  C      0.548181    0.229983    0.537257
  O     -0.128427    0.234094    1.544183
  O      1.702774    0.826364    0.397394
  C      2.243280    1.539577    1.532389
  C      2.954242    0.588757    2.480806
  S     -1.490099   -1.259274   -0.441656
  P     -2.515110    0.463369    0.259325
  S     -1.791757    2.201833   -0.281353
  O     -3.986824    0.188980   -0.322707
  C     -4.259085    0.249867   -1.725708
  O     -2.831136    0.350088    1.799515
  C     -3.332948   -0.860024    2.401909
  H      5.624097   -1.549494    0.734610
  H      5.784545   -2.569927   -0.696620
  H      6.796790   -1.128839   -0.521842
  H      4.922079   -0.707763   -2.134895
  H      4.769466    0.326969   -0.702892
  H      1.355758   -2.238433   -0.269391
  H      0.785500   -2.133139   -1.954693
  H      2.930104    2.260352    1.088673
  H      1.422446    2.059546    2.034401
  H      3.438268    1.163258    3.263460
  H      2.238818   -0.093639    2.933723
  H      3.701011    0.012819    1.940999
  H     -3.818695   -0.612076   -2.226890
  H     -3.855637    1.172750   -2.145797
  H     -5.342235    0.234367   -1.814434
  H     -3.493933   -0.606607    3.446341
  H     -2.589013   -1.650880    2.308708
  H     -4.264477   -1.156764    1.923381

 Total Charge           Charge          ....    0
 Multiplicity           Mult            ....    1
 Number of Electrons    NEL             ....  174
 Basis Dimension        Dim             ....  316

ORBITAL ENERGIES
----------------

  NO   OCC          E(Eh)            E(eV)
   0   2.0000     -88.037280     -2395.6162
   1   2.0000     -87.974716     -2393.9137
   2   2.0000     -76.419268     -2079.4740
   3   2.0000     -18.815799      -512.0039
   4   2.0000     -18.808005      -511.7918
   5   2.0000     -18.783519      -511.1255
   6   2.0000     -18.782679      -511.1027
   7   2.0000     -18.743433      -510.0347
   8   2.0000     -18.741068      -509.9704
   9   2.0000     -10.019398      -272.6417
  10   2.0000     -10.014487      -272.5080
  11   2.0000      -9.954387      -270.8726
  12   2.0000      -9.954021      -270.8627
  13   2.0000      -9.946717      -270.6639
  14   2.0000      -9.943007      -270.5630
  15   2.0000      -9.937200      -270.4050
  16   2.0000      -9.918802      -269.9043
  17   2.0000      -9.896247      -269.2906
  18   2.0000      -9.892737      -269.1951
  19   2.0000      -7.682236      -209.0443
  20   2.0000      -7.619914      -207.3484
  21   2.0000      -6.415829      -174.5836
  22   2.0000      -5.709961      -155.3759
  23   2.0000      -5.706868      -155.2918
  24   2.0000      -5.699275      -155.0852
  25   2.0000      -5.649142      -153.7210
  26   2.0000      -5.640428      -153.4838
  27   2.0000      -5.639845      -153.4680
  28   2.0000      -4.638503      -126.2201
  29   2.0000      -4.637872      -126.2029
  30   2.0000      -4.636148      -126.1560
  31   2.0000      -1.024520       -27.8786
  32   2.0000      -1.014863       -27.6158
  33   2.0000      -0.978199       -26.6181
  34   2.0000      -0.933552       -25.4032
  35   2.0000      -0.925583       -25.1864
  36   2.0000      -0.918530       -24.9945
  37   2.0000      -0.767380       -20.8815
  38   2.0000      -0.718554       -19.5528
  39   2.0000      -0.710757       -19.3407
  40   2.0000      -0.692395       -18.8410
  41   2.0000      -0.660636       -17.9768
  42   2.0000      -0.628974       -17.1153
  43   2.0000      -0.623859       -16.9761
  44   2.0000      -0.613656       -16.6984
  45   2.0000      -0.594885       -16.1876
  46   2.0000      -0.564539       -15.3619
  47   2.0000      -0.518682       -14.1141
  48   2.0000      -0.509833       -13.8733
  49   2.0000      -0.500172       -13.6104
  50   2.0000      -0.473470       -12.8838
  51   2.0000      -0.470651       -12.8071
  52   2.0000      -0.467171       -12.7124
  53   2.0000      -0.454659       -12.3719
  54   2.0000      -0.437254       -11.8983
  55   2.0000      -0.431924       -11.7533
  56   2.0000      -0.426431       -11.6038
  57   2.0000      -0.423393       -11.5211
  58   2.0000      -0.413488       -11.2516
  59   2.0000      -0.408304       -11.1105
  60   2.0000      -0.406175       -11.0526
  61   2.0000      -0.396740       -10.7958
  62   2.0000      -0.391832       -10.6623
  63   2.0000      -0.388087       -10.5604
  64   2.0000      -0.371925       -10.1206
  65   2.0000      -0.367194        -9.9919
  66   2.0000      -0.364155        -9.9092
  67   2.0000      -0.360647        -9.8137
  68   2.0000      -0.351189        -9.5563
  69   2.0000      -0.343388        -9.3441
  70   2.0000      -0.341240        -9.2856
  71   2.0000      -0.333328        -9.0703
  72   2.0000      -0.321364        -8.7448
  73   2.0000      -0.316063        -8.6005
  74   2.0000      -0.306443        -8.3387
  75   2.0000      -0.300169        -8.1680
  76   2.0000      -0.293334        -7.9820
  77   2.0000      -0.290097        -7.8939
  78   2.0000      -0.272424        -7.4130
  79   2.0000      -0.265945        -7.2367
  80   2.0000      -0.261410        -7.1133
  81   2.0000      -0.253529        -6.8989
  82   2.0000      -0.234386        -6.3780
  83   2.0000      -0.226233        -6.1561
  84   2.0000      -0.218707        -5.9513
  85   2.0000      -0.195064        -5.3080
  86   2.0000      -0.190816        -5.1924
  87   0.0000      -0.039626        -1.0783
  88   0.0000      -0.037071        -1.0088
  89   0.0000      -0.018532        -0.5043
  90   0.0000       0.014078         0.3831
  91   0.0000       0.019471         0.5298

MULLIKEN ATOMIC CHARGES
-----------------------
   0 C :   -0.284768
   1 C :   -0.029686
   2 O :   -0.235784
   3 C :    0.106968
   4 O :   -0.200300
   5 C :   -0.050151
   6 C :   -0.304168
   7 H :    0.168251
   8 C :    0.190170
   9 O :   -0.186293
  10 O :   -0.220632
  11 C :   -0.003304
  12 C :   -0.327510
  13 S :   -0.104650
  14 P :    0.618782
  15 S :   -0.325200
  16 O :   -0.391159
  17 C :   -0.099314
  18 O :   -0.349833
  19 C :   -0.102607
  20 H :    0.122142
  21 H :    0.117041
  22 H :    0.114175
  23 H :    0.114280
  24 H :    0.107206
  25 H :    0.103381
  26 H :    0.128264
  27 H :    0.109463
  28 H :    0.122537
  29 H :    0.116409
  30 H :    0.129820
  31 H :    0.124681
  32 H :    0.110876
  33 H :    0.117000
  34 H :    0.122078
  35 H :    0.130565
  36 H :    0.121650
  37 H :    0.119620
Sum of atomic charges:    0.0000000

LOEWDIN ATOMIC CHARGES
----------------------
   0 C :   -0.350971
   1 C :   -0.107734
   2 O :   -0.059926
   3 C :    0.024136
   4 O :   -0.162132
   5 C :   -0.242337
   6 C :   -0.267562
   7 H :    0.148473
   8 C :    0.009666
   9 O :   -0.161587
  10 O :   -0.032779
  11 C :   -0.103959
  12 C :   -0.358870
  13 S :    0.090074
  14 P :    0.585466
  15 S :   -0.318423
  16 O :   -0.264952
  17 C :   -0.218714
  18 O :   -0.228784
  19 C :   -0.207738
  20 H :    0.125242
  21 H :    0.128260
  22 H :    0.132141
  23 H :    0.120342
  24 H :    0.115570
  25 H :    0.133462
  26 H :    0.147575
  27 H :    0.120546
  28 H :    0.128241
  29 H :    0.132652
  30 H :    0.132057
  31 H :    0.122995
  32 H :    0.105881
  33 H :    0.110879
  34 H :    0.120770
  35 H :    0.126446
  36 H :    0.112446
  37 H :    0.113150

  Mayer bond orders larger than 0.100000
B(  0-C ,  1-C ) :   1.1542 B(  0-C , 20-H ) :   0.9487 B(  0-C , 21-H ) :   0.9486
B(  0-C , 22-H ) :   0.9432 B(  1-C ,  2-O ) :   0.8989 B(  1-C , 23-H ) :   0.9252
B(  1-C , 24-H ) :   0.9299 B(  2-O ,  3-C ) :   1.2250 B(  3-C ,  4-O ) :   2.0555
B(  3-C ,  5-C ) :   1.0159 B(  5-C ,  6-C ) :   1.0511 B(  5-C , 25-H ) :   0.9001
B(  5-C , 26-H ) :   0.8846 B(  6-C ,  7-H ) :   0.8513 B(  6-C ,  8-C ) :   0.8852
B(  6-C , 13-S ) :   1.0260 B(  8-C ,  9-O ) :   2.0141 B(  8-C , 10-O ) :   1.2610
B( 10-O , 11-C ) :   0.8997 B( 11-C , 12-C ) :   1.1723 B( 11-C , 27-H ) :   0.9357
B( 11-C , 28-H ) :   0.9153 B( 12-C , 29-H ) :   0.9420 B( 12-C , 30-H ) :   0.9428
B( 12-C , 31-H ) :   0.9401 B( 13-S , 14-P ) :   0.9411 B( 13-S , 15-S ) :   0.1126
B( 14-P , 15-S ) :   1.6211 B( 14-P , 16-O ) :   1.0624 B( 14-P , 18-O ) :   1.1420
B( 16-O , 17-C ) :   0.9368 B( 17-C , 32-H ) :   0.9458 B( 17-C , 33-H ) :   0.9347
B( 17-C , 34-H ) :   0.9588 B( 18-O , 19-C ) :   0.9203 B( 19-C , 35-H ) :   0.9602
B( 19-C , 36-H ) :   0.9413 B( 19-C , 37-H ) :   0.9457

Dispersion correction           -0.051366643
FINAL SINGLE POINT ENERGY     -1979.015409593901

DIPOLE MOMENT
-------------

Method             : SCF
Type of density    : Electron Density
Multiplicity       :   1
Irrep              :   0
Energy             : -1979.1463563987454108 Eh
Relativity type    :
Basis              : AO
                                X                 Y                 Z
Electronic contribution:    -20.543101719       5.679038576      -4.590416230
Nuclear contribution   :     21.545215854      -6.991880994       5.107363376
                        -----------------------------------------
Total Dipole Moment    :      1.002114135      -1.312842418       0.516947146
                        -----------------------------------------
Magnitude (a.u.)       :      1.730613275
Magnitude (Debye)      :      4.398869360

Rotational constants in cm-1:             0.018566             0.005492             0.005069
Rotational constants in MHz :           556.588208           164.651800           151.953743

                             ****ORCA TERMINATED NORMALLY****
TOTAL RUN TIME: 0 days 0 hours 0 minutes 37 seconds 335 msec
