                         Program Version 6.0.0  -   RELEASE  -
|  1> ! pbe def2-sv(p) def2/J RI DEFGRID1 loosescf d4 GCP(DFT/SV(P)) printgap
|  2> %output
|  3>     printlevel normal
|  4> end
|  5> * xyz 0 1
|  6> C 3.409765981 1.9272105165 1.5367771739
|  7> C 1.9211032521 1.7822648168 1.3061603142
|  8> O 1.6522677095 0.7836396528 0.303279575
|  9> P 1.790277998 -0.7598344114 0.5969177807
| 10> S 1.6573301498 -1.3245907299 2.4663228896
| 11> O 3.1640778936 -1.0552134868 -0.1612248883
| 12> C 3.7192502091 -2.3812356589 -0.2317925787
| 13> C 4.7023025345 -2.6190285044 0.8981393203
| 14> S 0.3311103934 -1.6373520207 -0.6707560556
| 15> C 0.3991585134 -0.5233710211 -2.1000113022
| 16> S -0.2964663839 1.1376405416 -1.8204335088
| 17> P -1.9305059302 0.6533310194 -0.5846577976
| 18> S -3.0698098225 -0.8682164477 -1.0853718795
| 19> O -2.6512374693 2.0593678923 -0.4210018276
| 20> C -3.0496325393 2.9345341207 -1.4936651204
| 21> C -3.8613337717 2.2335879619 -2.5629805942
| 22> O -1.2452811433 0.5232993732 0.8492744742
| 23> C -1.869532539 -0.2245040665 1.9091377767
| 24> C -3.0697129144 0.5102898955 2.4645267842
| 25> H 3.915045189 2.1436652449 0.5994916299
| 26> H 3.5901927507 2.7319060388 2.2423573192
| 27> H 3.8063625973 0.9987536664 1.946254038
| 28> H 1.4755476119 2.6908293422 0.8983112745
| 29> H 1.4081938127 1.4995894574 2.2309201373
| 30> H 2.9056986127 -3.1143043231 -0.2054324263
| 31> H 4.2159608067 -2.423368633 -1.2031040724
| 32> H 5.4867058104 -1.8678110667 0.8740862067
| 33> H 4.1939627452 -2.5663678733 1.8585306751
| 34> H 5.1440888701 -3.6038630327 0.7863184936
| 35> H -0.1771744066 -1.0243070052 -2.8757137912
| 36> H 1.431620239 -0.3706970576 -2.4063469929
| 37> H -3.6355227736 3.705065581 -0.9891081086
| 38> H -2.145754452 3.3764207338 -1.9223437619
| 39> H -4.7246314886 1.7394830362 -2.1234897313
| 40> H -4.1972993668 2.962004309 -3.2939553418
| 41> H -3.2535289274 1.4814485645 -3.0639995348
| 42> H -2.1580216299 -1.2077227505 1.5199388434
| 43> H -1.0823821873 -0.3514363214 2.6555474798
| 44> H -3.4771859717 -0.0477042853 3.3015464838
| 45> H -2.7813606075 1.5049322529 2.7937086427
| 46> H -3.830409126 0.6013434669 1.6896332923
| 47> *
| 48>
| 49>                          ****END OF INPUT****

CARTESIAN COORDINATES (ANGSTROEM)
---------------------------------
  C      3.409766    1.927211    1.536777
  C      1.921103    1.782265    1.306160
  O      1.652268    0.783640    0.303280
  P      1.790278   -0.759834    0.596918
  S      1.657330   -1.324591    2.466323
  O      3.164078   -1.055213   -0.161225
  C      3.719250   -2.381236   -0.231793
  C      4.702303   -2.619029    0.898139
  S      0.331110   -1.637352   -0.670756
  C      0.399159   -0.523371   -2.100011
  S     -0.296466    1.137641   -1.820434
  P     -1.930506    0.653331   -0.584658
  S     -3.069810   -0.868216   -1.085372
  O     -2.651237    2.059368   -0.421002
  C     -3.049633    2.934534   -1.493665
  C     -3.861334    2.233588   -2.562981
  O     -1.245281    0.523299    0.849274
  C     -1.869533   -0.224504    1.909138
  C     -3.069713    0.510290    2.464527
  H      3.915045    2.143665    0.599492
  H      3.590193    2.731906    2.242357
  H      3.806363    0.998754    1.946254
  H      1.475548    2.690829    0.898311
  H      1.408194    1.499589    2.230920
  H      2.905699   -3.114304   -0.205432
  H      4.215961   -2.423369   -1.203104
  H      5.486706   -1.867811    0.874086
  H      4.193963   -2.566368    1.858531
  H      5.144089   -3.603863    0.786318
  H     -0.177174   -1.024307   -2.875714
  H      1.431620   -0.370697   -2.406347
  H     -3.635523    3.705066   -0.989108
  H     -2.145754    3.376421   -1.922344
  H     -4.724631    1.739483   -2.123490
  H     -4.197299    2.962004   -3.293955
  H     -3.253529    1.481449   -3.064000
  H     -2.158022   -1.207723    1.519939
  H     -1.082382   -0.351436    2.655547
  H     -3.477186   -0.047704    3.301546
  H     -2.781361    1.504932    2.793709
  H     -3.830409    0.601343    1.689633

 Total Charge           Charge          ....    0
 Multiplicity           Mult            ....    1
 Number of Electrons    NEL             ....  202
 Basis Dimension        Dim             ....  334

ORBITAL ENERGIES
----------------

  NO   OCC          E(Eh)            E(eV)
   0   2.0000     -88.044822     -2395.8214
   1   2.0000     -88.042065     -2395.7464
   2   2.0000     -87.992184     -2394.3891
   3   2.0000     -87.980113     -2394.0606
   4   2.0000     -76.428238     -2079.7181
   5   2.0000     -76.424423     -2079.6143
   6   2.0000     -18.793415      -511.3948
   7   2.0000     -18.791231      -511.3354
   8   2.0000     -18.790992      -511.3289
   9   2.0000     -18.780814      -511.0519
  10   2.0000      -9.963654      -271.1248
  11   2.0000      -9.957710      -270.9631
  12   2.0000      -9.955749      -270.9097
  13   2.0000      -9.951347      -270.7899
  14   2.0000      -9.933836      -270.3134
  15   2.0000      -9.883814      -268.9522
  16   2.0000      -9.882288      -268.9107
  17   2.0000      -9.882165      -268.9074
  18   2.0000      -9.872561      -268.6461
  19   2.0000      -7.689383      -209.2387
  20   2.0000      -7.687293      -209.1819
  21   2.0000      -7.637147      -207.8173
  22   2.0000      -7.625142      -207.4907
  23   2.0000      -6.425831      -174.8558
  24   2.0000      -6.421155      -174.7285
  25   2.0000      -5.717700      -155.5865
  26   2.0000      -5.715305      -155.5214
  27   2.0000      -5.713656      -155.4765
  28   2.0000      -5.711800      -155.4260
  29   2.0000      -5.706153      -155.2723
  30   2.0000      -5.704056      -155.2153
  31   2.0000      -5.665972      -154.1789
  32   2.0000      -5.657925      -153.9600
  33   2.0000      -5.657237      -153.9413
  34   2.0000      -5.654088      -153.8556
  35   2.0000      -5.645850      -153.6314
  36   2.0000      -5.645238      -153.6147
  37   2.0000      -4.648218      -126.4845
  38   2.0000      -4.647829      -126.4739
  39   2.0000      -4.646285      -126.4319
  40   2.0000      -4.643693      -126.3613
  41   2.0000      -4.643151      -126.3466
  42   2.0000      -4.641580      -126.3038
  43   2.0000      -0.989142       -26.9159
  44   2.0000      -0.981122       -26.6977
  45   2.0000      -0.946978       -25.7686
  46   2.0000      -0.938428       -25.5359
  47   2.0000      -0.765074       -20.8187
  48   2.0000      -0.719996       -19.5921
  49   2.0000      -0.706099       -19.2139
  50   2.0000      -0.686349       -18.6765
  51   2.0000      -0.682312       -18.5667
  52   2.0000      -0.672192       -18.2913
  53   2.0000      -0.655044       -17.8246
  54   2.0000      -0.639586       -17.4040
  55   2.0000      -0.597796       -16.2669
  56   2.0000      -0.591028       -16.0827
  57   2.0000      -0.576510       -15.6876
  58   2.0000      -0.567596       -15.4451
  59   2.0000      -0.560883       -15.2624
  60   2.0000      -0.503860       -13.7107
  61   2.0000      -0.489264       -13.3135
  62   2.0000      -0.476959       -12.9787
  63   2.0000      -0.463059       -12.6005
  64   2.0000      -0.459394       -12.5007
  65   2.0000      -0.444004       -12.0820
  66   2.0000      -0.440278       -11.9806
  67   2.0000      -0.430110       -11.7039
  68   2.0000      -0.424914       -11.5625
  69   2.0000      -0.414987       -11.2924
  70   2.0000      -0.411146       -11.1878
  71   2.0000      -0.401341       -10.9211
  72   2.0000      -0.391750       -10.6601
  73   2.0000      -0.386812       -10.5257
  74   2.0000      -0.382119       -10.3980
  75   2.0000      -0.374467       -10.1898
  76   2.0000      -0.364104        -9.9078
  77   2.0000      -0.358997        -9.7688
  78   2.0000      -0.350891        -9.5482
  79   2.0000      -0.347222        -9.4484
  80   2.0000      -0.345485        -9.4011
  81   2.0000      -0.340050        -9.2532
  82   2.0000      -0.338348        -9.2069
  83   2.0000      -0.337419        -9.1816
  84   2.0000      -0.332165        -9.0387
  85   2.0000      -0.320173        -8.7123
  86   2.0000      -0.310121        -8.4388
  87   2.0000      -0.297726        -8.1015
  88   2.0000      -0.294769        -8.0211
  89   2.0000      -0.292678        -7.9642
  90   2.0000      -0.282426        -7.6852
  91   2.0000      -0.273372        -7.4388
  92   2.0000      -0.265977        -7.2376
  93   2.0000      -0.263862        -7.1800
  94   2.0000      -0.254469        -6.9245
  95   2.0000      -0.228237        -6.2106
  96   2.0000      -0.222977        -6.0675
  97   2.0000      -0.214226        -5.8294
  98   2.0000      -0.204227        -5.5573
  99   2.0000      -0.195156        -5.3105
 100   2.0000      -0.190558        -5.1854
 101   0.0000      -0.047116        -1.2821
 102   0.0000      -0.024704        -0.6722
 103   0.0000      -0.010255        -0.2791
 104   0.0000      -0.002936        -0.0799
 105   0.0000       0.013516         0.3678

MULLIKEN ATOMIC CHARGES
-----------------------
   0 C :   -0.303518
   1 C :   -0.000108
   2 O :   -0.362326
   3 P :    0.617703
   4 S :   -0.321087
   5 O :   -0.374001
   6 C :   -0.012047
   7 C :   -0.291778
   8 S :   -0.070602
   9 C :   -0.316593
  10 S :   -0.105299
  11 P :    0.609909
  12 S :   -0.328899
  13 O :   -0.372770
  14 C :   -0.013242
  15 C :   -0.307841
  16 O :   -0.365569
  17 C :   -0.023793
  18 C :   -0.295631
  19 H :    0.114498
  20 H :    0.111709
  21 H :    0.122655
  22 H :    0.102766
  23 H :    0.114605
  24 H :    0.100525
  25 H :    0.104199
  26 H :    0.112460
  27 H :    0.129638
  28 H :    0.107983
  29 H :    0.191804
  30 H :    0.179882
  31 H :    0.109282
  32 H :    0.112714
  33 H :    0.127231
  34 H :    0.109707
  35 H :    0.124021
  36 H :    0.112793
  37 H :    0.114302
  38 H :    0.108581
  39 H :    0.108342
  40 H :    0.117797
Sum of atomic charges:   -0.0000000

LOEWDIN ATOMIC CHARGES
----------------------
   0 C :   -0.363828
   1 C :   -0.113948
   2 O :   -0.231616
   3 P :    0.572387
   4 S :   -0.305758
   5 O :   -0.252301
   6 C :   -0.119372
   7 C :   -0.363712
   8 S :    0.108576
   9 C :   -0.466196
  10 S :    0.081135
  11 P :    0.568039
  12 S :   -0.327042
  13 O :   -0.245405
  14 C :   -0.113959
  15 C :   -0.370416
  16 O :   -0.242345
  17 C :   -0.131288
  18 C :   -0.363448
  19 H :    0.125630
  20 H :    0.130207
  21 H :    0.122444
  22 H :    0.117538
  23 H :    0.111256
  24 H :    0.105524
  25 H :    0.117045
  26 H :    0.124734
  27 H :    0.124118
  28 H :    0.128868
  29 H :    0.139466
  30 H :    0.134535
  31 H :    0.121512
  32 H :    0.108528
  33 H :    0.129899
  34 H :    0.129095
  35 H :    0.120557
  36 H :    0.108046
  37 H :    0.110073
  38 H :    0.128929
  39 H :    0.122480
  40 H :    0.120013

  Mayer bond orders larger than 0.100000
B(  0-C ,  1-C ) :   1.1620 B(  0-C , 19-H ) :   0.9464 B(  0-C , 20-H ) :   0.9398
B(  0-C , 21-H ) :   0.9360 B(  1-C ,  2-O ) :   0.8949 B(  1-C , 22-H ) :   0.9319
B(  1-C , 23-H ) :   0.9166 B(  2-O ,  3-P ) :   1.1335 B(  3-P ,  4-S ) :   1.6222
B(  3-P ,  5-O ) :   1.0809 B(  3-P ,  8-S ) :   0.9561 B(  5-O ,  6-C ) :   0.9092
B(  6-C ,  7-C ) :   1.1671 B(  6-C , 24-H ) :   0.9128 B(  6-C , 25-H ) :   0.9361
B(  7-C , 26-H ) :   0.9468 B(  7-C , 27-H ) :   0.9316 B(  7-C , 28-H ) :   0.9398
B(  8-S ,  9-C ) :   1.0030 B(  9-C , 10-S ) :   0.9817 B(  9-C , 29-H ) :   0.9040
B(  9-C , 30-H ) :   0.9059 B( 10-S , 11-P ) :   0.9673 B( 10-S , 12-S ) :   0.1127
B( 11-P , 12-S ) :   1.6048 B( 11-P , 13-O ) :   1.1061 B( 11-P , 16-O ) :   1.1080
B( 13-O , 14-C ) :   0.9172 B( 14-C , 15-C ) :   1.1648 B( 14-C , 31-H ) :   0.9342
B( 14-C , 32-H ) :   0.9278 B( 15-C , 33-H ) :   0.9420 B( 15-C , 34-H ) :   0.9344
B( 15-C , 35-H ) :   0.9326 B( 16-O , 17-C ) :   0.8955 B( 17-C , 18-C ) :   1.1625
B( 17-C , 36-H ) :   0.9123 B( 17-C , 37-H ) :   0.9159 B( 18-C , 38-H ) :   0.9407
B( 18-C , 39-H ) :   0.9471 B( 18-C , 40-H ) :   0.9356

Dispersion correction           -0.068152454
FINAL SINGLE POINT ENERGY     -2929.516317274513

DIPOLE MOMENT
-------------

Method             : SCF
Type of density    : Electron Density
Multiplicity       :   1
Irrep              :   0
Energy             : -2929.6338576315592945 Eh
Relativity type    :
Basis              : AO
                                X                 Y                 Z
Electronic contribution:     -5.013577518      -7.529030189      -5.613967398
Nuclear contribution   :      5.911132809       8.517523885       5.014278878
                        -----------------------------------------
Total Dipole Moment    :      0.897555292       0.988493696      -0.599688520
                        -----------------------------------------
Magnitude (a.u.)       :      1.463677427
Magnitude (Debye)      :      3.720372356

Rotational constants in cm-1:             0.013568             0.005124             0.005014
Rotational constants in MHz :           406.764000           153.609635           150.309309

                             ****ORCA TERMINATED NORMALLY****
TOTAL RUN TIME: 0 days 0 hours 0 minutes 21 seconds 841 msec
