                         Program Version 6.0.0  -   RELEASE  -
|  1> ! pbe def2-sv(p) def2/J RI DEFGRID1 loosescf d4 GCP(DFT/SV(P)) printgap
|  2> %output
|  3>     printlevel normal
|  4> end
|  5> * xyz 0 1
|  6> C 4.1744974112 -2.6348040506 -0.0051887994
|  7> C 4.5351639773 -1.220469148 0.4010896273
|  8> O 3.3849084632 -0.4659452818 0.8234814168
|  9> P 2.2288107335 -0.041825219 -0.1813965892
| 10> S 2.8410037585 0.5139507995 -1.9634827582
| 11> O 1.463130628 1.0539115547 0.6764055959
| 12> C 1.7261872602 2.4608388599 0.5306790758
| 13> C 3.0787557005 2.8378755777 1.0973327108
| 14> S 0.8515577587 -1.6266226093 -0.0680641087
| 15> C -0.1418538477 -1.181375893 -1.5196735353
| 16> S -0.7775912209 0.5257859179 -1.5159584738
| 17> P -2.1683322099 0.4154314747 0.0696786474
| 18> S -3.2931839162 2.0005534815 0.3042906904
| 19> O -1.2260440965 0.0385386351 1.2807253468
| 20> C -1.6261314065 0.2413449553 2.6513600482
| 21> C -2.733401226 -0.7077449844 3.0561442579
| 22> O -2.9509182127 -0.9500346717 -0.1823236783
| 23> C -4.1057719708 -1.0214175849 -1.0411210684
| 24> C -4.8953664866 -2.2562634615 -0.655266109
| 25> H 3.6033517875 -3.1205518223 0.7819416301
| 26> H 3.5753513973 -2.6193172966 -0.9145194174
| 27> H 5.083839655 -3.1969424075 -0.1921852901
| 28> H 5.0075119239 -0.6907075784 -0.4323470924
| 29> H 5.1914681982 -1.204891725 1.272214418
| 30> H 1.6622250501 2.7185462437 -0.5324485876
| 31> H 0.9079829024 2.9424118717 1.0697937256
| 32> H 3.1614371906 2.4988303815 2.126620123
| 33> H 3.8672910143 2.3721020079 0.5073416361
| 34> H 3.1975902948 3.9161071026 1.0584124738
| 35> H -0.9660373331 -1.8887148638 -1.5562012559
| 36> H 0.4759662901 -1.243042102 -2.4147535525
| 37> H -0.7090401664 0.0661277439 3.2157865768
| 38> H -1.944575276 1.2824440601 2.7682140971
| 39> H -3.6402069866 -0.4710923618 2.5012668336
| 40> H -2.443844573 -1.7333311426 2.8428797818
| 41> H -2.9305513855 -0.5983566661 4.1180023065
| 42> H -4.6954019172 -0.1079545152 -0.9096089639
| 43> H -3.7634819973 -1.0734475236 -2.0785378046
| 44> H -4.272519016 -3.1411725917 -0.7480791659
| 45> H -5.2403497593 -2.1756912743 0.3715007932
| 46> H -5.7527025036 -2.3491950055 -1.3136888768
| 47> *
| 48>
| 49>                          ****END OF INPUT****

CARTESIAN COORDINATES (ANGSTROEM)
---------------------------------
  C      4.174497   -2.634804   -0.005189
  C      4.535164   -1.220469    0.401090
  O      3.384908   -0.465945    0.823481
  P      2.228811   -0.041825   -0.181397
  S      2.841004    0.513951   -1.963483
  O      1.463131    1.053912    0.676406
  C      1.726187    2.460839    0.530679
  C      3.078756    2.837876    1.097333
  S      0.851558   -1.626623   -0.068064
  C     -0.141854   -1.181376   -1.519674
  S     -0.777591    0.525786   -1.515958
  P     -2.168332    0.415431    0.069679
  S     -3.293184    2.000553    0.304291
  O     -1.226044    0.038539    1.280725
  C     -1.626131    0.241345    2.651360
  C     -2.733401   -0.707745    3.056144
  O     -2.950918   -0.950035   -0.182324
  C     -4.105772   -1.021418   -1.041121
  C     -4.895366   -2.256263   -0.655266
  H      3.603352   -3.120552    0.781942
  H      3.575351   -2.619317   -0.914519
  H      5.083840   -3.196942   -0.192185
  H      5.007512   -0.690708   -0.432347
  H      5.191468   -1.204892    1.272214
  H      1.662225    2.718546   -0.532449
  H      0.907983    2.942412    1.069794
  H      3.161437    2.498830    2.126620
  H      3.867291    2.372102    0.507342
  H      3.197590    3.916107    1.058412
  H     -0.966037   -1.888715   -1.556201
  H      0.475966   -1.243042   -2.414754
  H     -0.709040    0.066128    3.215787
  H     -1.944575    1.282444    2.768214
  H     -3.640207   -0.471092    2.501267
  H     -2.443845   -1.733331    2.842880
  H     -2.930551   -0.598357    4.118002
  H     -4.695402   -0.107955   -0.909609
  H     -3.763482   -1.073448   -2.078538
  H     -4.272519   -3.141173   -0.748079
  H     -5.240350   -2.175691    0.371501
  H     -5.752703   -2.349195   -1.313689

 Total Charge           Charge          ....    0
 Multiplicity           Mult            ....    1
 Number of Electrons    NEL             ....  202
 Basis Dimension        Dim             ....  334

ORBITAL ENERGIES
----------------

  NO   OCC          E(Eh)            E(eV)
   0   2.0000     -88.041208     -2395.7231
   1   2.0000     -88.040705     -2395.7094
   2   2.0000     -87.988169     -2394.2798
   3   2.0000     -87.986102     -2394.2236
   4   2.0000     -76.425992     -2079.6570
   5   2.0000     -76.424214     -2079.6086
   6   2.0000     -18.796116      -511.4683
   7   2.0000     -18.794541      -511.4255
   8   2.0000     -18.786584      -511.2090
   9   2.0000     -18.784026      -511.1393
  10   2.0000      -9.959340      -271.0074
  11   2.0000      -9.955435      -270.9012
  12   2.0000      -9.953357      -270.8446
  13   2.0000      -9.949920      -270.7511
  14   2.0000      -9.944185      -270.5950
  15   2.0000      -9.891879      -269.1717
  16   2.0000      -9.885174      -268.9893
  17   2.0000      -9.883729      -268.9499
  18   2.0000      -9.879656      -268.8391
  19   2.0000      -7.686141      -209.1505
  20   2.0000      -7.686100      -209.1494
  21   2.0000      -7.633092      -207.7070
  22   2.0000      -7.631312      -207.6586
  23   2.0000      -6.423307      -174.7871
  24   2.0000      -6.422233      -174.7578
  25   2.0000      -5.714384      -155.4963
  26   2.0000      -5.714070      -155.4877
  27   2.0000      -5.710813      -155.3991
  28   2.0000      -5.710343      -155.3863
  29   2.0000      -5.702942      -155.1850
  30   2.0000      -5.702758      -155.1799
  31   2.0000      -5.661899      -154.0681
  32   2.0000      -5.660202      -154.0219
  33   2.0000      -5.653762      -153.8467
  34   2.0000      -5.653369      -153.8360
  35   2.0000      -5.651849      -153.7946
  36   2.0000      -5.651589      -153.7875
  37   2.0000      -4.645647      -126.4145
  38   2.0000      -4.645070      -126.3988
  39   2.0000      -4.644564      -126.3850
  40   2.0000      -4.644243      -126.3763
  41   2.0000      -4.644030      -126.3705
  42   2.0000      -4.642631      -126.3324
  43   2.0000      -0.987057       -26.8592
  44   2.0000      -0.984668       -26.7942
  45   2.0000      -0.946174       -25.7467
  46   2.0000      -0.942933       -25.6585
  47   2.0000      -0.763991       -20.7892
  48   2.0000      -0.722138       -19.6504
  49   2.0000      -0.707538       -19.2531
  50   2.0000      -0.689850       -18.7718
  51   2.0000      -0.684970       -18.6390
  52   2.0000      -0.672811       -18.3081
  53   2.0000      -0.653576       -17.7847
  54   2.0000      -0.637844       -17.3566
  55   2.0000      -0.601311       -16.3625
  56   2.0000      -0.595545       -16.2056
  57   2.0000      -0.570241       -15.5170
  58   2.0000      -0.568219       -15.4620
  59   2.0000      -0.562232       -15.2991
  60   2.0000      -0.506469       -13.7817
  61   2.0000      -0.491209       -13.3665
  62   2.0000      -0.476914       -12.9775
  63   2.0000      -0.470649       -12.8070
  64   2.0000      -0.458979       -12.4894
  65   2.0000      -0.443191       -12.0598
  66   2.0000      -0.438517       -11.9326
  67   2.0000      -0.435553       -11.8520
  68   2.0000      -0.426599       -11.6084
  69   2.0000      -0.417596       -11.3634
  70   2.0000      -0.411210       -11.1896
  71   2.0000      -0.398035       -10.8311
  72   2.0000      -0.388636       -10.5753
  73   2.0000      -0.386447       -10.5158
  74   2.0000      -0.381357       -10.3772
  75   2.0000      -0.376007       -10.2317
  76   2.0000      -0.366345        -9.9688
  77   2.0000      -0.360144        -9.8000
  78   2.0000      -0.358494        -9.7551
  79   2.0000      -0.351896        -9.5756
  80   2.0000      -0.347447        -9.4545
  81   2.0000      -0.346468        -9.4279
  82   2.0000      -0.343495        -9.3470
  83   2.0000      -0.339550        -9.2396
  84   2.0000      -0.331603        -9.0234
  85   2.0000      -0.321183        -8.7398
  86   2.0000      -0.313260        -8.5242
  87   2.0000      -0.298070        -8.1109
  88   2.0000      -0.295284        -8.0351
  89   2.0000      -0.290100        -7.8940
  90   2.0000      -0.278737        -7.5848
  91   2.0000      -0.273924        -7.4539
  92   2.0000      -0.266281        -7.2459
  93   2.0000      -0.263104        -7.1594
  94   2.0000      -0.261862        -7.1256
  95   2.0000      -0.230158        -6.2629
  96   2.0000      -0.218212        -5.9378
  97   2.0000      -0.208884        -5.6840
  98   2.0000      -0.206434        -5.6173
  99   2.0000      -0.201456        -5.4819
 100   2.0000      -0.200045        -5.4435
 101   0.0000      -0.041901        -1.1402
 102   0.0000      -0.016924        -0.4605
 103   0.0000      -0.008102        -0.2205
 104   0.0000       0.004111         0.1119
 105   0.0000       0.009555         0.2600

MULLIKEN ATOMIC CHARGES
-----------------------
   0 C :   -0.315959
   1 C :   -0.004190
   2 O :   -0.370756
   3 P :    0.611504
   4 S :   -0.337641
   5 O :   -0.354473
   6 C :   -0.006969
   7 C :   -0.302699
   8 S :   -0.071828
   9 C :   -0.354952
  10 S :   -0.070420
  11 P :    0.619332
  12 S :   -0.331261
  13 O :   -0.353850
  14 C :   -0.002472
  15 C :   -0.309687
  16 O :   -0.389553
  17 C :   -0.012628
  18 C :   -0.282462
  19 H :    0.117910
  20 H :    0.126160
  21 H :    0.113360
  22 H :    0.111436
  23 H :    0.105788
  24 H :    0.114653
  25 H :    0.107158
  26 H :    0.113294
  27 H :    0.119091
  28 H :    0.111375
  29 H :    0.181583
  30 H :    0.192270
  31 H :    0.106577
  32 H :    0.110629
  33 H :    0.121706
  34 H :    0.117184
  35 H :    0.111150
  36 H :    0.111253
  37 H :    0.099622
  38 H :    0.113721
  39 H :    0.121311
  40 H :    0.113734
Sum of atomic charges:   -0.0000000

LOEWDIN ATOMIC CHARGES
----------------------
   0 C :   -0.370158
   1 C :   -0.119126
   2 O :   -0.244351
   3 P :    0.572941
   4 S :   -0.328578
   5 O :   -0.234898
   6 C :   -0.119470
   7 C :   -0.363946
   8 S :    0.100120
   9 C :   -0.477040
  10 S :    0.097969
  11 P :    0.562513
  12 S :   -0.326239
  13 O :   -0.232358
  14 C :   -0.115094
  15 C :   -0.365145
  16 O :   -0.253025
  17 C :   -0.121397
  18 C :   -0.350212
  19 H :    0.124016
  20 H :    0.120755
  21 H :    0.131184
  22 H :    0.110784
  23 H :    0.118930
  24 H :    0.110532
  25 H :    0.118806
  26 H :    0.124725
  27 H :    0.121112
  28 H :    0.129862
  29 H :    0.131498
  30 H :    0.134562
  31 H :    0.119655
  32 H :    0.110314
  33 H :    0.120913
  34 H :    0.126388
  35 H :    0.129921
  36 H :    0.109461
  37 H :    0.109034
  38 H :    0.125205
  39 H :    0.128249
  40 H :    0.131587

  Mayer bond orders larger than 0.100000
B(  0-C ,  1-C ) :   1.1665 B(  0-C , 19-H ) :   0.9444 B(  0-C , 20-H ) :   0.9350
B(  0-C , 21-H ) :   0.9375 B(  1-C ,  2-O ) :   0.9083 B(  1-C , 22-H ) :   0.9163
B(  1-C , 23-H ) :   0.9340 B(  2-O ,  3-P ) :   1.1109 B(  3-P ,  4-S ) :   1.5838
B(  3-P ,  5-O ) :   1.1292 B(  3-P ,  8-S ) :   0.9736 B(  4-S ,  8-S ) :   0.1104
B(  5-O ,  6-C ) :   0.9070 B(  6-C ,  7-C ) :   1.1618 B(  6-C , 24-H ) :   0.9158
B(  6-C , 25-H ) :   0.9328 B(  7-C , 26-H ) :   0.9465 B(  7-C , 27-H ) :   0.9380
B(  7-C , 28-H ) :   0.9402 B(  8-S ,  9-C ) :   1.0016 B(  9-C , 10-S ) :   0.9905
B(  9-C , 29-H ) :   0.9004 B(  9-C , 30-H ) :   0.8924 B( 10-S , 11-P ) :   0.9723
B( 11-P , 12-S ) :   1.6427 B( 11-P , 13-O ) :   1.1366 B( 11-P , 16-O ) :   1.0635
B( 13-O , 14-C ) :   0.9053 B( 14-C , 15-C ) :   1.1628 B( 14-C , 31-H ) :   0.9330
B( 14-C , 32-H ) :   0.9173 B( 15-C , 33-H ) :   0.9359 B( 15-C , 34-H ) :   0.9465
B( 15-C , 35-H ) :   0.9384 B( 16-O , 17-C ) :   0.9011 B( 17-C , 18-C ) :   1.1609
B( 17-C , 36-H ) :   0.9082 B( 17-C , 37-H ) :   0.9277 B( 18-C , 38-H ) :   0.9512
B( 18-C , 39-H ) :   0.9509 B( 18-C , 40-H ) :   0.9416

Dispersion correction           -0.065688039
FINAL SINGLE POINT ENERGY     -2929.522065865295

DIPOLE MOMENT
-------------

Method             : SCF
Type of density    : Electron Density
Multiplicity       :   1
Irrep              :   0
Energy             : -2929.6411632964541241 Eh
Relativity type    :
Basis              : AO
                                X                 Y                 Z
Electronic contribution:      0.708275833       8.354962323     -10.337958063
Nuclear contribution   :     -0.619222274      -9.590352465      11.060191577
                        -----------------------------------------
Total Dipole Moment    :      0.089053559      -1.235390142       0.722233514
                        -----------------------------------------
Magnitude (a.u.)       :      1.433785406
Magnitude (Debye)      :      3.644392876

Rotational constants in cm-1:             0.012761             0.004963             0.004655
Rotational constants in MHz :           382.553991           148.789131           139.544541

                             ****ORCA TERMINATED NORMALLY****
TOTAL RUN TIME: 0 days 0 hours 0 minutes 21 seconds 390 msec
