                         Program Version 6.0.0  -   RELEASE  -
|  1> ! pbe def2-sv(p) def2/J RI DEFGRID1 loosescf d4 GCP(DFT/SV(P)) printgap
|  2> %output
|  3>     printlevel normal
|  4> end
|  5> * xyz 0 1
|  6> C 3.8933862422 0.6082636254 -2.6867905942
|  7> C 2.5377195058 0.4356595021 -2.0329981679
|  8> O 2.7150506313 -0.3378665516 -0.8334847888
|  9> P 1.9082935903 -0.1127231101 0.5120064364
| 10> S 1.4684888905 1.7483516013 0.9168645691
| 11> O 2.8587850833 -0.6774076095 1.6369968401
| 12> C 3.2686994164 -2.0511010775 1.8436517297
| 13> C 4.0484615276 -2.6148709663 0.6756114613
| 14> S 0.3672023652 -1.5903131546 0.3750187429
| 15> C -0.5576096094 -1.179862103 1.8716771503
| 16> S -1.5303106309 0.3687438807 1.7810126752
| 17> P -2.0981961951 0.394074297 -0.2475014839
| 18> S -0.868064637 0.763391931 -1.740694688
| 19> O -3.3054469377 1.4326666895 -0.2297140383
| 20> C -3.1225513617 2.8339081846 -0.4874789693
| 21> C -2.3367830586 3.5122472775 0.6164142544
| 22> O -2.853829545 -0.99363276 -0.2947867975
| 23> C -3.2732926423 -1.6136862548 -1.5343452787
| 24> C -2.3115337806 -2.7180224536 -1.9242595627
| 25> H 4.5593587395 1.1547984415 -2.0244455786
| 26> H 4.3273151115 -0.3630805966 -2.9050084073
| 27> H 3.7707747496 1.1645255167 -3.6101625883
| 28> H 1.8418323833 -0.1031066056 -2.6807881962
| 29> H 2.0916264228 1.4015774255 -1.773427145
| 30> H 3.8807443163 -1.990399017 2.7449976105
| 31> H 2.3778447063 -2.6541021108 2.0375186475
| 32> H 3.4066296148 -2.7055251331 -0.1975487301
| 33> H 4.884200483 -1.9647477068 0.4313659041
| 34> H 4.4242840202 -3.5974607477 0.9440783321
| 35> H 0.1223802254 -1.0485450909 2.7122869657
| 36> H -1.240761349 -2.009037498 2.0407067894
| 37> H -2.6097029249 2.9464916918 -1.4487149816
| 38> H -4.1388465437 3.2233594235 -0.5591314919
| 39> H -2.8003203438 3.3243677658 1.5818567895
| 40> H -1.3149113724 3.1295653419 0.6414620436
| 41> H -2.3017517093 4.5812397713 0.4330994491
| 42> H -4.2702993247 -2.0029533281 -1.3233226655
| 43> H -3.3324533831 -0.8516768119 -2.3162107808
| 44> H -1.3298751795 -2.3003867017 -2.1363107687
| 45> H -2.2157418256 -3.4364109426 -1.1154116477
| 46> H -2.6843837402 -3.2184252273 -2.8119815105
| 47> *
| 48>
| 49>                          ****END OF INPUT****

CARTESIAN COORDINATES (ANGSTROEM)
---------------------------------
  C      3.893386    0.608264   -2.686791
  C      2.537720    0.435660   -2.032998
  O      2.715051   -0.337867   -0.833485
  P      1.908294   -0.112723    0.512006
  S      1.468489    1.748352    0.916865
  O      2.858785   -0.677408    1.636997
  C      3.268699   -2.051101    1.843652
  C      4.048462   -2.614871    0.675611
  S      0.367202   -1.590313    0.375019
  C     -0.557610   -1.179862    1.871677
  S     -1.530311    0.368744    1.781013
  P     -2.098196    0.394074   -0.247501
  S     -0.868065    0.763392   -1.740695
  O     -3.305447    1.432667   -0.229714
  C     -3.122551    2.833908   -0.487479
  C     -2.336783    3.512247    0.616414
  O     -2.853830   -0.993633   -0.294787
  C     -3.273293   -1.613686   -1.534345
  C     -2.311534   -2.718022   -1.924260
  H      4.559359    1.154798   -2.024446
  H      4.327315   -0.363081   -2.905008
  H      3.770775    1.164526   -3.610163
  H      1.841832   -0.103107   -2.680788
  H      2.091626    1.401577   -1.773427
  H      3.880744   -1.990399    2.744998
  H      2.377845   -2.654102    2.037519
  H      3.406630   -2.705525   -0.197549
  H      4.884200   -1.964748    0.431366
  H      4.424284   -3.597461    0.944078
  H      0.122380   -1.048545    2.712287
  H     -1.240761   -2.009037    2.040707
  H     -2.609703    2.946492   -1.448715
  H     -4.138847    3.223359   -0.559131
  H     -2.800320    3.324368    1.581857
  H     -1.314911    3.129565    0.641462
  H     -2.301752    4.581240    0.433099
  H     -4.270299   -2.002953   -1.323323
  H     -3.332453   -0.851677   -2.316211
  H     -1.329875   -2.300387   -2.136311
  H     -2.215742   -3.436411   -1.115412
  H     -2.684384   -3.218425   -2.811982

 Total Charge           Charge          ....    0
 Multiplicity           Mult            ....    1
 Number of Electrons    NEL             ....  202
 Basis Dimension        Dim             ....  334

ORBITAL ENERGIES
----------------

  NO   OCC          E(Eh)            E(eV)
   0   2.0000     -88.043828     -2395.7944
   1   2.0000     -88.033532     -2395.5142
   2   2.0000     -87.978830     -2394.0257
   3   2.0000     -87.975301     -2393.9296
   4   2.0000     -76.423425     -2079.5871
   5   2.0000     -76.421966     -2079.5474
   6   2.0000     -18.793203      -511.3891
   7   2.0000     -18.790670      -511.3201
   8   2.0000     -18.789985      -511.3015
   9   2.0000     -18.786818      -511.2153
  10   2.0000      -9.960180      -271.0303
  11   2.0000      -9.956382      -270.9269
  12   2.0000      -9.950649      -270.7709
  13   2.0000      -9.943780      -270.5840
  14   2.0000      -9.943323      -270.5716
  15   2.0000      -9.887920      -269.0640
  16   2.0000      -9.882654      -268.9207
  17   2.0000      -9.881536      -268.8903
  18   2.0000      -9.875577      -268.7281
  19   2.0000      -7.688062      -209.2028
  20   2.0000      -7.679059      -208.9578
  21   2.0000      -7.623524      -207.4466
  22   2.0000      -7.620325      -207.3596
  23   2.0000      -6.420414      -174.7083
  24   2.0000      -6.419201      -174.6753
  25   2.0000      -5.715881      -155.5370
  26   2.0000      -5.712572      -155.4470
  27   2.0000      -5.707290      -155.3033
  28   2.0000      -5.705107      -155.2439
  29   2.0000      -5.703691      -155.2053
  30   2.0000      -5.695418      -154.9802
  31   2.0000      -5.652452      -153.8110
  32   2.0000      -5.649475      -153.7300
  33   2.0000      -5.644255      -153.5880
  34   2.0000      -5.643593      -153.5700
  35   2.0000      -5.640911      -153.4970
  36   2.0000      -5.640254      -153.4791
  37   2.0000      -4.643342      -126.3518
  38   2.0000      -4.642287      -126.3230
  39   2.0000      -4.641933      -126.3134
  40   2.0000      -4.641037      -126.2890
  41   2.0000      -4.640526      -126.2751
  42   2.0000      -4.639522      -126.2478
  43   2.0000      -0.984342       -26.7853
  44   2.0000      -0.981737       -26.7144
  45   2.0000      -0.943988       -25.6872
  46   2.0000      -0.941143       -25.6098
  47   2.0000      -0.761547       -20.7227
  48   2.0000      -0.718297       -19.5459
  49   2.0000      -0.707866       -19.2620
  50   2.0000      -0.690343       -18.7852
  51   2.0000      -0.680198       -18.5091
  52   2.0000      -0.667193       -18.1552
  53   2.0000      -0.648244       -17.6396
  54   2.0000      -0.634439       -17.2640
  55   2.0000      -0.594056       -16.1651
  56   2.0000      -0.587449       -15.9853
  57   2.0000      -0.570062       -15.5122
  58   2.0000      -0.569404       -15.4943
  59   2.0000      -0.559963       -15.2374
  60   2.0000      -0.502641       -13.6776
  61   2.0000      -0.495096       -13.4722
  62   2.0000      -0.478596       -13.0232
  63   2.0000      -0.464254       -12.6330
  64   2.0000      -0.456486       -12.4216
  65   2.0000      -0.441194       -12.0055
  66   2.0000      -0.434647       -11.8274
  67   2.0000      -0.429651       -11.6914
  68   2.0000      -0.428289       -11.6543
  69   2.0000      -0.413732       -11.2582
  70   2.0000      -0.407550       -11.0900
  71   2.0000      -0.396256       -10.7827
  72   2.0000      -0.393552       -10.7091
  73   2.0000      -0.379226       -10.3193
  74   2.0000      -0.375633       -10.2215
  75   2.0000      -0.371078       -10.0975
  76   2.0000      -0.366442        -9.9714
  77   2.0000      -0.358019        -9.7422
  78   2.0000      -0.352549        -9.5933
  79   2.0000      -0.350004        -9.5241
  80   2.0000      -0.347015        -9.4428
  81   2.0000      -0.344506        -9.3745
  82   2.0000      -0.340510        -9.2657
  83   2.0000      -0.338116        -9.2006
  84   2.0000      -0.327899        -8.9226
  85   2.0000      -0.313746        -8.5375
  86   2.0000      -0.303218        -8.2510
  87   2.0000      -0.292306        -7.9541
  88   2.0000      -0.291730        -7.9384
  89   2.0000      -0.288047        -7.8381
  90   2.0000      -0.281789        -7.6679
  91   2.0000      -0.275596        -7.4994
  92   2.0000      -0.267093        -7.2680
  93   2.0000      -0.257814        -7.0155
  94   2.0000      -0.255968        -6.9653
  95   2.0000      -0.245335        -6.6759
  96   2.0000      -0.222611        -6.0576
  97   2.0000      -0.206212        -5.6113
  98   2.0000      -0.185896        -5.0585
  99   2.0000      -0.181818        -4.9475
 100   2.0000      -0.180575        -4.9137
 101   0.0000      -0.052079        -1.4172
 102   0.0000      -0.029052        -0.7905
 103   0.0000      -0.011569        -0.3148
 104   0.0000       0.006920         0.1883
 105   0.0000       0.019194         0.5223

MULLIKEN ATOMIC CHARGES
-----------------------
   0 C :   -0.274643
   1 C :   -0.023602
   2 O :   -0.383756
   3 P :    0.617852
   4 S :   -0.289622
   5 O :   -0.363996
   6 C :   -0.004843
   7 C :   -0.300701
   8 S :   -0.126175
   9 C :   -0.310975
  10 S :   -0.083334
  11 P :    0.617830
  12 S :   -0.336491
  13 O :   -0.372599
  14 C :    0.000295
  15 C :   -0.339825
  16 O :   -0.375421
  17 C :    0.001468
  18 C :   -0.290753
  19 H :    0.116419
  20 H :    0.109810
  21 H :    0.111098
  22 H :    0.109275
  23 H :    0.122844
  24 H :    0.109298
  25 H :    0.100586
  26 H :    0.120608
  27 H :    0.120801
  28 H :    0.110213
  29 H :    0.180315
  30 H :    0.186131
  31 H :    0.108528
  32 H :    0.100781
  33 H :    0.117118
  34 H :    0.153476
  35 H :    0.111240
  36 H :    0.105493
  37 H :    0.103206
  38 H :    0.129339
  39 H :    0.106188
  40 H :    0.106521
Sum of atomic charges:   -0.0000000

LOEWDIN ATOMIC CHARGES
----------------------
   0 C :   -0.351800
   1 C :   -0.121471
   2 O :   -0.242343
   3 P :    0.564629
   4 S :   -0.295660
   5 O :   -0.240919
   6 C :   -0.116473
   7 C :   -0.363959
   8 S :    0.081789
   9 C :   -0.468099
  10 S :    0.092429
  11 P :    0.568172
  12 S :   -0.318199
  13 O :   -0.247913
  14 C :   -0.122332
  15 C :   -0.373196
  16 O :   -0.248791
  17 C :   -0.112469
  18 C :   -0.361535
  19 H :    0.127245
  20 H :    0.123123
  21 H :    0.130757
  22 H :    0.109843
  23 H :    0.110044
  24 H :    0.121519
  25 H :    0.103150
  26 H :    0.121620
  27 H :    0.128664
  28 H :    0.129645
  29 H :    0.132463
  30 H :    0.135233
  31 H :    0.107898
  32 H :    0.116545
  33 H :    0.123294
  34 H :    0.126064
  35 H :    0.130879
  36 H :    0.118037
  37 H :    0.109865
  38 H :    0.123363
  39 H :    0.121040
  40 H :    0.127849

  Mayer bond orders larger than 0.100000
B(  0-C ,  1-C ) :   1.1529 B(  0-C , 19-H ) :   0.9494 B(  0-C , 20-H ) :   0.9510
B(  0-C , 21-H ) :   0.9422 B(  1-C ,  2-O ) :   0.8936 B(  1-C , 22-H ) :   0.9300
B(  1-C , 23-H ) :   0.9048 B(  2-O ,  3-P ) :   1.1021 B(  3-P ,  4-S ) :   1.6807
B(  3-P ,  5-O ) :   1.1245 B(  3-P ,  8-S ) :   0.9094 B(  4-S ,  8-S ) :   0.1148
B(  5-O ,  6-C ) :   0.9044 B(  6-C ,  7-C ) :   1.1738 B(  6-C , 24-H ) :   0.9338
B(  6-C , 25-H ) :   0.9139 B(  7-C , 26-H ) :   0.9376 B(  7-C , 27-H ) :   0.9462
B(  7-C , 28-H ) :   0.9365 B(  8-S ,  9-C ) :   1.0105 B(  9-C , 10-S ) :   0.9803
B(  9-C , 29-H ) :   0.9056 B(  9-C , 30-H ) :   0.9084 B( 10-S , 11-P ) :   0.9867
B( 10-S , 12-S ) :   0.1193 B( 11-P , 12-S ) :   1.5699 B( 11-P , 13-O ) :   1.1099
B( 11-P , 16-O ) :   1.1194 B( 13-O , 14-C ) :   0.9099 B( 14-C , 15-C ) :   1.1636
B( 14-C , 31-H ) :   0.9112 B( 14-C , 32-H ) :   0.9326 B( 15-C , 33-H ) :   0.9439
B( 15-C , 34-H ) :   0.9263 B( 15-C , 35-H ) :   0.9379 B( 16-O , 17-C ) :   0.8906
B( 17-C , 18-C ) :   1.1723 B( 17-C , 36-H ) :   0.9340 B( 17-C , 37-H ) :   0.9120
B( 18-C , 38-H ) :   0.9362 B( 18-C , 39-H ) :   0.9474 B( 18-C , 40-H ) :   0.9400

Dispersion correction           -0.068188129
FINAL SINGLE POINT ENERGY     -2929.508967710600

DIPOLE MOMENT
-------------

Method             : SCF
Type of density    : Electron Density
Multiplicity       :   1
Irrep              :   0
Energy             : -2929.6243712174868961 Eh
Relativity type    :
Basis              : AO
                                X                 Y                 Z
Electronic contribution:     -7.203959096       5.871996458      10.660705659
Nuclear contribution   :      7.164746752      -7.164623827     -10.905031602
                        -----------------------------------------
Total Dipole Moment    :     -0.039212344      -1.292627369      -0.244325943
                        -----------------------------------------
Magnitude (a.u.)       :      1.316099650
Magnitude (Debye)      :      3.345259458

Rotational constants in cm-1:             0.011205             0.005720             0.005437
Rotational constants in MHz :           335.920138           171.486596           163.000152

                             ****ORCA TERMINATED NORMALLY****
TOTAL RUN TIME: 0 days 0 hours 0 minutes 23 seconds 195 msec
