                         Program Version 6.0.0  -   RELEASE  -
|  1> ! pbe def2-sv(p) def2/J RI DEFGRID1 loosescf d4 GCP(DFT/SV(P)) printgap
|  2> %output
|  3>     printlevel normal
|  4> end
|  5> * xyz 0 1
|  6> C 5.3002496335 -0.7849525911 -1.7472765334
|  7> C 4.7950159803 0.138157172 -0.6559966261
|  8> O 3.5771346301 -0.3806949521 -0.0823154269
|  9> P 2.1510938121 0.2035639485 -0.528049031
| 10> S 1.8700780395 0.3670011923 -2.4519460537
| 11> O 2.0401275586 1.6162962605 0.192113769
| 12> C 2.2499229304 1.7685873439 1.6182642911
| 13> C 1.0883100715 2.5356286218 2.2156303499
| 14> S 1.0313864388 -1.1964844914 0.5759583792
| 15> C -0.0774124088 -1.8093112425 -0.7412394192
| 16> S -1.7902682992 -1.9182027858 -0.1910382661
| 17> P -2.0596328183 0.1292852539 0.334886798
| 18> S -1.1583791647 1.4541080133 -0.7979837636
| 19> O -1.6078844463 0.2647321165 1.8389658966
| 20> C -1.7489176176 -0.7347109556 2.8810294941
| 21> C -3.1769270432 -1.2014826752 3.056283336
| 22> O -3.634976232 0.3049669247 0.4306391188
| 23> C -4.4513100317 0.664598863 -0.6960825468
| 24> C -4.4688991191 -0.4115661082 -1.7626867825
| 25> H 6.251186364 -0.41613289 -2.1181349985
| 26> H 5.4290964545 -1.7883829968 -1.3518716243
| 27> H 4.5863659392 -0.8185488062 -2.567584427
| 28> H 4.6113732711 1.1445195496 -1.047810768
| 29> H 5.4985797751 0.1913041394 0.1772656554
| 30> H 2.3499240668 0.7775463032 2.0733208046
| 31> H 3.1867525819 2.3187971687 1.7317945827
| 32> H 1.2684985326 2.6893029496 3.2745844981
| 33> H 0.9864059399 3.4972089522 1.7197213833
| 34> H 0.1606580836 1.9834180432 2.0835812852
| 35> H 0.2224514057 -2.8191264524 -1.0100747371
| 36> H 0.0030086895 -1.1327178096 -1.5969876115
| 37> H -1.0845243788 -1.5693088797 2.6390131217
| 38> H -1.3814623215 -0.2182423079 3.7688249895
| 39> H -3.2271903066 -1.8677529889 3.911878544
| 40> H -3.8330948878 -0.3511891796 3.2218465237
| 41> H -3.5111411073 -1.736910508 2.1700579547
| 42> H -5.4401415055 0.8166774506 -0.2610595402
| 43> H -4.0767134873 1.6071138247 -1.1079409614
| 44> H -3.4891799018 -0.4860881277 -2.2327342938
| 45> H -4.7246669459 -1.3741199865 -1.3272706229
| 46> H -5.2004168139 -0.1520964102 -2.521298071
| 47> *
| 48>
| 49>                          ****END OF INPUT****

CARTESIAN COORDINATES (ANGSTROEM)
---------------------------------
  C      5.300250   -0.784953   -1.747277
  C      4.795016    0.138157   -0.655997
  O      3.577135   -0.380695   -0.082315
  P      2.151094    0.203564   -0.528049
  S      1.870078    0.367001   -2.451946
  O      2.040128    1.616296    0.192114
  C      2.249923    1.768587    1.618264
  C      1.088310    2.535629    2.215630
  S      1.031386   -1.196484    0.575958
  C     -0.077412   -1.809311   -0.741239
  S     -1.790268   -1.918203   -0.191038
  P     -2.059633    0.129285    0.334887
  S     -1.158379    1.454108   -0.797984
  O     -1.607884    0.264732    1.838966
  C     -1.748918   -0.734711    2.881029
  C     -3.176927   -1.201483    3.056283
  O     -3.634976    0.304967    0.430639
  C     -4.451310    0.664599   -0.696083
  C     -4.468899   -0.411566   -1.762687
  H      6.251186   -0.416133   -2.118135
  H      5.429096   -1.788383   -1.351872
  H      4.586366   -0.818549   -2.567584
  H      4.611373    1.144520   -1.047811
  H      5.498580    0.191304    0.177266
  H      2.349924    0.777546    2.073321
  H      3.186753    2.318797    1.731795
  H      1.268499    2.689303    3.274584
  H      0.986406    3.497209    1.719721
  H      0.160658    1.983418    2.083581
  H      0.222451   -2.819126   -1.010075
  H      0.003009   -1.132718   -1.596988
  H     -1.084524   -1.569309    2.639013
  H     -1.381462   -0.218242    3.768825
  H     -3.227190   -1.867753    3.911879
  H     -3.833095   -0.351189    3.221847
  H     -3.511141   -1.736911    2.170058
  H     -5.440142    0.816677   -0.261060
  H     -4.076713    1.607114   -1.107941
  H     -3.489180   -0.486088   -2.232734
  H     -4.724667   -1.374120   -1.327271
  H     -5.200417   -0.152096   -2.521298

 Total Charge           Charge          ....    0
 Multiplicity           Mult            ....    1
 Number of Electrons    NEL             ....  202
 Basis Dimension        Dim             ....  334

ORBITAL ENERGIES
----------------

  NO   OCC          E(Eh)            E(eV)
   0   2.0000     -88.047304     -2395.8889
   1   2.0000     -88.041039     -2395.7185
   2   2.0000     -87.980607     -2394.0740
   3   2.0000     -87.979310     -2394.0387
   4   2.0000     -76.425617     -2079.6468
   5   2.0000     -76.418938     -2079.4650
   6   2.0000     -18.792004      -511.3564
   7   2.0000     -18.791924      -511.3542
   8   2.0000     -18.783596      -511.1276
   9   2.0000     -18.781631      -511.0742
  10   2.0000      -9.957924      -270.9689
  11   2.0000      -9.954922      -270.8872
  12   2.0000      -9.952208      -270.8133
  13   2.0000      -9.951382      -270.7909
  14   2.0000      -9.948938      -270.7244
  15   2.0000      -9.889821      -269.1157
  16   2.0000      -9.883370      -268.9402
  17   2.0000      -9.876459      -268.7521
  18   2.0000      -9.874442      -268.6972
  19   2.0000      -7.692006      -209.3101
  20   2.0000      -7.685905      -209.1441
  21   2.0000      -7.625908      -207.5115
  22   2.0000      -7.624004      -207.4597
  23   2.0000      -6.422577      -174.7672
  24   2.0000      -6.416939      -174.6138
  25   2.0000      -5.719891      -155.6461
  26   2.0000      -5.716351      -155.5498
  27   2.0000      -5.713802      -155.4805
  28   2.0000      -5.710621      -155.3939
  29   2.0000      -5.709201      -155.3553
  30   2.0000      -5.702612      -155.1760
  31   2.0000      -5.655054      -153.8818
  32   2.0000      -5.653090      -153.8284
  33   2.0000      -5.646854      -153.6587
  34   2.0000      -5.645421      -153.6197
  35   2.0000      -5.644496      -153.5945
  36   2.0000      -5.644170      -153.5857
  37   2.0000      -4.645330      -126.4059
  38   2.0000      -4.644532      -126.3841
  39   2.0000      -4.642750      -126.3357
  40   2.0000      -4.639826      -126.2561
  41   2.0000      -4.638420      -126.2178
  42   2.0000      -4.637403      -126.1902
  43   2.0000      -0.987145       -26.8616
  44   2.0000      -0.977148       -26.5895
  45   2.0000      -0.945951       -25.7406
  46   2.0000      -0.933791       -25.4098
  47   2.0000      -0.763511       -20.7762
  48   2.0000      -0.719154       -19.5692
  49   2.0000      -0.708797       -19.2873
  50   2.0000      -0.690955       -18.8018
  51   2.0000      -0.684732       -18.6325
  52   2.0000      -0.673312       -18.3218
  53   2.0000      -0.648294       -17.6410
  54   2.0000      -0.632590       -17.2136
  55   2.0000      -0.597259       -16.2523
  56   2.0000      -0.583973       -15.8907
  57   2.0000      -0.575798       -15.6683
  58   2.0000      -0.565369       -15.3845
  59   2.0000      -0.557501       -15.1704
  60   2.0000      -0.506756       -13.7895
  61   2.0000      -0.492587       -13.4040
  62   2.0000      -0.472352       -12.8534
  63   2.0000      -0.470668       -12.8075
  64   2.0000      -0.451376       -12.2826
  65   2.0000      -0.448896       -12.2151
  66   2.0000      -0.441992       -12.0272
  67   2.0000      -0.434833       -11.8324
  68   2.0000      -0.427973       -11.6457
  69   2.0000      -0.417030       -11.3479
  70   2.0000      -0.409641       -11.1469
  71   2.0000      -0.399792       -10.8789
  72   2.0000      -0.386516       -10.5176
  73   2.0000      -0.379900       -10.3376
  74   2.0000      -0.375006       -10.2044
  75   2.0000      -0.365984        -9.9589
  76   2.0000      -0.364763        -9.9257
  77   2.0000      -0.361699        -9.8423
  78   2.0000      -0.355093        -9.6626
  79   2.0000      -0.347179        -9.4472
  80   2.0000      -0.345427        -9.3995
  81   2.0000      -0.343744        -9.3538
  82   2.0000      -0.335986        -9.1426
  83   2.0000      -0.334965        -9.1149
  84   2.0000      -0.331006        -9.0071
  85   2.0000      -0.313444        -8.5292
  86   2.0000      -0.306355        -8.3363
  87   2.0000      -0.302744        -8.2381
  88   2.0000      -0.294769        -8.0211
  89   2.0000      -0.290737        -7.9114
  90   2.0000      -0.277483        -7.5507
  91   2.0000      -0.274652        -7.4737
  92   2.0000      -0.267179        -7.2703
  93   2.0000      -0.264306        -7.1921
  94   2.0000      -0.258373        -7.0307
  95   2.0000      -0.234451        -6.3797
  96   2.0000      -0.217896        -5.9293
  97   2.0000      -0.212150        -5.7729
  98   2.0000      -0.196155        -5.3377
  99   2.0000      -0.193981        -5.2785
 100   2.0000      -0.182696        -4.9714
 101   0.0000      -0.046902        -1.2763
 102   0.0000      -0.034169        -0.9298
 103   0.0000      -0.007552        -0.2055
 104   0.0000       0.006570         0.1788
 105   0.0000       0.022064         0.6004

MULLIKEN ATOMIC CHARGES
-----------------------
   0 C :   -0.282271
   1 C :   -0.018029
   2 O :   -0.387281
   3 P :    0.620122
   4 S :   -0.293776
   5 O :   -0.361441
   6 C :   -0.023989
   7 C :   -0.297570
   8 S :   -0.119345
   9 C :   -0.330536
  10 S :   -0.120489
  11 P :    0.589382
  12 S :   -0.285938
  13 O :   -0.353443
  14 C :   -0.000032
  15 C :   -0.305450
  16 O :   -0.372331
  17 C :    0.000910
  18 C :   -0.320399
  19 H :    0.104696
  20 H :    0.110786
  21 H :    0.125290
  22 H :    0.106961
  23 H :    0.100621
  24 H :    0.101462
  25 H :    0.103187
  26 H :    0.097884
  27 H :    0.118477
  28 H :    0.148382
  29 H :    0.181691
  30 H :    0.207867
  31 H :    0.110346
  32 H :    0.106747
  33 H :    0.114015
  34 H :    0.123241
  35 H :    0.120154
  36 H :    0.103752
  37 H :    0.114390
  38 H :    0.132724
  39 H :    0.114761
  40 H :    0.114471
Sum of atomic charges:   -0.0000000

LOEWDIN ATOMIC CHARGES
----------------------
   0 C :   -0.360773
   1 C :   -0.118708
   2 O :   -0.265820
   3 P :    0.571716
   4 S :   -0.288875
   5 O :   -0.241128
   6 C :   -0.114191
   7 C :   -0.361154
   8 S :    0.075483
   9 C :   -0.475051
  10 S :    0.075855
  11 P :    0.564467
  12 S :   -0.291370
  13 O :   -0.230997
  14 C :   -0.115345
  15 C :   -0.366109
  16 O :   -0.243359
  17 C :   -0.117391
  18 C :   -0.371223
  19 H :    0.127117
  20 H :    0.124914
  21 H :    0.124998
  22 H :    0.109792
  23 H :    0.114497
  24 H :    0.101763
  25 H :    0.114232
  26 H :    0.123875
  27 H :    0.129933
  28 H :    0.129796
  29 H :    0.136357
  30 H :    0.124982
  31 H :    0.103289
  32 H :    0.120994
  33 H :    0.131774
  34 H :    0.129501
  35 H :    0.117376
  36 H :    0.118176
  37 H :    0.113650
  38 H :    0.123317
  39 H :    0.121892
  40 H :    0.131750

  Mayer bond orders larger than 0.100000
B(  0-C ,  1-C ) :   1.1706 B(  0-C , 19-H ) :   0.9406 B(  0-C , 20-H ) :   0.9475
B(  0-C , 21-H ) :   0.9345 B(  1-C ,  2-O ) :   0.9037 B(  1-C , 22-H ) :   0.9133
B(  1-C , 23-H ) :   0.9346 B(  2-O ,  3-P ) :   1.0725 B(  3-P ,  4-S ) :   1.6365
B(  3-P ,  5-O ) :   1.1110 B(  3-P ,  8-S ) :   0.9495 B(  4-S ,  8-S ) :   0.1101
B(  5-O ,  6-C ) :   0.9001 B(  6-C ,  7-C ) :   1.1676 B(  6-C , 24-H ) :   0.9135
B(  6-C , 25-H ) :   0.9336 B(  7-C , 26-H ) :   0.9386 B(  7-C , 27-H ) :   0.9452
B(  7-C , 28-H ) :   0.9247 B(  8-S ,  9-C ) :   1.0006 B(  9-C , 10-S ) :   1.0033
B(  9-C , 29-H ) :   0.9095 B(  9-C , 30-H ) :   0.8486 B( 10-S , 11-P ) :   0.9278
B( 10-S , 12-S ) :   0.1072 B( 11-P , 12-S ) :   1.6489 B( 11-P , 13-O ) :   1.1180
B( 11-P , 16-O ) :   1.0934 B( 13-O , 14-C ) :   0.8978 B( 14-C , 15-C ) :   1.1719
B( 14-C , 31-H ) :   0.9138 B( 14-C , 32-H ) :   0.9329 B( 15-C , 33-H ) :   0.9362
B( 15-C , 34-H ) :   0.9428 B( 15-C , 35-H ) :   0.9376 B( 16-O , 17-C ) :   0.9054
B( 17-C , 18-C ) :   1.1655 B( 17-C , 36-H ) :   0.9341 B( 17-C , 37-H ) :   0.9161
B( 18-C , 38-H ) :   0.9343 B( 18-C , 39-H ) :   0.9445 B( 18-C , 40-H ) :   0.9374

Dispersion correction           -0.067374630
FINAL SINGLE POINT ENERGY     -2929.514458067687

DIPOLE MOMENT
-------------

Method             : SCF
Type of density    : Electron Density
Multiplicity       :   1
Irrep              :   0
Energy             : -2929.6328577704030067 Eh
Relativity type    :
Basis              : AO
                                X                 Y                 Z
Electronic contribution:      1.169798567      -0.661613133      -7.902168949
Nuclear contribution   :     -1.401601377       0.043794819       9.324535494
                        -----------------------------------------
Total Dipole Moment    :     -0.231802810      -0.617818314       1.422366544
                        -----------------------------------------
Magnitude (a.u.)       :      1.567979145
Magnitude (Debye)      :      3.985486254

Rotational constants in cm-1:             0.013395             0.005083             0.004755
Rotational constants in MHz :           401.579257           152.372630           142.543240

                             ****ORCA TERMINATED NORMALLY****
TOTAL RUN TIME: 0 days 0 hours 0 minutes 21 seconds 335 msec
