                         Program Version 6.0.0  -   RELEASE  -
|  1> ! r2scan-3c def2/J RI DEFGRID2 scfconv6 printgap
|  2> %output
|  3>     printlevel normal
|  4> end
|  5> * xyz 0 1
|  6> C 0.7486654345 -1.0647670044 3.3616977089
|  7> C 2.026089877 -0.5959969732 2.6961095716
|  8> O 1.6921662171 0.1160923496 1.4776122723
|  9> P 2.3954737345 -0.1812748343 0.0950305831
| 10> S 2.9884607099 -2.0296437655 -0.202306122
| 11> O 3.5588783621 0.8997858192 0.0930293185
| 12> C 4.6018295459 0.9111764856 -0.9024856419
| 13> C 5.8371435387 1.5316655053 -0.2811151632
| 14> S 0.9904467581 0.5834482704 -1.2817202673
| 15> C -0.0216443531 -0.9223087605 -1.3741458018
| 16> S -1.1215131282 -1.1101707091 0.0430216237
| 17> P -2.4680173795 0.4529604241 -0.5118442389
| 18> S -2.753074014 0.6861617533 -2.4339166918
| 19> O -1.9106160255 1.7759657829 0.1372537596
| 20> C -1.3215806445 1.9395399589 1.4493156645
| 21> C -2.2175673858 1.4409351587 2.5623665485
| 22> O -3.7845338702 0.1637545868 0.3288346284
| 23> C -4.8448656985 -0.6757107934 -0.160472125
| 24> C -4.4274676303 -2.1283776962 -0.2662792134
| 25> H 0.1194044121 -0.2152932301 3.6085254044
| 26> H 0.2017187033 -1.7279830592 2.6955766846
| 27> H 1.0019467332 -1.6006852711 4.270671115
| 28> H 2.6712575253 -1.4432721336 2.4423545886
| 29> H 2.5762324201 0.1060333411 3.3249606725
| 30> H 4.7915019104 -0.1185883747 -1.2242030161
| 31> H 4.2460171986 1.494440984 -1.7554857011
| 32> H 6.6241297632 1.5798912153 -1.0265427329
| 33> H 5.6109596066 2.5342188415 0.0700879689
| 34> H 6.175129405 0.9310597998 0.5587776006
| 35> H 0.632415841 -1.7946573414 -1.3992596784
| 36> H -0.6174981976 -0.841095316 -2.2840446528
| 37> H -0.3564870008 1.4249240652 1.4586048861
| 38> H -1.1591180966 3.0168205105 1.5122711371
| 39> H -2.3271583747 0.359904376 2.5039770822
| 40> H -1.7760532717 1.7059106631 3.5185797842
| 41> H -3.2005738828 1.8980757756 2.4844524689
| 42> H -5.6423911113 -0.5382093177 0.5710308123
| 43> H -5.1645824894 -0.2960765102 -1.1359820479
| 44> H -4.0028634786 -2.4712779849 0.6736914854
| 45> H -5.2949705755 -2.7325304088 -0.5117530766
| 46> H -3.6838363928 -2.2467481379 -1.0528113202
| 47> *
| 48>
| 49>                          ****END OF INPUT****

CARTESIAN COORDINATES (ANGSTROEM)
---------------------------------
  C      0.748665   -1.064767    3.361698
  C      2.026090   -0.595997    2.696110
  O      1.692166    0.116092    1.477612
  P      2.395474   -0.181275    0.095031
  S      2.988461   -2.029644   -0.202306
  O      3.558878    0.899786    0.093029
  C      4.601830    0.911176   -0.902486
  C      5.837144    1.531666   -0.281115
  S      0.990447    0.583448   -1.281720
  C     -0.021644   -0.922309   -1.374146
  S     -1.121513   -1.110171    0.043022
  P     -2.468017    0.452960   -0.511844
  S     -2.753074    0.686162   -2.433917
  O     -1.910616    1.775966    0.137254
  C     -1.321581    1.939540    1.449316
  C     -2.217567    1.440935    2.562367
  O     -3.784534    0.163755    0.328835
  C     -4.844866   -0.675711   -0.160472
  C     -4.427468   -2.128378   -0.266279
  H      0.119404   -0.215293    3.608525
  H      0.201719   -1.727983    2.695577
  H      1.001947   -1.600685    4.270671
  H      2.671258   -1.443272    2.442355
  H      2.576232    0.106033    3.324961
  H      4.791502   -0.118588   -1.224203
  H      4.246017    1.494441   -1.755486
  H      6.624130    1.579891   -1.026543
  H      5.610960    2.534219    0.070088
  H      6.175129    0.931060    0.558778
  H      0.632416   -1.794657   -1.399260
  H     -0.617498   -0.841095   -2.284045
  H     -0.356487    1.424924    1.458605
  H     -1.159118    3.016821    1.512271
  H     -2.327158    0.359904    2.503977
  H     -1.776053    1.705911    3.518580
  H     -3.200574    1.898076    2.484452
  H     -5.642391   -0.538209    0.571031
  H     -5.164582   -0.296077   -1.135982
  H     -4.002863   -2.471278    0.673691
  H     -5.294971   -2.732530   -0.511753
  H     -3.683836   -2.246748   -1.052811

 Total Charge           Charge          ....    0
 Multiplicity           Mult            ....    1
 Number of Electrons    NEL             ....  202
 Basis Dimension        Dim             ....  539

ORBITAL ENERGIES
----------------

  NO   OCC          E(Eh)            E(eV)
   0   2.0000     -88.577503     -2410.3164
   1   2.0000     -88.575364     -2410.2582
   2   2.0000     -88.523612     -2408.8499
   3   2.0000     -88.517696     -2408.6890
   4   2.0000     -76.916905     -2093.0154
   5   2.0000     -76.913984     -2092.9359
   6   2.0000     -18.996557      -516.9226
   7   2.0000     -18.995690      -516.8990
   8   2.0000     -18.993951      -516.8517
   9   2.0000     -18.988180      -516.6946
  10   2.0000     -10.103039      -274.9177
  11   2.0000     -10.102896      -274.9138
  12   2.0000     -10.100657      -274.8528
  13   2.0000     -10.099492      -274.8212
  14   2.0000     -10.097641      -274.7708
  15   2.0000     -10.035108      -273.0692
  16   2.0000     -10.034754      -273.0595
  17   2.0000     -10.033174      -273.0166
  18   2.0000     -10.029092      -272.9055
  19   2.0000      -7.871528      -214.1952
  20   2.0000      -7.869845      -214.1494
  21   2.0000      -7.818481      -212.7517
  22   2.0000      -7.812540      -212.5900
  23   2.0000      -6.595595      -179.4753
  24   2.0000      -6.592298      -179.3856
  25   2.0000      -5.818409      -158.3270
  26   2.0000      -5.816602      -158.2778
  27   2.0000      -5.815397      -158.2450
  28   2.0000      -5.813694      -158.1987
  29   2.0000      -5.808690      -158.0625
  30   2.0000      -5.807059      -158.0181
  31   2.0000      -5.765978      -156.9002
  32   2.0000      -5.760233      -156.7439
  33   2.0000      -5.758771      -156.7041
  34   2.0000      -5.758595      -156.6993
  35   2.0000      -5.752781      -156.5411
  36   2.0000      -5.752515      -156.5339
  37   2.0000      -4.741068      -129.0110
  38   2.0000      -4.740513      -128.9959
  39   2.0000      -4.739302      -128.9630
  40   2.0000      -4.738011      -128.9278
  41   2.0000      -4.737312      -128.9088
  42   2.0000      -4.735784      -128.8672
  43   2.0000      -1.053935       -28.6790
  44   2.0000      -1.049473       -28.5576
  45   2.0000      -1.014873       -27.6161
  46   2.0000      -1.010118       -27.4867
  47   2.0000      -0.803072       -21.8527
  48   2.0000      -0.762868       -20.7587
  49   2.0000      -0.752481       -20.4761
  50   2.0000      -0.736911       -20.0524
  51   2.0000      -0.734901       -19.9977
  52   2.0000      -0.713302       -19.4099
  53   2.0000      -0.685763       -18.6606
  54   2.0000      -0.669085       -18.2067
  55   2.0000      -0.632721       -17.2172
  56   2.0000      -0.626029       -17.0351
  57   2.0000      -0.609404       -16.5827
  58   2.0000      -0.606032       -16.4910
  59   2.0000      -0.590859       -16.0781
  60   2.0000      -0.537352       -14.6221
  61   2.0000      -0.516887       -14.0652
  62   2.0000      -0.504055       -13.7160
  63   2.0000      -0.490653       -13.3513
  64   2.0000      -0.476858       -12.9760
  65   2.0000      -0.463583       -12.6147
  66   2.0000      -0.462736       -12.5917
  67   2.0000      -0.456265       -12.4156
  68   2.0000      -0.453692       -12.3456
  69   2.0000      -0.439100       -11.9485
  70   2.0000      -0.424166       -11.5421
  71   2.0000      -0.415321       -11.3015
  72   2.0000      -0.412907       -11.2358
  73   2.0000      -0.400325       -10.8934
  74   2.0000      -0.396597       -10.7919
  75   2.0000      -0.393823       -10.7165
  76   2.0000      -0.384004       -10.4493
  77   2.0000      -0.378727       -10.3057
  78   2.0000      -0.374740       -10.1972
  79   2.0000      -0.369803       -10.0628
  80   2.0000      -0.368013       -10.0142
  81   2.0000      -0.361264        -9.8305
  82   2.0000      -0.359904        -9.7935
  83   2.0000      -0.356086        -9.6896
  84   2.0000      -0.351046        -9.5525
  85   2.0000      -0.334244        -9.0953
  86   2.0000      -0.324831        -8.8391
  87   2.0000      -0.317210        -8.6317
  88   2.0000      -0.309365        -8.4182
  89   2.0000      -0.307979        -8.3805
  90   2.0000      -0.306542        -8.3414
  91   2.0000      -0.296888        -8.0787
  92   2.0000      -0.284528        -7.7424
  93   2.0000      -0.278484        -7.5779
  94   2.0000      -0.275710        -7.5025
  95   2.0000      -0.249589        -6.7917
  96   2.0000      -0.232984        -6.3398
  97   2.0000      -0.226567        -6.1652
  98   2.0000      -0.218203        -5.9376
  99   2.0000      -0.215380        -5.8608
 100   2.0000      -0.213984        -5.8228
 101   0.0000      -0.046898        -1.2762
 102   0.0000      -0.027379        -0.7450
 103   0.0000      -0.004004        -0.1089
 104   0.0000       0.001052         0.0286
 105   0.0000       0.013698         0.3727

MULLIKEN ATOMIC CHARGES
-----------------------
   0 C :   -0.463909
   1 C :   -0.123284
   2 O :   -0.264935
   3 P :    0.686618
   4 S :   -0.495473
   5 O :   -0.298025
   6 C :   -0.141186
   7 C :   -0.444611
   8 S :   -0.117159
   9 C :   -0.245395
  10 S :   -0.159895
  11 P :    0.654875
  12 S :   -0.459004
  13 O :   -0.257475
  14 C :   -0.164784
  15 C :   -0.451026
  16 O :   -0.268093
  17 C :   -0.168910
  18 C :   -0.443089
  19 H :    0.150790
  20 H :    0.172256
  21 H :    0.146999
  22 H :    0.170963
  23 H :    0.150146
  24 H :    0.169763
  25 H :    0.151550
  26 H :    0.147755
  27 H :    0.154141
  28 H :    0.156595
  29 H :    0.214157
  30 H :    0.221822
  31 H :    0.189254
  32 H :    0.152834
  33 H :    0.162904
  34 H :    0.149195
  35 H :    0.161011
  36 H :    0.148377
  37 H :    0.176244
  38 H :    0.151783
  39 H :    0.147857
  40 H :    0.178364
Sum of atomic charges:   -0.0000000

LOEWDIN ATOMIC CHARGES
----------------------
   0 C :   -0.393669
   1 C :    0.024300
   2 O :   -0.682351
   3 P :    0.369962
   4 S :   -0.145563
   5 O :   -0.660922
   6 C :    0.022564
   7 C :   -0.385987
   8 S :    0.180719
   9 C :   -0.423925
  10 S :    0.140127
  11 P :    0.385832
  12 S :   -0.108869
  13 O :   -0.652496
  14 C :    0.020577
  15 C :   -0.405765
  16 O :   -0.671015
  17 C :    0.021617
  18 C :   -0.408001
  19 H :    0.158489
  20 H :    0.166367
  21 H :    0.159704
  22 H :    0.183526
  23 H :    0.173393
  24 H :    0.181423
  25 H :    0.172410
  26 H :    0.160498
  27 H :    0.159841
  28 H :    0.160540
  29 H :    0.193762
  30 H :    0.194181
  31 H :    0.194044
  32 H :    0.183082
  33 H :    0.162725
  34 H :    0.158564
  35 H :    0.165232
  36 H :    0.179231
  37 H :    0.181357
  38 H :    0.158880
  39 H :    0.159460
  40 H :    0.166154

  Mayer bond orders larger than 0.100000
B(  0-C ,  1-C ) :   0.9574 B(  0-C , 19-H ) :   0.9667 B(  0-C , 20-H ) :   0.9670
B(  0-C , 21-H ) :   0.9638 B(  1-C ,  2-O ) :   0.7594 B(  1-C , 22-H ) :   0.9552
B(  1-C , 23-H ) :   0.9519 B(  2-O ,  3-P ) :   1.1604 B(  3-P ,  4-S ) :   1.7404
B(  3-P ,  5-O ) :   1.0928 B(  3-P ,  8-S ) :   1.0858 B(  5-O ,  6-C ) :   0.7717
B(  6-C ,  7-C ) :   0.9594 B(  6-C , 24-H ) :   0.9528 B(  6-C , 25-H ) :   0.9456
B(  7-C , 26-H ) :   0.9645 B(  7-C , 27-H ) :   0.9715 B(  7-C , 28-H ) :   0.9718
B(  8-S ,  9-C ) :   0.9160 B(  9-C , 10-S ) :   0.9134 B(  9-C , 29-H ) :   0.8989
B(  9-C , 30-H ) :   0.9029 B( 10-S , 11-P ) :   0.9930 B( 11-P , 12-S ) :   1.8109
B( 11-P , 13-O ) :   1.1814 B( 11-P , 16-O ) :   1.0411 B( 13-O , 14-C ) :   0.8118
B( 14-C , 15-C ) :   0.8950 B( 14-C , 31-H ) :   0.9554 B( 14-C , 32-H ) :   0.9619
B( 15-C , 33-H ) :   0.9664 B( 15-C , 34-H ) :   0.9611 B( 15-C , 35-H ) :   0.9632
B( 16-O , 17-C ) :   0.8091 B( 17-C , 18-C ) :   0.9131 B( 17-C , 36-H ) :   0.9619
B( 17-C , 37-H ) :   0.9675 B( 18-C , 38-H ) :   0.9689 B( 18-C , 39-H ) :   0.9573
B( 18-C , 40-H ) :   0.9635

Dispersion correction           -0.021456268
FINAL SINGLE POINT ENERGY     -2932.462847663934

DIPOLE MOMENT
-------------

Method             : SCF
Type of density    : Electron Density
Multiplicity       :   1
Irrep              :   0
Energy             : -2932.4880364262053263 Eh
Relativity type    :
Basis              : AO
                                X                 Y                 Z
Electronic contribution:     -1.144390064       1.161461380     -16.968490667
Nuclear contribution   :      1.392285369      -1.059688775      18.624737904
                        -----------------------------------------
Total Dipole Moment    :      0.247895305       0.101772605       1.656247237
                        -----------------------------------------
Magnitude (a.u.)       :      1.677785640
Magnitude (Debye)      :      4.264592185

Rotational constants in cm-1:             0.013299             0.004604             0.004335
Rotational constants in MHz :           398.688262           138.013812           129.961131

                             ****ORCA TERMINATED NORMALLY****
TOTAL RUN TIME: 0 days 0 hours 1 minutes 19 seconds 394 msec
