                         Program Version 6.0.0  -   RELEASE  -
|  1> ! r2scan-3c def2/J RI DEFGRID2 scfconv6 printgap
|  2> %output
|  3>     printlevel normal
|  4> end
|  5> %cpcm
|  6>     smd true
|  7>     smdsolvent "water"
|  8> end
|  9> * xyz 0 1
| 10> C 0.7486654345 -1.0647670044 3.3616977089
| 11> C 2.026089877 -0.5959969732 2.6961095716
| 12> O 1.6921662171 0.1160923496 1.4776122723
| 13> P 2.3954737345 -0.1812748343 0.0950305831
| 14> S 2.9884607099 -2.0296437655 -0.202306122
| 15> O 3.5588783621 0.8997858192 0.0930293185
| 16> C 4.6018295459 0.9111764856 -0.9024856419
| 17> C 5.8371435387 1.5316655053 -0.2811151632
| 18> S 0.9904467581 0.5834482704 -1.2817202673
| 19> C -0.0216443531 -0.9223087605 -1.3741458018
| 20> S -1.1215131282 -1.1101707091 0.0430216237
| 21> P -2.4680173795 0.4529604241 -0.5118442389
| 22> S -2.753074014 0.6861617533 -2.4339166918
| 23> O -1.9106160255 1.7759657829 0.1372537596
| 24> C -1.3215806445 1.9395399589 1.4493156645
| 25> C -2.2175673858 1.4409351587 2.5623665485
| 26> O -3.7845338702 0.1637545868 0.3288346284
| 27> C -4.8448656985 -0.6757107934 -0.160472125
| 28> C -4.4274676303 -2.1283776962 -0.2662792134
| 29> H 0.1194044121 -0.2152932301 3.6085254044
| 30> H 0.2017187033 -1.7279830592 2.6955766846
| 31> H 1.0019467332 -1.6006852711 4.270671115
| 32> H 2.6712575253 -1.4432721336 2.4423545886
| 33> H 2.5762324201 0.1060333411 3.3249606725
| 34> H 4.7915019104 -0.1185883747 -1.2242030161
| 35> H 4.2460171986 1.494440984 -1.7554857011
| 36> H 6.6241297632 1.5798912153 -1.0265427329
| 37> H 5.6109596066 2.5342188415 0.0700879689
| 38> H 6.175129405 0.9310597998 0.5587776006
| 39> H 0.632415841 -1.7946573414 -1.3992596784
| 40> H -0.6174981976 -0.841095316 -2.2840446528
| 41> H -0.3564870008 1.4249240652 1.4586048861
| 42> H -1.1591180966 3.0168205105 1.5122711371
| 43> H -2.3271583747 0.359904376 2.5039770822
| 44> H -1.7760532717 1.7059106631 3.5185797842
| 45> H -3.2005738828 1.8980757756 2.4844524689
| 46> H -5.6423911113 -0.5382093177 0.5710308123
| 47> H -5.1645824894 -0.2960765102 -1.1359820479
| 48> H -4.0028634786 -2.4712779849 0.6736914854
| 49> H -5.2949705755 -2.7325304088 -0.5117530766
| 50> H -3.6838363928 -2.2467481379 -1.0528113202
| 51> *
| 52>
| 53>                          ****END OF INPUT****

CARTESIAN COORDINATES (ANGSTROEM)
---------------------------------
  C      0.748665   -1.064767    3.361698
  C      2.026090   -0.595997    2.696110
  O      1.692166    0.116092    1.477612
  P      2.395474   -0.181275    0.095031
  S      2.988461   -2.029644   -0.202306
  O      3.558878    0.899786    0.093029
  C      4.601830    0.911176   -0.902486
  C      5.837144    1.531666   -0.281115
  S      0.990447    0.583448   -1.281720
  C     -0.021644   -0.922309   -1.374146
  S     -1.121513   -1.110171    0.043022
  P     -2.468017    0.452960   -0.511844
  S     -2.753074    0.686162   -2.433917
  O     -1.910616    1.775966    0.137254
  C     -1.321581    1.939540    1.449316
  C     -2.217567    1.440935    2.562367
  O     -3.784534    0.163755    0.328835
  C     -4.844866   -0.675711   -0.160472
  C     -4.427468   -2.128378   -0.266279
  H      0.119404   -0.215293    3.608525
  H      0.201719   -1.727983    2.695577
  H      1.001947   -1.600685    4.270671
  H      2.671258   -1.443272    2.442355
  H      2.576232    0.106033    3.324961
  H      4.791502   -0.118588   -1.224203
  H      4.246017    1.494441   -1.755486
  H      6.624130    1.579891   -1.026543
  H      5.610960    2.534219    0.070088
  H      6.175129    0.931060    0.558778
  H      0.632416   -1.794657   -1.399260
  H     -0.617498   -0.841095   -2.284045
  H     -0.356487    1.424924    1.458605
  H     -1.159118    3.016821    1.512271
  H     -2.327158    0.359904    2.503977
  H     -1.776053    1.705911    3.518580
  H     -3.200574    1.898076    2.484452
  H     -5.642391   -0.538209    0.571031
  H     -5.164582   -0.296077   -1.135982
  H     -4.002863   -2.471278    0.673691
  H     -5.294971   -2.732530   -0.511753
  H     -3.683836   -2.246748   -1.052811

 Total Charge           Charge          ....    0
 Multiplicity           Mult            ....    1
 Number of Electrons    NEL             ....  202
 Basis Dimension        Dim             ....  539

ORBITAL ENERGIES
----------------

  NO   OCC          E(Eh)            E(eV)
   0   2.0000     -88.582142     -2410.4426
   1   2.0000     -88.578473     -2410.3428
   2   2.0000     -88.529323     -2409.0053
   3   2.0000     -88.528900     -2408.9938
   4   2.0000     -76.920995     -2093.1267
   5   2.0000     -76.920308     -2093.1080
   6   2.0000     -18.996592      -516.9236
   7   2.0000     -18.996209      -516.9131
   8   2.0000     -18.994769      -516.8739
   9   2.0000     -18.994178      -516.8579
  10   2.0000     -10.104174      -274.9486
  11   2.0000     -10.090325      -274.5717
  12   2.0000     -10.090315      -274.5714
  13   2.0000     -10.090227      -274.5690
  14   2.0000     -10.089799      -274.5574
  15   2.0000     -10.019861      -272.6543
  16   2.0000     -10.019605      -272.6473
  17   2.0000     -10.018368      -272.6136
  18   2.0000     -10.018055      -272.6051
  19   2.0000      -7.876297      -214.3249
  20   2.0000      -7.872863      -214.2315
  21   2.0000      -7.824470      -212.9147
  22   2.0000      -7.824111      -212.9049
  23   2.0000      -6.599382      -179.5783
  24   2.0000      -6.598990      -179.5676
  25   2.0000      -5.823126      -158.4553
  26   2.0000      -5.820140      -158.3741
  27   2.0000      -5.819672      -158.3613
  28   2.0000      -5.816740      -158.2815
  29   2.0000      -5.813535      -158.1943
  30   2.0000      -5.810009      -158.0984
  31   2.0000      -5.771914      -157.0618
  32   2.0000      -5.771679      -157.0554
  33   2.0000      -5.764768      -156.8673
  34   2.0000      -5.764577      -156.8621
  35   2.0000      -5.764370      -156.8565
  36   2.0000      -5.764122      -156.8497
  37   2.0000      -4.745061      -129.1197
  38   2.0000      -4.744383      -129.1012
  39   2.0000      -4.744329      -129.0998
  40   2.0000      -4.743910      -129.0883
  41   2.0000      -4.742997      -129.0635
  42   2.0000      -4.742816      -129.0586
  43   2.0000      -1.053329       -28.6625
  44   2.0000      -1.053038       -28.6546
  45   2.0000      -1.013599       -27.5814
  46   2.0000      -1.013270       -27.5725
  47   2.0000      -0.805783       -21.9265
  48   2.0000      -0.758117       -20.6294
  49   2.0000      -0.746681       -20.3182
  50   2.0000      -0.726342       -19.7648
  51   2.0000      -0.724194       -19.7063
  52   2.0000      -0.711774       -19.3684
  53   2.0000      -0.688709       -18.7407
  54   2.0000      -0.674916       -18.3654
  55   2.0000      -0.631290       -17.1783
  56   2.0000      -0.620138       -16.8748
  57   2.0000      -0.603649       -16.4261
  58   2.0000      -0.596284       -16.2257
  59   2.0000      -0.587965       -15.9994
  60   2.0000      -0.531741       -14.4694
  61   2.0000      -0.514015       -13.9871
  62   2.0000      -0.498068       -13.5531
  63   2.0000      -0.488223       -13.2852
  64   2.0000      -0.477394       -12.9905
  65   2.0000      -0.459372       -12.5002
  66   2.0000      -0.456680       -12.4269
  67   2.0000      -0.450567       -12.2606
  68   2.0000      -0.445880       -12.1330
  69   2.0000      -0.435904       -11.8615
  70   2.0000      -0.421793       -11.4776
  71   2.0000      -0.410385       -11.1672
  72   2.0000      -0.407073       -11.0770
  73   2.0000      -0.396658       -10.7936
  74   2.0000      -0.394049       -10.7226
  75   2.0000      -0.389128       -10.5887
  76   2.0000      -0.382548       -10.4096
  77   2.0000      -0.373122       -10.1532
  78   2.0000      -0.363855        -9.9010
  79   2.0000      -0.360221        -9.8021
  80   2.0000      -0.356139        -9.6910
  81   2.0000      -0.352825        -9.6009
  82   2.0000      -0.351078        -9.5533
  83   2.0000      -0.347736        -9.4624
  84   2.0000      -0.344200        -9.3662
  85   2.0000      -0.329463        -8.9651
  86   2.0000      -0.318641        -8.6707
  87   2.0000      -0.312221        -8.4960
  88   2.0000      -0.307166        -8.3584
  89   2.0000      -0.305223        -8.3055
  90   2.0000      -0.302662        -8.2359
  91   2.0000      -0.291702        -7.9376
  92   2.0000      -0.283636        -7.7181
  93   2.0000      -0.278147        -7.5688
  94   2.0000      -0.277172        -7.5422
  95   2.0000      -0.253234        -6.8909
  96   2.0000      -0.239221        -6.5095
  97   2.0000      -0.234463        -6.3801
  98   2.0000      -0.227460        -6.1895
  99   2.0000      -0.225439        -6.1345
 100   2.0000      -0.221299        -6.0218
 101   0.0000      -0.052098        -1.4177
 102   0.0000      -0.033486        -0.9112
 103   0.0000      -0.007010        -0.1908
 104   0.0000      -0.003835        -0.1043
 105   0.0000       0.013520         0.3679

MULLIKEN ATOMIC CHARGES
-----------------------
   0 C :   -0.503148
   1 C :   -0.111193
   2 O :   -0.282204
   3 P :    0.714562
   4 S :   -0.538907
   5 O :   -0.322087
   6 C :   -0.136046
   7 C :   -0.484734
   8 S :   -0.143292
   9 C :   -0.252010
  10 S :   -0.146947
  11 P :    0.668793
  12 S :   -0.516285
  13 O :   -0.293686
  14 C :   -0.160922
  15 C :   -0.477209
  16 O :   -0.287060
  17 C :   -0.161134
  18 C :   -0.481176
  19 H :    0.171647
  20 H :    0.169462
  21 H :    0.168759
  22 H :    0.169769
  23 H :    0.174368
  24 H :    0.170560
  25 H :    0.172482
  26 H :    0.169817
  27 H :    0.166081
  28 H :    0.166472
  29 H :    0.231875
  30 H :    0.235590
  31 H :    0.186962
  32 H :    0.177410
  33 H :    0.168194
  34 H :    0.176899
  35 H :    0.169417
  36 H :    0.176222
  37 H :    0.178726
  38 H :    0.169041
  39 H :    0.172116
  40 H :    0.172814
Sum of atomic charges:   -0.0000000

LOEWDIN ATOMIC CHARGES
----------------------
   0 C :   -0.396431
   1 C :    0.031398
   2 O :   -0.686733
   3 P :    0.374842
   4 S :   -0.173886
   5 O :   -0.672731
   6 C :    0.026487
   7 C :   -0.389951
   8 S :    0.163217
   9 C :   -0.419843
  10 S :    0.152369
  11 P :    0.387896
  12 S :   -0.152464
  13 O :   -0.676000
  14 C :    0.025893
  15 C :   -0.404847
  16 O :   -0.677588
  17 C :    0.027225
  18 C :   -0.410572
  19 H :    0.164939
  20 H :    0.163625
  21 H :    0.167778
  22 H :    0.183372
  23 H :    0.184024
  24 H :    0.181965
  25 H :    0.180640
  26 H :    0.169003
  27 H :    0.163200
  28 H :    0.162594
  29 H :    0.198746
  30 H :    0.197987
  31 H :    0.194192
  32 H :    0.192880
  33 H :    0.163795
  34 H :    0.170366
  35 H :    0.166073
  36 H :    0.191231
  37 H :    0.181754
  38 H :    0.163636
  39 H :    0.168296
  40 H :    0.161625

  Mayer bond orders larger than 0.100000
B(  0-C ,  1-C ) :   0.9498 B(  0-C , 19-H ) :   0.9639 B(  0-C , 20-H ) :   0.9664
B(  0-C , 21-H ) :   0.9589 B(  1-C ,  2-O ) :   0.7483 B(  1-C , 22-H ) :   0.9539
B(  1-C , 23-H ) :   0.9418 B(  2-O ,  3-P ) :   1.1757 B(  3-P ,  4-S ) :   1.7082
B(  3-P ,  5-O ) :   1.0996 B(  3-P ,  8-S ) :   1.0924 B(  5-O ,  6-C ) :   0.7635
B(  6-C ,  7-C ) :   0.9547 B(  6-C , 24-H ) :   0.9501 B(  6-C , 25-H ) :   0.9372
B(  7-C , 26-H ) :   0.9589 B(  7-C , 27-H ) :   0.9687 B(  7-C , 28-H ) :   0.9692
B(  8-S ,  9-C ) :   0.9031 B(  9-C , 10-S ) :   0.9054 B(  9-C , 29-H ) :   0.8964
B(  9-C , 30-H ) :   0.8992 B( 10-S , 11-P ) :   1.0092 B( 11-P , 12-S ) :   1.7875
B( 11-P , 13-O ) :   1.1830 B( 11-P , 16-O ) :   1.0520 B( 13-O , 14-C ) :   0.8011
B( 14-C , 15-C ) :   0.8940 B( 14-C , 31-H ) :   0.9491 B( 14-C , 32-H ) :   0.9510
B( 15-C , 33-H ) :   0.9610 B( 15-C , 34-H ) :   0.9519 B( 15-C , 35-H ) :   0.9653
B( 16-O , 17-C ) :   0.7975 B( 17-C , 18-C ) :   0.9030 B( 17-C , 36-H ) :   0.9508
B( 17-C , 37-H ) :   0.9659 B( 18-C , 38-H ) :   0.9659 B( 18-C , 39-H ) :   0.9521
B( 18-C , 40-H ) :   0.9647

Dispersion correction           -0.021456268
FINAL SINGLE POINT ENERGY     -2932.471728371534

DIPOLE MOMENT
-------------

Method             : SCF
Type of density    : Electron Density
Multiplicity       :   1
Irrep              :   0
Energy             : -2932.4969171338061642 Eh
Relativity type    :
Basis              : AO
                                X                 Y                 Z
Electronic contribution:     -1.089295368       1.008439132     -16.286390909
Nuclear contribution   :      1.392285369      -1.059688775      18.624737904
                        -----------------------------------------
Total Dipole Moment    :      0.302990001      -0.051249643       2.338346995
                        -----------------------------------------
Magnitude (a.u.)       :      2.358452064
Magnitude (Debye)      :      5.994708738

Rotational constants in cm-1:             0.013299             0.004604             0.004335
Rotational constants in MHz :           398.688262           138.013812           129.961131

                             ****ORCA TERMINATED NORMALLY****
TOTAL RUN TIME: 0 days 0 hours 1 minutes 55 seconds 113 msec
