                         Program Version 6.0.0  -   RELEASE  -
|  1> ! pbe def2-sv(p) def2/J RI DEFGRID1 loosescf d4 GCP(DFT/SV(P)) printgap
|  2> %output
|  3>     printlevel normal
|  4> end
|  5> * xyz 0 1
|  6> C 4.3920100698 1.0393798895 -2.5770523761
|  7> C 4.5915668114 0.7486942088 -1.1031257938
|  8> O 3.4283919157 1.1809629865 -0.3491131913
|  9> P 2.3858223308 0.2007965919 0.2967791224
| 10> S 0.946672995 1.2301093421 1.1232454024
| 11> O 3.3277838273 -0.6434839545 1.2724511181
| 12> C 2.9843130447 -1.893804209 1.8897581098
| 13> C 1.9067570947 -1.7487324597 2.9460034707
| 14> S 1.8934638935 -1.2045319208 -1.2421081026
| 15> C 0.1288999941 -1.4540916097 -0.9662319113
| 16> S -0.881739308 -0.0407384363 -1.5204320785
| 17> P -2.3857255808 -0.1657423539 -0.0112743128
| 18> S -1.8867128386 -1.0565330696 1.6561434487
| 19> O -3.5612212035 -0.982026528 -0.6741469184
| 20> C -4.1936709532 -0.6184319881 -1.9252605609
| 21> C -5.4821871739 0.1385637589 -1.675989252
| 22> O -2.993892345 1.2998712512 0.0212824947
| 23> C -2.3202355172 2.4965308339 0.4471021441
| 24> C -2.3123665608 2.6237082437 1.956682548
| 25> H 4.1664098987 2.0924468204 -2.7197793439
| 26> H 5.3025336475 0.7914060205 -3.1131239063
| 27> H 3.5721600314 0.4465846316 -2.9751156574
| 28> H 5.420077846 1.3272637348 -0.691622372
| 29> H 4.7613667144 -0.314962078 -0.925214107
| 30> H 2.6769579384 -2.5972901419 1.1092979122
| 31> H 3.9244823223 -2.2269355748 2.3335333199
| 32> H 1.7637566842 -2.7002100712 3.4479892712
| 33> H 2.1950403248 -0.9972137159 3.6766562889
| 34> H 0.9577651944 -1.4450296791 2.5051130246
| 35> H -0.0769524203 -1.6148527586 0.0958441752
| 36> H -0.1342080493 -2.3290358024 -1.55589366
| 37> H -3.491526102 -0.026094217 -2.519221815
| 38> H -4.383991058 -1.5720353447 -2.4210184053
| 39> H -5.2766544709 1.07848608 -1.1709776198
| 40> H -5.9658941766 0.3394442486 -2.6267991862
| 41> H -6.1458303978 -0.4545142827 -1.0527806894
| 42> H -1.2994675786 2.499189678 0.0566676578
| 43> H -2.8955334235 3.2999262179 -0.017184432
| 44> H -1.8990666111 3.5886748664 2.2310015664
| 45> H -3.3219228936 2.5336843297 2.3488872956
| 46> H -1.690729422 1.8445494308 2.3940126615
| 47> *
| 48>
| 49>                          ****END OF INPUT****

CARTESIAN COORDINATES (ANGSTROEM)
---------------------------------
  C      4.392010    1.039380   -2.577052
  C      4.591567    0.748694   -1.103126
  O      3.428392    1.180963   -0.349113
  P      2.385822    0.200797    0.296779
  S      0.946673    1.230109    1.123245
  O      3.327784   -0.643484    1.272451
  C      2.984313   -1.893804    1.889758
  C      1.906757   -1.748732    2.946003
  S      1.893464   -1.204532   -1.242108
  C      0.128900   -1.454092   -0.966232
  S     -0.881739   -0.040738   -1.520432
  P     -2.385726   -0.165742   -0.011274
  S     -1.886713   -1.056533    1.656143
  O     -3.561221   -0.982027   -0.674147
  C     -4.193671   -0.618432   -1.925261
  C     -5.482187    0.138564   -1.675989
  O     -2.993892    1.299871    0.021282
  C     -2.320236    2.496531    0.447102
  C     -2.312367    2.623708    1.956683
  H      4.166410    2.092447   -2.719779
  H      5.302534    0.791406   -3.113124
  H      3.572160    0.446585   -2.975116
  H      5.420078    1.327264   -0.691622
  H      4.761367   -0.314962   -0.925214
  H      2.676958   -2.597290    1.109298
  H      3.924482   -2.226936    2.333533
  H      1.763757   -2.700210    3.447989
  H      2.195040   -0.997214    3.676656
  H      0.957765   -1.445030    2.505113
  H     -0.076952   -1.614853    0.095844
  H     -0.134208   -2.329036   -1.555894
  H     -3.491526   -0.026094   -2.519222
  H     -4.383991   -1.572035   -2.421018
  H     -5.276654    1.078486   -1.170978
  H     -5.965894    0.339444   -2.626799
  H     -6.145830   -0.454514   -1.052781
  H     -1.299468    2.499190    0.056668
  H     -2.895533    3.299926   -0.017184
  H     -1.899067    3.588675    2.231002
  H     -3.321923    2.533684    2.348887
  H     -1.690729    1.844549    2.394013

 Total Charge           Charge          ....    0
 Multiplicity           Mult            ....    1
 Number of Electrons    NEL             ....  202
 Basis Dimension        Dim             ....  334

ORBITAL ENERGIES
----------------

  NO   OCC          E(Eh)            E(eV)
   0   2.0000     -88.048378     -2395.9182
   1   2.0000     -88.037432     -2395.6203
   2   2.0000     -87.981482     -2394.0979
   3   2.0000     -87.981072     -2394.0867
   4   2.0000     -76.424869     -2079.6264
   5   2.0000     -76.423178     -2079.5804
   6   2.0000     -18.793046      -511.3848
   7   2.0000     -18.790528      -511.3163
   8   2.0000     -18.788238      -511.2539
   9   2.0000     -18.784717      -511.1581
  10   2.0000      -9.958781      -270.9922
  11   2.0000      -9.955550      -270.9043
  12   2.0000      -9.952694      -270.8266
  13   2.0000      -9.951798      -270.8022
  14   2.0000      -9.948167      -270.7034
  15   2.0000      -9.887902      -269.0635
  16   2.0000      -9.883886      -268.9542
  17   2.0000      -9.874896      -268.7096
  18   2.0000      -9.873545      -268.6728
  19   2.0000      -7.692953      -209.3359
  20   2.0000      -7.682309      -209.0463
  21   2.0000      -7.626572      -207.5296
  22   2.0000      -7.626074      -207.5160
  23   2.0000      -6.422081      -174.7537
  24   2.0000      -6.420495      -174.7105
  25   2.0000      -5.720771      -155.6701
  26   2.0000      -5.717298      -155.5756
  27   2.0000      -5.710226      -155.3832
  28   2.0000      -5.710114      -155.3801
  29   2.0000      -5.707017      -155.2958
  30   2.0000      -5.699203      -155.0832
  31   2.0000      -5.655529      -153.8948
  32   2.0000      -5.655187      -153.8855
  33   2.0000      -5.647289      -153.6705
  34   2.0000      -5.646615      -153.6522
  35   2.0000      -5.646509      -153.6493
  36   2.0000      -5.646067      -153.6373
  37   2.0000      -4.644789      -126.3911
  38   2.0000      -4.644137      -126.3734
  39   2.0000      -4.643321      -126.3512
  40   2.0000      -4.642328      -126.3242
  41   2.0000      -4.642218      -126.3212
  42   2.0000      -4.640706      -126.2800
  43   2.0000      -0.986205       -26.8360
  44   2.0000      -0.985264       -26.8104
  45   2.0000      -0.941972       -25.6324
  46   2.0000      -0.941187       -25.6110
  47   2.0000      -0.760790       -20.7022
  48   2.0000      -0.720234       -19.5986
  49   2.0000      -0.711810       -19.3693
  50   2.0000      -0.686478       -18.6800
  51   2.0000      -0.685722       -18.6594
  52   2.0000      -0.673925       -18.3384
  53   2.0000      -0.649687       -17.6789
  54   2.0000      -0.635375       -17.2894
  55   2.0000      -0.587125       -15.9765
  56   2.0000      -0.582333       -15.8461
  57   2.0000      -0.576128       -15.6772
  58   2.0000      -0.570845       -15.5335
  59   2.0000      -0.566495       -15.4151
  60   2.0000      -0.506600       -13.7853
  61   2.0000      -0.498791       -13.5728
  62   2.0000      -0.474139       -12.9020
  63   2.0000      -0.473371       -12.8811
  64   2.0000      -0.451682       -12.2909
  65   2.0000      -0.446003       -12.1364
  66   2.0000      -0.441929       -12.0255
  67   2.0000      -0.433508       -11.7963
  68   2.0000      -0.426530       -11.6065
  69   2.0000      -0.417653       -11.3649
  70   2.0000      -0.406928       -11.0731
  71   2.0000      -0.399933       -10.8827
  72   2.0000      -0.396492       -10.7891
  73   2.0000      -0.384420       -10.4606
  74   2.0000      -0.383226       -10.4281
  75   2.0000      -0.358460        -9.7542
  76   2.0000      -0.357443        -9.7265
  77   2.0000      -0.356491        -9.7006
  78   2.0000      -0.354388        -9.6434
  79   2.0000      -0.351757        -9.5718
  80   2.0000      -0.344065        -9.3625
  81   2.0000      -0.340608        -9.2684
  82   2.0000      -0.338514        -9.2114
  83   2.0000      -0.334283        -9.0963
  84   2.0000      -0.328268        -8.9326
  85   2.0000      -0.316714        -8.6182
  86   2.0000      -0.312152        -8.4941
  87   2.0000      -0.294785        -8.0215
  88   2.0000      -0.292228        -7.9519
  89   2.0000      -0.290087        -7.8937
  90   2.0000      -0.285840        -7.7781
  91   2.0000      -0.277749        -7.5579
  92   2.0000      -0.271830        -7.3969
  93   2.0000      -0.260560        -7.0902
  94   2.0000      -0.258945        -7.0462
  95   2.0000      -0.238989        -6.5032
  96   2.0000      -0.222249        -6.0477
  97   2.0000      -0.208650        -5.6777
  98   2.0000      -0.198964        -5.4141
  99   2.0000      -0.187245        -5.0952
 100   2.0000      -0.186057        -5.0629
 101   0.0000      -0.045557        -1.2397
 102   0.0000      -0.030643        -0.8338
 103   0.0000      -0.018081        -0.4920
 104   0.0000       0.006250         0.1701
 105   0.0000       0.018903         0.5144

MULLIKEN ATOMIC CHARGES
-----------------------
   0 C :   -0.287940
   1 C :   -0.017441
   2 O :   -0.351557
   3 P :    0.600038
   4 S :   -0.296760
   5 O :   -0.374731
   6 C :   -0.009281
   7 C :   -0.328459
   8 S :   -0.135403
   9 C :   -0.335742
  10 S :   -0.101786
  11 P :    0.611711
  12 S :   -0.297698
  13 O :   -0.357730
  14 C :   -0.009622
  15 C :   -0.288197
  16 O :   -0.380462
  17 C :   -0.020458
  18 C :   -0.309164
  19 H :    0.122627
  20 H :    0.109791
  21 H :    0.123644
  22 H :    0.114309
  23 H :    0.104345
  24 H :    0.101411
  25 H :    0.103389
  26 H :    0.107634
  27 H :    0.119044
  28 H :    0.158759
  29 H :    0.195044
  30 H :    0.180877
  31 H :    0.098241
  32 H :    0.106280
  33 H :    0.121569
  34 H :    0.107418
  35 H :    0.119340
  36 H :    0.129143
  37 H :    0.100499
  38 H :    0.109651
  39 H :    0.112575
  40 H :    0.145091
Sum of atomic charges:    0.0000000

LOEWDIN ATOMIC CHARGES
----------------------
   0 C :   -0.359675
   1 C :   -0.113406
   2 O :   -0.233160
   3 P :    0.559513
   4 S :   -0.284211
   5 O :   -0.247622
   6 C :   -0.119596
   7 C :   -0.370779
   8 S :    0.067756
   9 C :   -0.480516
  10 S :    0.060985
  11 P :    0.569601
  12 S :   -0.286359
  13 O :   -0.240979
  14 C :   -0.116193
  15 C :   -0.359080
  16 O :   -0.239722
  17 C :   -0.118437
  18 C :   -0.365181
  19 H :    0.130633
  20 H :    0.129595
  21 H :    0.121547
  22 H :    0.123339
  23 H :    0.106933
  24 H :    0.101026
  25 H :    0.118377
  26 H :    0.128982
  27 H :    0.129257
  28 H :    0.122463
  29 H :    0.119295
  30 H :    0.135604
  31 H :    0.101538
  32 H :    0.119525
  33 H :    0.126265
  34 H :    0.128106
  35 H :    0.128638
  36 H :    0.108848
  37 H :    0.115787
  38 H :    0.130476
  39 H :    0.125337
  40 H :    0.125490

  Mayer bond orders larger than 0.100000
B(  0-C ,  1-C ) :   1.1639 B(  0-C , 19-H ) :   0.9462 B(  0-C , 20-H ) :   0.9398
B(  0-C , 21-H ) :   0.9396 B(  1-C ,  2-O ) :   0.8904 B(  1-C , 22-H ) :   0.9344
B(  1-C , 23-H ) :   0.9186 B(  2-O ,  3-P ) :   1.1481 B(  3-P ,  4-S ) :   1.6863
B(  3-P ,  5-O ) :   1.0829 B(  3-P ,  8-S ) :   0.9172 B(  4-S ,  8-S ) :   0.1175
B(  5-O ,  6-C ) :   0.9208 B(  6-C ,  7-C ) :   1.1612 B(  6-C , 24-H ) :   0.9160
B(  6-C , 25-H ) :   0.9342 B(  7-C , 26-H ) :   0.9366 B(  7-C , 27-H ) :   0.9439
B(  7-C , 28-H ) :   0.9231 B(  8-S ,  9-C ) :   1.0045 B(  9-C , 10-S ) :   0.9891
B(  9-C , 29-H ) :   0.8471 B(  9-C , 30-H ) :   0.9083 B( 10-S , 11-P ) :   0.9527
B( 10-S , 12-S ) :   0.1184 B( 11-P , 12-S ) :   1.6369 B( 11-P , 13-O ) :   1.1295
B( 11-P , 16-O ) :   1.0958 B( 12-S , 29-H ) :   0.1188 B( 13-O , 14-C ) :   0.8999
B( 14-C , 15-C ) :   1.1631 B( 14-C , 31-H ) :   0.9123 B( 14-C , 32-H ) :   0.9367
B( 15-C , 33-H ) :   0.9429 B( 15-C , 34-H ) :   0.9402 B( 15-C , 35-H ) :   0.9471
B( 16-O , 17-C ) :   0.8997 B( 17-C , 18-C ) :   1.1722 B( 17-C , 36-H ) :   0.9094
B( 17-C , 37-H ) :   0.9342 B( 18-C , 38-H ) :   0.9384 B( 18-C , 39-H ) :   0.9465
B( 18-C , 40-H ) :   0.9300

Dispersion correction           -0.064829263
FINAL SINGLE POINT ENERGY     -2929.512051559603

DIPOLE MOMENT
-------------

Method             : SCF
Type of density    : Electron Density
Multiplicity       :   1
Irrep              :   0
Energy             : -2929.6312758903209215 Eh
Relativity type    :
Basis              : AO
                                X                 Y                 Z
Electronic contribution:      2.245673553      -3.540547304       0.543865984
Nuclear contribution   :     -1.726569976       3.355527681      -1.743020063
                        -----------------------------------------
Total Dipole Moment    :      0.519103577      -0.185019624      -1.199154079
                        -----------------------------------------
Magnitude (a.u.)       :      1.319723944
Magnitude (Debye)      :      3.354471683

Rotational constants in cm-1:             0.012568             0.004730             0.004473
Rotational constants in MHz :           376.766536           141.792456           134.092417

                             ****ORCA TERMINATED NORMALLY****
TOTAL RUN TIME: 0 days 0 hours 0 minutes 20 seconds 773 msec
