                         Program Version 6.0.1  -  RELEASE   -
|  1> ! pbe def2-sv(p) def2/J RI DEFGRID1 loosescf d4 GCP(DFT/SV(P)) printgap
|  2> %output
|  3>     printlevel normal
|  4> end
|  5> * xyz 0 1
|  6> C 5.3060844311 -2.3825388975 -0.8017611561
|  7> C 3.9909791864 -3.0820397291 -1.105772062
|  8> O 3.1008965715 -2.2086452197 -1.8301800839
|  9> C 2.334242274 -1.3884509508 -1.147462201
| 10> O 2.2857468638 -1.3319102974 0.0644896079
| 11> C 1.5075440615 -0.5008956177 -2.0540603218
| 12> C 0.4565563705 0.2288943792 -1.2284630289
| 13> H -0.0220786672 1.0155000527 -1.8207085414
| 14> C 1.1206968996 0.8889866187 -0.0290660814
| 15> O 2.1260329669 1.5525701095 -0.1394205215
| 16> O 0.4538449673 0.7026883116 1.0910143548
| 17> C 0.9813570301 1.285767228 2.300139088
| 18> C 0.4938179588 2.7122693004 2.4836183814
| 19> S -0.8515887658 -0.9386890047 -0.7072547109
| 20> P -2.1372034557 0.4685827943 0.1793165823
| 21> S -2.0067381724 2.3630342647 -0.2857161786
| 22> O -3.4893939952 -0.2365682544 -0.3441021269
| 23> C -4.7595421554 0.389335775 -0.1216279105
| 24> O -2.1710115086 0.2668030516 1.7644425658
| 25> C -2.1818892813 -1.0497383892 2.3412445792
| 26> H 5.9738189507 -3.0742880889 -0.2990987479
| 27> H 5.7701125789 -2.0398672123 -1.7223594091
| 28> H 5.1323304407 -1.5254083217 -0.1543847893
| 29> H 3.4956246689 -3.3960822402 -0.1828897145
| 30> H 4.136156266 -3.9330763802 -1.7708518035
| 31> H 1.0518619751 -1.0984994661 -2.8423847987
| 32> H 2.1816979573 0.2291959005 -2.5077983616
| 33> H 0.6183540831 0.6357360533 3.0964522926
| 34> H 2.072342125 1.2455152365 2.2393644169
| 35> H 0.8605040067 3.3420524237 1.6759499472
| 36> H -0.5933253925 2.7395190576 2.4773757692
| 37> H 0.8591932075 3.0965563361 3.4298545291
| 38> H -4.7425749732 1.4128203677 -0.499901726
| 39> H -5.0003952305 0.399240156 0.9418300888
| 40> H -5.4791588315 -0.2092607119 -0.6739770774
| 41> H -2.4856009 -0.9103703785 3.3757320868
| 42> H -1.1815970849 -1.478963396 2.2868101798
| 43> H -2.8855737952 -1.6941237312 1.8134966381
| 44> *
| 45>
| 46>                          ****END OF INPUT****

CARTESIAN COORDINATES (ANGSTROEM)
---------------------------------
  C      5.306084   -2.382539   -0.801761
  C      3.990979   -3.082040   -1.105772
  O      3.100897   -2.208645   -1.830180
  C      2.334242   -1.388451   -1.147462
  O      2.285747   -1.331910    0.064490
  C      1.507544   -0.500896   -2.054060
  C      0.456556    0.228894   -1.228463
  H     -0.022079    1.015500   -1.820709
  C      1.120697    0.888987   -0.029066
  O      2.126033    1.552570   -0.139421
  O      0.453845    0.702688    1.091014
  C      0.981357    1.285767    2.300139
  C      0.493818    2.712269    2.483618
  S     -0.851589   -0.938689   -0.707255
  P     -2.137203    0.468583    0.179317
  S     -2.006738    2.363034   -0.285716
  O     -3.489394   -0.236568   -0.344102
  C     -4.759542    0.389336   -0.121628
  O     -2.171012    0.266803    1.764443
  C     -2.181889   -1.049738    2.341245
  H      5.973819   -3.074288   -0.299099
  H      5.770113   -2.039867   -1.722359
  H      5.132330   -1.525408   -0.154385
  H      3.495625   -3.396082   -0.182890
  H      4.136156   -3.933076   -1.770852
  H      1.051862   -1.098499   -2.842385
  H      2.181698    0.229196   -2.507798
  H      0.618354    0.635736    3.096452
  H      2.072342    1.245515    2.239364
  H      0.860504    3.342052    1.675950
  H     -0.593325    2.739519    2.477376
  H      0.859193    3.096556    3.429855
  H     -4.742575    1.412820   -0.499902
  H     -5.000395    0.399240    0.941830
  H     -5.479159   -0.209261   -0.673977
  H     -2.485601   -0.910370    3.375732
  H     -1.181597   -1.478963    2.286810
  H     -2.885574   -1.694124    1.813497

 Total Charge           Charge          ....    0
 Multiplicity           Mult            ....    1
 Number of Electrons    NEL             ....  174
 Basis Dimension        Dim             ....  316

ORBITAL ENERGIES
----------------

  NO   OCC          E(Eh)            E(eV)
   0   2.0000     -88.036346     -2395.5908
   1   2.0000     -87.981276     -2394.0922
   2   2.0000     -76.421655     -2079.5390
   3   2.0000     -18.809768      -511.8398
   4   2.0000     -18.797216      -511.4983
   5   2.0000     -18.791886      -511.3532
   6   2.0000     -18.786018      -511.1935
   7   2.0000     -18.749860      -510.2096
   8   2.0000     -18.725757      -509.5538
   9   2.0000     -10.018389      -272.6142
  10   2.0000     -10.007200      -272.3097
  11   2.0000      -9.954111      -270.8651
  12   2.0000      -9.949329      -270.7350
  13   2.0000      -9.942827      -270.5581
  14   2.0000      -9.942282      -270.5433
  15   2.0000      -9.937900      -270.4240
  16   2.0000      -9.917675      -269.8737
  17   2.0000      -9.891026      -269.1485
  18   2.0000      -9.869023      -268.5498
  19   2.0000      -7.681415      -209.0219
  20   2.0000      -7.626506      -207.5278
  21   2.0000      -6.419167      -174.6744
  22   2.0000      -5.709268      -155.3571
  23   2.0000      -5.706359      -155.2779
  24   2.0000      -5.697939      -155.0488
  25   2.0000      -5.655686      -153.8990
  26   2.0000      -5.647231      -153.6690
  27   2.0000      -5.646220      -153.6415
  28   2.0000      -4.642029      -126.3160
  29   2.0000      -4.640801      -126.2826
  30   2.0000      -4.639600      -126.2499
  31   2.0000      -1.019671       -27.7467
  32   2.0000      -1.004180       -27.3251
  33   2.0000      -0.980254       -26.6741
  34   2.0000      -0.937834       -25.5198
  35   2.0000      -0.926275       -25.2052
  36   2.0000      -0.907740       -24.7009
  37   2.0000      -0.764167       -20.7940
  38   2.0000      -0.718292       -19.5457
  39   2.0000      -0.697772       -18.9873
  40   2.0000      -0.689116       -18.7518
  41   2.0000      -0.657977       -17.9045
  42   2.0000      -0.637922       -17.3587
  43   2.0000      -0.618346       -16.8260
  44   2.0000      -0.610828       -16.6215
  45   2.0000      -0.595971       -16.2172
  46   2.0000      -0.559374       -15.2213
  47   2.0000      -0.513898       -13.9839
  48   2.0000      -0.504227       -13.7207
  49   2.0000      -0.494115       -13.4456
  50   2.0000      -0.479465       -13.0469
  51   2.0000      -0.473454       -12.8833
  52   2.0000      -0.460702       -12.5363
  53   2.0000      -0.443391       -12.0653
  54   2.0000      -0.436658       -11.8821
  55   2.0000      -0.429774       -11.6947
  56   2.0000      -0.426344       -11.6014
  57   2.0000      -0.418003       -11.3744
  58   2.0000      -0.413239       -11.2448
  59   2.0000      -0.406154       -11.0520
  60   2.0000      -0.402229       -10.9452
  61   2.0000      -0.396074       -10.7777
  62   2.0000      -0.391347       -10.6491
  63   2.0000      -0.378812       -10.3080
  64   2.0000      -0.375643       -10.2218
  65   2.0000      -0.363392        -9.8884
  66   2.0000      -0.357637        -9.7318
  67   2.0000      -0.348476        -9.4825
  68   2.0000      -0.342185        -9.3113
  69   2.0000      -0.335876        -9.1397
  70   2.0000      -0.331229        -9.0132
  71   2.0000      -0.324487        -8.8298
  72   2.0000      -0.322367        -8.7721
  73   2.0000      -0.315562        -8.5869
  74   2.0000      -0.310955        -8.4615
  75   2.0000      -0.300654        -8.1812
  76   2.0000      -0.289190        -7.8693
  77   2.0000      -0.278647        -7.5824
  78   2.0000      -0.271826        -7.3968
  79   2.0000      -0.269526        -7.3342
  80   2.0000      -0.262127        -7.1328
  81   2.0000      -0.249903        -6.8002
  82   2.0000      -0.236762        -6.4426
  83   2.0000      -0.230041        -6.2597
  84   2.0000      -0.204152        -5.5553
  85   2.0000      -0.201209        -5.4752
  86   2.0000      -0.194587        -5.2950
  87   0.0000      -0.041579        -1.1314
  88   0.0000      -0.027470        -0.7475
  89   0.0000      -0.012205        -0.3321
  90   0.0000       0.008477         0.2307
  91   0.0000       0.026394         0.7182

MULLIKEN ATOMIC CHARGES
-----------------------
   0 C :   -0.306494
   1 C :   -0.013078
   2 O :   -0.224484
   3 C :    0.116976
   4 O :   -0.198579
   5 C :   -0.102288
   6 C :   -0.310509
   7 H :    0.155127
   8 C :    0.237604
   9 O :   -0.210180
  10 O :   -0.234525
  11 C :   -0.002749
  12 C :   -0.300744
  13 S :   -0.073994
  14 P :    0.634455
  15 S :   -0.324205
  16 O :   -0.392085
  17 C :   -0.104831
  18 O :   -0.378405
  19 C :   -0.122240
  20 H :    0.114989
  21 H :    0.116950
  22 H :    0.133433
  23 H :    0.111112
  24 H :    0.105914
  25 H :    0.131531
  26 H :    0.145421
  27 H :    0.094287
  28 H :    0.108503
  29 H :    0.124309
  30 H :    0.126215
  31 H :    0.101659
  32 H :    0.123445
  33 H :    0.108449
  34 H :    0.125376
  35 H :    0.128665
  36 H :    0.137646
  37 H :    0.117322
Sum of atomic charges:    0.0000000

LOEWDIN ATOMIC CHARGES
----------------------
   0 C :   -0.355534
   1 C :   -0.108931
   2 O :   -0.053937
   3 C :    0.038660
   4 O :   -0.152204
   5 C :   -0.248587
   6 C :   -0.265068
   7 H :    0.144585
   8 C :    0.017157
   9 O :   -0.170510
  10 O :   -0.054887
  11 C :   -0.103152
  12 C :   -0.359182
  13 S :    0.109884
  14 P :    0.581754
  15 S :   -0.308072
  16 O :   -0.272684
  17 C :   -0.215732
  18 O :   -0.251951
  19 C :   -0.218275
  20 H :    0.131712
  21 H :    0.126401
  22 H :    0.133556
  23 H :    0.120983
  24 H :    0.119315
  25 H :    0.144371
  26 H :    0.160702
  27 H :    0.113393
  28 H :    0.120728
  29 H :    0.130328
  30 H :    0.125183
  31 H :    0.124995
  32 H :    0.112859
  33 H :    0.108602
  34 H :    0.121876
  35 H :    0.124010
  36 H :    0.117692
  37 H :    0.109960

  Mayer bond orders larger than 0.100000
B(  0-C ,  1-C ) :   1.1749 B(  0-C , 20-H ) :   0.9438 B(  0-C , 21-H ) :   0.9486
B(  0-C , 22-H ) :   0.9451 B(  1-C ,  2-O ) :   0.9092 B(  1-C , 23-H ) :   0.9145
B(  1-C , 24-H ) :   0.9370 B(  2-O ,  3-C ) :   1.2524 B(  3-C ,  4-O ) :   1.9971
B(  3-C ,  5-C ) :   0.9957 B(  5-C ,  6-C ) :   1.0680 B(  5-C , 25-H ) :   0.8998
B(  5-C , 26-H ) :   0.8737 B(  6-C ,  7-H ) :   0.8540 B(  6-C ,  8-C ) :   0.8624
B(  6-C , 13-S ) :   1.0223 B(  8-C ,  9-O ) :   2.0469 B(  8-C , 10-O ) :   1.2328
B( 10-O , 11-C ) :   0.9039 B( 11-C , 12-C ) :   1.1808 B( 11-C , 27-H ) :   0.9346
B( 11-C , 28-H ) :   0.9169 B( 12-C , 29-H ) :   0.9440 B( 12-C , 30-H ) :   0.9388
B( 12-C , 31-H ) :   0.9423 B( 13-S , 14-P ) :   0.9710 B( 13-S , 15-S ) :   0.1084
B( 14-P , 15-S ) :   1.6337 B( 14-P , 16-O ) :   1.0655 B( 14-P , 18-O ) :   1.0787
B( 16-O , 17-C ) :   0.9343 B( 17-C , 32-H ) :   0.9378 B( 17-C , 33-H ) :   0.9492
B( 17-C , 34-H ) :   0.9592 B( 18-O , 19-C ) :   0.9261 B( 19-C , 35-H ) :   0.9579
B( 19-C , 36-H ) :   0.9413 B( 19-C , 37-H ) :   0.9412

Dispersion correction           -0.053282222
FINAL SINGLE POINT ENERGY     -1979.019693917012

DIPOLE MOMENT
-------------

Method             : SCF
Type of density    : Electron Density
Multiplicity       :   1
Irrep              :   0
Energy             : -1979.1497893481732717 Eh
Relativity type    :
Basis              : AO
                                X                 Y                 Z
Electronic contribution:    -11.213319905       3.787858310      -7.768627036
Nuclear contribution   :     11.184642674      -5.398089278       8.192056957
                        -----------------------------------------
Total Dipole Moment    :     -0.028677232      -1.610230968       0.423429921
                        -----------------------------------------
Magnitude (a.u.)       :      1.665220421
Magnitude (Debye)      :      4.232653937

Rotational constants in cm-1:             0.016891             0.006088             0.005470
Rotational constants in MHz :           506.372460           182.507308           163.993809

                             ****ORCA TERMINATED NORMALLY****
TOTAL RUN TIME: 0 days 0 hours 0 minutes 32 seconds 892 msec
