                         Program Version 6.0.1  -  RELEASE   -
|  1> ! pbe def2-sv(p) def2/J RI DEFGRID1 loosescf d4 GCP(DFT/SV(P)) printgap
|  2> %output
|  3>     printlevel normal
|  4> end
|  5> * xyz 0 1
|  6> C 4.2019389391 -3.7300293851 -1.1624576725
|  7> C 3.1050353504 -3.004564551 -1.9255660677
|  8> O 2.8340737685 -1.7160045214 -1.3411655591
|  9> C 1.9870811328 -1.6474072562 -0.3360065055
| 10> O 1.4038288409 -2.5932031934 0.1449976873
| 11> C 1.7855318769 -0.212035177 0.1155763403
| 12> C 0.9025472519 0.5057628062 -0.9114375182
| 13> H 1.4483486614 0.6327346983 -1.8493882328
| 14> C 0.446941099 1.8567283056 -0.3912117815
| 15> O -0.7284275773 2.1306100203 -0.2417364228
| 16> O 1.4474971181 2.6464064268 -0.1348243284
| 17> C 1.1747346215 3.9286056871 0.4763648867
| 18> C 1.1188593917 3.7894743497 1.9885839803
| 19> S -0.5877914616 -0.4544372017 -1.3549155752
| 20> P -1.8497648924 -0.0890815558 0.3152467351
| 21> S -1.1514964699 0.3674341207 2.0987714541
| 22> O -3.1214647676 0.6993891457 -0.2061477416
| 23> C -3.4959946625 2.0228747765 0.1829159129
| 24> O -2.6023291572 -1.5060957927 0.3392413183
| 25> C -1.9530421759 -2.6703684953 0.8550951331
| 26> H 5.0987438436 -3.1180246526 -1.1229693434
| 27> H 3.8728686334 -3.9440055095 -0.1480826077
| 28> H 4.4284305054 -4.6655030913 -1.6631406955
| 29> H 2.1801093031 -3.5881055685 -1.9251935403
| 30> H 3.4121834387 -2.779645781 -2.9468456048
| 31> H 2.7455462288 0.2998565048 0.1719846954
| 32> H 1.303856639 -0.2209075513 1.0953010111
| 33> H 2.0055888523 4.5594143198 0.161686948
| 34> H 0.2293761875 4.3104766674 0.0834532461
| 35> H 2.0655425665 3.4173626541 2.369097382
| 36> H 0.9104893572 4.7575635967 2.4313264763
| 37> H 0.3320799885 3.0936999798 2.2761948193
| 38> H -4.5811492018 2.0168511051 0.2585683227
| 39> H -3.1617934596 2.7270081429 -0.576575872
| 40> H -3.0479034859 2.2786819926 1.14436008
| 41> H -2.6422072661 -3.4917978429 0.6798619788
| 42> H -1.7664464838 -2.547254184 1.9233023524
| 43> H -1.0040885925 -2.8524538754 0.3464641298
| 44> *
| 45>
| 46>                          ****END OF INPUT****

CARTESIAN COORDINATES (ANGSTROEM)
---------------------------------
  C      4.201939   -3.730029   -1.162458
  C      3.105035   -3.004565   -1.925566
  O      2.834074   -1.716005   -1.341166
  C      1.987081   -1.647407   -0.336007
  O      1.403829   -2.593203    0.144998
  C      1.785532   -0.212035    0.115576
  C      0.902547    0.505763   -0.911438
  H      1.448349    0.632735   -1.849388
  C      0.446941    1.856728   -0.391212
  O     -0.728428    2.130610   -0.241736
  O      1.447497    2.646406   -0.134824
  C      1.174735    3.928606    0.476365
  C      1.118859    3.789474    1.988584
  S     -0.587791   -0.454437   -1.354916
  P     -1.849765   -0.089082    0.315247
  S     -1.151496    0.367434    2.098771
  O     -3.121465    0.699389   -0.206148
  C     -3.495995    2.022875    0.182916
  O     -2.602329   -1.506096    0.339241
  C     -1.953042   -2.670368    0.855095
  H      5.098744   -3.118025   -1.122969
  H      3.872869   -3.944006   -0.148083
  H      4.428431   -4.665503   -1.663141
  H      2.180109   -3.588106   -1.925194
  H      3.412183   -2.779646   -2.946846
  H      2.745546    0.299857    0.171985
  H      1.303857   -0.220908    1.095301
  H      2.005589    4.559414    0.161687
  H      0.229376    4.310477    0.083453
  H      2.065543    3.417363    2.369097
  H      0.910489    4.757564    2.431326
  H      0.332080    3.093700    2.276195
  H     -4.581149    2.016851    0.258568
  H     -3.161793    2.727008   -0.576576
  H     -3.047903    2.278682    1.144360
  H     -2.642207   -3.491798    0.679862
  H     -1.766446   -2.547254    1.923302
  H     -1.004089   -2.852454    0.346464

 Total Charge           Charge          ....    0
 Multiplicity           Mult            ....    1
 Number of Electrons    NEL             ....  174
 Basis Dimension        Dim             ....  316

ORBITAL ENERGIES
----------------

  NO   OCC          E(Eh)            E(eV)
   0   2.0000     -88.033217     -2395.5056
   1   2.0000     -87.974141     -2393.8981
   2   2.0000     -76.417922     -2079.4374
   3   2.0000     -18.827030      -512.3095
   4   2.0000     -18.807933      -511.7899
   5   2.0000     -18.777171      -510.9528
   6   2.0000     -18.767730      -510.6959
   7   2.0000     -18.761592      -510.5289
   8   2.0000     -18.741484      -509.9817
   9   2.0000     -10.032290      -272.9925
  10   2.0000     -10.012664      -272.4584
  11   2.0000      -9.961462      -271.0652
  12   2.0000      -9.955548      -270.9042
  13   2.0000      -9.952249      -270.8145
  14   2.0000      -9.931072      -270.2382
  15   2.0000      -9.918382      -269.8929
  16   2.0000      -9.907816      -269.6054
  17   2.0000      -9.890757      -269.1412
  18   2.0000      -9.890550      -269.1356
  19   2.0000      -7.678148      -208.9330
  20   2.0000      -7.619137      -207.3272
  21   2.0000      -6.413600      -174.5229
  22   2.0000      -5.706330      -155.2771
  23   2.0000      -5.702768      -155.1802
  24   2.0000      -5.694667      -154.9598
  25   2.0000      -5.648155      -153.6941
  26   2.0000      -5.640114      -153.4753
  27   2.0000      -5.638776      -153.4389
  28   2.0000      -4.635954      -126.1507
  29   2.0000      -4.635813      -126.1469
  30   2.0000      -4.634234      -126.1039
  31   2.0000      -1.036770       -28.2120
  32   2.0000      -1.015384       -27.6300
  33   2.0000      -0.968862       -26.3641
  34   2.0000      -0.941086       -25.6083
  35   2.0000      -0.922331       -25.0979
  36   2.0000      -0.918374       -24.9902
  37   2.0000      -0.768759       -20.9190
  38   2.0000      -0.717852       -19.5338
  39   2.0000      -0.710314       -19.3286
  40   2.0000      -0.684620       -18.6295
  41   2.0000      -0.652368       -17.7518
  42   2.0000      -0.628743       -17.1090
  43   2.0000      -0.622021       -16.9260
  44   2.0000      -0.603671       -16.4267
  45   2.0000      -0.598248       -16.2792
  46   2.0000      -0.570588       -15.5265
  47   2.0000      -0.512435       -13.9441
  48   2.0000      -0.508102       -13.8262
  49   2.0000      -0.498772       -13.5723
  50   2.0000      -0.485714       -13.2169
  51   2.0000      -0.463047       -12.6002
  52   2.0000      -0.458739       -12.4829
  53   2.0000      -0.450212       -12.2509
  54   2.0000      -0.442512       -12.0414
  55   2.0000      -0.433546       -11.7974
  56   2.0000      -0.421862       -11.4795
  57   2.0000      -0.418660       -11.3923
  58   2.0000      -0.409444       -11.1415
  59   2.0000      -0.403039       -10.9673
  60   2.0000      -0.395429       -10.7602
  61   2.0000      -0.393505       -10.7078
  62   2.0000      -0.391367       -10.6496
  63   2.0000      -0.383281       -10.4296
  64   2.0000      -0.375815       -10.2264
  65   2.0000      -0.369067       -10.0428
  66   2.0000      -0.364772        -9.9260
  67   2.0000      -0.356650        -9.7049
  68   2.0000      -0.352087        -9.5808
  69   2.0000      -0.340651        -9.2696
  70   2.0000      -0.336792        -9.1646
  71   2.0000      -0.334306        -9.0969
  72   2.0000      -0.328287        -8.9331
  73   2.0000      -0.311018        -8.4632
  74   2.0000      -0.304212        -8.2780
  75   2.0000      -0.299312        -8.1447
  76   2.0000      -0.290906        -7.9160
  77   2.0000      -0.284385        -7.7385
  78   2.0000      -0.273623        -7.4457
  79   2.0000      -0.265616        -7.2278
  80   2.0000      -0.259930        -7.0731
  81   2.0000      -0.245733        -6.6867
  82   2.0000      -0.241339        -6.5672
  83   2.0000      -0.224096        -6.0980
  84   2.0000      -0.212986        -5.7956
  85   2.0000      -0.194298        -5.2871
  86   2.0000      -0.186556        -5.0765
  87   0.0000      -0.050012        -1.3609
  88   0.0000      -0.037254        -1.0137
  89   0.0000      -0.020410        -0.5554
  90   0.0000       0.007072         0.1924
  91   0.0000       0.031320         0.8523

MULLIKEN ATOMIC CHARGES
-----------------------
   0 C :   -0.306579
   1 C :   -0.011066
   2 O :   -0.234250
   3 C :    0.127529
   4 O :   -0.187166
   5 C :   -0.051500
   6 C :   -0.347888
   7 H :    0.151407
   8 C :    0.233101
   9 O :   -0.189582
  10 O :   -0.217366
  11 C :   -0.012954
  12 C :   -0.315400
  13 S :   -0.079771
  14 P :    0.625621
  15 S :   -0.346996
  16 O :   -0.367407
  17 C :   -0.084695
  18 O :   -0.374201
  19 C :   -0.122493
  20 H :    0.113873
  21 H :    0.129855
  22 H :    0.115039
  23 H :    0.111440
  24 H :    0.102931
  25 H :    0.109950
  26 H :    0.120033
  27 H :    0.108974
  28 H :    0.113354
  29 H :    0.115789
  30 H :    0.114904
  31 H :    0.146022
  32 H :    0.118640
  33 H :    0.114663
  34 H :    0.114107
  35 H :    0.113006
  36 H :    0.112459
  37 H :    0.136622
Sum of atomic charges:    0.0000000

LOEWDIN ATOMIC CHARGES
----------------------
   0 C :   -0.356143
   1 C :   -0.110729
   2 O :   -0.060930
   3 C :    0.024845
   4 O :   -0.156199
   5 C :   -0.254488
   6 C :   -0.260934
   7 H :    0.149396
   8 C :    0.026423
   9 O :   -0.154670
  10 O :   -0.034096
  11 C :   -0.105368
  12 C :   -0.359214
  13 S :    0.111754
  14 P :    0.591827
  15 S :   -0.329078
  16 O :   -0.238239
  17 C :   -0.207309
  18 O :   -0.258166
  19 C :   -0.227189
  20 H :    0.124814
  21 H :    0.131769
  22 H :    0.131749
  23 H :    0.121687
  24 H :    0.118058
  25 H :    0.139069
  26 H :    0.133780
  27 H :    0.120820
  28 H :    0.122143
  29 H :    0.126419
  30 H :    0.132412
  31 H :    0.132273
  32 H :    0.117137
  33 H :    0.112186
  34 H :    0.107819
  35 H :    0.116690
  36 H :    0.109023
  37 H :    0.110660

  Mayer bond orders larger than 0.100000
B(  0-C ,  1-C ) :   1.1742 B(  0-C , 20-H ) :   0.9485 B(  0-C , 21-H ) :   0.9458
B(  0-C , 22-H ) :   0.9440 B(  1-C ,  2-O ) :   0.9129 B(  1-C , 23-H ) :   0.9143
B(  1-C , 24-H ) :   0.9369 B(  2-O ,  3-C ) :   1.2214 B(  3-C ,  4-O ) :   2.0094
B(  3-C ,  5-C ) :   1.0235 B(  5-C ,  6-C ) :   1.0422 B(  5-C , 25-H ) :   0.8770
B(  5-C , 26-H ) :   0.8699 B(  6-C ,  7-H ) :   0.8632 B(  6-C ,  8-C ) :   0.9147
B(  6-C , 13-S ) :   1.0414 B(  8-C ,  9-O ) :   1.9425 B(  8-C , 10-O ) :   1.2854
B(  9-O , 14-P ) :   0.1063 B( 10-O , 11-C ) :   0.8932 B( 11-C , 12-C ) :   1.1779
B( 11-C , 27-H ) :   0.9362 B( 11-C , 28-H ) :   0.9144 B( 12-C , 29-H ) :   0.9482
B( 12-C , 30-H ) :   0.9410 B( 12-C , 31-H ) :   0.9295 B( 13-S , 14-P ) :   0.9280
B( 13-S , 15-S ) :   0.1183 B( 14-P , 15-S ) :   1.5399 B( 14-P , 16-O ) :   1.1410
B( 14-P , 18-O ) :   1.0968 B( 16-O , 17-C ) :   0.9295 B( 17-C , 32-H ) :   0.9548
B( 17-C , 33-H ) :   0.9539 B( 17-C , 34-H ) :   0.9346 B( 18-O , 19-C ) :   0.9336
B( 19-C , 35-H ) :   0.9571 B( 19-C , 36-H ) :   0.9433 B( 19-C , 37-H ) :   0.9233

Dispersion correction           -0.052907835
FINAL SINGLE POINT ENERGY     -1979.015809847183

DIPOLE MOMENT
-------------

Method             : SCF
Type of density    : Electron Density
Multiplicity       :   1
Irrep              :   0
Energy             : -1979.1461045376790935 Eh
Relativity type    :
Basis              : AO
                                X                 Y                 Z
Electronic contribution:    -13.190861836      -0.001583234      -3.002978363
Nuclear contribution   :     14.666281736       0.908268926       2.217356726
                        -----------------------------------------
Total Dipole Moment    :      1.475419900       0.906685692      -0.785621637
                        -----------------------------------------
Magnitude (a.u.)       :      1.901616203
Magnitude (Debye)      :      4.833524261

Rotational constants in cm-1:             0.012448             0.007609             0.005650
Rotational constants in MHz :           373.192273           228.122795           169.370298

                             ****ORCA TERMINATED NORMALLY****
TOTAL RUN TIME: 0 days 0 hours 0 minutes 53 seconds 918 msec
