                         Program Version 6.0.1  -  RELEASE   -
|  1> ! pbe def2-sv(p) def2/J RI DEFGRID1 loosescf d4 GCP(DFT/SV(P)) printgap
|  2> %output
|  3>     printlevel normal
|  4> end
|  5> * xyz 0 1
|  6> C 5.2627755032 -2.7598495993 -0.4071097117
|  7> C 4.8556300164 -1.7862101667 -1.5012112142
|  8> O 3.4433074653 -1.8860727773 -1.7771345572
|  9> C 2.6084263404 -1.1701804396 -1.0568071406
| 10> O 2.9377563083 -0.3847670639 -0.1916064951
| 11> C 1.1680773374 -1.4495251204 -1.4266295028
| 12> C 0.2745444859 -0.359969968 -0.8521098906
| 13> H 0.3855501597 0.5935304492 -1.3738215492
| 14> C 0.5610586306 -0.1577126483 0.6261952337
| 15> O 0.5740386047 -1.0669272668 1.4283138389
| 16> O 0.6876290281 1.1180248168 0.9108965684
| 17> C 1.0125150167 1.506118968 2.2592723529
| 18> C 2.4381931802 2.02792098 2.3040638171
| 19> S -1.4702678954 -0.8878041192 -0.9748102495
| 20> P -2.3256170933 0.7647612407 0.0524341754
| 21> S -1.7760689128 2.5445757201 -0.5327907242
| 22> O -3.8842208276 0.4544453548 -0.0940276586
| 23> C -4.5508040016 0.6072176851 -1.3549748366
| 24> O -2.1156490935 0.5375817553 1.6048894512
| 25> C -2.5277813674 -0.6610170949 2.2971892018
| 26> H 6.3358278112 -2.7032948165 -0.2573851624
| 27> H 4.7624908905 -2.5058658227 0.5250790314
| 28> H 4.9920148451 -3.7736636757 -0.6882664439
| 29> H 5.334629601 -2.0291486051 -2.4495325911
| 30> H 5.0821712242 -0.7567059767 -1.2099882305
| 31> H 0.8999019826 -2.4121439446 -0.9817061294
| 32> H 1.0608579691 -1.5290925376 -2.5071955005
| 33> H 0.2889173223 2.2812905616 2.5207818703
| 34> H 0.8839023809 0.6352457503 2.9081664195
| 35> H 2.6941372556 2.2900390949 3.3250895884
| 36> H 3.1183993093 1.2599837583 1.9428181845
| 37> H 2.532779067 2.9036249211 1.6686403735
| 38> H -4.2764539407 -0.2122742541 -2.0182450242
| 39> H -4.2791386307 1.5617619614 -1.8077141033
| 40> H -5.6134154305 0.5815648103 -1.1275618701
| 41> H -3.4180066143 -1.0815067205 1.8353500383
| 42> H -2.7346541286 -0.3483583064 3.3173781411
| 43> H -1.7069057841 -1.3788563284 2.2766422928
| 44> *
| 45>
| 46>                          ****END OF INPUT****

CARTESIAN COORDINATES (ANGSTROEM)
---------------------------------
  C      5.262776   -2.759850   -0.407110
  C      4.855630   -1.786210   -1.501211
  O      3.443307   -1.886073   -1.777135
  C      2.608426   -1.170180   -1.056807
  O      2.937756   -0.384767   -0.191606
  C      1.168077   -1.449525   -1.426630
  C      0.274544   -0.359970   -0.852110
  H      0.385550    0.593530   -1.373822
  C      0.561059   -0.157713    0.626195
  O      0.574039   -1.066927    1.428314
  O      0.687629    1.118025    0.910897
  C      1.012515    1.506119    2.259272
  C      2.438193    2.027921    2.304064
  S     -1.470268   -0.887804   -0.974810
  P     -2.325617    0.764761    0.052434
  S     -1.776069    2.544576   -0.532791
  O     -3.884221    0.454445   -0.094028
  C     -4.550804    0.607218   -1.354975
  O     -2.115649    0.537582    1.604889
  C     -2.527781   -0.661017    2.297189
  H      6.335828   -2.703295   -0.257385
  H      4.762491   -2.505866    0.525079
  H      4.992015   -3.773664   -0.688266
  H      5.334630   -2.029149   -2.449533
  H      5.082171   -0.756706   -1.209988
  H      0.899902   -2.412144   -0.981706
  H      1.060858   -1.529093   -2.507196
  H      0.288917    2.281291    2.520782
  H      0.883902    0.635246    2.908166
  H      2.694137    2.290039    3.325090
  H      3.118399    1.259984    1.942818
  H      2.532779    2.903625    1.668640
  H     -4.276454   -0.212274   -2.018245
  H     -4.279139    1.561762   -1.807714
  H     -5.613415    0.581565   -1.127562
  H     -3.418007   -1.081507    1.835350
  H     -2.734654   -0.348358    3.317378
  H     -1.706906   -1.378856    2.276642

 Total Charge           Charge          ....    0
 Multiplicity           Mult            ....    1
 Number of Electrons    NEL             ....  174
 Basis Dimension        Dim             ....  316

ORBITAL ENERGIES
----------------

  NO   OCC          E(Eh)            E(eV)
   0   2.0000     -88.039157     -2395.6673
   1   2.0000     -87.977384     -2393.9863
   2   2.0000     -76.423238     -2079.5820
   3   2.0000     -18.813925      -511.9529
   4   2.0000     -18.794863      -511.4342
   5   2.0000     -18.792465      -511.3690
   6   2.0000     -18.789668      -511.2929
   7   2.0000     -18.753162      -510.2995
   8   2.0000     -18.724558      -509.5211
   9   2.0000     -10.023324      -272.7485
  10   2.0000     -10.005184      -272.2549
  11   2.0000      -9.956572      -270.9321
  12   2.0000      -9.947219      -270.6776
  13   2.0000      -9.940976      -270.5077
  14   2.0000      -9.940337      -270.4903
  15   2.0000      -9.930548      -270.2240
  16   2.0000      -9.918624      -269.8995
  17   2.0000      -9.893465      -269.2149
  18   2.0000      -9.871762      -268.6243
  19   2.0000      -7.684082      -209.0945
  20   2.0000      -7.622856      -207.4285
  21   2.0000      -6.420446      -174.7092
  22   2.0000      -5.711667      -155.4224
  23   2.0000      -5.708948      -155.3484
  24   2.0000      -5.701051      -155.1335
  25   2.0000      -5.652018      -153.7992
  26   2.0000      -5.643199      -153.5593
  27   2.0000      -5.642983      -153.5534
  28   2.0000      -4.643377      -126.3527
  29   2.0000      -4.642324      -126.3241
  30   2.0000      -4.640523      -126.2751
  31   2.0000      -1.023068       -27.8391
  32   2.0000      -0.999428       -27.1958
  33   2.0000      -0.985855       -26.8265
  34   2.0000      -0.942645       -25.6507
  35   2.0000      -0.929752       -25.2998
  36   2.0000      -0.905129       -24.6298
  37   2.0000      -0.763867       -20.7859
  38   2.0000      -0.720042       -19.5933
  39   2.0000      -0.697542       -18.9811
  40   2.0000      -0.689143       -18.7525
  41   2.0000      -0.662001       -18.0140
  42   2.0000      -0.637661       -17.3516
  43   2.0000      -0.619356       -16.8535
  44   2.0000      -0.610850       -16.6221
  45   2.0000      -0.596139       -16.2218
  46   2.0000      -0.552453       -15.0330
  47   2.0000      -0.512212       -13.9380
  48   2.0000      -0.508277       -13.8309
  49   2.0000      -0.488646       -13.2967
  50   2.0000      -0.475849       -12.9485
  51   2.0000      -0.474666       -12.9163
  52   2.0000      -0.465606       -12.6698
  53   2.0000      -0.442825       -12.0499
  54   2.0000      -0.437600       -11.9077
  55   2.0000      -0.431389       -11.7387
  56   2.0000      -0.427154       -11.6234
  57   2.0000      -0.423514       -11.5244
  58   2.0000      -0.413992       -11.2653
  59   2.0000      -0.411815       -11.2061
  60   2.0000      -0.400380       -10.8949
  61   2.0000      -0.394052       -10.7227
  62   2.0000      -0.388147       -10.5620
  63   2.0000      -0.383558       -10.4371
  64   2.0000      -0.376474       -10.2444
  65   2.0000      -0.366710        -9.9787
  66   2.0000      -0.359327        -9.7778
  67   2.0000      -0.347108        -9.4453
  68   2.0000      -0.344902        -9.3853
  69   2.0000      -0.335761        -9.1365
  70   2.0000      -0.331428        -9.0186
  71   2.0000      -0.325272        -8.8511
  72   2.0000      -0.319730        -8.7003
  73   2.0000      -0.309413        -8.4195
  74   2.0000      -0.305747        -8.3198
  75   2.0000      -0.303323        -8.2538
  76   2.0000      -0.296697        -8.0735
  77   2.0000      -0.280568        -7.6346
  78   2.0000      -0.271926        -7.3995
  79   2.0000      -0.269270        -7.3272
  80   2.0000      -0.260088        -7.0774
  81   2.0000      -0.245862        -6.6903
  82   2.0000      -0.237429        -6.4608
  83   2.0000      -0.230549        -6.2735
  84   2.0000      -0.213360        -5.8058
  85   2.0000      -0.195223        -5.3123
  86   2.0000      -0.192378        -5.2349
  87   0.0000      -0.041876        -1.1395
  88   0.0000      -0.032328        -0.8797
  89   0.0000      -0.020044        -0.5454
  90   0.0000       0.006450         0.1755
  91   0.0000       0.027415         0.7460

MULLIKEN ATOMIC CHARGES
-----------------------
   0 C :   -0.305840
   1 C :   -0.016272
   2 O :   -0.225530
   3 C :    0.131289
   4 O :   -0.196922
   5 C :   -0.062754
   6 C :   -0.280546
   7 H :    0.137648
   8 C :    0.160283
   9 O :   -0.207290
  10 O :   -0.206510
  11 C :   -0.016956
  12 C :   -0.293775
  13 S :   -0.102419
  14 P :    0.599280
  15 S :   -0.301742
  16 O :   -0.384645
  17 C :   -0.101830
  18 O :   -0.366037
  19 C :   -0.120017
  20 H :    0.116614
  21 H :    0.132048
  22 H :    0.117320
  23 H :    0.107425
  24 H :    0.113618
  25 H :    0.131379
  26 H :    0.126941
  27 H :    0.106669
  28 H :    0.103869
  29 H :    0.103507
  30 H :    0.125999
  31 H :    0.113437
  32 H :    0.118075
  33 H :    0.121466
  34 H :    0.127659
  35 H :    0.118368
  36 H :    0.125395
  37 H :    0.150795
Sum of atomic charges:   -0.0000000

LOEWDIN ATOMIC CHARGES
----------------------
   0 C :   -0.355295
   1 C :   -0.109160
   2 O :   -0.053661
   3 C :    0.048582
   4 O :   -0.149035
   5 C :   -0.250263
   6 C :   -0.260104
   7 H :    0.135585
   8 C :   -0.005352
   9 O :   -0.181652
  10 O :   -0.035865
  11 C :   -0.110234
  12 C :   -0.354254
  13 S :    0.089917
  14 P :    0.566438
  15 S :   -0.307338
  16 O :   -0.257816
  17 C :   -0.213456
  18 O :   -0.237370
  19 C :   -0.213557
  20 H :    0.132585
  21 H :    0.133001
  22 H :    0.126543
  23 H :    0.120112
  24 H :    0.121789
  25 H :    0.152393
  26 H :    0.144535
  27 H :    0.118294
  28 H :    0.116177
  29 H :    0.125334
  30 H :    0.130222
  31 H :    0.125264
  32 H :    0.110908
  33 H :    0.113679
  34 H :    0.123633
  35 H :    0.111704
  36 H :    0.123994
  37 H :    0.123722

  Mayer bond orders larger than 0.100000
B(  0-C ,  1-C ) :   1.1753 B(  0-C , 20-H ) :   0.9436 B(  0-C , 21-H ) :   0.9455
B(  0-C , 22-H ) :   0.9486 B(  1-C ,  2-O ) :   0.9074 B(  1-C , 23-H ) :   0.9367
B(  1-C , 24-H ) :   0.9143 B(  2-O ,  3-C ) :   1.2559 B(  3-C ,  4-O ) :   1.9749
B(  3-C ,  5-C ) :   1.0222 B(  5-C ,  6-C ) :   1.0453 B(  5-C , 25-H ) :   0.8662
B(  5-C , 26-H ) :   0.9002 B(  6-C ,  7-H ) :   0.8709 B(  6-C ,  8-C ) :   0.8820
B(  6-C , 13-S ) :   1.0214 B(  8-C ,  9-O ) :   2.0264 B(  8-C , 10-O ) :   1.2403
B( 10-O , 11-C ) :   0.9084 B( 11-C , 12-C ) :   1.1735 B( 11-C , 27-H ) :   0.9315
B( 11-C , 28-H ) :   0.9074 B( 12-C , 29-H ) :   0.9451 B( 12-C , 30-H ) :   0.9408
B( 12-C , 31-H ) :   0.9504 B( 13-S , 14-P ) :   0.9591 B( 13-S , 15-S ) :   0.1146
B( 14-P , 15-S ) :   1.6849 B( 14-P , 16-O ) :   1.0764 B( 14-P , 18-O ) :   1.1120
B( 16-O , 17-C ) :   0.9275 B( 17-C , 32-H ) :   0.9502 B( 17-C , 33-H ) :   0.9332
B( 17-C , 34-H ) :   0.9586 B( 18-O , 19-C ) :   0.9035 B( 19-C , 35-H ) :   0.9418
B( 19-C , 36-H ) :   0.9585 B( 19-C , 37-H ) :   0.9325

Dispersion correction           -0.051944435
FINAL SINGLE POINT ENERGY     -1979.019634010329

DIPOLE MOMENT
-------------

Method             : SCF
Type of density    : Electron Density
Multiplicity       :   1
Irrep              :   0
Energy             : -1979.1520041498170031 Eh
Relativity type    :
Basis              : AO
                                X                 Y                 Z
Electronic contribution:    -17.138263259       5.821699758      -5.933417978
Nuclear contribution   :     17.528801035      -6.963787783       5.558486712
                        -----------------------------------------
Total Dipole Moment    :      0.390537776      -1.142088025      -0.374931266
                        -----------------------------------------
Magnitude (a.u.)       :      1.263905956
Magnitude (Debye)      :      3.212593631

Rotational constants in cm-1:             0.016938             0.005742             0.005119
Rotational constants in MHz :           507.785064           172.148171           153.463883

                             ****ORCA TERMINATED NORMALLY****
TOTAL RUN TIME: 0 days 0 hours 0 minutes 29 seconds 845 msec
