                         Program Version 6.0.0  -   RELEASE  -
|  1> ! pbe def2-sv(p) def2/J RI DEFGRID1 loosescf d4 GCP(DFT/SV(P)) printgap
|  2> %output
|  3>     printlevel normal
|  4> end
|  5> * xyz 0 1
|  6> C 1.6958080983 2.6777654599 2.1595935363
|  7> C 2.4784702238 1.3809726706 2.1776005957
|  8> O 2.4605627196 0.8249702462 0.8421726512
|  9> P 2.4100163434 -0.7253167228 0.5457785764
| 10> S 1.3952231817 -1.8172764734 1.8260514529
| 11> O 3.9581660382 -1.0803620003 0.4635708947
| 12> C 4.4501132232 -2.4315689444 0.4951130102
| 13> C 4.0711163798 -3.2054859883 -0.751064571
| 14> S 1.7273063823 -0.6900554372 -1.448679878
| 15> C -0.0268630166 -0.7674871627 -1.0365082735
| 16> S -0.5931817993 0.7829854649 -0.2681441386
| 17> P -2.6625047968 0.534063667 -0.7193917121
| 18> S -3.0846351066 -0.3678873488 -2.4002286316
| 19> O -3.2672261032 1.992668066 -0.5269279574
| 20> C -3.3401655686 2.9466651243 -1.6039337667
| 21> C -1.9714822638 3.3608422451 -2.1033406977
| 22> O -3.2639847476 -0.2367363604 0.5189395454
| 23> C -3.1139996933 0.2293957346 1.8859158514
| 24> C -2.3651645819 -0.806502516 2.6993245012
| 25> H 1.7116220596 3.1175356036 3.1514157394
| 26> H 2.1401730446 3.3680411599 1.4489570844
| 27> H 0.6680179556 2.4857491003 1.8631129768
| 28> H 2.0339900732 0.6547403939 2.8669817129
| 29> H 3.5233335062 1.5447908909 2.4502517182
| 30> H 5.5309194781 -2.3142638796 0.5838154389
| 31> H 4.0540677023 -2.9226890762 1.3899397274
| 32> H 4.5634732955 -4.172597977 -0.7375277716
| 33> H 2.9931106788 -3.3590413202 -0.7830182963
| 34> H 4.3714010868 -2.6583411596 -1.6411414709
| 35> H -0.1908794332 -1.5922339987 -0.340449517
| 36> H -0.5770593304 -0.9225122692 -1.9658381518
| 37> H -3.926737037 2.5039244122 -2.4144593729
| 38> H -3.8825872946 3.7864205638 -1.16737095
| 39> H -2.0829910501 4.1609758467 -2.8280635868
| 40> H -1.3525975592 3.7042707872 -1.2782364333
| 41> H -1.4798796083 2.5170958716 -2.5858615074
| 42> H -2.5915905756 1.1888981449 1.8814666795
| 43> H -4.1296894451 0.3680522001 2.2590180387
| 44> H -2.3393706519 -0.4934955953 3.738079139
| 45> H -2.8637026938 -1.7690137691 2.6276441563
| 46> H -1.3431549978 -0.9209683357 2.3435671116
| 47> *
| 48>
| 49>                          ****END OF INPUT****

CARTESIAN COORDINATES (ANGSTROEM)
---------------------------------
  C      1.695808    2.677765    2.159594
  C      2.478470    1.380973    2.177601
  O      2.460563    0.824970    0.842173
  P      2.410016   -0.725317    0.545779
  S      1.395223   -1.817276    1.826051
  O      3.958166   -1.080362    0.463571
  C      4.450113   -2.431569    0.495113
  C      4.071116   -3.205486   -0.751065
  S      1.727306   -0.690055   -1.448680
  C     -0.026863   -0.767487   -1.036508
  S     -0.593182    0.782985   -0.268144
  P     -2.662505    0.534064   -0.719392
  S     -3.084635   -0.367887   -2.400229
  O     -3.267226    1.992668   -0.526928
  C     -3.340166    2.946665   -1.603934
  C     -1.971482    3.360842   -2.103341
  O     -3.263985   -0.236736    0.518940
  C     -3.114000    0.229396    1.885916
  C     -2.365165   -0.806503    2.699325
  H      1.711622    3.117536    3.151416
  H      2.140173    3.368041    1.448957
  H      0.668018    2.485749    1.863113
  H      2.033990    0.654740    2.866982
  H      3.523334    1.544791    2.450252
  H      5.530919   -2.314264    0.583815
  H      4.054068   -2.922689    1.389940
  H      4.563473   -4.172598   -0.737528
  H      2.993111   -3.359041   -0.783018
  H      4.371401   -2.658341   -1.641141
  H     -0.190879   -1.592234   -0.340450
  H     -0.577059   -0.922512   -1.965838
  H     -3.926737    2.503924   -2.414459
  H     -3.882587    3.786421   -1.167371
  H     -2.082991    4.160976   -2.828064
  H     -1.352598    3.704271   -1.278236
  H     -1.479880    2.517096   -2.585862
  H     -2.591591    1.188898    1.881467
  H     -4.129689    0.368052    2.259018
  H     -2.339371   -0.493496    3.738079
  H     -2.863703   -1.769014    2.627644
  H     -1.343155   -0.920968    2.343567

 Total Charge           Charge          ....    0
 Multiplicity           Mult            ....    1
 Number of Electrons    NEL             ....  202
 Basis Dimension        Dim             ....  334

ORBITAL ENERGIES
----------------

  NO   OCC          E(Eh)            E(eV)
   0   2.0000     -88.050092     -2395.9648
   1   2.0000     -88.040934     -2395.7156
   2   2.0000     -87.994580     -2394.4542
   3   2.0000     -87.986800     -2394.2426
   4   2.0000     -76.430889     -2079.7902
   5   2.0000     -76.425326     -2079.6388
   6   2.0000     -18.796507      -511.4790
   7   2.0000     -18.794522      -511.4249
   8   2.0000     -18.793939      -511.4091
   9   2.0000     -18.788273      -511.2549
  10   2.0000      -9.955962      -270.9155
  11   2.0000      -9.954727      -270.8819
  12   2.0000      -9.954447      -270.8743
  13   2.0000      -9.953016      -270.8353
  14   2.0000      -9.951513      -270.7944
  15   2.0000      -9.887776      -269.0601
  16   2.0000      -9.887250      -269.0458
  17   2.0000      -9.884244      -268.9640
  18   2.0000      -9.878259      -268.8011
  19   2.0000      -7.695404      -209.4026
  20   2.0000      -7.685325      -209.1283
  21   2.0000      -7.639164      -207.8722
  22   2.0000      -7.632117      -207.6805
  23   2.0000      -6.428726      -174.9345
  24   2.0000      -6.422977      -174.7781
  25   2.0000      -5.723207      -155.7364
  26   2.0000      -5.720157      -155.6534
  27   2.0000      -5.713110      -155.4616
  28   2.0000      -5.712177      -155.4362
  29   2.0000      -5.710038      -155.3780
  30   2.0000      -5.702317      -155.1679
  31   2.0000      -5.667794      -154.2285
  32   2.0000      -5.661100      -154.0464
  33   2.0000      -5.659932      -154.0146
  34   2.0000      -5.659486      -154.0024
  35   2.0000      -5.652621      -153.8156
  36   2.0000      -5.652271      -153.8061
  37   2.0000      -4.651135      -126.5638
  38   2.0000      -4.650417      -126.5443
  39   2.0000      -4.649329      -126.5147
  40   2.0000      -4.645829      -126.4194
  41   2.0000      -4.644596      -126.3859
  42   2.0000      -4.643327      -126.3513
  43   2.0000      -0.990590       -26.9553
  44   2.0000      -0.987169       -26.8622
  45   2.0000      -0.949267       -25.8309
  46   2.0000      -0.943608       -25.6769
  47   2.0000      -0.766291       -20.8518
  48   2.0000      -0.724033       -19.7019
  49   2.0000      -0.711223       -19.3534
  50   2.0000      -0.690198       -18.7812
  51   2.0000      -0.687945       -18.7199
  52   2.0000      -0.678996       -18.4764
  53   2.0000      -0.653337       -17.7782
  54   2.0000      -0.638267       -17.3681
  55   2.0000      -0.603918       -16.4334
  56   2.0000      -0.591784       -16.1033
  57   2.0000      -0.575408       -15.6577
  58   2.0000      -0.570796       -15.5322
  59   2.0000      -0.554971       -15.1015
  60   2.0000      -0.506576       -13.7846
  61   2.0000      -0.502386       -13.6706
  62   2.0000      -0.477146       -12.9838
  63   2.0000      -0.471732       -12.8365
  64   2.0000      -0.453410       -12.3379
  65   2.0000      -0.446298       -12.1444
  66   2.0000      -0.443150       -12.0587
  67   2.0000      -0.440447       -11.9852
  68   2.0000      -0.432348       -11.7648
  69   2.0000      -0.427168       -11.6238
  70   2.0000      -0.411725       -11.2036
  71   2.0000      -0.396330       -10.7847
  72   2.0000      -0.394676       -10.7397
  73   2.0000      -0.388276       -10.5655
  74   2.0000      -0.383807       -10.4439
  75   2.0000      -0.366654        -9.9772
  76   2.0000      -0.366442        -9.9714
  77   2.0000      -0.358687        -9.7604
  78   2.0000      -0.356508        -9.7011
  79   2.0000      -0.352029        -9.5792
  80   2.0000      -0.349945        -9.5225
  81   2.0000      -0.343573        -9.3491
  82   2.0000      -0.341187        -9.2842
  83   2.0000      -0.339005        -9.2248
  84   2.0000      -0.337646        -9.1878
  85   2.0000      -0.318771        -8.6742
  86   2.0000      -0.310685        -8.4542
  87   2.0000      -0.300381        -8.1738
  88   2.0000      -0.298561        -8.1243
  89   2.0000      -0.295175        -8.0321
  90   2.0000      -0.290565        -7.9067
  91   2.0000      -0.280718        -7.6387
  92   2.0000      -0.268960        -7.3188
  93   2.0000      -0.266959        -7.2643
  94   2.0000      -0.259250        -7.0546
  95   2.0000      -0.230662        -6.2766
  96   2.0000      -0.224052        -6.0968
  97   2.0000      -0.213747        -5.8164
  98   2.0000      -0.210721        -5.7340
  99   2.0000      -0.207034        -5.6337
 100   2.0000      -0.201048        -5.4708
 101   0.0000      -0.044787        -1.2187
 102   0.0000      -0.033443        -0.9100
 103   0.0000      -0.012473        -0.3394
 104   0.0000       0.006476         0.1762
 105   0.0000       0.008091         0.2202

MULLIKEN ATOMIC CHARGES
-----------------------
   0 C :   -0.290143
   1 C :   -0.007170
   2 O :   -0.362606
   3 P :    0.603572
   4 S :   -0.324561
   5 O :   -0.371601
   6 C :   -0.003799
   7 C :   -0.320483
   8 S :   -0.059679
   9 C :   -0.363737
  10 S :   -0.105910
  11 P :    0.599141
  12 S :   -0.312701
  13 O :   -0.381468
  14 C :    0.000045
  15 C :   -0.316917
  16 O :   -0.358564
  17 C :   -0.008888
  18 C :   -0.301412
  19 H :    0.109274
  20 H :    0.117820
  21 H :    0.127815
  22 H :    0.107303
  23 H :    0.105454
  24 H :    0.107009
  25 H :    0.112544
  26 H :    0.115984
  27 H :    0.129447
  28 H :    0.119937
  29 H :    0.195870
  30 H :    0.189457
  31 H :    0.114047
  32 H :    0.105246
  33 H :    0.113849
  34 H :    0.116856
  35 H :    0.129833
  36 H :    0.100738
  37 H :    0.109078
  38 H :    0.104173
  39 H :    0.117675
  40 H :    0.137470
Sum of atomic charges:   -0.0000000

LOEWDIN ATOMIC CHARGES
----------------------
   0 C :   -0.354094
   1 C :   -0.114503
   2 O :   -0.241488
   3 P :    0.568591
   4 S :   -0.308897
   5 O :   -0.245139
   6 C :   -0.118424
   7 C :   -0.369550
   8 S :    0.109905
   9 C :   -0.485317
  10 S :    0.070742
  11 P :    0.570816
  12 S :   -0.305581
  13 O :   -0.249936
  14 C :   -0.115139
  15 C :   -0.370707
  16 O :   -0.241406
  17 C :   -0.112753
  18 C :   -0.362201
  19 H :    0.129341
  20 H :    0.127777
  21 H :    0.122663
  22 H :    0.107093
  23 H :    0.115019
  24 H :    0.119709
  25 H :    0.111124
  26 H :    0.132599
  27 H :    0.121948
  28 H :    0.125445
  29 H :    0.123457
  30 H :    0.127501
  31 H :    0.113962
  32 H :    0.118880
  33 H :    0.131547
  34 H :    0.123141
  35 H :    0.122613
  36 H :    0.103906
  37 H :    0.119705
  38 H :    0.128051
  39 H :    0.128829
  40 H :    0.120770

  Mayer bond orders larger than 0.100000
B(  0-C ,  1-C ) :   1.1650 B(  0-C , 19-H ) :   0.9408 B(  0-C , 20-H ) :   0.9498
B(  0-C , 21-H ) :   0.9446 B(  1-C ,  2-O ) :   0.8931 B(  1-C , 22-H ) :   0.9060
B(  1-C , 23-H ) :   0.9330 B(  2-O ,  3-P ) :   1.1357 B(  3-P ,  4-S ) :   1.5904
B(  3-P ,  5-O ) :   1.1184 B(  3-P ,  8-S ) :   0.9649 B(  4-S ,  8-S ) :   0.1130
B(  5-O ,  6-C ) :   0.9077 B(  6-C ,  7-C ) :   1.1641 B(  6-C , 24-H ) :   0.9337
B(  6-C , 25-H ) :   0.9164 B(  7-C , 26-H ) :   0.9378 B(  7-C , 27-H ) :   0.9357
B(  7-C , 28-H ) :   0.9450 B(  8-S ,  9-C ) :   1.0172 B(  9-C , 10-S ) :   0.9805
B(  9-C , 29-H ) :   0.8732 B(  9-C , 30-H ) :   0.8652 B( 10-S , 11-P ) :   0.9474
B( 10-S , 12-S ) :   0.1103 B( 11-P , 12-S ) :   1.6267 B( 11-P , 13-O ) :   1.0934
B( 11-P , 16-O ) :   1.1441 B( 13-O , 14-C ) :   0.9046 B( 14-C , 15-C ) :   1.1656
B( 14-C , 31-H ) :   0.9200 B( 14-C , 32-H ) :   0.9345 B( 15-C , 33-H ) :   0.9368
B( 15-C , 34-H ) :   0.9436 B( 15-C , 35-H ) :   0.9342 B( 16-O , 17-C ) :   0.8850
B( 17-C , 18-C ) :   1.1647 B( 17-C , 36-H ) :   0.9157 B( 17-C , 37-H ) :   0.9329
B( 18-C , 38-H ) :   0.9391 B( 18-C , 39-H ) :   0.9459 B( 18-C , 40-H ) :   0.9269

Dispersion correction           -0.062869282
FINAL SINGLE POINT ENERGY     -2929.522453120615

DIPOLE MOMENT
-------------

Method             : SCF
Type of density    : Electron Density
Multiplicity       :   1
Irrep              :   0
Energy             : -2929.6429738590900342 Eh
Relativity type    :
Basis              : AO
                                X                 Y                 Z
Electronic contribution:     -3.892039706      -7.026396984      -9.565027719
Nuclear contribution   :      4.771255041       8.017361690      10.431349502
                        -----------------------------------------
Total Dipole Moment    :      0.879215335       0.990964706       0.866321784
                        -----------------------------------------
Magnitude (a.u.)       :      1.582891053
Magnitude (Debye)      :      4.023389314

Rotational constants in cm-1:             0.011929             0.004518             0.004366
Rotational constants in MHz :           357.634439           135.445451           130.876570

                             ****ORCA TERMINATED NORMALLY****
TOTAL RUN TIME: 0 days 0 hours 0 minutes 20 seconds 660 msec
