                         Program Version 6.0.0  -   RELEASE  -
|  1> ! pbe def2-sv(p) def2/J RI DEFGRID1 loosescf d4 GCP(DFT/SV(P)) printgap
|  2> %output
|  3>     printlevel normal
|  4> end
|  5> * xyz 0 1
|  6> C 2.7064490157 3.0199160402 -0.0623572665
|  7> C 3.036878319 1.6123335735 -0.5205923018
|  8> O 3.1601435186 0.7186456755 0.5997361681
|  9> P 1.9486404075 -0.1144753585 1.1995086979
| 10> S 0.4547358872 0.8897301296 1.9681517094
| 11> O 2.6395699939 -0.9552844057 2.3382597149
| 12> C 3.5494376066 -2.0701671819 2.1736006327
| 13> C 4.7570055986 -1.7379473529 1.3244343653
| 14> S 1.473025544 -1.4776867422 -0.3748173752
| 15> C -0.2227623878 -1.8999237155 0.1244844549
| 16> S -1.3793451227 -1.9036559474 -1.2768202238
| 17> P -2.0829505613 0.080668155 -1.1776523431
| 18> S -3.4850132467 0.5724684277 -2.4516505824
| 19> O -0.7047645019 0.8597435808 -1.3216391038
| 20> C -0.6923112725 2.2492814682 -1.7149582755
| 21> C -1.3014267916 3.1452132607 -0.6575526999
| 22> O -2.4496120293 0.3259527343 0.3544172254
| 23> C -3.7813608889 0.1384358729 0.8553563679
| 24> C -4.157957559 -1.3280942812 0.9281404112
| 25> H 2.6765339067 3.6835270673 -0.9208399367
| 26> H 1.7415883565 3.0386658334 0.4390910547
| 27> H 3.4638275365 3.3697491207 0.6336923435
| 28> H 4.0134191526 1.5754291942 -1.0080010741
| 29> H 2.2768393353 1.2242738216 -1.205035739
| 30> H 3.8326808718 -2.3086910724 3.1999384591
| 31> H 2.9906494899 -2.9032290271 1.7396091627
| 32> H 5.4550869797 -2.5685544066 1.3657943083
| 33> H 4.4602085943 -1.5781840127 0.2900530769
| 34> H 5.2440801801 -0.8405055582 1.6963210182
| 35> H -0.5545005062 -1.1720868242 0.8696393599
| 36> H -0.2288615243 -2.9140183089 0.5143924344
| 37> H 0.3637167072 2.4701765006 -1.8730019893
| 38> H -1.2369375927 2.3408608363 -2.6601919887
| 39> H -0.8684374211 2.9257376594 0.3162546727
| 40> H -1.1170156301 4.1835835386 -0.9135288917
| 41> H -2.3761888657 2.9780840826 -0.6032041593
| 42> H -3.7584080735 0.6014481428 1.8429959628
| 43> H -4.4753403572 0.6794651904 0.203665672
| 44> H -3.440483888 -1.8758269467 1.5339803654
| 45> H -5.1448962239 -1.4226094082 1.3694859933
| 46> H -4.1764451883 -1.7566143704 -0.073816894
| 47> *
| 48>
| 49>                          ****END OF INPUT****

CARTESIAN COORDINATES (ANGSTROEM)
---------------------------------
  C      2.706449    3.019916   -0.062357
  C      3.036878    1.612334   -0.520592
  O      3.160144    0.718646    0.599736
  P      1.948640   -0.114475    1.199509
  S      0.454736    0.889730    1.968152
  O      2.639570   -0.955284    2.338260
  C      3.549438   -2.070167    2.173601
  C      4.757006   -1.737947    1.324434
  S      1.473026   -1.477687   -0.374817
  C     -0.222762   -1.899924    0.124484
  S     -1.379345   -1.903656   -1.276820
  P     -2.082951    0.080668   -1.177652
  S     -3.485013    0.572468   -2.451651
  O     -0.704765    0.859744   -1.321639
  C     -0.692311    2.249281   -1.714958
  C     -1.301427    3.145213   -0.657553
  O     -2.449612    0.325953    0.354417
  C     -3.781361    0.138436    0.855356
  C     -4.157958   -1.328094    0.928140
  H      2.676534    3.683527   -0.920840
  H      1.741588    3.038666    0.439091
  H      3.463828    3.369749    0.633692
  H      4.013419    1.575429   -1.008001
  H      2.276839    1.224274   -1.205036
  H      3.832681   -2.308691    3.199938
  H      2.990649   -2.903229    1.739609
  H      5.455087   -2.568554    1.365794
  H      4.460209   -1.578184    0.290053
  H      5.244080   -0.840506    1.696321
  H     -0.554501   -1.172087    0.869639
  H     -0.228862   -2.914018    0.514392
  H      0.363717    2.470177   -1.873002
  H     -1.236938    2.340861   -2.660192
  H     -0.868437    2.925738    0.316255
  H     -1.117016    4.183584   -0.913529
  H     -2.376189    2.978084   -0.603204
  H     -3.758408    0.601448    1.842996
  H     -4.475340    0.679465    0.203666
  H     -3.440484   -1.875827    1.533980
  H     -5.144896   -1.422609    1.369486
  H     -4.176445   -1.756614   -0.073817

 Total Charge           Charge          ....    0
 Multiplicity           Mult            ....    1
 Number of Electrons    NEL             ....  202
 Basis Dimension        Dim             ....  334

ORBITAL ENERGIES
----------------

  NO   OCC          E(Eh)            E(eV)
   0   2.0000     -88.046507     -2395.8673
   1   2.0000     -88.043900     -2395.7963
   2   2.0000     -87.986921     -2394.2459
   3   2.0000     -87.986550     -2394.2358
   4   2.0000     -76.429443     -2079.7509
   5   2.0000     -76.423697     -2079.5945
   6   2.0000     -18.799372      -511.5569
   7   2.0000     -18.793152      -511.3877
   8   2.0000     -18.789166      -511.2792
   9   2.0000     -18.785497      -511.1794
  10   2.0000      -9.960893      -271.0497
  11   2.0000      -9.960573      -271.0410
  12   2.0000      -9.957767      -270.9646
  13   2.0000      -9.948956      -270.7249
  14   2.0000      -9.948095      -270.7014
  15   2.0000      -9.892101      -269.1777
  16   2.0000      -9.887282      -269.0466
  17   2.0000      -9.882718      -268.9224
  18   2.0000      -9.875618      -268.7292
  19   2.0000      -7.691230      -209.2890
  20   2.0000      -7.689282      -209.2360
  21   2.0000      -7.632067      -207.6791
  22   2.0000      -7.631653      -207.6678
  23   2.0000      -6.426879      -174.8843
  24   2.0000      -6.421629      -174.7414
  25   2.0000      -5.718944      -155.6204
  26   2.0000      -5.717524      -155.5817
  27   2.0000      -5.715721      -155.5327
  28   2.0000      -5.713535      -155.4732
  29   2.0000      -5.708475      -155.3355
  30   2.0000      -5.706090      -155.2706
  31   2.0000      -5.660997      -154.0436
  32   2.0000      -5.660595      -154.0326
  33   2.0000      -5.652746      -153.8190
  34   2.0000      -5.652306      -153.8071
  35   2.0000      -5.652159      -153.8031
  36   2.0000      -5.651678      -153.7900
  37   2.0000      -4.649605      -126.5222
  38   2.0000      -4.648861      -126.5019
  39   2.0000      -4.647020      -126.4518
  40   2.0000      -4.643894      -126.3668
  41   2.0000      -4.643606      -126.3589
  42   2.0000      -4.642142      -126.3191
  43   2.0000      -0.991656       -26.9843
  44   2.0000      -0.982730       -26.7414
  45   2.0000      -0.949944       -25.8493
  46   2.0000      -0.942311       -25.6416
  47   2.0000      -0.763253       -20.7692
  48   2.0000      -0.724341       -19.7103
  49   2.0000      -0.709615       -19.3096
  50   2.0000      -0.696122       -18.9424
  51   2.0000      -0.684211       -18.6183
  52   2.0000      -0.675642       -18.3852
  53   2.0000      -0.654549       -17.8112
  54   2.0000      -0.639849       -17.4112
  55   2.0000      -0.597311       -16.2537
  56   2.0000      -0.594698       -16.1825
  57   2.0000      -0.579061       -15.7571
  58   2.0000      -0.569595       -15.4995
  59   2.0000      -0.565551       -15.3894
  60   2.0000      -0.504818       -13.7368
  61   2.0000      -0.489991       -13.3333
  62   2.0000      -0.480759       -13.0821
  63   2.0000      -0.469732       -12.7821
  64   2.0000      -0.456331       -12.4174
  65   2.0000      -0.450494       -12.2586
  66   2.0000      -0.444806       -12.1038
  67   2.0000      -0.437425       -11.9029
  68   2.0000      -0.433875       -11.8063
  69   2.0000      -0.414137       -11.2692
  70   2.0000      -0.411196       -11.1892
  71   2.0000      -0.404243       -11.0000
  72   2.0000      -0.398542       -10.8449
  73   2.0000      -0.392559       -10.6821
  74   2.0000      -0.389003       -10.5853
  75   2.0000      -0.368939       -10.0393
  76   2.0000      -0.363021        -9.8783
  77   2.0000      -0.360993        -9.8231
  78   2.0000      -0.355896        -9.6844
  79   2.0000      -0.353780        -9.6269
  80   2.0000      -0.349353        -9.5064
  81   2.0000      -0.342966        -9.3326
  82   2.0000      -0.340354        -9.2615
  83   2.0000      -0.338805        -9.2194
  84   2.0000      -0.327380        -8.9085
  85   2.0000      -0.322502        -8.7757
  86   2.0000      -0.316225        -8.6049
  87   2.0000      -0.299019        -8.1367
  88   2.0000      -0.293345        -7.9823
  89   2.0000      -0.290300        -7.8995
  90   2.0000      -0.286320        -7.7912
  91   2.0000      -0.277523        -7.5518
  92   2.0000      -0.269556        -7.3350
  93   2.0000      -0.267068        -7.2673
  94   2.0000      -0.262698        -7.1484
  95   2.0000      -0.234246        -6.3742
  96   2.0000      -0.220296        -5.9946
  97   2.0000      -0.208309        -5.6684
  98   2.0000      -0.206244        -5.6122
  99   2.0000      -0.202531        -5.5111
 100   2.0000      -0.199299        -5.4232
 101   0.0000      -0.041094        -1.1182
 102   0.0000      -0.030333        -0.8254
 103   0.0000      -0.021387        -0.5820
 104   0.0000       0.005840         0.1589
 105   0.0000       0.014793         0.4025

MULLIKEN ATOMIC CHARGES
-----------------------
   0 C :   -0.305585
   1 C :   -0.032194
   2 O :   -0.372532
   3 P :    0.594011
   4 S :   -0.296254
   5 O :   -0.359116
   6 C :    0.001440
   7 C :   -0.308204
   8 S :   -0.101220
   9 C :   -0.368548
  10 S :   -0.068115
  11 P :    0.613840
  12 S :   -0.321714
  13 O :   -0.371904
  14 C :   -0.017719
  15 C :   -0.326793
  16 O :   -0.366455
  17 C :   -0.007222
  18 C :   -0.314092
  19 H :    0.111269
  20 H :    0.140109
  21 H :    0.117102
  22 H :    0.107485
  23 H :    0.124899
  24 H :    0.111780
  25 H :    0.104521
  26 H :    0.114942
  27 H :    0.117503
  28 H :    0.124716
  29 H :    0.209474
  30 H :    0.181900
  31 H :    0.102722
  32 H :    0.113235
  33 H :    0.147700
  34 H :    0.106045
  35 H :    0.118251
  36 H :    0.108524
  37 H :    0.111172
  38 H :    0.115495
  39 H :    0.112867
  40 H :    0.126667
Sum of atomic charges:    0.0000000

LOEWDIN ATOMIC CHARGES
----------------------
   0 C :   -0.365668
   1 C :   -0.116982
   2 O :   -0.238641
   3 P :    0.565129
   4 S :   -0.287858
   5 O :   -0.238005
   6 C :   -0.112823
   7 C :   -0.366180
   8 S :    0.066895
   9 C :   -0.483083
  10 S :    0.094983
  11 P :    0.573474
  12 S :   -0.318341
  13 O :   -0.245432
  14 C :   -0.117084
  15 C :   -0.372327
  16 O :   -0.234899
  17 C :   -0.121617
  18 C :   -0.367228
  19 H :    0.128048
  20 H :    0.126819
  21 H :    0.128752
  22 H :    0.119141
  23 H :    0.109412
  24 H :    0.123181
  25 H :    0.108144
  26 H :    0.131901
  27 H :    0.118621
  28 H :    0.129842
  29 H :    0.125107
  30 H :    0.134661
  31 H :    0.111422
  32 H :    0.110824
  33 H :    0.125296
  34 H :    0.127829
  35 H :    0.121303
  36 H :    0.120294
  37 H :    0.108858
  38 H :    0.123659
  39 H :    0.131014
  40 H :    0.121558

  Mayer bond orders larger than 0.100000
B(  0-C ,  1-C ) :   1.1696 B(  0-C , 19-H ) :   0.9354 B(  0-C , 20-H ) :   0.9279
B(  0-C , 21-H ) :   0.9435 B(  1-C ,  2-O ) :   0.9061 B(  1-C , 22-H ) :   0.9332
B(  1-C , 23-H ) :   0.9101 B(  2-O ,  3-P ) :   1.0937 B(  3-P ,  4-S ) :   1.6417
B(  3-P ,  5-O ) :   1.1373 B(  3-P ,  8-S ) :   0.9486 B(  4-S ,  8-S ) :   0.1174
B(  4-S , 29-H ) :   0.1003 B(  5-O ,  6-C ) :   0.9040 B(  6-C ,  7-C ) :   1.1710
B(  6-C , 24-H ) :   0.9344 B(  6-C , 25-H ) :   0.9216 B(  7-C , 26-H ) :   0.9355
B(  7-C , 27-H ) :   0.9402 B(  7-C , 28-H ) :   0.9433 B(  8-S ,  9-C ) :   0.9831
B(  9-C , 10-S ) :   0.9958 B(  9-C , 29-H ) :   0.8415 B(  9-C , 30-H ) :   0.9104
B( 10-S , 11-P ) :   0.9759 B( 11-P , 12-S ) :   1.6347 B( 11-P , 13-O ) :   1.1154
B( 11-P , 16-O ) :   1.0780 B( 13-O , 14-C ) :   0.9111 B( 14-C , 15-C ) :   1.1633
B( 14-C , 31-H ) :   0.9216 B( 14-C , 32-H ) :   0.9183 B( 15-C , 33-H ) :   0.9272
B( 15-C , 34-H ) :   0.9373 B( 15-C , 35-H ) :   0.9338 B( 16-O , 17-C ) :   0.9096
B( 17-C , 18-C ) :   1.1640 B( 17-C , 36-H ) :   0.9322 B( 17-C , 37-H ) :   0.9126
B( 18-C , 38-H ) :   0.9473 B( 18-C , 39-H ) :   0.9393 B( 18-C , 40-H ) :   0.9357

Dispersion correction           -0.066732587
FINAL SINGLE POINT ENERGY     -2929.516603899103

DIPOLE MOMENT
-------------

Method             : SCF
Type of density    : Electron Density
Multiplicity       :   1
Irrep              :   0
Energy             : -2929.6372732053423533 Eh
Relativity type    :
Basis              : AO
                                X                 Y                 Z
Electronic contribution:     -7.473927193      -9.475442885      -5.897603206
Nuclear contribution   :      8.820128211       9.228867095       6.410966850
                        -----------------------------------------
Total Dipole Moment    :      1.346201018      -0.246575790       0.513363645
                        -----------------------------------------
Magnitude (a.u.)       :      1.461710995
Magnitude (Debye)      :      3.715374082

Rotational constants in cm-1:             0.012532             0.005311             0.004692
Rotational constants in MHz :           375.703950           159.215318           140.650701

                             ****ORCA TERMINATED NORMALLY****
TOTAL RUN TIME: 0 days 0 hours 0 minutes 21 seconds 719 msec
