                         Program Version 6.0.0  -   RELEASE  -
|  1> ! pbe def2-sv(p) def2/J RI DEFGRID1 loosescf d4 GCP(DFT/SV(P)) printgap
|  2> %output
|  3>     printlevel normal
|  4> end
|  5> * xyz 0 1
|  6> C 1.2330552899 0.5705852527 -4.27374e-05
|  7> C 0.2910370708 -0.6119357523 -4.20413e-05
|  8> Br -1.5627800993 0.0269522497 7.1369e-06
|  9> Cl 2.9193489936 -0.0444403352 1.63267e-05
| 10> H 1.1143325905 1.1829317934 -0.893682655
| 11> H 1.1143812416 1.1828725655 0.8936346421
| 12> H 0.406914309 -1.2232741017 0.8932773238
| 13> H 0.4068866127 -1.2232785334 -0.893359116
| 14> *
| 15>
| 16>                          ****END OF INPUT****

CARTESIAN COORDINATES (ANGSTROEM)
---------------------------------
  C      1.233055    0.570585   -0.000043
  C      0.291037   -0.611936   -0.000042
  Br    -1.562780    0.026952    0.000007
  Cl     2.919349   -0.044440    0.000016
  H      1.114333    1.182932   -0.893683
  H      1.114381    1.182873    0.893635
  H      0.406914   -1.223274    0.893277
  H      0.406887   -1.223279   -0.893359

 Total Charge           Charge          ....    0
 Multiplicity           Mult            ....    1
 Number of Electrons    NEL             ....   68
 Basis Dimension        Dim             ....   86

ORBITAL ENERGIES
----------------

  NO   OCC          E(Eh)            E(eV)
   0   2.0000    -480.934015    -13086.8799
   1   2.0000    -100.633988     -2738.3900
   2   2.0000     -61.776513     -1681.0244
   3   2.0000     -55.707182     -1515.8695
   4   2.0000     -55.703960     -1515.7818
   5   2.0000     -55.703901     -1515.7802
   6   2.0000      -9.959731      -271.0181
   7   2.0000      -9.956065      -270.9183
   8   2.0000      -9.169746      -249.5215
   9   2.0000      -8.402037      -228.6311
  10   2.0000      -7.001466      -190.5196
  11   2.0000      -6.989525      -190.1947
  12   2.0000      -6.989097      -190.1830
  13   2.0000      -6.284217      -171.0022
  14   2.0000      -6.269677      -170.6066
  15   2.0000      -6.269250      -170.5950
  16   2.0000      -2.485296       -67.6283
  17   2.0000      -2.481761       -67.5321
  18   2.0000      -2.481433       -67.5232
  19   2.0000      -2.470557       -67.2273
  20   2.0000      -2.470541       -67.2268
  21   2.0000      -0.797727       -21.7073
  22   2.0000      -0.739913       -20.1340
  23   2.0000      -0.645436       -17.5632
  24   2.0000      -0.562920       -15.3178
  25   2.0000      -0.454719       -12.3735
  26   2.0000      -0.409282       -11.1371
  27   2.0000      -0.398668       -10.8483
  28   2.0000      -0.365616        -9.9489
  29   2.0000      -0.341598        -9.2954
  30   2.0000      -0.265878        -7.2349
  31   2.0000      -0.260163        -7.0794
  32   2.0000      -0.248624        -6.7654
  33   2.0000      -0.246273        -6.7014
  34   0.0000      -0.044230        -1.2036
  35   0.0000       0.001240         0.0337
  36   0.0000       0.058171         1.5829
  37   0.0000       0.069453         1.8899
  38   0.0000       0.073146         1.9904

MULLIKEN ATOMIC CHARGES
-----------------------
   0 C :   -0.156647
   1 C :   -0.221280
   2 Br:   -0.107224
   3 Cl:   -0.135582
   4 H :    0.153742
   5 H :    0.153738
   6 H :    0.156625
   7 H :    0.156627
Sum of atomic charges:   -0.0000000

LOEWDIN ATOMIC CHARGES
----------------------
   0 C :   -0.294054
   1 C :   -0.303187
   2 Br:    0.024020
   3 Cl:    0.039750
   4 H :    0.131805
   5 H :    0.131805
   6 H :    0.134930
   7 H :    0.134931

  Mayer bond orders larger than 0.100000
B(  0-C ,  1-C ) :   1.0811 B(  0-C ,  3-Cl) :   1.0220 B(  0-C ,  4-H ) :   0.9252
B(  0-C ,  5-H ) :   0.9252 B(  1-C ,  2-Br) :   1.0285 B(  1-C ,  6-H ) :   0.9216
B(  1-C ,  7-H ) :   0.9216

Dispersion correction           -0.006266600
FINAL SINGLE POINT ENERGY     -3111.736023364189

DIPOLE MOMENT
-------------

Method             : SCF
Type of density    : Electron Density
Multiplicity       :   1
Irrep              :   0
Energy             : -3111.7672870170808892 Eh
Relativity type    :
Basis              : AO
                                X                 Y                 Z
Electronic contribution:    -13.431714695       0.279687739       0.000191532
Nuclear contribution   :     13.446764675      -0.266365180      -0.000209963
                        -----------------------------------------
Total Dipole Moment    :      0.015049980       0.013322558      -0.000018431
                        -----------------------------------------
Magnitude (a.u.)       :      0.020099572
Magnitude (Debye)      :      0.051089052

Rotational constants in cm-1:             0.958221             0.032256             0.031582
Rotational constants in MHz :         28726.752147           967.001652           946.793183

                             ****ORCA TERMINATED NORMALLY****
TOTAL RUN TIME: 0 days 0 hours 0 minutes 4 seconds 424 msec
