                         Program Version 6.0.1  -  RELEASE   -
|  1> ! pbe def2-sv(p) def2/J RI DEFGRID1 loosescf d4 GCP(DFT/SV(P)) printgap
|  2> %output
|  3>     printlevel normal
|  4> end
|  5> * xyz 0 1
|  6> C 5.0442337671 -0.3475128271 -0.6227149377
|  7> C 4.4666359708 -1.5463536135 -1.3575426659
|  8> O 3.0399363584 -1.407342482 -1.4999018786
|  9> C 2.2531946013 -2.0367268822 -0.6423032629
| 10> O 2.637025324 -2.801923842 0.2118909168
| 11> C 0.7871627078 -1.7554543485 -0.9233003514
| 12> C 0.546396895 -0.2615127095 -1.1065290135
| 13> H 1.1194300873 0.09711796 -1.9690044803
| 14> C 1.0305165846 0.522400528 0.0987980945
| 15> O 1.9879111059 0.1724229143 0.7508729216
| 16> O 0.3637392414 1.6432276106 0.2860732422
| 17> C 0.7924705316 2.4980267326 1.3663607451
| 18> C 0.2000030618 3.8757472664 1.153908397
| 19> S -1.1825968227 0.1132435444 -1.5253847645
| 20> P -2.0772843947 0.1892324764 0.4017458038
| 21> S -1.1540148217 -0.6856329738 1.8977797906
| 22> O -2.4501752191 1.6910381316 0.7082121516
| 23> C -3.1954241276 2.4956528356 -0.2311651909
| 24> O -3.5322473846 -0.4063531957 0.0973344744
| 25> C -3.7234293568 -1.7922388833 -0.2047508356
| 26> H 6.1095794848 -0.4910122089 -0.4767338224
| 27> H 4.877181932 0.561694732 -1.1933436707
| 28> H 4.5596340157 -0.245501125 0.3464056189
| 29> H 4.6708938909 -2.4722656981 -0.8127807692
| 30> H 4.847511619 -1.6120929265 -2.3776592848
| 31> H 0.2101494033 -2.1466648508 -0.0829116911
| 32> H 0.5047506364 -2.282960963 -1.8356852238
| 33> H 0.4490398266 2.0456787231 2.3026856193
| 34> H 1.8864994498 2.5119217304 1.3688071909
| 35> H 0.5607108305 4.537698355 1.9340272371
| 36> H 0.4971552952 4.2656586144 0.1849857866
| 37> H -0.8827729588 3.8228280156 1.2024311331
| 38> H -3.3509928442 3.4482419117 0.2683748035
| 39> H -4.147905933 2.020518233 -0.4552429742
| 40> H -2.6157077155 2.625992745 -1.144369917
| 41> H -4.7960807083 -1.9590320972 -0.1485308945
| 42> H -3.2047276308 -2.4127742982 0.5277676442
| 43> H -3.353156577 -2.0071961121 -1.2069465983
| 44> *
| 45>
| 46>                          ****END OF INPUT****

CARTESIAN COORDINATES (ANGSTROEM)
---------------------------------
  C      5.044234   -0.347513   -0.622715
  C      4.466636   -1.546354   -1.357543
  O      3.039936   -1.407342   -1.499902
  C      2.253195   -2.036727   -0.642303
  O      2.637025   -2.801924    0.211891
  C      0.787163   -1.755454   -0.923300
  C      0.546397   -0.261513   -1.106529
  H      1.119430    0.097118   -1.969004
  C      1.030517    0.522401    0.098798
  O      1.987911    0.172423    0.750873
  O      0.363739    1.643228    0.286073
  C      0.792471    2.498027    1.366361
  C      0.200003    3.875747    1.153908
  S     -1.182597    0.113244   -1.525385
  P     -2.077284    0.189232    0.401746
  S     -1.154015   -0.685633    1.897780
  O     -2.450175    1.691038    0.708212
  C     -3.195424    2.495653   -0.231165
  O     -3.532247   -0.406353    0.097334
  C     -3.723429   -1.792239   -0.204751
  H      6.109579   -0.491012   -0.476734
  H      4.877182    0.561695   -1.193344
  H      4.559634   -0.245501    0.346406
  H      4.670894   -2.472266   -0.812781
  H      4.847512   -1.612093   -2.377659
  H      0.210149   -2.146665   -0.082912
  H      0.504751   -2.282961   -1.835685
  H      0.449040    2.045679    2.302686
  H      1.886499    2.511922    1.368807
  H      0.560711    4.537698    1.934027
  H      0.497155    4.265659    0.184986
  H     -0.882773    3.822828    1.202431
  H     -3.350993    3.448242    0.268375
  H     -4.147906    2.020518   -0.455243
  H     -2.615708    2.625993   -1.144370
  H     -4.796081   -1.959032   -0.148531
  H     -3.204728   -2.412774    0.527768
  H     -3.353157   -2.007196   -1.206947

 Total Charge           Charge          ....    0
 Multiplicity           Mult            ....    1
 Number of Electrons    NEL             ....  174
 Basis Dimension        Dim             ....  316

ORBITAL ENERGIES
----------------

  NO   OCC          E(Eh)            E(eV)
   0   2.0000     -88.046080     -2395.8556
   1   2.0000     -87.990514     -2394.3436
   2   2.0000     -76.432795     -2079.8421
   3   2.0000     -18.812250      -511.9073
   4   2.0000     -18.801875      -511.6250
   5   2.0000     -18.798436      -511.5314
   6   2.0000     -18.790667      -511.3200
   7   2.0000     -18.742493      -510.0092
   8   2.0000     -18.719913      -509.3947
   9   2.0000     -10.021169      -272.6899
  10   2.0000      -9.998301      -272.0676
  11   2.0000      -9.956461      -270.9291
  12   2.0000      -9.952494      -270.8211
  13   2.0000      -9.949426      -270.7376
  14   2.0000      -9.947169      -270.6762
  15   2.0000      -9.937007      -270.3997
  16   2.0000      -9.901222      -269.4259
  17   2.0000      -9.889788      -269.1148
  18   2.0000      -9.875280      -268.7200
  19   2.0000      -7.690990      -209.2825
  20   2.0000      -7.635307      -207.7673
  21   2.0000      -6.429751      -174.9624
  22   2.0000      -5.718876      -155.6185
  23   2.0000      -5.715406      -155.5241
  24   2.0000      -5.708042      -155.3237
  25   2.0000      -5.664520      -154.1394
  26   2.0000      -5.655649      -153.8980
  27   2.0000      -5.655456      -153.8928
  28   2.0000      -4.652505      -126.6011
  29   2.0000      -4.651651      -126.5779
  30   2.0000      -4.650056      -126.5345
  31   2.0000      -1.019609       -27.7450
  32   2.0000      -0.996214       -27.1084
  33   2.0000      -0.994428       -27.0598
  34   2.0000      -0.949684       -25.8422
  35   2.0000      -0.923582       -25.1319
  36   2.0000      -0.899409       -24.4742
  37   2.0000      -0.769155       -20.9298
  38   2.0000      -0.710269       -19.3274
  39   2.0000      -0.706783       -19.2326
  40   2.0000      -0.691406       -18.8141
  41   2.0000      -0.657648       -17.8955
  42   2.0000      -0.643150       -17.5010
  43   2.0000      -0.628415       -17.1001
  44   2.0000      -0.615167       -16.7395
  45   2.0000      -0.584756       -15.9120
  46   2.0000      -0.564392       -15.3579
  47   2.0000      -0.521747       -14.1975
  48   2.0000      -0.511241       -13.9116
  49   2.0000      -0.491231       -13.3671
  50   2.0000      -0.485686       -13.2162
  51   2.0000      -0.481825       -13.1111
  52   2.0000      -0.458231       -12.4691
  53   2.0000      -0.443601       -12.0710
  54   2.0000      -0.440875       -11.9968
  55   2.0000      -0.435745       -11.8572
  56   2.0000      -0.424162       -11.5420
  57   2.0000      -0.420896       -11.4532
  58   2.0000      -0.415041       -11.2938
  59   2.0000      -0.408420       -11.1137
  60   2.0000      -0.405704       -11.0398
  61   2.0000      -0.399234       -10.8637
  62   2.0000      -0.384276       -10.4567
  63   2.0000      -0.376119       -10.2347
  64   2.0000      -0.371086       -10.0978
  65   2.0000      -0.363603        -9.8941
  66   2.0000      -0.355484        -9.6732
  67   2.0000      -0.352396        -9.5892
  68   2.0000      -0.347277        -9.4499
  69   2.0000      -0.335836        -9.1386
  70   2.0000      -0.335390        -9.1264
  71   2.0000      -0.321000        -8.7349
  72   2.0000      -0.316980        -8.6255
  73   2.0000      -0.315452        -8.5839
  74   2.0000      -0.313712        -8.5365
  75   2.0000      -0.305140        -8.3033
  76   2.0000      -0.303766        -8.2659
  77   2.0000      -0.284348        -7.7375
  78   2.0000      -0.278261        -7.5719
  79   2.0000      -0.268554        -7.3077
  80   2.0000      -0.264360        -7.1936
  81   2.0000      -0.245039        -6.6679
  82   2.0000      -0.242371        -6.5953
  83   2.0000      -0.221476        -6.0267
  84   2.0000      -0.209683        -5.7058
  85   2.0000      -0.207176        -5.6375
  86   2.0000      -0.202136        -5.5004
  87   0.0000      -0.044638        -1.2147
  88   0.0000      -0.033263        -0.9051
  89   0.0000      -0.005021        -0.1366
  90   0.0000       0.001858         0.0506
  91   0.0000       0.010766         0.2930

MULLIKEN ATOMIC CHARGES
-----------------------
   0 C :   -0.301060
   1 C :   -0.018238
   2 O :   -0.257012
   3 C :    0.110732
   4 O :   -0.188183
   5 C :   -0.032311
   6 C :   -0.299075
   7 H :    0.160166
   8 C :    0.176470
   9 O :   -0.175504
  10 O :   -0.230820
  11 C :   -0.024248
  12 C :   -0.287383
  13 S :   -0.099632
  14 P :    0.603744
  15 S :   -0.283716
  16 O :   -0.363990
  17 C :   -0.116059
  18 O :   -0.387120
  19 C :   -0.102801
  20 H :    0.105965
  21 H :    0.101372
  22 H :    0.142983
  23 H :    0.111376
  24 H :    0.096064
  25 H :    0.115604
  26 H :    0.109822
  27 H :    0.116985
  28 H :    0.109122
  29 H :    0.112288
  30 H :    0.109802
  31 H :    0.126023
  32 H :    0.135929
  33 H :    0.130700
  34 H :    0.125094
  35 H :    0.127497
  36 H :    0.122844
  37 H :    0.116569
Sum of atomic charges:   -0.0000000

LOEWDIN ATOMIC CHARGES
----------------------
   0 C :   -0.356840
   1 C :   -0.111707
   2 O :   -0.074439
   3 C :    0.028983
   4 O :   -0.157643
   5 C :   -0.249442
   6 C :   -0.269121
   7 H :    0.154093
   8 C :    0.007965
   9 O :   -0.132082
  10 O :   -0.061881
  11 C :   -0.107224
  12 C :   -0.352513
  13 S :    0.094460
  14 P :    0.572210
  15 S :   -0.274856
  16 O :   -0.237116
  17 C :   -0.212755
  18 O :   -0.259401
  19 C :   -0.216119
  20 H :    0.126765
  21 H :    0.119096
  22 H :    0.136345
  23 H :    0.120659
  24 H :    0.113196
  25 H :    0.134999
  26 H :    0.140564
  27 H :    0.120441
  28 H :    0.117765
  29 H :    0.132009
  30 H :    0.124421
  31 H :    0.126808
  32 H :    0.124956
  33 H :    0.117772
  34 H :    0.112751
  35 H :    0.123866
  36 H :    0.113760
  37 H :    0.109255

  Mayer bond orders larger than 0.100000
B(  0-C ,  1-C ) :   1.1769 B(  0-C , 20-H ) :   0.9436 B(  0-C , 21-H ) :   0.9515
B(  0-C , 22-H ) :   0.9383 B(  1-C ,  2-O ) :   0.9188 B(  1-C , 23-H ) :   0.9073
B(  1-C , 24-H ) :   0.9383 B(  2-O ,  3-C ) :   1.1813 B(  3-C ,  4-O ) :   2.0852
B(  3-C ,  5-C ) :   1.0135 B(  5-C ,  6-C ) :   1.0381 B(  5-C , 25-H ) :   0.8862
B(  5-C , 26-H ) :   0.8832 B(  6-C ,  7-H ) :   0.8510 B(  6-C ,  8-C ) :   0.9172
B(  6-C , 13-S ) :   0.9979 B(  8-C ,  9-O ) :   2.0157 B(  8-C , 10-O ) :   1.2396
B( 10-O , 11-C ) :   0.8896 B( 11-C , 12-C ) :   1.1571 B( 11-C , 27-H ) :   0.9236
B( 11-C , 28-H ) :   0.9251 B( 12-C , 29-H ) :   0.9422 B( 12-C , 30-H ) :   0.9502
B( 12-C , 31-H ) :   0.9412 B( 13-S , 14-P ) :   0.9570 B( 13-S , 15-S ) :   0.1155
B( 14-P , 15-S ) :   1.6269 B( 14-P , 16-O ) :   1.1228 B( 14-P , 18-O ) :   1.0721
B( 16-O , 17-C ) :   0.9118 B( 17-C , 32-H ) :   0.9534 B( 17-C , 33-H ) :   0.9454
B( 17-C , 34-H ) :   0.9395 B( 18-O , 19-C ) :   0.9297 B( 19-C , 35-H ) :   0.9583
B( 19-C , 36-H ) :   0.9363 B( 19-C , 37-H ) :   0.9462

Dispersion correction           -0.053861827
FINAL SINGLE POINT ENERGY     -1979.020700996937

DIPOLE MOMENT
-------------

Method             : SCF
Type of density    : Electron Density
Multiplicity       :   1
Irrep              :   0
Energy             : -1979.1509217298912517 Eh
Relativity type    :
Basis              : AO
                                X                 Y                 Z
Electronic contribution:    -10.279516219      -8.100103263       2.251908347
Nuclear contribution   :      9.404211737       9.501596319      -3.708667607
                        -----------------------------------------
Total Dipole Moment    :     -0.875304482       1.401493056      -1.456759260
                        -----------------------------------------
Magnitude (a.u.)       :      2.202836414
Magnitude (Debye)      :      5.599165191

Rotational constants in cm-1:             0.015430             0.006885             0.005742
Rotational constants in MHz :           462.565201           206.420422           172.155041

                             ****ORCA TERMINATED NORMALLY****
TOTAL RUN TIME: 0 days 0 hours 0 minutes 38 seconds 510 msec
