                         Program Version 6.0.1  -  RELEASE   -
|  1> ! pbe def2-sv(p) def2/J RI DEFGRID1 loosescf d4 GCP(DFT/SV(P)) printgap
|  2> %output
|  3>     printlevel normal
|  4> end
|  5> * xyz 0 1
|  6> C 3.2782753499 -4.4427503786 -0.6385923242
|  7> C 3.9303014567 -3.2594968921 -1.3361470843
|  8> O 3.5885531908 -2.0262812466 -0.6746642219
|  9> C 2.4751068286 -1.4133832136 -1.0252889971
| 10> O 1.7231654793 -1.7908514091 -1.895616359
| 11> C 2.2709265875 -0.1503727527 -0.2088794388
| 12> C 0.8103727658 0.2665189925 -0.2427151536
| 13> H 0.4462896743 0.2397537552 -1.2787167338
| 14> C 0.5327494017 1.6516128236 0.3014998389
| 15> O -0.4818794664 1.8999053436 0.9244376254
| 16> O 1.4559777577 2.5159546573 -0.0086048761
| 17> C 1.2848993725 3.8886672568 0.4131360624
| 18> C 1.7901931617 4.084594795 1.8326519686
| 19> S -0.222576775 -0.9066562293 0.7132002752
| 20> P -2.1109418562 -0.0386838479 0.3072683365
| 21> S -2.3215005627 1.0277441914 -1.3334768445
| 22> O -3.0091901762 -1.3680875558 0.27069314
| 23> C -2.877275323 -2.3112179639 -0.7941874024
| 24> O -2.7620215809 0.4910129657 1.6503135361
| 25> C -3.0913755781 1.8530938475 1.9339648148
| 26> H 3.5699120967 -4.4680067003 0.4075784833
| 27> H 2.1953517762 -4.3613192066 -0.7006004956
| 28> H 3.5914274041 -5.3625969135 -1.1212159511
| 29> H 3.6069765727 -3.1984578079 -2.3791287273
| 30> H 5.0174107583 -3.3106996023 -1.2758172805
| 31> H 2.8802851107 0.643036458 -0.6473601354
| 32> H 2.6101062639 -0.3319394639 0.8103973798
| 33> H 1.8723752095 4.4616410547 -0.3038374095
| 34> H 0.2260536428 4.1478778565 0.3325501923
| 35> H 2.8337487782 3.7918464118 1.9041098361
| 36> H 1.6931305832 5.1307178093 2.1031969523
| 37> H 1.2048818814 3.4861553629 2.5269157469
| 38> H -1.8912875643 -2.7781912182 -0.7716208136
| 39> H -3.0246966238 -1.8141228727 -1.7551420151
| 40> H -3.6540946942 -3.0523950123 -0.6260932864
| 41> H -3.145285178 2.4328964179 1.0110661005
| 42> H -2.3301063571 2.2735938318 2.5878103995
| 43> H -4.0612280434 1.8325423688 2.4263614216
| 44> *
| 45>
| 46>                          ****END OF INPUT****

CARTESIAN COORDINATES (ANGSTROEM)
---------------------------------
  C      3.278275   -4.442750   -0.638592
  C      3.930301   -3.259497   -1.336147
  O      3.588553   -2.026281   -0.674664
  C      2.475107   -1.413383   -1.025289
  O      1.723165   -1.790851   -1.895616
  C      2.270927   -0.150373   -0.208879
  C      0.810373    0.266519   -0.242715
  H      0.446290    0.239754   -1.278717
  C      0.532749    1.651613    0.301500
  O     -0.481879    1.899905    0.924438
  O      1.455978    2.515955   -0.008605
  C      1.284899    3.888667    0.413136
  C      1.790193    4.084595    1.832652
  S     -0.222577   -0.906656    0.713200
  P     -2.110942   -0.038684    0.307268
  S     -2.321501    1.027744   -1.333477
  O     -3.009190   -1.368088    0.270693
  C     -2.877275   -2.311218   -0.794187
  O     -2.762022    0.491013    1.650314
  C     -3.091376    1.853094    1.933965
  H      3.569912   -4.468007    0.407578
  H      2.195352   -4.361319   -0.700600
  H      3.591427   -5.362597   -1.121216
  H      3.606977   -3.198458   -2.379129
  H      5.017411   -3.310700   -1.275817
  H      2.880285    0.643036   -0.647360
  H      2.610106   -0.331939    0.810397
  H      1.872375    4.461641   -0.303837
  H      0.226054    4.147878    0.332550
  H      2.833749    3.791846    1.904110
  H      1.693131    5.130718    2.103197
  H      1.204882    3.486155    2.526916
  H     -1.891288   -2.778191   -0.771621
  H     -3.024697   -1.814123   -1.755142
  H     -3.654095   -3.052395   -0.626093
  H     -3.145285    2.432896    1.011066
  H     -2.330106    2.273594    2.587810
  H     -4.061228    1.832542    2.426361

 Total Charge           Charge          ....    0
 Multiplicity           Mult            ....    1
 Number of Electrons    NEL             ....  174
 Basis Dimension        Dim             ....  316

ORBITAL ENERGIES
----------------

  NO   OCC          E(Eh)            E(eV)
   0   2.0000     -88.031099     -2395.4480
   1   2.0000     -87.969056     -2393.7597
   2   2.0000     -76.414151     -2079.3348
   3   2.0000     -18.826266      -512.2887
   4   2.0000     -18.808446      -511.8038
   5   2.0000     -18.775872      -510.9174
   6   2.0000     -18.768251      -510.7101
   7   2.0000     -18.755565      -510.3649
   8   2.0000     -18.746156      -510.1088
   9   2.0000     -10.027966      -272.8748
  10   2.0000     -10.016941      -272.5748
  11   2.0000      -9.962878      -271.1037
  12   2.0000      -9.952895      -270.8320
  13   2.0000      -9.944615      -270.6067
  14   2.0000      -9.929835      -270.2045
  15   2.0000      -9.925012      -270.0733
  16   2.0000      -9.919591      -269.9258
  17   2.0000      -9.899300      -269.3737
  18   2.0000      -9.890563      -269.1359
  19   2.0000      -7.676163      -208.8790
  20   2.0000      -7.614177      -207.1923
  21   2.0000      -6.409961      -174.4239
  22   2.0000      -5.704039      -155.2148
  23   2.0000      -5.700963      -155.1311
  24   2.0000      -5.692885      -154.9113
  25   2.0000      -5.643280      -153.5615
  26   2.0000      -5.635022      -153.3367
  27   2.0000      -5.633915      -153.3066
  28   2.0000      -4.632252      -126.0500
  29   2.0000      -4.632152      -126.0473
  30   2.0000      -4.630581      -126.0045
  31   2.0000      -1.034411       -28.1478
  32   2.0000      -1.016876       -27.6706
  33   2.0000      -0.968192       -26.3458
  34   2.0000      -0.936538       -25.4845
  35   2.0000      -0.923047       -25.1174
  36   2.0000      -0.922367       -25.0989
  37   2.0000      -0.765857       -20.8400
  38   2.0000      -0.719479       -19.5780
  39   2.0000      -0.712976       -19.4011
  40   2.0000      -0.687018       -18.6947
  41   2.0000      -0.653942       -17.7947
  42   2.0000      -0.630616       -17.1599
  43   2.0000      -0.617298       -16.7975
  44   2.0000      -0.606060       -16.4917
  45   2.0000      -0.601038       -16.3551
  46   2.0000      -0.569042       -15.4844
  47   2.0000      -0.512524       -13.9465
  48   2.0000      -0.503463       -13.6999
  49   2.0000      -0.500043       -13.6069
  50   2.0000      -0.481315       -13.0972
  51   2.0000      -0.468392       -12.7456
  52   2.0000      -0.457795       -12.4572
  53   2.0000      -0.451641       -12.2898
  54   2.0000      -0.442051       -12.0288
  55   2.0000      -0.431333       -11.7372
  56   2.0000      -0.425350       -11.5744
  57   2.0000      -0.424944       -11.5633
  58   2.0000      -0.410151       -11.1608
  59   2.0000      -0.406114       -11.0509
  60   2.0000      -0.397640       -10.8203
  61   2.0000      -0.396191       -10.7809
  62   2.0000      -0.389712       -10.6046
  63   2.0000      -0.382067       -10.3966
  64   2.0000      -0.377055       -10.2602
  65   2.0000      -0.370823       -10.0906
  66   2.0000      -0.366084        -9.9616
  67   2.0000      -0.361028        -9.8241
  68   2.0000      -0.349893        -9.5211
  69   2.0000      -0.344285        -9.3685
  70   2.0000      -0.340587        -9.2679
  71   2.0000      -0.334201        -9.0941
  72   2.0000      -0.329893        -8.9769
  73   2.0000      -0.311298        -8.4709
  74   2.0000      -0.304103        -8.2751
  75   2.0000      -0.298526        -8.1233
  76   2.0000      -0.289734        -7.8841
  77   2.0000      -0.282760        -7.6943
  78   2.0000      -0.274831        -7.4785
  79   2.0000      -0.266789        -7.2597
  80   2.0000      -0.257160        -6.9977
  81   2.0000      -0.242926        -6.6104
  82   2.0000      -0.239401        -6.5144
  83   2.0000      -0.232242        -6.3196
  84   2.0000      -0.211930        -5.7669
  85   2.0000      -0.191539        -5.2120
  86   2.0000      -0.182943        -4.9781
  87   0.0000      -0.047013        -1.2793
  88   0.0000      -0.032477        -0.8837
  89   0.0000      -0.023409        -0.6370
  90   0.0000       0.013392         0.3644
  91   0.0000       0.031345         0.8529

MULLIKEN ATOMIC CHARGES
-----------------------
   0 C :   -0.304930
   1 C :   -0.013976
   2 O :   -0.230297
   3 C :    0.135217
   4 O :   -0.194278
   5 C :   -0.123179
   6 C :   -0.315337
   7 H :    0.169376
   8 C :    0.245209
   9 O :   -0.193651
  10 O :   -0.221417
  11 C :   -0.011045
  12 C :   -0.309787
  13 S :   -0.100719
  14 P :    0.629345
  15 S :   -0.356164
  16 O :   -0.373753
  17 C :   -0.100514
  18 O :   -0.367361
  19 C :   -0.084449
  20 H :    0.115688
  21 H :    0.130658
  22 H :    0.114997
  23 H :    0.111064
  24 H :    0.104615
  25 H :    0.138562
  26 H :    0.115826
  27 H :    0.110829
  28 H :    0.120082
  29 H :    0.117320
  30 H :    0.119946
  31 H :    0.131211
  32 H :    0.112489
  33 H :    0.113380
  34 H :    0.118241
  35 H :    0.115456
  36 H :    0.113945
  37 H :    0.117403
Sum of atomic charges:    0.0000000

LOEWDIN ATOMIC CHARGES
----------------------
   0 C :   -0.355229
   1 C :   -0.110583
   2 O :   -0.059929
   3 C :    0.031309
   4 O :   -0.157361
   5 C :   -0.255297
   6 C :   -0.268669
   7 H :    0.151887
   8 C :    0.026647
   9 O :   -0.157128
  10 O :   -0.036423
  11 C :   -0.104950
  12 C :   -0.355635
  13 S :    0.099852
  14 P :    0.588701
  15 S :   -0.343121
  16 O :   -0.259062
  17 C :   -0.222093
  18 O :   -0.238042
  19 C :   -0.207415
  20 H :    0.125708
  21 H :    0.132314
  22 H :    0.131647
  23 H :    0.121025
  24 H :    0.118576
  25 H :    0.154899
  26 H :    0.138898
  27 H :    0.122309
  28 H :    0.125840
  29 H :    0.126577
  30 H :    0.134507
  31 H :    0.131707
  32 H :    0.104690
  33 H :    0.108526
  34 H :    0.118611
  35 H :    0.108793
  36 H :    0.111613
  37 H :    0.116303

  Mayer bond orders larger than 0.100000
B(  0-C ,  1-C ) :   1.1751 B(  0-C , 20-H ) :   0.9487 B(  0-C , 21-H ) :   0.9457
B(  0-C , 22-H ) :   0.9439 B(  1-C ,  2-O ) :   0.9115 B(  1-C , 23-H ) :   0.9136
B(  1-C , 24-H ) :   0.9372 B(  2-O ,  3-C ) :   1.2435 B(  3-C ,  4-O ) :   2.0419
B(  3-C ,  5-C ) :   0.9956 B(  5-C ,  6-C ) :   1.0924 B(  5-C , 25-H ) :   0.8680
B(  5-C , 26-H ) :   0.9033 B(  6-C ,  7-H ) :   0.8224 B(  6-C ,  8-C ) :   0.9091
B(  6-C , 13-S ) :   1.0247 B(  8-C ,  9-O ) :   1.9486 B(  8-C , 10-O ) :   1.2803
B( 10-O , 11-C ) :   0.8989 B( 11-C , 12-C ) :   1.1741 B( 11-C , 27-H ) :   0.9363
B( 11-C , 28-H ) :   0.9161 B( 12-C , 29-H ) :   0.9478 B( 12-C , 30-H ) :   0.9431
B( 12-C , 31-H ) :   0.9450 B( 13-S , 14-P ) :   0.9341 B( 13-S , 15-S ) :   0.1159
B( 14-P , 15-S ) :   1.5724 B( 14-P , 16-O ) :   1.0878 B( 14-P , 18-O ) :   1.1400
B( 16-O , 17-C ) :   0.9452 B( 17-C , 32-H ) :   0.9405 B( 17-C , 33-H ) :   0.9369
B( 17-C , 34-H ) :   0.9593 B( 18-O , 19-C ) :   0.9277 B( 19-C , 35-H ) :   0.9336
B( 19-C , 36-H ) :   0.9543 B( 19-C , 37-H ) :   0.9546

Dispersion correction           -0.049834441
FINAL SINGLE POINT ENERGY     -1979.017141929195

DIPOLE MOMENT
-------------

Method             : SCF
Type of density    : Electron Density
Multiplicity       :   1
Irrep              :   0
Energy             : -1979.1490816131890824 Eh
Relativity type    :
Basis              : AO
                                X                 Y                 Z
Electronic contribution:    -12.890870432       0.637532509      -2.206241770
Nuclear contribution   :     14.765240186      -0.196036223       2.796840365
                        -----------------------------------------
Total Dipole Moment    :      1.874369754       0.441496286       0.590598595
                        -----------------------------------------
Magnitude (a.u.)       :      2.014196526
Magnitude (Debye)      :      5.119680701

Rotational constants in cm-1:             0.011291             0.007053             0.004964
Rotational constants in MHz :           338.491401           211.439330           148.806218

                             ****ORCA TERMINATED NORMALLY****
TOTAL RUN TIME: 0 days 0 hours 0 minutes 41 seconds 960 msec
