                         Program Version 6.0.0  -   RELEASE  -
|  1> ! wb97x-v def2-tzvp def2/J RIJCOSX DEFGRID2 scfconv7 GCP(DFT/TZ) printgap
|  2> %output
|  3>     printlevel normal
|  4> end
|  5> * xyz 0 1
|  6> C 1.037605574778406 1.3415058160205258 4.840738520130145e-05
|  7> C 0.3461489103138177 0.17741171479083823 4.817646268077257e-05
|  8> C 1.04893701865526 -1.0861467778169291 1.725780849439169e-05
|  9> O 0.5385796232519477 -2.2066227454360963 1.1907236750800875e-05
| 10> N 2.4398380867254152 -0.9524234443255599 -7.622031344097769e-06
| 11> C 3.1730948025252377 0.21464366869683305 -1.4384166993200946e-05
| 12> O 4.401024649684661 0.23587178004240758 -4.4361114005179054e-05
| 13> N 2.401574423670426 1.355852368167341 1.9103142732523764e-05
| 14> I -1.7440070297378327 0.15365324365643895 8.522784277059211e-05
| 15> H 0.5599474677580013 2.3141109258931767 7.059295806035415e-05
| 16> H 2.9785758506566578 -1.8128725260174121 -2.83405164264345e-05
| 17> H 2.895841342929681 2.2399283490022013 1.4454039313968067e-05
| 18> *
| 19>
| 20>                          ****END OF INPUT****

CARTESIAN COORDINATES (ANGSTROEM)
---------------------------------
  C      1.037606    1.341506    0.000048
  C      0.346149    0.177412    0.000048
  C      1.048937   -1.086147    0.000017
  O      0.538580   -2.206623    0.000012
  N      2.439838   -0.952423   -0.000008
  C      3.173095    0.214644   -0.000014
  O      4.401025    0.235872   -0.000044
  N      2.401574    1.355852    0.000019
  I     -1.744007    0.153653    0.000085
  H      0.559947    2.314111    0.000071
  H      2.978576   -1.812873   -0.000028
  H      2.895841    2.239928    0.000014

 Total Charge           Charge          ....    0
 Multiplicity           Mult            ....    1
 Number of Electrons    NEL             ....   82
 Basis Dimension        Dim             ....  316

ORBITAL ENERGIES
----------------

  NO   OCC          E(Eh)            E(eV)
   0   2.0000     -21.667390      -589.5997
   1   2.0000     -21.664390      -589.5180
   2   2.0000     -16.619732      -452.2459
   3   2.0000     -16.601257      -451.7432
   4   2.0000     -12.220524      -332.5374
   5   2.0000     -12.190501      -331.7204
   6   2.0000     -12.156603      -330.7980
   7   2.0000     -12.120274      -329.8094
   8   2.0000      -8.141135      -221.5316
   9   2.0000      -6.113750      -166.3636
  10   2.0000      -6.101482      -166.0298
  11   2.0000      -6.101250      -166.0234
  12   2.0000      -3.034207       -82.5650
  13   2.0000      -3.030342       -82.4598
  14   2.0000      -3.030044       -82.4517
  15   2.0000      -3.018933       -82.1493
  16   2.0000      -3.018903       -82.1485
  17   2.0000      -1.735536       -47.2263
  18   2.0000      -1.718437       -46.7610
  19   2.0000      -1.610504       -43.8241
  20   2.0000      -1.550679       -42.1961
  21   2.0000      -1.376001       -37.4429
  22   2.0000      -1.259723       -34.2788
  23   2.0000      -1.245413       -33.8894
  24   2.0000      -1.194726       -32.5102
  25   2.0000      -1.119209       -30.4552
  26   2.0000      -1.113770       -30.3072
  27   2.0000      -1.073512       -29.2117
  28   2.0000      -1.056635       -28.7525
  29   2.0000      -1.036737       -28.2110
  30   2.0000      -0.979352       -26.6495
  31   2.0000      -0.964605       -26.2482
  32   2.0000      -0.926114       -25.2009
  33   2.0000      -0.893083       -24.3020
  34   2.0000      -0.882847       -24.0235
  35   2.0000      -0.877987       -23.8912
  36   2.0000      -0.837739       -22.7960
  37   2.0000      -0.823609       -22.4115
  38   2.0000      -0.735579       -20.0161
  39   2.0000      -0.648781       -17.6542
  40   2.0000      -0.635393       -17.2899
  41   0.0000      -0.356467        -9.7000
  42   0.0000      -0.320804        -8.7295
  43   0.0000      -0.296575        -8.0702
  44   0.0000      -0.186690        -5.0801
  45   0.0000      -0.157552        -4.2872

MULLIKEN ATOMIC CHARGES
-----------------------
   0 C :   -0.026205
   1 C :   -0.122121
   2 C :    0.189370
   3 O :   -0.331700
   4 N :   -0.207645
   5 C :    0.300648
   6 O :   -0.356086
   7 N :   -0.214157
   8 I :    0.081363
   9 H :    0.171222
  10 H :    0.259287
  11 H :    0.256023
Sum of atomic charges:    0.0000000

LOEWDIN ATOMIC CHARGES
----------------------
   0 C :   -0.175172
   1 C :   -0.404234
   2 C :   -0.425478
   3 O :    0.076017
   4 N :    0.205176
   5 C :   -0.483263
   6 O :    0.048262
   7 N :    0.183832
   8 I :    0.399116
   9 H :    0.152943
  10 H :    0.213346
  11 H :    0.209456

  Mayer bond orders larger than 0.100000
B(  0-C ,  1-C ) :   1.6969 B(  0-C ,  7-N ) :   1.1597 B(  0-C ,  9-H ) :   0.9249
B(  1-C ,  2-C ) :   1.0235 B(  1-C ,  8-I ) :   1.1402 B(  2-C ,  3-O ) :   2.1556
B(  2-C ,  4-N ) :   1.1262 B(  4-N ,  5-C ) :   1.1573 B(  4-N , 10-H ) :   0.8867
B(  5-C ,  6-O ) :   2.1254 B(  5-C ,  7-N ) :   1.1116 B(  7-N , 11-H ) :   0.9033

FINAL SINGLE POINT ENERGY      -711.943385216791

DIPOLE MOMENT
-------------

Method             : SCF
Type of density    : Electron Density
Multiplicity       :   1
Irrep              :   0
Energy             :  -711.9521817305907234 Eh
Relativity type    :
Basis              : AO
                                X                 Y                 Z
Electronic contribution:   -132.568862715       9.040193522       0.002726685
Nuclear contribution   :    132.472399722      -7.384910758      -0.002701476
                        -----------------------------------------
Total Dipole Moment    :     -0.096462993       1.655282765       0.000025209
                        -----------------------------------------
Magnitude (a.u.)       :      1.658091113
Magnitude (Debye)      :      4.214532676

Rotational constants in cm-1:             0.098836             0.016351             0.014030
Rotational constants in MHz :          2963.029418           490.188600           420.605717

                             ****ORCA TERMINATED NORMALLY****
TOTAL RUN TIME: 0 days 0 hours 3 minutes 24 seconds 33 msec
