                         Program Version 6.0.0  -   RELEASE  -
|  1> ! wb97x-v def2-tzvp def2/J RIJCOSX DEFGRID2 scfconv7 GCP(DFT/TZ) printgap
|  2> %output
|  3>     printlevel normal
|  4> end
|  5> %cpcm
|  6>     smd true
|  7>     smdsolvent "water"
|  8> end
|  9> * xyz 0 1
| 10> C 1.037605574778406 1.3415058160205258 4.840738520130145e-05
| 11> C 0.3461489103138177 0.17741171479083823 4.817646268077257e-05
| 12> C 1.04893701865526 -1.0861467778169291 1.725780849439169e-05
| 13> O 0.5385796232519477 -2.2066227454360963 1.1907236750800875e-05
| 14> N 2.4398380867254152 -0.9524234443255599 -7.622031344097769e-06
| 15> C 3.1730948025252377 0.21464366869683305 -1.4384166993200946e-05
| 16> O 4.401024649684661 0.23587178004240758 -4.4361114005179054e-05
| 17> N 2.401574423670426 1.355852368167341 1.9103142732523764e-05
| 18> I -1.7440070297378327 0.15365324365643895 8.522784277059211e-05
| 19> H 0.5599474677580013 2.3141109258931767 7.059295806035415e-05
| 20> H 2.9785758506566578 -1.8128725260174121 -2.83405164264345e-05
| 21> H 2.895841342929681 2.2399283490022013 1.4454039313968067e-05
| 22> *
| 23>
| 24>                          ****END OF INPUT****

CARTESIAN COORDINATES (ANGSTROEM)
---------------------------------
  C      1.037606    1.341506    0.000048
  C      0.346149    0.177412    0.000048
  C      1.048937   -1.086147    0.000017
  O      0.538580   -2.206623    0.000012
  N      2.439838   -0.952423   -0.000008
  C      3.173095    0.214644   -0.000014
  O      4.401025    0.235872   -0.000044
  N      2.401574    1.355852    0.000019
  I     -1.744007    0.153653    0.000085
  H      0.559947    2.314111    0.000071
  H      2.978576   -1.812873   -0.000028
  H      2.895841    2.239928    0.000014

 Total Charge           Charge          ....    0
 Multiplicity           Mult            ....    1
 Number of Electrons    NEL             ....   82
 Basis Dimension        Dim             ....  316

ORBITAL ENERGIES
----------------

  NO   OCC          E(Eh)            E(eV)
   0   2.0000     -21.667280      -589.5967
   1   2.0000     -21.666364      -589.5717
   2   2.0000     -16.598852      -451.6777
   3   2.0000     -16.591528      -451.4784
   4   2.0000     -12.215200      -332.3925
   5   2.0000     -12.188877      -331.6762
   6   2.0000     -12.134896      -330.2073
   7   2.0000     -12.101318      -329.2936
   8   2.0000      -8.129437      -221.2132
   9   2.0000      -6.101951      -166.0425
  10   2.0000      -6.089805      -165.7120
  11   2.0000      -6.089586      -165.7061
  12   2.0000      -3.022347       -82.2422
  13   2.0000      -3.018577       -82.1396
  14   2.0000      -3.018292       -82.1319
  15   2.0000      -3.007331       -81.8336
  16   2.0000      -3.007298       -81.8327
  17   2.0000      -1.735897       -47.2362
  18   2.0000      -1.723504       -46.8989
  19   2.0000      -1.593861       -43.3712
  20   2.0000      -1.536414       -41.8079
  21   2.0000      -1.358919       -36.9781
  22   2.0000      -1.243470       -33.8365
  23   2.0000      -1.234409       -33.5900
  24   2.0000      -1.180395       -32.1202
  25   2.0000      -1.106264       -30.1030
  26   2.0000      -1.101617       -29.9765
  27   2.0000      -1.074722       -29.2447
  28   2.0000      -1.056232       -28.7415
  29   2.0000      -1.022482       -27.8232
  30   2.0000      -0.972804       -26.4713
  31   2.0000      -0.946720       -25.7616
  32   2.0000      -0.932903       -25.3856
  33   2.0000      -0.891305       -24.2536
  34   2.0000      -0.880521       -23.9602
  35   2.0000      -0.870384       -23.6844
  36   2.0000      -0.830116       -22.5886
  37   2.0000      -0.808636       -22.0041
  38   2.0000      -0.719977       -19.5916
  39   2.0000      -0.638644       -17.3784
  40   2.0000      -0.623368       -16.9627
  41   0.0000      -0.341473        -9.2920
  42   0.0000      -0.309422        -8.4198
  43   0.0000      -0.279231        -7.5983
  44   0.0000      -0.170805        -4.6478
  45   0.0000      -0.150379        -4.0920

MULLIKEN ATOMIC CHARGES
-----------------------
   0 C :   -0.030180
   1 C :   -0.096058
   2 C :    0.248946
   3 O :   -0.478339
   4 N :   -0.198217
   5 C :    0.354161
   6 O :   -0.483032
   7 N :   -0.194471
   8 I :    0.050966
   9 H :    0.221084
  10 H :    0.295686
  11 H :    0.309453
Sum of atomic charges:   -0.0000000

LOEWDIN ATOMIC CHARGES
----------------------
   0 C :   -0.129810
   1 C :   -0.407016
   2 C :   -0.415598
   3 O :   -0.011262
   4 N :    0.220966
   5 C :   -0.464422
   6 O :   -0.023715
   7 N :    0.212333
   8 I :    0.387437
   9 H :    0.172937
  10 H :    0.226657
  11 H :    0.231492

  Mayer bond orders larger than 0.100000
B(  0-C ,  1-C ) :   1.6392 B(  0-C ,  7-N ) :   1.1960 B(  0-C ,  9-H ) :   0.9293
B(  1-C ,  2-C ) :   1.0585 B(  1-C ,  8-I ) :   1.0937 B(  2-C ,  3-O ) :   2.0155
B(  2-C ,  4-N ) :   1.1535 B(  4-N ,  5-C ) :   1.1725 B(  4-N , 10-H ) :   0.8644
B(  5-C ,  6-O ) :   2.0062 B(  5-C ,  7-N ) :   1.1553 B(  7-N , 11-H ) :   0.8720

FINAL SINGLE POINT ENERGY      -711.970258262253

DIPOLE MOMENT
-------------

Method             : SCF
Type of density    : Electron Density
Multiplicity       :   1
Irrep              :   0
Energy             :  -711.9790547760527488 Eh
Relativity type    :
Basis              : AO
                                X                 Y                 Z
Electronic contribution:   -132.623484516       9.977037505       0.002740929
Nuclear contribution   :    132.472399722      -7.384910758      -0.002701476
                        -----------------------------------------
Total Dipole Moment    :     -0.151084794       2.592126747       0.000039453
                        -----------------------------------------
Magnitude (a.u.)       :      2.596526081
Magnitude (Debye)      :      6.599844800

Rotational constants in cm-1:             0.098836             0.016351             0.014030
Rotational constants in MHz :          2963.029418           490.188600           420.605717

                             ****ORCA TERMINATED NORMALLY****
TOTAL RUN TIME: 0 days 0 hours 3 minutes 23 seconds 489 msec
