                         Program Version 6.0.0  -   RELEASE  -
|  1> ! r2scan-3c def2/J RI DEFGRID2 scfconv6 printgap
|  2> %output
|  3>     printlevel normal
|  4> end
|  5> * xyz 0 1
|  6> C 1.2680417337 0.3192732733 -1.15937269
|  7> C 0.0354598165 -0.5514402856 -1.1337072066
|  8> Br -1.2270906446 0.0014706283 0.2746779505
|  9> Cl 2.2475923277 0.0936811885 0.3343092723
| 10> H 1.9029607746 0.0352393574 -1.9978537746
| 11> H 1.0171102108 1.3778728814 -1.2139550259
| 12> H 0.2781183928 -1.591544491 -0.9248044783
| 13> H -0.5104242063 -0.4667297268 -2.0724877739
| 14> *
| 15>
| 16>                          ****END OF INPUT****

CARTESIAN COORDINATES (ANGSTROEM)
---------------------------------
  C      1.268042    0.319273   -1.159373
  C      0.035460   -0.551440   -1.133707
  Br    -1.227091    0.001471    0.274678
  Cl     2.247592    0.093681    0.334309
  H      1.902961    0.035239   -1.997854
  H      1.017110    1.377873   -1.213955
  H      0.278118   -1.591544   -0.924804
  H     -0.510424   -0.466730   -2.072488

 Total Charge           Charge          ....    0
 Multiplicity           Mult            ....    1
 Number of Electrons    NEL             ....   68
 Basis Dimension        Dim             ....  121

ORBITAL ENERGIES
----------------

  NO   OCC          E(Eh)            E(eV)
   0   2.0000    -482.222626    -13121.9448
   1   2.0000    -101.211623     -2754.1083
   2   2.0000     -62.294455     -1695.1183
   3   2.0000     -56.075017     -1525.8788
   4   2.0000     -56.072173     -1525.8014
   5   2.0000     -56.072088     -1525.7991
   6   2.0000     -10.117006      -275.2977
   7   2.0000     -10.112941      -275.1871
   8   2.0000      -9.367390      -254.8996
   9   2.0000      -8.626470      -234.7382
  10   2.0000      -7.113919      -193.5796
  11   2.0000      -7.103364      -193.2924
  12   2.0000      -7.103226      -193.2886
  13   2.0000      -6.434400      -175.0889
  14   2.0000      -6.420154      -174.7013
  15   2.0000      -6.419849      -174.6930
  16   2.0000      -2.531790       -68.8935
  17   2.0000      -2.528351       -68.7999
  18   2.0000      -2.528117       -68.7936
  19   2.0000      -2.517534       -68.5056
  20   2.0000      -2.517516       -68.5051
  21   2.0000      -0.842545       -22.9268
  22   2.0000      -0.771709       -20.9993
  23   2.0000      -0.692170       -18.8349
  24   2.0000      -0.595071       -16.1927
  25   2.0000      -0.466467       -12.6932
  26   2.0000      -0.455209       -12.3869
  27   2.0000      -0.414183       -11.2705
  28   2.0000      -0.377077       -10.2608
  29   2.0000      -0.356871        -9.7110
  30   2.0000      -0.281192        -7.6516
  31   2.0000      -0.278759        -7.5854
  32   2.0000      -0.261381        -7.1125
  33   2.0000      -0.256633        -6.9833
  34   0.0000      -0.043724        -1.1898
  35   0.0000      -0.003994        -0.1087
  36   0.0000       0.085528         2.3273
  37   0.0000       0.106207         2.8900
  38   0.0000       0.138232         3.7615

MULLIKEN ATOMIC CHARGES
-----------------------
   0 C :   -0.160641
   1 C :   -0.207114
   2 Br:   -0.145016
   3 Cl:   -0.173476
   4 H :    0.164566
   5 H :    0.175666
   6 H :    0.177461
   7 H :    0.168553
Sum of atomic charges:   -0.0000000

LOEWDIN ATOMIC CHARGES
----------------------
   0 C :   -0.345796
   1 C :   -0.412982
   2 Br:    0.081476
   3 Cl:    0.012167
   4 H :    0.165470
   5 H :    0.166882
   6 H :    0.167642
   7 H :    0.165141

  Mayer bond orders larger than 0.100000
B(  0-C ,  1-C ) :   0.9500 B(  0-C ,  3-Cl) :   0.9904 B(  0-C ,  4-H ) :   0.9371
B(  0-C ,  5-H ) :   0.9533 B(  1-C ,  2-Br) :   0.9972 B(  1-C ,  6-H ) :   0.9531
B(  1-C ,  7-H ) :   0.9399

Dispersion correction           -0.001964311
FINAL SINGLE POINT ENERGY     -3112.908298610256

DIPOLE MOMENT
-------------

Method             : SCF
Type of density    : Electron Density
Multiplicity       :   1
Irrep              :   0
Energy             : -3112.9126968661189494 Eh
Relativity type    :
Basis              : AO
                                X                 Y                 Z
Electronic contribution:    -10.804564767       0.629170363       7.691379011
Nuclear contribution   :     10.898643142      -0.744674873      -8.824422664
                        -----------------------------------------
Total Dipole Moment    :      0.094078375      -0.115504509      -1.133043652
                        -----------------------------------------
Magnitude (a.u.)       :      1.142794798
Magnitude (Debye)      :      2.904753532

Rotational constants in cm-1:             0.282146             0.050370             0.044667
Rotational constants in MHz :          8458.510744          1510.058147          1339.070173

                             ****ORCA TERMINATED NORMALLY****
TOTAL RUN TIME: 0 days 0 hours 0 minutes 10 seconds 889 msec
