                         Program Version 6.0.0  -   RELEASE  -
|  1> ! r2scan-3c def2/J RI DEFGRID2 scfconv6 printgap
|  2> %output
|  3>     printlevel normal
|  4> end
|  5> %cpcm
|  6>     smd true
|  7>     smdsolvent "water"
|  8> end
|  9> * xyz 0 1
| 10> C 1.2680417337 0.3192732733 -1.15937269
| 11> C 0.0354598165 -0.5514402856 -1.1337072066
| 12> Br -1.2270906446 0.0014706283 0.2746779505
| 13> Cl 2.2475923277 0.0936811885 0.3343092723
| 14> H 1.9029607746 0.0352393574 -1.9978537746
| 15> H 1.0171102108 1.3778728814 -1.2139550259
| 16> H 0.2781183928 -1.591544491 -0.9248044783
| 17> H -0.5104242063 -0.4667297268 -2.0724877739
| 18> *
| 19>
| 20>                          ****END OF INPUT****

CARTESIAN COORDINATES (ANGSTROEM)
---------------------------------
  C      1.268042    0.319273   -1.159373
  C      0.035460   -0.551440   -1.133707
  Br    -1.227091    0.001471    0.274678
  Cl     2.247592    0.093681    0.334309
  H      1.902961    0.035239   -1.997854
  H      1.017110    1.377873   -1.213955
  H      0.278118   -1.591544   -0.924804
  H     -0.510424   -0.466730   -2.072488

 Total Charge           Charge          ....    0
 Multiplicity           Mult            ....    1
 Number of Electrons    NEL             ....   68
 Basis Dimension        Dim             ....  121

ORBITAL ENERGIES
----------------

  NO   OCC          E(Eh)            E(eV)
   0   2.0000    -482.216759    -13121.7851
   1   2.0000    -101.206380     -2753.9656
   2   2.0000     -62.288620     -1694.9595
   3   2.0000     -56.069086     -1525.7174
   4   2.0000     -56.066405     -1525.6444
   5   2.0000     -56.066316     -1525.6420
   6   2.0000     -10.097928      -274.7786
   7   2.0000     -10.094189      -274.6768
   8   2.0000      -9.362495      -254.7664
   9   2.0000      -8.620503      -234.5758
  10   2.0000      -7.108594      -193.4347
  11   2.0000      -7.098649      -193.1641
  12   2.0000      -7.098529      -193.1608
  13   2.0000      -6.427851      -174.9107
  14   2.0000      -6.414462      -174.5464
  15   2.0000      -6.414214      -174.5396
  16   2.0000      -2.525422       -68.7202
  17   2.0000      -2.522167       -68.6316
  18   2.0000      -2.521977       -68.6265
  19   2.0000      -2.512012       -68.3553
  20   2.0000      -2.511995       -68.3549
  21   2.0000      -0.831266       -22.6199
  22   2.0000      -0.762772       -20.7561
  23   2.0000      -0.679690       -18.4953
  24   2.0000      -0.577348       -15.7104
  25   2.0000      -0.447888       -12.1877
  26   2.0000      -0.437059       -11.8930
  27   2.0000      -0.398613       -10.8468
  28   2.0000      -0.362791        -9.8720
  29   2.0000      -0.344377        -9.3710
  30   2.0000      -0.277108        -7.5405
  31   2.0000      -0.273355        -7.4384
  32   2.0000      -0.256041        -6.9672
  33   2.0000      -0.251731        -6.8499
  34   0.0000      -0.031857        -0.8669
  35   0.0000       0.007534         0.2050
  36   0.0000       0.108351         2.9484
  37   0.0000       0.124254         3.3811
  38   0.0000       0.156869         4.2686

MULLIKEN ATOMIC CHARGES
-----------------------
   0 C :   -0.164933
   1 C :   -0.211725
   2 Br:   -0.199165
   3 Cl:   -0.225646
   4 H :    0.203928
   5 H :    0.195359
   6 H :    0.198192
   7 H :    0.203989
Sum of atomic charges:   -0.0000000

LOEWDIN ATOMIC CHARGES
----------------------
   0 C :   -0.334349
   1 C :   -0.399956
   2 Br:    0.045339
   3 Cl:   -0.022617
   4 H :    0.182557
   5 H :    0.174413
   6 H :    0.174910
   7 H :    0.179703

  Mayer bond orders larger than 0.100000
B(  0-C ,  1-C ) :   0.9544 B(  0-C ,  3-Cl) :   0.9487 B(  0-C ,  4-H ) :   0.9292
B(  0-C ,  5-H ) :   0.9466 B(  1-C ,  2-Br) :   0.9503 B(  1-C ,  6-H ) :   0.9459
B(  1-C ,  7-H ) :   0.9326

Dispersion correction           -0.001964311
FINAL SINGLE POINT ENERGY     -3112.915274102082

DIPOLE MOMENT
-------------

Method             : SCF
Type of density    : Electron Density
Multiplicity       :   1
Irrep              :   0
Energy             : -3112.9196723579443642 Eh
Relativity type    :
Basis              : AO
                                X                 Y                 Z
Electronic contribution:    -10.763666110       0.578948290       7.243595174
Nuclear contribution   :     10.898643142      -0.744674873      -8.824422664
                        -----------------------------------------
Total Dipole Moment    :      0.134977032      -0.165726583      -1.580827490
                        -----------------------------------------
Magnitude (a.u.)       :      1.595211475
Magnitude (Debye)      :      4.054705338

Rotational constants in cm-1:             0.282146             0.050370             0.044667
Rotational constants in MHz :          8458.510744          1510.058147          1339.070173

                             ****ORCA TERMINATED NORMALLY****
TOTAL RUN TIME: 0 days 0 hours 0 minutes 14 seconds 19 msec
