                         Program Version 6.0.0  -   RELEASE  -
|  1> ! r2scan-3c def2/J RI DEFGRID2 scfconv6 printgap
|  2> %output
|  3>     printlevel normal
|  4> end
|  5> * xyz 0 1
|  6> C 4.2364730502 0.0493315956 -2.1819395594
|  7> C 4.4082672679 -0.3458590547 -0.7287113488
|  8> O 3.1504521219 -0.6257432633 -0.0933157432
|  9> P 2.1126111441 0.5329744852 0.2683202385
| 10> S 2.9123586116 2.2259574877 0.8395796914
| 11> O 1.1795216106 -0.186990239 1.3255057291
| 12> C 1.443823249 -0.1444210834 2.7405510008
| 13> C 2.6567896375 -0.9712025963 3.1111174095
| 14> S 0.7860601108 0.630678256 -1.3731920724
| 15> C 0.4144706572 -1.1290056202 -1.6073938359
| 16> S -0.6336181747 -1.862063733 -0.311367034
| 17> P -2.1408478487 -0.4051480646 -0.2746159218
| 18> S -2.7143078375 0.3696665661 -1.9872411418
| 19> O -1.6012945247 0.5880420865 0.8368083938
| 20> C -2.1975511108 1.8865058769 1.0573539766
| 21> C -1.3541638397 2.9757012522 0.424667124
| 22> O -3.3170837727 -1.1232484863 0.521939006
| 23> C -4.2311254518 -2.0339625807 -0.1231607375
| 24> C -5.4764722348 -2.1340584709 0.7342846285
| 25> H 3.7065622674 -0.7240035142 -2.7319681139
| 26> H 3.6720697101 0.9791323681 -2.2497140587
| 27> H 5.2137443185 0.1992463915 -2.62958501
| 28> H 4.9057691066 0.455422676 -0.172913924
| 29> H 4.9704413502 -1.2750402872 -0.6255624393
| 30> H 1.5810727128 0.9010748117 3.0357798874
| 31> H 0.5294295448 -0.5394001905 3.1861575607
| 32> H 2.751397578 -1.0050337256 4.1919887998
| 33> H 2.5535296869 -1.9813932704 2.7236065807
| 34> H 3.5545051287 -0.5198516104 2.6911300768
| 35> H 1.3331071487 -1.710384293 -1.6178860795
| 36> H -0.10533218 -1.1832198487 -2.5627014426
| 37> H -3.2108580879 1.8922139071 0.646220217
| 38> H -2.2402102092 1.9933630097 2.1425227911
| 39> H -1.7693306836 3.9454413221 0.6793978378
| 40> H -0.3291999952 2.9209683234 0.787124235
| 41> H -1.3434587759 2.8654470184 -0.6580956818
| 42> H -4.4597516351 -1.6473158232 -1.1221122053
| 43> H -3.7329422183 -3.0021410175 -0.218069358
| 44> H -5.2129526039 -2.4759358055 1.7309981773
| 45> H -5.9588897904 -1.1637058877 0.8109218267
| 46> H -6.1637571413 -2.8405102322 0.280678843
| 47> *
| 48>
| 49>                          ****END OF INPUT****

CARTESIAN COORDINATES (ANGSTROEM)
---------------------------------
  C      4.236473    0.049332   -2.181940
  C      4.408267   -0.345859   -0.728711
  O      3.150452   -0.625743   -0.093316
  P      2.112611    0.532974    0.268320
  S      2.912359    2.225957    0.839580
  O      1.179522   -0.186990    1.325506
  C      1.443823   -0.144421    2.740551
  C      2.656790   -0.971203    3.111117
  S      0.786060    0.630678   -1.373192
  C      0.414471   -1.129006   -1.607394
  S     -0.633618   -1.862064   -0.311367
  P     -2.140848   -0.405148   -0.274616
  S     -2.714308    0.369667   -1.987241
  O     -1.601295    0.588042    0.836808
  C     -2.197551    1.886506    1.057354
  C     -1.354164    2.975701    0.424667
  O     -3.317084   -1.123248    0.521939
  C     -4.231125   -2.033963   -0.123161
  C     -5.476472   -2.134058    0.734285
  H      3.706562   -0.724004   -2.731968
  H      3.672070    0.979132   -2.249714
  H      5.213744    0.199246   -2.629585
  H      4.905769    0.455423   -0.172914
  H      4.970441   -1.275040   -0.625562
  H      1.581073    0.901075    3.035780
  H      0.529430   -0.539400    3.186158
  H      2.751398   -1.005034    4.191989
  H      2.553530   -1.981393    2.723607
  H      3.554505   -0.519852    2.691130
  H      1.333107   -1.710384   -1.617886
  H     -0.105332   -1.183220   -2.562701
  H     -3.210858    1.892214    0.646220
  H     -2.240210    1.993363    2.142523
  H     -1.769331    3.945441    0.679398
  H     -0.329200    2.920968    0.787124
  H     -1.343459    2.865447   -0.658096
  H     -4.459752   -1.647316   -1.122112
  H     -3.732942   -3.002141   -0.218069
  H     -5.212953   -2.475936    1.730998
  H     -5.958890   -1.163706    0.810922
  H     -6.163757   -2.840510    0.280679

 Total Charge           Charge          ....    0
 Multiplicity           Mult            ....    1
 Number of Electrons    NEL             ....  202
 Basis Dimension        Dim             ....  539

ORBITAL ENERGIES
----------------

  NO   OCC          E(Eh)            E(eV)
   0   2.0000     -88.575009     -2410.2485
   1   2.0000     -88.574755     -2410.2416
   2   2.0000     -88.523101     -2408.8360
   3   2.0000     -88.517350     -2408.6795
   4   2.0000     -76.913397     -2092.9199
   5   2.0000     -76.912120     -2092.8852
   6   2.0000     -18.993051      -516.8272
   7   2.0000     -18.989517      -516.7310
   8   2.0000     -18.984819      -516.6032
   9   2.0000     -18.983542      -516.5684
  10   2.0000     -10.112077      -275.1636
  11   2.0000     -10.100289      -274.8428
  12   2.0000     -10.096063      -274.7278
  13   2.0000     -10.095596      -274.7151
  14   2.0000     -10.093297      -274.6526
  15   2.0000     -10.032171      -272.9893
  16   2.0000     -10.031341      -272.9667
  17   2.0000     -10.028395      -272.8865
  18   2.0000     -10.015594      -272.5382
  19   2.0000      -7.869450      -214.1386
  20   2.0000      -7.869221      -214.1324
  21   2.0000      -7.817729      -212.7312
  22   2.0000      -7.812089      -212.5778
  23   2.0000      -6.591872      -179.3739
  24   2.0000      -6.590409      -179.3342
  25   2.0000      -5.816643      -158.2789
  26   2.0000      -5.816445      -158.2735
  27   2.0000      -5.813307      -158.1881
  28   2.0000      -5.812708      -158.1718
  29   2.0000      -5.806363      -157.9992
  30   2.0000      -5.806135      -157.9930
  31   2.0000      -5.765332      -156.8827
  32   2.0000      -5.759733      -156.7303
  33   2.0000      -5.758072      -156.6851
  34   2.0000      -5.757738      -156.6760
  35   2.0000      -5.752514      -156.5339
  36   2.0000      -5.751969      -156.5190
  37   2.0000      -4.737152      -128.9044
  38   2.0000      -4.736951      -128.8990
  39   2.0000      -4.735897      -128.8703
  40   2.0000      -4.735680      -128.8644
  41   2.0000      -4.735348      -128.8554
  42   2.0000      -4.734187      -128.8238
  43   2.0000      -1.048917       -28.5425
  44   2.0000      -1.045051       -28.4373
  45   2.0000      -1.010258       -27.4905
  46   2.0000      -1.004779       -27.3414
  47   2.0000      -0.802697       -21.8425
  48   2.0000      -0.758001       -20.6263
  49   2.0000      -0.747661       -20.3449
  50   2.0000      -0.731961       -19.9177
  51   2.0000      -0.726611       -19.7721
  52   2.0000      -0.709591       -19.3090
  53   2.0000      -0.687253       -18.7011
  54   2.0000      -0.668377       -18.1875
  55   2.0000      -0.631432       -17.1821
  56   2.0000      -0.620088       -16.8735
  57   2.0000      -0.606352       -16.4997
  58   2.0000      -0.601376       -16.3643
  59   2.0000      -0.589897       -16.0519
  60   2.0000      -0.530284       -14.4298
  61   2.0000      -0.519151       -14.1268
  62   2.0000      -0.493494       -13.4286
  63   2.0000      -0.490529       -13.3480
  64   2.0000      -0.477649       -12.9975
  65   2.0000      -0.460321       -12.5260
  66   2.0000      -0.459246       -12.4967
  67   2.0000      -0.450678       -12.2636
  68   2.0000      -0.444497       -12.0954
  69   2.0000      -0.433626       -11.7996
  70   2.0000      -0.424979       -11.5643
  71   2.0000      -0.412607       -11.2276
  72   2.0000      -0.409110       -11.1325
  73   2.0000      -0.399551       -10.8723
  74   2.0000      -0.392899       -10.6913
  75   2.0000      -0.390981       -10.6391
  76   2.0000      -0.385344       -10.4857
  77   2.0000      -0.372563       -10.1380
  78   2.0000      -0.366840        -9.9822
  79   2.0000      -0.366608        -9.9759
  80   2.0000      -0.363134        -9.8814
  81   2.0000      -0.357403        -9.7254
  82   2.0000      -0.355230        -9.6663
  83   2.0000      -0.349485        -9.5100
  84   2.0000      -0.343915        -9.3584
  85   2.0000      -0.335710        -9.1351
  86   2.0000      -0.319521        -8.6946
  87   2.0000      -0.313951        -8.5430
  88   2.0000      -0.307614        -8.3706
  89   2.0000      -0.305173        -8.3042
  90   2.0000      -0.297953        -8.1077
  91   2.0000      -0.289333        -7.8731
  92   2.0000      -0.278904        -7.5894
  93   2.0000      -0.278763        -7.5855
  94   2.0000      -0.274948        -7.4817
  95   2.0000      -0.241733        -6.5779
  96   2.0000      -0.231077        -6.2879
  97   2.0000      -0.224268        -6.1026
  98   2.0000      -0.220973        -6.0130
  99   2.0000      -0.211944        -5.7673
 100   2.0000      -0.210410        -5.7256
 101   0.0000      -0.047244        -1.2856
 102   0.0000      -0.020951        -0.5701
 103   0.0000      -0.008692        -0.2365
 104   0.0000       0.004668         0.1270
 105   0.0000       0.006660         0.1812

MULLIKEN ATOMIC CHARGES
-----------------------
   0 C :   -0.433159
   1 C :   -0.160719
   2 O :   -0.304370
   3 P :    0.675832
   4 S :   -0.472302
   5 O :   -0.225483
   6 C :   -0.175826
   7 C :   -0.434253
   8 S :   -0.112913
   9 C :   -0.250298
  10 S :   -0.125967
  11 P :    0.683961
  12 S :   -0.476152
  13 O :   -0.267177
  14 C :   -0.115778
  15 C :   -0.475369
  16 O :   -0.285954
  17 C :   -0.149618
  18 C :   -0.443429
  19 H :    0.145292
  20 H :    0.176513
  21 H :    0.148701
  22 H :    0.170938
  23 H :    0.148579
  24 H :    0.170509
  25 H :    0.158526
  26 H :    0.146616
  27 H :    0.156583
  28 H :    0.162583
  29 H :    0.186692
  30 H :    0.207498
  31 H :    0.152666
  32 H :    0.146446
  33 H :    0.142240
  34 H :    0.173381
  35 H :    0.179504
  36 H :    0.171673
  37 H :    0.148921
  38 H :    0.152843
  39 H :    0.156001
  40 H :    0.146269
Sum of atomic charges:    0.0000000

LOEWDIN ATOMIC CHARGES
----------------------
   0 C :   -0.402765
   1 C :    0.016640
   2 O :   -0.680132
   3 P :    0.373026
   4 S :   -0.115558
   5 O :   -0.688467
   6 C :    0.022840
   7 C :   -0.398217
   8 S :    0.192164
   9 C :   -0.409174
  10 S :    0.191057
  11 P :    0.367554
  12 S :   -0.131401
  13 O :   -0.664261
  14 C :    0.027322
  15 C :   -0.403512
  16 O :   -0.666182
  17 C :    0.018014
  18 C :   -0.386795
  19 H :    0.155507
  20 H :    0.167629
  21 H :    0.159999
  22 H :    0.180509
  23 H :    0.178584
  24 H :    0.179847
  25 H :    0.182447
  26 H :    0.158876
  27 H :    0.161363
  28 H :    0.163175
  29 H :    0.186020
  30 H :    0.190231
  31 H :    0.175686
  32 H :    0.177031
  33 H :    0.156622
  34 H :    0.165735
  35 H :    0.167516
  36 H :    0.181141
  37 H :    0.170602
  38 H :    0.159336
  39 H :    0.160305
  40 H :    0.159685

  Mayer bond orders larger than 0.100000
B(  0-C ,  1-C ) :   0.9328 B(  0-C , 19-H ) :   0.9711 B(  0-C , 20-H ) :   0.9598
B(  0-C , 21-H ) :   0.9603 B(  1-C ,  2-O ) :   0.8094 B(  1-C , 22-H ) :   0.9607
B(  1-C , 23-H ) :   0.9599 B(  2-O ,  3-P ) :   1.0230 B(  3-P ,  4-S ) :   1.7956
B(  3-P ,  5-O ) :   1.1389 B(  3-P ,  8-S ) :   1.0567 B(  5-O ,  6-C ) :   0.7897
B(  6-C ,  7-C ) :   0.9219 B(  6-C , 24-H ) :   0.9612 B(  6-C , 25-H ) :   0.9642
B(  7-C , 26-H ) :   0.9629 B(  7-C , 27-H ) :   0.9737 B(  7-C , 28-H ) :   0.9615
B(  8-S ,  9-C ) :   0.9076 B(  9-C , 10-S ) :   0.9196 B(  9-C , 29-H ) :   0.9187
B(  9-C , 30-H ) :   0.9158 B( 10-S , 11-P ) :   1.0913 B( 11-P , 12-S ) :   1.7425
B( 11-P , 13-O ) :   1.1793 B( 11-P , 16-O ) :   1.0839 B( 13-O , 14-C ) :   0.7503
B( 14-C , 15-C ) :   0.9404 B( 14-C , 31-H ) :   0.9631 B( 14-C , 32-H ) :   0.9614
B( 15-C , 33-H ) :   0.9633 B( 15-C , 34-H ) :   0.9649 B( 15-C , 35-H ) :   0.9626
B( 16-O , 17-C ) :   0.7787 B( 17-C , 18-C ) :   0.9576 B( 17-C , 36-H ) :   0.9498
B( 17-C , 37-H ) :   0.9454 B( 18-C , 38-H ) :   0.9718 B( 18-C , 39-H ) :   0.9724
B( 18-C , 40-H ) :   0.9647

Dispersion correction           -0.021908022
FINAL SINGLE POINT ENERGY     -2932.459706947390

DIPOLE MOMENT
-------------

Method             : SCF
Type of density    : Electron Density
Multiplicity       :   1
Irrep              :   0
Energy             : -2932.4841809838917470 Eh
Relativity type    :
Basis              : AO
                                X                 Y                 Z
Electronic contribution:     -0.104569871       2.565152157      -7.311029874
Nuclear contribution   :      0.236170192      -3.847197292       7.929619064
                        -----------------------------------------
Total Dipole Moment    :      0.131600321      -1.282045135       0.618589190
                        -----------------------------------------
Magnitude (a.u.)       :      1.429549215
Magnitude (Debye)      :      3.633625336

Rotational constants in cm-1:             0.013102             0.004917             0.004833
Rotational constants in MHz :           392.790048           147.404405           144.894789

                             ****ORCA TERMINATED NORMALLY****
TOTAL RUN TIME: 0 days 0 hours 1 minutes 25 seconds 163 msec
