                         Program Version 6.0.0  -   RELEASE  -
|  1> ! r2scan-3c def2/J RI DEFGRID2 scfconv6 printgap
|  2> %output
|  3>     printlevel normal
|  4> end
|  5> %cpcm
|  6>     smd true
|  7>     smdsolvent "water"
|  8> end
|  9> * xyz 0 1
| 10> C 4.2364730502 0.0493315956 -2.1819395594
| 11> C 4.4082672679 -0.3458590547 -0.7287113488
| 12> O 3.1504521219 -0.6257432633 -0.0933157432
| 13> P 2.1126111441 0.5329744852 0.2683202385
| 14> S 2.9123586116 2.2259574877 0.8395796914
| 15> O 1.1795216106 -0.186990239 1.3255057291
| 16> C 1.443823249 -0.1444210834 2.7405510008
| 17> C 2.6567896375 -0.9712025963 3.1111174095
| 18> S 0.7860601108 0.630678256 -1.3731920724
| 19> C 0.4144706572 -1.1290056202 -1.6073938359
| 20> S -0.6336181747 -1.862063733 -0.311367034
| 21> P -2.1408478487 -0.4051480646 -0.2746159218
| 22> S -2.7143078375 0.3696665661 -1.9872411418
| 23> O -1.6012945247 0.5880420865 0.8368083938
| 24> C -2.1975511108 1.8865058769 1.0573539766
| 25> C -1.3541638397 2.9757012522 0.424667124
| 26> O -3.3170837727 -1.1232484863 0.521939006
| 27> C -4.2311254518 -2.0339625807 -0.1231607375
| 28> C -5.4764722348 -2.1340584709 0.7342846285
| 29> H 3.7065622674 -0.7240035142 -2.7319681139
| 30> H 3.6720697101 0.9791323681 -2.2497140587
| 31> H 5.2137443185 0.1992463915 -2.62958501
| 32> H 4.9057691066 0.455422676 -0.172913924
| 33> H 4.9704413502 -1.2750402872 -0.6255624393
| 34> H 1.5810727128 0.9010748117 3.0357798874
| 35> H 0.5294295448 -0.5394001905 3.1861575607
| 36> H 2.751397578 -1.0050337256 4.1919887998
| 37> H 2.5535296869 -1.9813932704 2.7236065807
| 38> H 3.5545051287 -0.5198516104 2.6911300768
| 39> H 1.3331071487 -1.710384293 -1.6178860795
| 40> H -0.10533218 -1.1832198487 -2.5627014426
| 41> H -3.2108580879 1.8922139071 0.646220217
| 42> H -2.2402102092 1.9933630097 2.1425227911
| 43> H -1.7693306836 3.9454413221 0.6793978378
| 44> H -0.3291999952 2.9209683234 0.787124235
| 45> H -1.3434587759 2.8654470184 -0.6580956818
| 46> H -4.4597516351 -1.6473158232 -1.1221122053
| 47> H -3.7329422183 -3.0021410175 -0.218069358
| 48> H -5.2129526039 -2.4759358055 1.7309981773
| 49> H -5.9588897904 -1.1637058877 0.8109218267
| 50> H -6.1637571413 -2.8405102322 0.280678843
| 51> *
| 52>
| 53>                          ****END OF INPUT****

CARTESIAN COORDINATES (ANGSTROEM)
---------------------------------
  C      4.236473    0.049332   -2.181940
  C      4.408267   -0.345859   -0.728711
  O      3.150452   -0.625743   -0.093316
  P      2.112611    0.532974    0.268320
  S      2.912359    2.225957    0.839580
  O      1.179522   -0.186990    1.325506
  C      1.443823   -0.144421    2.740551
  C      2.656790   -0.971203    3.111117
  S      0.786060    0.630678   -1.373192
  C      0.414471   -1.129006   -1.607394
  S     -0.633618   -1.862064   -0.311367
  P     -2.140848   -0.405148   -0.274616
  S     -2.714308    0.369667   -1.987241
  O     -1.601295    0.588042    0.836808
  C     -2.197551    1.886506    1.057354
  C     -1.354164    2.975701    0.424667
  O     -3.317084   -1.123248    0.521939
  C     -4.231125   -2.033963   -0.123161
  C     -5.476472   -2.134058    0.734285
  H      3.706562   -0.724004   -2.731968
  H      3.672070    0.979132   -2.249714
  H      5.213744    0.199246   -2.629585
  H      4.905769    0.455423   -0.172914
  H      4.970441   -1.275040   -0.625562
  H      1.581073    0.901075    3.035780
  H      0.529430   -0.539400    3.186158
  H      2.751398   -1.005034    4.191989
  H      2.553530   -1.981393    2.723607
  H      3.554505   -0.519852    2.691130
  H      1.333107   -1.710384   -1.617886
  H     -0.105332   -1.183220   -2.562701
  H     -3.210858    1.892214    0.646220
  H     -2.240210    1.993363    2.142523
  H     -1.769331    3.945441    0.679398
  H     -0.329200    2.920968    0.787124
  H     -1.343459    2.865447   -0.658096
  H     -4.459752   -1.647316   -1.122112
  H     -3.732942   -3.002141   -0.218069
  H     -5.212953   -2.475936    1.730998
  H     -5.958890   -1.163706    0.810922
  H     -6.163757   -2.840510    0.280679

 Total Charge           Charge          ....    0
 Multiplicity           Mult            ....    1
 Number of Electrons    NEL             ....  202
 Basis Dimension        Dim             ....  539

ORBITAL ENERGIES
----------------

  NO   OCC          E(Eh)            E(eV)
   0   2.0000     -88.578063     -2410.3316
   1   2.0000     -88.577399     -2410.3136
   2   2.0000     -88.529888     -2409.0207
   3   2.0000     -88.525580     -2408.9035
   4   2.0000     -76.918253     -2093.0521
   5   2.0000     -76.917546     -2093.0328
   6   2.0000     -18.993096      -516.8284
   7   2.0000     -18.992309      -516.8070
   8   2.0000     -18.989537      -516.7316
   9   2.0000     -18.987809      -516.6846
  10   2.0000     -10.107692      -275.0443
  11   2.0000     -10.089403      -274.5466
  12   2.0000     -10.088521      -274.5226
  13   2.0000     -10.088403      -274.5194
  14   2.0000     -10.088343      -274.5178
  15   2.0000     -10.019147      -272.6348
  16   2.0000     -10.018240      -272.6102
  17   2.0000     -10.018046      -272.6049
  18   2.0000     -10.015137      -272.5257
  19   2.0000      -7.872693      -214.2269
  20   2.0000      -7.871731      -214.2007
  21   2.0000      -7.824871      -212.9256
  22   2.0000      -7.820625      -212.8100
  23   2.0000      -6.596604      -179.5027
  24   2.0000      -6.596054      -179.4877
  25   2.0000      -5.819665      -158.3611
  26   2.0000      -5.819112      -158.3461
  27   2.0000      -5.816530      -158.2758
  28   2.0000      -5.815198      -158.2396
  29   2.0000      -5.809676      -158.0893
  30   2.0000      -5.808704      -158.0629
  31   2.0000      -5.772388      -157.0747
  32   2.0000      -5.768202      -156.9608
  33   2.0000      -5.765236      -156.8801
  34   2.0000      -5.764875      -156.8702
  35   2.0000      -5.761039      -156.7658
  36   2.0000      -5.760526      -156.7519
  37   2.0000      -4.742060      -129.0380
  38   2.0000      -4.741550      -129.0241
  39   2.0000      -4.741268      -129.0165
  40   2.0000      -4.741139      -129.0130
  41   2.0000      -4.740430      -128.9937
  42   2.0000      -4.739953      -128.9807
  43   2.0000      -1.050275       -28.5794
  44   2.0000      -1.048866       -28.5411
  45   2.0000      -1.010712       -27.5029
  46   2.0000      -1.008668       -27.4472
  47   2.0000      -0.802710       -21.8429
  48   2.0000      -0.755879       -20.5685
  49   2.0000      -0.742176       -20.1956
  50   2.0000      -0.722385       -19.6571
  51   2.0000      -0.721847       -19.6425
  52   2.0000      -0.708938       -19.2912
  53   2.0000      -0.691081       -18.8053
  54   2.0000      -0.674323       -18.3493
  55   2.0000      -0.628967       -17.1151
  56   2.0000      -0.618654       -16.8344
  57   2.0000      -0.598904       -16.2970
  58   2.0000      -0.596048       -16.2193
  59   2.0000      -0.588312       -16.0088
  60   2.0000      -0.528752       -14.3881
  61   2.0000      -0.514452       -13.9989
  62   2.0000      -0.491372       -13.3709
  63   2.0000      -0.488268       -13.2864
  64   2.0000      -0.476341       -12.9619
  65   2.0000      -0.457052       -12.4370
  66   2.0000      -0.454101       -12.3567
  67   2.0000      -0.446445       -12.1484
  68   2.0000      -0.442340       -12.0367
  69   2.0000      -0.431994       -11.7552
  70   2.0000      -0.421692       -11.4748
  71   2.0000      -0.407464       -11.0876
  72   2.0000      -0.404312       -11.0019
  73   2.0000      -0.399133       -10.8610
  74   2.0000      -0.392681       -10.6854
  75   2.0000      -0.387137       -10.5345
  76   2.0000      -0.382600       -10.4111
  77   2.0000      -0.366813        -9.9815
  78   2.0000      -0.364257        -9.9119
  79   2.0000      -0.356979        -9.7139
  80   2.0000      -0.354510        -9.6467
  81   2.0000      -0.352382        -9.5888
  82   2.0000      -0.347640        -9.4598
  83   2.0000      -0.346900        -9.4396
  84   2.0000      -0.341530        -9.2935
  85   2.0000      -0.332809        -9.0562
  86   2.0000      -0.316698        -8.6178
  87   2.0000      -0.311884        -8.4868
  88   2.0000      -0.305417        -8.3108
  89   2.0000      -0.301426        -8.2022
  90   2.0000      -0.298677        -8.1274
  91   2.0000      -0.290025        -7.8920
  92   2.0000      -0.280027        -7.6199
  93   2.0000      -0.277165        -7.5420
  94   2.0000      -0.275834        -7.5058
  95   2.0000      -0.245591        -6.6829
  96   2.0000      -0.236862        -6.4454
  97   2.0000      -0.232376        -6.3233
  98   2.0000      -0.228530        -6.2186
  99   2.0000      -0.218989        -5.9590
 100   2.0000      -0.217589        -5.9209
 101   0.0000      -0.050602        -1.3770
 102   0.0000      -0.025784        -0.7016
 103   0.0000      -0.012175        -0.3313
 104   0.0000       0.001155         0.0314
 105   0.0000       0.004297         0.1169

MULLIKEN ATOMIC CHARGES
-----------------------
   0 C :   -0.471772
   1 C :   -0.155936
   2 O :   -0.319997
   3 P :    0.714130
   4 S :   -0.529017
   5 O :   -0.257176
   6 C :   -0.170939
   7 C :   -0.474345
   8 S :   -0.140995
   9 C :   -0.259397
  10 S :   -0.133214
  11 P :    0.711483
  12 S :   -0.526551
  13 O :   -0.293758
  14 C :   -0.120989
  15 C :   -0.502459
  16 O :   -0.313365
  17 C :   -0.143348
  18 C :   -0.484991
  19 H :    0.169002
  20 H :    0.166429
  21 H :    0.171002
  22 H :    0.173530
  23 H :    0.174832
  24 H :    0.176648
  25 H :    0.178710
  26 H :    0.171637
  27 H :    0.169267
  28 H :    0.166960
  29 H :    0.227149
  30 H :    0.233268
  31 H :    0.169032
  32 H :    0.174722
  33 H :    0.168192
  34 H :    0.166524
  35 H :    0.173364
  36 H :    0.171670
  37 H :    0.170148
  38 H :    0.165270
  39 H :    0.166041
  40 H :    0.169237
Sum of atomic charges:    0.0000000

LOEWDIN ATOMIC CHARGES
----------------------
   0 C :   -0.406616
   1 C :    0.023290
   2 O :   -0.683928
   3 P :    0.378577
   4 S :   -0.152591
   5 O :   -0.702663
   6 C :    0.026301
   7 C :   -0.401441
   8 S :    0.178357
   9 C :   -0.397396
  10 S :    0.189585
  11 P :    0.371283
  12 S :   -0.163824
  13 O :   -0.680218
  14 C :    0.031865
  15 C :   -0.408094
  16 O :   -0.680058
  17 C :    0.022332
  18 C :   -0.390580
  19 H :    0.162845
  20 H :    0.161572
  21 H :    0.167728
  22 H :    0.181016
  23 H :    0.190169
  24 H :    0.182004
  25 H :    0.190346
  26 H :    0.168238
  27 H :    0.164296
  28 H :    0.162610
  29 H :    0.201257
  30 H :    0.199338
  31 H :    0.181078
  32 H :    0.188646
  33 H :    0.165424
  34 H :    0.161993
  35 H :    0.162951
  36 H :    0.181355
  37 H :    0.179046
  38 H :    0.162858
  39 H :    0.162314
  40 H :    0.168735

  Mayer bond orders larger than 0.100000
B(  0-C ,  1-C ) :   0.9221 B(  0-C , 19-H ) :   0.9669 B(  0-C , 20-H ) :   0.9623
B(  0-C , 21-H ) :   0.9559 B(  1-C ,  2-O ) :   0.7962 B(  1-C , 22-H ) :   0.9600
B(  1-C , 23-H ) :   0.9500 B(  2-O ,  3-P ) :   1.0397 B(  3-P ,  4-S ) :   1.7490
B(  3-P ,  5-O ) :   1.1458 B(  3-P ,  8-S ) :   1.0661 B(  5-O ,  6-C ) :   0.7813
B(  6-C ,  7-C ) :   0.9121 B(  6-C , 24-H ) :   0.9558 B(  6-C , 25-H ) :   0.9551
B(  7-C , 26-H ) :   0.9570 B(  7-C , 27-H ) :   0.9720 B(  7-C , 28-H ) :   0.9598
B(  8-S ,  9-C ) :   0.9040 B(  9-C , 10-S ) :   0.9109 B(  9-C , 29-H ) :   0.9061
B(  9-C , 30-H ) :   0.9068 B( 10-S , 11-P ) :   1.1153 B( 11-P , 12-S ) :   1.7003
B( 11-P , 13-O ) :   1.1777 B( 11-P , 16-O ) :   1.0892 B( 13-O , 14-C ) :   0.7388
B( 14-C , 15-C ) :   0.9309 B( 14-C , 31-H ) :   0.9605 B( 14-C , 32-H ) :   0.9516
B( 15-C , 33-H ) :   0.9590 B( 15-C , 34-H ) :   0.9660 B( 15-C , 35-H ) :   0.9654
B( 16-O , 17-C ) :   0.7712 B( 17-C , 18-C ) :   0.9538 B( 17-C , 36-H ) :   0.9473
B( 17-C , 37-H ) :   0.9363 B( 18-C , 38-H ) :   0.9688 B( 18-C , 39-H ) :   0.9700
B( 18-C , 40-H ) :   0.9586

Dispersion correction           -0.021908022
FINAL SINGLE POINT ENERGY     -2932.468968150507

DIPOLE MOMENT
-------------

Method             : SCF
Type of density    : Electron Density
Multiplicity       :   1
Irrep              :   0
Energy             : -2932.4934421870088954 Eh
Relativity type    :
Basis              : AO
                                X                 Y                 Z
Electronic contribution:     -0.010987802       1.960743429      -7.225958630
Nuclear contribution   :      0.236170192      -3.847197292       7.929619064
                        -----------------------------------------
Total Dipole Moment    :      0.225182390      -1.886453863       0.703660434
                        -----------------------------------------
Magnitude (a.u.)       :      2.025969717
Magnitude (Debye)      :      5.149605774

Rotational constants in cm-1:             0.013102             0.004917             0.004833
Rotational constants in MHz :           392.790048           147.404405           144.894789

                             ****ORCA TERMINATED NORMALLY****
TOTAL RUN TIME: 0 days 0 hours 1 minutes 54 seconds 203 msec
