                         Program Version 6.0.0  -   RELEASE  -
|  1> ! pbe def2-sv(p) def2/J RI DEFGRID1 loosescf d4 GCP(DFT/SV(P)) printgap
|  2> %output
|  3>     printlevel normal
|  4> end
|  5> * xyz 0 1
|  6> C 4.255687942 -0.4150521237 -2.4794685261
|  7> C 2.8661631417 -1.0120180168 -2.4110305979
|  8> O 2.4490169674 -1.231462921 -1.0464815281
|  9> P 2.0831725776 -0.0388631625 -0.0736021592
| 10> S 1.3602229223 1.5687740216 -0.9442219235
| 11> O 3.4550703119 0.2427242661 0.6838043444
| 12> C 3.6725020365 1.4345697399 1.453318283
| 13> C 2.8023299567 1.4725374852 2.6936036792
| 14> S 1.0188249296 -1.1531427938 1.3741782764
| 15> C -0.1695769731 -2.0345613394 0.3081229197
| 16> S -0.9971181186 -1.0031262617 -0.9276862663
| 17> P -2.1805259663 0.1883415447 0.3970368374
| 18> S -1.2826137572 1.4106220774 1.6324097685
| 19> O -3.0732274913 -0.8474401296 1.18339091
| 20> C -4.1766320244 -1.6074317142 0.6214655217
| 21> C -3.7479788121 -3.0078919104 0.2300304294
| 22> O -3.2241312609 0.8719229581 -0.5864742098
| 23> C -2.9788432064 2.1186120633 -1.2592909552
| 24> C -2.1350216115 1.927338795 -2.5029579665
| 25> H 4.9558991986 -1.0268563399 -1.9168935797
| 26> H 4.5732833972 -0.3579318342 -3.5157891507
| 27> H 4.2470438729 0.5883968007 -2.0556964482
| 28> H 2.8275945493 -2.0055922715 -2.8589519481
| 29> H 2.1369361096 -0.354056311 -2.8943911297
| 30> H 4.7332259058 1.3971958549 1.7048455636
| 31> H 3.4686581641 2.3026699147 0.8170982167
| 32> H 3.0633311868 2.337195709 3.2951932231
| 33> H 1.7501615746 1.54947958 2.4129928323
| 34> H 2.9388294713 0.5673183983 3.2805106978
| 35> H -0.9039875959 -2.4631129043 0.9878160641
| 36> H 0.3553329629 -2.8082518193 -0.2473017943
| 37> H -4.9107733119 -1.6311104419 1.4285620348
| 38> H -4.5834629157 -1.0618528081 -0.2305062394
| 39> H -3.291672365 -3.5130371241 1.0773627408
| 40> H -4.6271293731 -3.5651720851 -0.0784910047
| 41> H -3.0420644531 -2.9803814251 -0.5962595509
| 42> H -3.9773073035 2.4842459227 -1.5049584678
| 43> H -2.4931139133 2.8066878215 -0.5594969498
| 44> H -2.5560629324 1.1442543501 -3.1278284048
| 45> H -2.1044971971 2.8579773552 -3.0601010424
| 46> H -1.1160365402 1.6556177957 -2.2319305039
| 47> *
| 48>
| 49>                          ****END OF INPUT****

CARTESIAN COORDINATES (ANGSTROEM)
---------------------------------
  C      4.255688   -0.415052   -2.479469
  C      2.866163   -1.012018   -2.411031
  O      2.449017   -1.231463   -1.046482
  P      2.083173   -0.038863   -0.073602
  S      1.360223    1.568774   -0.944222
  O      3.455070    0.242724    0.683804
  C      3.672502    1.434570    1.453318
  C      2.802330    1.472537    2.693604
  S      1.018825   -1.153143    1.374178
  C     -0.169577   -2.034561    0.308123
  S     -0.997118   -1.003126   -0.927686
  P     -2.180526    0.188342    0.397037
  S     -1.282614    1.410622    1.632410
  O     -3.073227   -0.847440    1.183391
  C     -4.176632   -1.607432    0.621466
  C     -3.747979   -3.007892    0.230030
  O     -3.224131    0.871923   -0.586474
  C     -2.978843    2.118612   -1.259291
  C     -2.135022    1.927339   -2.502958
  H      4.955899   -1.026856   -1.916894
  H      4.573283   -0.357932   -3.515789
  H      4.247044    0.588397   -2.055696
  H      2.827595   -2.005592   -2.858952
  H      2.136936   -0.354056   -2.894391
  H      4.733226    1.397196    1.704846
  H      3.468658    2.302670    0.817098
  H      3.063331    2.337196    3.295193
  H      1.750162    1.549480    2.412993
  H      2.938829    0.567318    3.280511
  H     -0.903988   -2.463113    0.987816
  H      0.355333   -2.808252   -0.247302
  H     -4.910773   -1.631110    1.428562
  H     -4.583463   -1.061853   -0.230506
  H     -3.291672   -3.513037    1.077363
  H     -4.627129   -3.565172   -0.078491
  H     -3.042064   -2.980381   -0.596260
  H     -3.977307    2.484246   -1.504958
  H     -2.493114    2.806688   -0.559497
  H     -2.556063    1.144254   -3.127828
  H     -2.104497    2.857977   -3.060101
  H     -1.116037    1.655618   -2.231931

 Total Charge           Charge          ....    0
 Multiplicity           Mult            ....    1
 Number of Electrons    NEL             ....  202
 Basis Dimension        Dim             ....  334

ORBITAL ENERGIES
----------------

  NO   OCC          E(Eh)            E(eV)
   0   2.0000     -88.041247     -2395.7241
   1   2.0000     -88.033227     -2395.5059
   2   2.0000     -87.979137     -2394.0340
   3   2.0000     -87.974822     -2393.9166
   4   2.0000     -76.422491     -2079.5617
   5   2.0000     -76.421010     -2079.5214
   6   2.0000     -18.792176      -511.3611
   7   2.0000     -18.790636      -511.3192
   8   2.0000     -18.788980      -511.2741
   9   2.0000     -18.785711      -511.1852
  10   2.0000      -9.958133      -270.9746
  11   2.0000      -9.957175      -270.9485
  12   2.0000      -9.949198      -270.7314
  13   2.0000      -9.948737      -270.7189
  14   2.0000      -9.944857      -270.6133
  15   2.0000      -9.890892      -269.1449
  16   2.0000      -9.881281      -268.8833
  17   2.0000      -9.877531      -268.7813
  18   2.0000      -9.875596      -268.7286
  19   2.0000      -7.685557      -209.1346
  20   2.0000      -7.678523      -208.9432
  21   2.0000      -7.623780      -207.4536
  22   2.0000      -7.619827      -207.3460
  23   2.0000      -6.419773      -174.6909
  24   2.0000      -6.418322      -174.6514
  25   2.0000      -5.713366      -155.4686
  26   2.0000      -5.710202      -155.3825
  27   2.0000      -5.706729      -155.2880
  28   2.0000      -5.703130      -155.1901
  29   2.0000      -5.702523      -155.1735
  30   2.0000      -5.694996      -154.9687
  31   2.0000      -5.652561      -153.8140
  32   2.0000      -5.648909      -153.7146
  33   2.0000      -5.644411      -153.5922
  34   2.0000      -5.644090      -153.5835
  35   2.0000      -5.640539      -153.4869
  36   2.0000      -5.639725      -153.4647
  37   2.0000      -4.642967      -126.3416
  38   2.0000      -4.641471      -126.3008
  39   2.0000      -4.640996      -126.2879
  40   2.0000      -4.640150      -126.2649
  41   2.0000      -4.639724      -126.2533
  42   2.0000      -4.638667      -126.2245
  43   2.0000      -0.986564       -26.8458
  44   2.0000      -0.982237       -26.7280
  45   2.0000      -0.943369       -25.6704
  46   2.0000      -0.942864       -25.6566
  47   2.0000      -0.759934       -20.6788
  48   2.0000      -0.717663       -19.5286
  49   2.0000      -0.706910       -19.2360
  50   2.0000      -0.688280       -18.7290
  51   2.0000      -0.681619       -18.5478
  52   2.0000      -0.668164       -18.1817
  53   2.0000      -0.648762       -17.6537
  54   2.0000      -0.632571       -17.2131
  55   2.0000      -0.594723       -16.1832
  56   2.0000      -0.585413       -15.9299
  57   2.0000      -0.579059       -15.7570
  58   2.0000      -0.568381       -15.4664
  59   2.0000      -0.558920       -15.2090
  60   2.0000      -0.499689       -13.5972
  61   2.0000      -0.489155       -13.3106
  62   2.0000      -0.473945       -12.8967
  63   2.0000      -0.469315       -12.7707
  64   2.0000      -0.457766       -12.4564
  65   2.0000      -0.444883       -12.1059
  66   2.0000      -0.437408       -11.9025
  67   2.0000      -0.432249       -11.7621
  68   2.0000      -0.426419       -11.6034
  69   2.0000      -0.411980       -11.2105
  70   2.0000      -0.408875       -11.1261
  71   2.0000      -0.393643       -10.7116
  72   2.0000      -0.390092       -10.6150
  73   2.0000      -0.385224       -10.4825
  74   2.0000      -0.375178       -10.2091
  75   2.0000      -0.371422       -10.1069
  76   2.0000      -0.363290        -9.8856
  77   2.0000      -0.360485        -9.8093
  78   2.0000      -0.355645        -9.6776
  79   2.0000      -0.349686        -9.5154
  80   2.0000      -0.349293        -9.5047
  81   2.0000      -0.343368        -9.3435
  82   2.0000      -0.338809        -9.2195
  83   2.0000      -0.333142        -9.0652
  84   2.0000      -0.326787        -8.8923
  85   2.0000      -0.318883        -8.6772
  86   2.0000      -0.308653        -8.3989
  87   2.0000      -0.301370        -8.2007
  88   2.0000      -0.290111        -7.8943
  89   2.0000      -0.287337        -7.8188
  90   2.0000      -0.278776        -7.5859
  91   2.0000      -0.271743        -7.3945
  92   2.0000      -0.266668        -7.2564
  93   2.0000      -0.257088        -6.9957
  94   2.0000      -0.255902        -6.9634
  95   2.0000      -0.244623        -6.6565
  96   2.0000      -0.218775        -5.9532
  97   2.0000      -0.205781        -5.5996
  98   2.0000      -0.188074        -5.1178
  99   2.0000      -0.182199        -4.9579
 100   2.0000      -0.179128        -4.8743
 101   0.0000      -0.048045        -1.3074
 102   0.0000      -0.023638        -0.6432
 103   0.0000      -0.010499        -0.2857
 104   0.0000       0.000409         0.0111
 105   0.0000       0.022574         0.6143

MULLIKEN ATOMIC CHARGES
-----------------------
   0 C :   -0.302666
   1 C :   -0.004651
   2 O :   -0.374416
   3 P :    0.616932
   4 S :   -0.312773
   5 O :   -0.370938
   6 C :   -0.002411
   7 C :   -0.341486
   8 S :   -0.081679
   9 C :   -0.338932
  10 S :   -0.118295
  11 P :    0.619496
  12 S :   -0.283812
  13 O :   -0.369544
  14 C :   -0.009756
  15 C :   -0.313620
  16 O :   -0.385876
  17 C :   -0.000363
  18 C :   -0.338243
  19 H :    0.116628
  20 H :    0.110134
  21 H :    0.122504
  22 H :    0.099885
  23 H :    0.110635
  24 H :    0.102052
  25 H :    0.109453
  26 H :    0.112882
  27 H :    0.154499
  28 H :    0.118897
  29 H :    0.186388
  30 H :    0.187564
  31 H :    0.111867
  32 H :    0.114771
  33 H :    0.123182
  34 H :    0.113193
  35 H :    0.124625
  36 H :    0.101862
  37 H :    0.113295
  38 H :    0.108847
  39 H :    0.111706
  40 H :    0.158167
Sum of atomic charges:    0.0000000

LOEWDIN ATOMIC CHARGES
----------------------
   0 C :   -0.363851
   1 C :   -0.119240
   2 O :   -0.244094
   3 P :    0.570995
   4 S :   -0.305467
   5 O :   -0.244498
   6 C :   -0.122237
   7 C :   -0.373650
   8 S :    0.091051
   9 C :   -0.473919
  10 S :    0.074150
  11 P :    0.566085
  12 S :   -0.294013
  13 O :   -0.244194
  14 C :   -0.110175
  15 C :   -0.366156
  16 O :   -0.246058
  17 C :   -0.116231
  18 C :   -0.374036
  19 H :    0.126600
  20 H :    0.129464
  21 H :    0.123472
  22 H :    0.115949
  23 H :    0.109863
  24 H :    0.117090
  25 H :    0.108637
  26 H :    0.131725
  27 H :    0.126554
  28 H :    0.123897
  29 H :    0.130342
  30 H :    0.134912
  31 H :    0.122480
  32 H :    0.114674
  33 H :    0.125568
  34 H :    0.131815
  35 H :    0.118764
  36 H :    0.116672
  37 H :    0.112674
  38 H :    0.121838
  39 H :    0.131753
  40 H :    0.120797

  Mayer bond orders larger than 0.100000
B(  0-C ,  1-C ) :   1.1663 B(  0-C , 19-H ) :   0.9462 B(  0-C , 20-H ) :   0.9393
B(  0-C , 21-H ) :   0.9360 B(  1-C ,  2-O ) :   0.9044 B(  1-C , 22-H ) :   0.9343
B(  1-C , 23-H ) :   0.9134 B(  2-O ,  3-P ) :   1.1102 B(  3-P ,  4-S ) :   1.5999
B(  3-P ,  5-O ) :   1.1033 B(  3-P ,  8-S ) :   0.9706 B(  4-S ,  8-S ) :   0.1149
B(  5-O ,  6-C ) :   0.9097 B(  6-C ,  7-C ) :   1.1638 B(  6-C , 24-H ) :   0.9326
B(  6-C , 25-H ) :   0.9127 B(  7-C , 26-H ) :   0.9379 B(  7-C , 27-H ) :   0.9258
B(  7-C , 28-H ) :   0.9435 B(  8-S ,  9-C ) :   0.9956 B(  9-C , 10-S ) :   1.0006
B(  9-C , 29-H ) :   0.8956 B(  9-C , 30-H ) :   0.9065 B( 10-S , 11-P ) :   0.9286
B( 10-S , 12-S ) :   0.1149 B( 11-P , 12-S ) :   1.7047 B( 11-P , 13-O ) :   1.1117
B( 11-P , 16-O ) :   1.0830 B( 13-O , 14-C ) :   0.8998 B( 14-C , 15-C ) :   1.1692
B( 14-C , 31-H ) :   0.9356 B( 14-C , 32-H ) :   0.9177 B( 15-C , 33-H ) :   0.9406
B( 15-C , 34-H ) :   0.9378 B( 15-C , 35-H ) :   0.9312 B( 16-O , 17-C ) :   0.9042
B( 17-C , 18-C ) :   1.1676 B( 17-C , 36-H ) :   0.9343 B( 17-C , 37-H ) :   0.9092
B( 18-C , 38-H ) :   0.9452 B( 18-C , 39-H ) :   0.9385 B( 18-C , 40-H ) :   0.9186

Dispersion correction           -0.068067045
FINAL SINGLE POINT ENERGY     -2929.512228057847

DIPOLE MOMENT
-------------

Method             : SCF
Type of density    : Electron Density
Multiplicity       :   1
Irrep              :   0
Energy             : -2929.6287357782280196 Eh
Relativity type    :
Basis              : AO
                                X                 Y                 Z
Electronic contribution:     -1.768318843       1.153225170       8.690512196
Nuclear contribution   :      1.433183296      -2.119608639      -9.582077240
                        -----------------------------------------
Total Dipole Moment    :     -0.335135547      -0.966383470      -0.891565044
                        -----------------------------------------
Magnitude (a.u.)       :      1.356871796
Magnitude (Debye)      :      3.448894019

Rotational constants in cm-1:             0.011856             0.005355             0.005322
Rotational constants in MHz :           355.435463           160.544746           159.551524

                             ****ORCA TERMINATED NORMALLY****
TOTAL RUN TIME: 0 days 0 hours 0 minutes 21 seconds 561 msec
