                         Program Version 6.0.1  -  RELEASE   -
|  1> ! pbe def2-sv(p) def2/J RI DEFGRID1 loosescf d4 GCP(DFT/SV(P)) printgap
|  2> %output
|  3>     printlevel normal
|  4> end
|  5> * xyz 0 1
|  6> C 5.2256357361 -2.3168927915 -1.4709827011
|  7> C 4.5765056155 -1.0737165502 -0.8834283143
|  8> O 3.1568188606 -1.0620557982 -1.1232741261
|  9> C 2.3805291902 -1.7333778813 -0.2874364259
| 10> O 2.7829241885 -2.3941845507 0.6417041943
| 11> C 0.9162713039 -1.6273581642 -0.6762337297
| 12> C 0.5464750578 -0.1844985072 -0.9993059319
| 13> H 1.1275623476 0.1569893329 -1.8633201436
| 14> C 0.8923385465 0.7395087449 0.1535521451
| 15> O 1.8429446372 0.5400913793 0.8742206338
| 16> O 0.0939343646 1.7865762054 0.2218287841
| 17> C 0.3663338815 2.7841839939 1.2266019764
| 18> C 1.3475620734 3.8178676014 0.7018293055
| 19> S -1.1866658036 -0.0141358994 -1.525812386
| 20> P -2.187126525 0.147397463 0.3423291206
| 21> S -1.2961813962 -0.566761745 1.9390549837
| 22> O -2.6603047016 1.6420821069 0.526650731
| 23> C -3.3952173572 2.3440165079 -0.4985868042
| 24> O -3.587620159 -0.5516971887 0.0068082665
| 25> C -3.6868303101 -1.9648082967 -0.2011067434
| 26> H 4.8522521254 -3.2049138134 -0.9664212391
| 27> H 5.0031722595 -2.3892943399 -2.5319520816
| 28> H 6.3000348303 -2.2584422074 -1.3320861921
| 29> H 4.9394416445 -0.1671958207 -1.3683015361
| 30> H 4.7426012761 -1.0184065417 0.1962682645
| 31> H 0.3252246258 -2.0077697426 0.1593876458
| 32> H 0.7463292498 -2.2517357222 -1.5547200131
| 33> H -0.6081722436 3.221242088 1.446391601
| 34> H 0.757210325 2.2779389649 2.1142051866
| 35> H 0.9696348165 4.2618761356 -0.2148327278
| 36> H 1.4784906269 4.5928697851 1.4495689906
| 37> H 2.310386743 3.3520101299 0.5043837174
| 38> H -3.522882844 3.3531536384 -0.1160035708
| 39> H -4.3592534707 1.8650859365 -0.6560565225
| 40> H -2.8227814257 2.3500428171 -1.4259089459
| 41> H -4.7503325085 -2.1889777094 -0.185367492
| 42> H -3.1744362115 -2.4999843079 0.5999251261
| 43> H -3.252546474 -2.22831955 -1.1652225012
| 44> *
| 45>
| 46>                          ****END OF INPUT****

CARTESIAN COORDINATES (ANGSTROEM)
---------------------------------
  C      5.225636   -2.316893   -1.470983
  C      4.576506   -1.073717   -0.883428
  O      3.156819   -1.062056   -1.123274
  C      2.380529   -1.733378   -0.287436
  O      2.782924   -2.394185    0.641704
  C      0.916271   -1.627358   -0.676234
  C      0.546475   -0.184499   -0.999306
  H      1.127562    0.156989   -1.863320
  C      0.892339    0.739509    0.153552
  O      1.842945    0.540091    0.874221
  O      0.093934    1.786576    0.221829
  C      0.366334    2.784184    1.226602
  C      1.347562    3.817868    0.701829
  S     -1.186666   -0.014136   -1.525812
  P     -2.187127    0.147397    0.342329
  S     -1.296181   -0.566762    1.939055
  O     -2.660305    1.642082    0.526651
  C     -3.395217    2.344017   -0.498587
  O     -3.587620   -0.551697    0.006808
  C     -3.686830   -1.964808   -0.201107
  H      4.852252   -3.204914   -0.966421
  H      5.003172   -2.389294   -2.531952
  H      6.300035   -2.258442   -1.332086
  H      4.939442   -0.167196   -1.368302
  H      4.742601   -1.018407    0.196268
  H      0.325225   -2.007770    0.159388
  H      0.746329   -2.251736   -1.554720
  H     -0.608172    3.221242    1.446392
  H      0.757210    2.277939    2.114205
  H      0.969635    4.261876   -0.214833
  H      1.478491    4.592870    1.449569
  H      2.310387    3.352010    0.504384
  H     -3.522883    3.353154   -0.116004
  H     -4.359253    1.865086   -0.656057
  H     -2.822781    2.350043   -1.425909
  H     -4.750333   -2.188978   -0.185367
  H     -3.174436   -2.499984    0.599925
  H     -3.252546   -2.228320   -1.165223

 Total Charge           Charge          ....    0
 Multiplicity           Mult            ....    1
 Number of Electrons    NEL             ....  174
 Basis Dimension        Dim             ....  316

ORBITAL ENERGIES
----------------

  NO   OCC          E(Eh)            E(eV)
   0   2.0000     -88.044731     -2395.8189
   1   2.0000     -87.987516     -2394.2620
   2   2.0000     -76.430742     -2079.7862
   3   2.0000     -18.811349      -511.8828
   4   2.0000     -18.799470      -511.5596
   5   2.0000     -18.796851      -511.4883
   6   2.0000     -18.791027      -511.3298
   7   2.0000     -18.741515      -509.9826
   8   2.0000     -18.721122      -509.4276
   9   2.0000     -10.020439      -272.6700
  10   2.0000      -9.998403      -272.0704
  11   2.0000      -9.954919      -270.8871
  12   2.0000      -9.951510      -270.7944
  13   2.0000      -9.948160      -270.7032
  14   2.0000      -9.946497      -270.6579
  15   2.0000      -9.939437      -270.4658
  16   2.0000      -9.900845      -269.4157
  17   2.0000      -9.888889      -269.0903
  18   2.0000      -9.879934      -268.8467
  19   2.0000      -7.689605      -209.2448
  20   2.0000      -7.632376      -207.6875
  21   2.0000      -6.427641      -174.9050
  22   2.0000      -5.717474      -155.5804
  23   2.0000      -5.713991      -155.4856
  24   2.0000      -5.706706      -155.2874
  25   2.0000      -5.661578      -154.0594
  26   2.0000      -5.652743      -153.8190
  27   2.0000      -5.652508      -153.8126
  28   2.0000      -4.650426      -126.5445
  29   2.0000      -4.649545      -126.5206
  30   2.0000      -4.647919      -126.4763
  31   2.0000      -1.018470       -27.7140
  32   2.0000      -0.997175       -27.1345
  33   2.0000      -0.992162       -26.9981
  34   2.0000      -0.947704       -25.7883
  35   2.0000      -0.923177       -25.1209
  36   2.0000      -0.900151       -24.4943
  37   2.0000      -0.768126       -20.9018
  38   2.0000      -0.709544       -19.3077
  39   2.0000      -0.703998       -19.1568
  40   2.0000      -0.690902       -18.8004
  41   2.0000      -0.657531       -17.8923
  42   2.0000      -0.641553       -17.4575
  43   2.0000      -0.626821       -17.0567
  44   2.0000      -0.617327       -16.7983
  45   2.0000      -0.590025       -16.0554
  46   2.0000      -0.567878       -15.4528
  47   2.0000      -0.520098       -14.1526
  48   2.0000      -0.502001       -13.6601
  49   2.0000      -0.492714       -13.4074
  50   2.0000      -0.483928       -13.1684
  51   2.0000      -0.480024       -13.0621
  52   2.0000      -0.455943       -12.4069
  53   2.0000      -0.440159       -11.9773
  54   2.0000      -0.439273       -11.9532
  55   2.0000      -0.430512       -11.7148
  56   2.0000      -0.426657       -11.6099
  57   2.0000      -0.419912       -11.4264
  58   2.0000      -0.414029       -11.2663
  59   2.0000      -0.406772       -11.0688
  60   2.0000      -0.405271       -11.0280
  61   2.0000      -0.396622       -10.7926
  62   2.0000      -0.393344       -10.7034
  63   2.0000      -0.379480       -10.3262
  64   2.0000      -0.372451       -10.1349
  65   2.0000      -0.367080        -9.9888
  66   2.0000      -0.355453        -9.6724
  67   2.0000      -0.348669        -9.4878
  68   2.0000      -0.346059        -9.4167
  69   2.0000      -0.337423        -9.1817
  70   2.0000      -0.331041        -9.0081
  71   2.0000      -0.329914        -8.9774
  72   2.0000      -0.316772        -8.6198
  73   2.0000      -0.314566        -8.5598
  74   2.0000      -0.309342        -8.4176
  75   2.0000      -0.303876        -8.2689
  76   2.0000      -0.298842        -8.1319
  77   2.0000      -0.287441        -7.8217
  78   2.0000      -0.276797        -7.5320
  79   2.0000      -0.266795        -7.2599
  80   2.0000      -0.264631        -7.2010
  81   2.0000      -0.247275        -6.7287
  82   2.0000      -0.241505        -6.5717
  83   2.0000      -0.220677        -6.0049
  84   2.0000      -0.207699        -5.6518
  85   2.0000      -0.204793        -5.5727
  86   2.0000      -0.200621        -5.4592
  87   0.0000      -0.042345        -1.1523
  88   0.0000      -0.032356        -0.8805
  89   0.0000      -0.005431        -0.1478
  90   0.0000       0.002355         0.0641
  91   0.0000       0.012882         0.3505

MULLIKEN ATOMIC CHARGES
-----------------------
   0 C :   -0.304766
   1 C :   -0.005372
   2 O :   -0.255533
   3 C :    0.115397
   4 O :   -0.191617
   5 C :   -0.033969
   6 C :   -0.304118
   7 H :    0.159732
   8 C :    0.181046
   9 O :   -0.174700
  10 O :   -0.231254
  11 C :   -0.012351
  12 C :   -0.302423
  13 S :   -0.099652
  14 P :    0.604759
  15 S :   -0.287795
  16 O :   -0.363001
  17 C :   -0.108915
  18 O :   -0.388203
  19 C :   -0.101902
  20 H :    0.129032
  21 H :    0.106724
  22 H :    0.109789
  23 H :    0.094707
  24 H :    0.114481
  25 H :    0.116469
  26 H :    0.109482
  27 H :    0.107158
  28 H :    0.120703
  29 H :    0.110336
  30 H :    0.115836
  31 H :    0.124152
  32 H :    0.130423
  33 H :    0.127758
  34 H :    0.122454
  35 H :    0.126839
  36 H :    0.122182
  37 H :    0.116116
Sum of atomic charges:   -0.0000000

LOEWDIN ATOMIC CHARGES
----------------------
   0 C :   -0.358010
   1 C :   -0.108422
   2 O :   -0.072873
   3 C :    0.029391
   4 O :   -0.158097
   5 C :   -0.249524
   6 C :   -0.269478
   7 H :    0.154057
   8 C :    0.010187
   9 O :   -0.134402
  10 O :   -0.059898
  11 C :   -0.110464
  12 C :   -0.355413
  13 S :    0.093521
  14 P :    0.571947
  15 S :   -0.282598
  16 O :   -0.236017
  17 C :   -0.210970
  18 O :   -0.260036
  19 C :   -0.215928
  20 H :    0.131136
  21 H :    0.121464
  22 H :    0.129065
  23 H :    0.114116
  24 H :    0.123858
  25 H :    0.135628
  26 H :    0.140402
  27 H :    0.117915
  28 H :    0.125105
  29 H :    0.123049
  30 H :    0.132088
  31 H :    0.129241
  32 H :    0.125157
  33 H :    0.117855
  34 H :    0.110718
  35 H :    0.123490
  36 H :    0.113606
  37 H :    0.109137

  Mayer bond orders larger than 0.100000
B(  0-C ,  1-C ) :   1.1727 B(  0-C , 20-H ) :   0.9447 B(  0-C , 21-H ) :   0.9486
B(  0-C , 22-H ) :   0.9447 B(  1-C ,  2-O ) :   0.9205 B(  1-C , 23-H ) :   0.9386
B(  1-C , 24-H ) :   0.9157 B(  2-O ,  3-C ) :   1.1821 B(  3-C ,  4-O ) :   2.0705
B(  3-C ,  5-C ) :   1.0191 B(  5-C ,  6-C ) :   1.0358 B(  5-C , 25-H ) :   0.8841
B(  5-C , 26-H ) :   0.8845 B(  6-C ,  7-H ) :   0.8526 B(  6-C ,  8-C ) :   0.9117
B(  6-C , 13-S ) :   0.9959 B(  8-C ,  9-O ) :   2.0318 B(  8-C , 10-O ) :   1.2361
B( 10-O , 11-C ) :   0.8984 B( 11-C , 12-C ) :   1.1723 B( 11-C , 27-H ) :   0.9309
B( 11-C , 28-H ) :   0.9137 B( 12-C , 29-H ) :   0.9485 B( 12-C , 30-H ) :   0.9453
B( 12-C , 31-H ) :   0.9458 B( 13-S , 14-P ) :   0.9585 B( 13-S , 15-S ) :   0.1150
B( 14-P , 15-S ) :   1.6346 B( 14-P , 16-O ) :   1.1174 B( 14-P , 18-O ) :   1.0703
B( 16-O , 17-C ) :   0.9155 B( 17-C , 32-H ) :   0.9589 B( 17-C , 33-H ) :   0.9476
B( 17-C , 34-H ) :   0.9374 B( 18-O , 19-C ) :   0.9299 B( 19-C , 35-H ) :   0.9584
B( 19-C , 36-H ) :   0.9360 B( 19-C , 37-H ) :   0.9467

Dispersion correction           -0.053073106
FINAL SINGLE POINT ENERGY     -1979.020052832610

DIPOLE MOMENT
-------------

Method             : SCF
Type of density    : Electron Density
Multiplicity       :   1
Irrep              :   0
Energy             : -1979.1501956313836672 Eh
Relativity type    :
Basis              : AO
                                X                 Y                 Z
Electronic contribution:    -13.161093981      -3.623950570       5.106876456
Nuclear contribution   :     12.428198791       4.778195673      -6.783657601
                        -----------------------------------------
Total Dipole Moment    :     -0.732895191       1.154245104      -1.676781145
                        -----------------------------------------
Magnitude (a.u.)       :      2.163564681
Magnitude (Debye)      :      5.499344379

Rotational constants in cm-1:             0.015321             0.006521             0.005487
Rotational constants in MHz :           459.317900           195.494127           164.486241

                             ****ORCA TERMINATED NORMALLY****
TOTAL RUN TIME: 0 days 0 hours 0 minutes 44 seconds 90 msec
