                         Program Version 6.0.0  -   RELEASE  -
|  1> ! pbe def2-sv(p) def2/J RI DEFGRID1 loosescf d4 GCP(DFT/SV(P)) printgap
|  2> %output
|  3>     printlevel normal
|  4> end
|  5> * xyz 0 1
|  6> C 5.7115097713 0.0710623769 0.0179477283
|  7> C 4.7702498908 -0.1769255256 -1.1421353617
|  8> O 3.6202894618 0.7077121549 -1.0854156448
|  9> P 2.2703135093 0.3561656828 -0.3670242805
| 10> S 0.9142391674 1.7332220097 -0.6762174168
| 11> O 2.7291662167 0.1914089049 1.1498742222
| 12> C 1.8284907828 -0.0413401378 2.2477160816
| 13> C 1.8328198639 -1.505178763 2.6447771962
| 14> S 1.7949118157 -1.6003622377 -1.0832857487
| 15> C 0.0143383426 -1.4324897239 -1.2963200556
| 16> S -0.9016365756 -1.5503651484 0.2865492377
| 17> P -2.2013506126 0.0959475518 0.1153273803
| 18> S -2.4969101121 0.8575861932 -1.6714912887
| 19> O -1.5970552804 1.0334854902 1.2423191318
| 20> C -1.8833932124 2.4426796699 1.31446691
| 21> C -3.3507625931 2.7172073369 1.5647647243
| 22> O -3.5276062466 -0.4053341803 0.8389705123
| 23> C -4.6014244265 -1.0490441385 0.1337037738
| 24> C -4.2024984938 -2.4076377895 -0.4061047276
| 25> H 6.0144470297 1.114465307 0.0351268855
| 26> H 5.2249943635 -0.1670389798 0.9593751243
| 27> H 6.5900627585 -0.5553578619 -0.1009258457
| 28> H 4.4175361833 -1.2115537917 -1.1566422671
| 29> H 5.2414331326 0.0656699726 -2.0961297429
| 30> H 2.2069170924 0.5881047092 3.0557438183
| 31> H 0.8239570918 0.2982191338 1.9739535701
| 32> H 1.4411315035 -2.1253297528 1.8417803381
| 33> H 2.8449204095 -1.8235757232 2.8770508878
| 34> H 1.2050153413 -1.6340482589 3.5204162941
| 35> H -0.285388506 -2.2648183597 -1.9276512398
| 36> H -0.2216734533 -0.4732685121 -1.7636433914
| 37> H -1.2577111112 2.7923159443 2.1370763266
| 38> H -1.5464341972 2.9075285073 0.3815352335
| 39> H -3.6876721444 2.1764959948 2.4454522039
| 40> H -3.4952770769 3.7827642435 1.713056257
| 41> H -3.9394706909 2.3972781732 0.7055673424
| 42> H -5.3932193921 -1.1280204961 0.87976879
| 43> H -4.9201352496 -0.3924570094 -0.6823562818
| 44> H -3.4648750476 -2.2882493773 -1.1988673484
| 45> H -3.7753718895 -3.0190690935 0.3847296788
| 46> H -5.0781094581 -2.9024227589 -0.813897023
| 47> *
| 48>
| 49>                          ****END OF INPUT****

CARTESIAN COORDINATES (ANGSTROEM)
---------------------------------
  C      5.711510    0.071062    0.017948
  C      4.770250   -0.176926   -1.142135
  O      3.620289    0.707712   -1.085416
  P      2.270314    0.356166   -0.367024
  S      0.914239    1.733222   -0.676217
  O      2.729166    0.191409    1.149874
  C      1.828491   -0.041340    2.247716
  C      1.832820   -1.505179    2.644777
  S      1.794912   -1.600362   -1.083286
  C      0.014338   -1.432490   -1.296320
  S     -0.901637   -1.550365    0.286549
  P     -2.201351    0.095948    0.115327
  S     -2.496910    0.857586   -1.671491
  O     -1.597055    1.033485    1.242319
  C     -1.883393    2.442680    1.314467
  C     -3.350763    2.717207    1.564765
  O     -3.527606   -0.405334    0.838971
  C     -4.601424   -1.049044    0.133704
  C     -4.202498   -2.407638   -0.406105
  H      6.014447    1.114465    0.035127
  H      5.224994   -0.167039    0.959375
  H      6.590063   -0.555358   -0.100926
  H      4.417536   -1.211554   -1.156642
  H      5.241433    0.065670   -2.096130
  H      2.206917    0.588105    3.055744
  H      0.823957    0.298219    1.973954
  H      1.441132   -2.125330    1.841780
  H      2.844920   -1.823576    2.877051
  H      1.205015   -1.634048    3.520416
  H     -0.285389   -2.264818   -1.927651
  H     -0.221673   -0.473269   -1.763643
  H     -1.257711    2.792316    2.137076
  H     -1.546434    2.907529    0.381535
  H     -3.687672    2.176496    2.445452
  H     -3.495277    3.782764    1.713056
  H     -3.939471    2.397278    0.705567
  H     -5.393219   -1.128020    0.879769
  H     -4.920135   -0.392457   -0.682356
  H     -3.464875   -2.288249   -1.198867
  H     -3.775372   -3.019069    0.384730
  H     -5.078109   -2.902423   -0.813897

 Total Charge           Charge          ....    0
 Multiplicity           Mult            ....    1
 Number of Electrons    NEL             ....  202
 Basis Dimension        Dim             ....  334

ORBITAL ENERGIES
----------------

  NO   OCC          E(Eh)            E(eV)
   0   2.0000     -88.044989     -2395.8260
   1   2.0000     -88.042235     -2395.7510
   2   2.0000     -87.987139     -2394.2518
   3   2.0000     -87.980176     -2394.0623
   4   2.0000     -76.425118     -2079.6332
   5   2.0000     -76.423839     -2079.5984
   6   2.0000     -18.793133      -511.3872
   7   2.0000     -18.789179      -511.2796
   8   2.0000     -18.787406      -511.2313
   9   2.0000     -18.785756      -511.1864
  10   2.0000      -9.960971      -271.0518
  11   2.0000      -9.955507      -270.9031
  12   2.0000      -9.950896      -270.7776
  13   2.0000      -9.946419      -270.6558
  14   2.0000      -9.945834      -270.6399
  15   2.0000      -9.888014      -269.0665
  16   2.0000      -9.883541      -268.9448
  17   2.0000      -9.879732      -268.8412
  18   2.0000      -9.879377      -268.8315
  19   2.0000      -7.689956      -209.2544
  20   2.0000      -7.687159      -209.1782
  21   2.0000      -7.631962      -207.6762
  22   2.0000      -7.625108      -207.4897
  23   2.0000      -6.422446      -174.7636
  24   2.0000      -6.421454      -174.7367
  25   2.0000      -5.717873      -155.5912
  26   2.0000      -5.715005      -155.5132
  27   2.0000      -5.714286      -155.4936
  28   2.0000      -5.711759      -155.4249
  29   2.0000      -5.707090      -155.2978
  30   2.0000      -5.704018      -155.2142
  31   2.0000      -5.660853      -154.0396
  32   2.0000      -5.654142      -153.8570
  33   2.0000      -5.652746      -153.8190
  34   2.0000      -5.652023      -153.7994
  35   2.0000      -5.645644      -153.6258
  36   2.0000      -5.645209      -153.6139
  37   2.0000      -4.644665      -126.3878
  38   2.0000      -4.644164      -126.3741
  39   2.0000      -4.644135      -126.3733
  40   2.0000      -4.643337      -126.3516
  41   2.0000      -4.643256      -126.3494
  42   2.0000      -4.641726      -126.3078
  43   2.0000      -0.986705       -26.8496
  44   2.0000      -0.983822       -26.7712
  45   2.0000      -0.942929       -25.6584
  46   2.0000      -0.941721       -25.6255
  47   2.0000      -0.761551       -20.7229
  48   2.0000      -0.721011       -19.6197
  49   2.0000      -0.709721       -19.3125
  50   2.0000      -0.688535       -18.7360
  51   2.0000      -0.684716       -18.6321
  52   2.0000      -0.674049       -18.3418
  53   2.0000      -0.648678       -17.6514
  54   2.0000      -0.634653       -17.2698
  55   2.0000      -0.601430       -16.3657
  56   2.0000      -0.589342       -16.0368
  57   2.0000      -0.574667       -15.6375
  58   2.0000      -0.569635       -15.5005
  59   2.0000      -0.560238       -15.2448
  60   2.0000      -0.501667       -13.6510
  61   2.0000      -0.489069       -13.3082
  62   2.0000      -0.478602       -13.0234
  63   2.0000      -0.469093       -12.7647
  64   2.0000      -0.449167       -12.2224
  65   2.0000      -0.446125       -12.1397
  66   2.0000      -0.444099       -12.0845
  67   2.0000      -0.437776       -11.9125
  68   2.0000      -0.428658       -11.6644
  69   2.0000      -0.415395       -11.3035
  70   2.0000      -0.405424       -11.0321
  71   2.0000      -0.394390       -10.7319
  72   2.0000      -0.391827       -10.6622
  73   2.0000      -0.388012       -10.5583
  74   2.0000      -0.381573       -10.3831
  75   2.0000      -0.379752       -10.3336
  76   2.0000      -0.364529        -9.9193
  77   2.0000      -0.355538        -9.6747
  78   2.0000      -0.352222        -9.5845
  79   2.0000      -0.349495        -9.5102
  80   2.0000      -0.345896        -9.4123
  81   2.0000      -0.344607        -9.3772
  82   2.0000      -0.339599        -9.2409
  83   2.0000      -0.337476        -9.1832
  84   2.0000      -0.332461        -9.0467
  85   2.0000      -0.317839        -8.6488
  86   2.0000      -0.309977        -8.4349
  87   2.0000      -0.295541        -8.0421
  88   2.0000      -0.292528        -7.9601
  89   2.0000      -0.288742        -7.8571
  90   2.0000      -0.280748        -7.6395
  91   2.0000      -0.277421        -7.5490
  92   2.0000      -0.268777        -7.3138
  93   2.0000      -0.264051        -7.1852
  94   2.0000      -0.258157        -7.0248
  95   2.0000      -0.232994        -6.3401
  96   2.0000      -0.217731        -5.9248
  97   2.0000      -0.214642        -5.8407
  98   2.0000      -0.202504        -5.5104
  99   2.0000      -0.196781        -5.3547
 100   2.0000      -0.188732        -5.1356
 101   0.0000      -0.044359        -1.2071
 102   0.0000      -0.035248        -0.9591
 103   0.0000      -0.013793        -0.3753
 104   0.0000       0.008293         0.2257
 105   0.0000       0.017420         0.4740

MULLIKEN ATOMIC CHARGES
-----------------------
   0 C :   -0.292081
   1 C :   -0.023961
   2 O :   -0.352844
   3 P :    0.605572
   4 S :   -0.299902
   5 O :   -0.380040
   6 C :   -0.026856
   7 C :   -0.295648
   8 S :   -0.139783
   9 C :   -0.332998
  10 S :   -0.108049
  11 P :    0.620484
  12 S :   -0.315973
  13 O :   -0.359114
  14 C :   -0.001526
  15 C :   -0.305663
  16 O :   -0.372852
  17 C :   -0.002761
  18 C :   -0.310600
  19 H :    0.122232
  20 H :    0.125891
  21 H :    0.110083
  22 H :    0.113789
  23 H :    0.115755
  24 H :    0.102477
  25 H :    0.130994
  26 H :    0.126346
  27 H :    0.106279
  28 H :    0.107311
  29 H :    0.181672
  30 H :    0.214855
  31 H :    0.102624
  32 H :    0.122702
  33 H :    0.114553
  34 H :    0.111614
  35 H :    0.122356
  36 H :    0.104035
  37 H :    0.109541
  38 H :    0.118957
  39 H :    0.118579
  40 H :    0.111945
Sum of atomic charges:    0.0000000

LOEWDIN ATOMIC CHARGES
----------------------
   0 C :   -0.360781
   1 C :   -0.111256
   2 O :   -0.232926
   3 P :    0.562772
   4 S :   -0.288042
   5 O :   -0.248403
   6 C :   -0.122135
   7 C :   -0.363422
   8 S :    0.062066
   9 C :   -0.474885
  10 S :    0.088630
  11 P :    0.574796
  12 S :   -0.307052
  13 O :   -0.236476
  14 C :   -0.116300
  15 C :   -0.367024
  16 O :   -0.245718
  17 C :   -0.119700
  18 C :   -0.369287
  19 H :    0.130535
  20 H :    0.126483
  21 H :    0.129653
  22 H :    0.105058
  23 H :    0.124242
  24 H :    0.117316
  25 H :    0.109660
  26 H :    0.112033
  27 H :    0.121003
  28 H :    0.129510
  29 H :    0.135235
  30 H :    0.127002
  31 H :    0.118180
  32 H :    0.111404
  33 H :    0.125191
  34 H :    0.130394
  35 H :    0.121347
  36 H :    0.118180
  37 H :    0.109543
  38 H :    0.118966
  39 H :    0.124108
  40 H :    0.130100

  Mayer bond orders larger than 0.100000
B(  0-C ,  1-C ) :   1.1638 B(  0-C , 19-H ) :   0.9465 B(  0-C , 20-H ) :   0.9387
B(  0-C , 21-H ) :   0.9386 B(  1-C ,  2-O ) :   0.8952 B(  1-C , 22-H ) :   0.9151
B(  1-C , 23-H ) :   0.9358 B(  2-O ,  3-P ) :   1.1508 B(  3-P ,  4-S ) :   1.6715
B(  3-P ,  5-O ) :   1.0825 B(  3-P ,  8-S ) :   0.9214 B(  4-S ,  8-S ) :   0.1092
B(  5-O ,  6-C ) :   0.8959 B(  6-C ,  7-C ) :   1.1688 B(  6-C , 24-H ) :   0.9353
B(  6-C , 25-H ) :   0.8953 B(  7-C , 26-H ) :   0.9301 B(  7-C , 27-H ) :   0.9473
B(  7-C , 28-H ) :   0.9409 B(  8-S ,  9-C ) :   1.0238 B(  9-C , 10-S ) :   0.9845
B(  9-C , 29-H ) :   0.9082 B(  9-C , 30-H ) :   0.8471 B( 10-S , 11-P ) :   0.9614
B( 10-S , 12-S ) :   0.1141 B( 11-P , 12-S ) :   1.5931 B( 11-P , 13-O ) :   1.1277
B( 11-P , 16-O ) :   1.0981 B( 13-O , 14-C ) :   0.9013 B( 14-C , 15-C ) :   1.1622
B( 14-C , 31-H ) :   0.9356 B( 14-C , 32-H ) :   0.9175 B( 15-C , 33-H ) :   0.9445
B( 15-C , 34-H ) :   0.9385 B( 15-C , 35-H ) :   0.9348 B( 16-O , 17-C ) :   0.9140
B( 17-C , 18-C ) :   1.1667 B( 17-C , 36-H ) :   0.9340 B( 17-C , 37-H ) :   0.9155
B( 18-C , 38-H ) :   0.9374 B( 18-C , 39-H ) :   0.9433 B( 18-C , 40-H ) :   0.9379

Dispersion correction           -0.066943008
FINAL SINGLE POINT ENERGY     -2929.518882869010

DIPOLE MOMENT
-------------

Method             : SCF
Type of density    : Electron Density
Multiplicity       :   1
Irrep              :   0
Energy             : -2929.6377489023734597 Eh
Relativity type    :
Basis              : AO
                                X                 Y                 Z
Electronic contribution:      1.267809065       3.064863220     -11.782872812
Nuclear contribution   :     -1.013222452      -3.988702977      12.703904532
                        -----------------------------------------
Total Dipole Moment    :      0.254586613      -0.923839757       0.921031720
                        -----------------------------------------
Magnitude (a.u.)       :      1.329132676
Magnitude (Debye)      :      3.378386777

Rotational constants in cm-1:             0.013902             0.004870             0.004604
Rotational constants in MHz :           416.761765           146.007031           138.025401

                             ****ORCA TERMINATED NORMALLY****
TOTAL RUN TIME: 0 days 0 hours 0 minutes 21 seconds 747 msec
