                         Program Version 6.0.0  -   RELEASE  -
|  1> ! pbe def2-sv(p) def2/J RI DEFGRID1 loosescf d4 GCP(DFT/SV(P)) printgap
|  2> %output
|  3>     printlevel normal
|  4> end
|  5> * xyz 0 1
|  6> C 5.402936038 0.6752031168 -0.4056100301
|  7> C 4.8185437228 -0.6880358606 -0.7092901898
|  8> O 3.5903069126 -0.9215663895 0.0104246877
|  9> P 2.2612674014 -0.1272006418 -0.3110865848
| 10> S 1.9769807278 0.3215482082 -2.2018150775
| 11> O 2.3904958365 1.1093778625 0.6827295984
| 12> C 1.5048827853 2.2402485062 0.6604195017
| 13> C 2.1973797061 3.38725245 1.3672903733
| 14> S 0.9009408057 -1.4363440205 0.6216731439
| 15> C -0.1933879381 -1.845828529 -0.7908277218
| 16> S -1.920946357 -1.9019196647 -0.2951744816
| 17> P -2.1586065822 0.1647167698 0.1765811069
| 18> S -1.4136776751 1.3934273357 -1.1564843969
| 19> O -1.5093331321 0.4213646894 1.5936948973
| 20> C -2.0801574376 0.0532132724 2.8750503301
| 21> C -2.2090481283 -1.4449384613 3.0501591288
| 22> O -3.7076710521 0.3175447388 0.4842054231
| 23> C -4.6870076817 0.57212172 -0.539781149
| 24> C -4.813683939 -0.5771170141 -1.5178853158
| 25> H 4.743698967 1.4524125955 -0.7903131278
| 26> H 5.5125608608 0.8061199129 0.6676356202
| 27> H 6.372873544 0.7664728824 -0.8845175668
| 28> H 5.4716652553 -1.4945835615 -0.3740265351
| 29> H 4.6147894423 -0.7913337687 -1.779844141
| 30> H 1.2700126687 2.4884422141 -0.3808212076
| 31> H 0.5743828274 1.961934197 1.1651459713
| 32> H 3.1054073686 3.6601699627 0.8369598211
| 33> H 1.5284951055 4.2411039053 1.3951934482
| 34> H 2.4539672822 3.0935614095 2.3809343291
| 35> H 0.0539025654 -2.8399013174 -1.1541202708
| 36> H -0.0497598438 -1.09169933 -1.57048181
| 37> H -1.3732291584 0.4785894712 3.5892079408
| 38> H -3.0493434951 0.5460751311 2.968652822
| 39> H -1.2590384052 -1.9318041389 2.8395719929
| 40> H -2.4980919011 -1.6542721812 4.0753598858
| 41> H -2.9664455108 -1.8439988633 2.379500411
| 42> H -5.6097629444 0.7275922896 0.0211514282
| 43> H -4.4079241876 1.492443983 -1.061751108
| 44> H -4.9681881873 -1.5130840037 -0.9873336661
| 45> H -5.6547025246 -0.3924283185 -2.1785794915
| 46> H -3.9079910187 -0.6589846451 -2.1166680605
| 47> *
| 48>
| 49>                          ****END OF INPUT****

CARTESIAN COORDINATES (ANGSTROEM)
---------------------------------
  C      5.402936    0.675203   -0.405610
  C      4.818544   -0.688036   -0.709290
  O      3.590307   -0.921566    0.010425
  P      2.261267   -0.127201   -0.311087
  S      1.976981    0.321548   -2.201815
  O      2.390496    1.109378    0.682730
  C      1.504883    2.240249    0.660420
  C      2.197380    3.387252    1.367290
  S      0.900941   -1.436344    0.621673
  C     -0.193388   -1.845829   -0.790828
  S     -1.920946   -1.901920   -0.295174
  P     -2.158607    0.164717    0.176581
  S     -1.413678    1.393427   -1.156484
  O     -1.509333    0.421365    1.593695
  C     -2.080157    0.053213    2.875050
  C     -2.209048   -1.444938    3.050159
  O     -3.707671    0.317545    0.484205
  C     -4.687008    0.572122   -0.539781
  C     -4.813684   -0.577117   -1.517885
  H      4.743699    1.452413   -0.790313
  H      5.512561    0.806120    0.667636
  H      6.372874    0.766473   -0.884518
  H      5.471665   -1.494584   -0.374027
  H      4.614789   -0.791334   -1.779844
  H      1.270013    2.488442   -0.380821
  H      0.574383    1.961934    1.165146
  H      3.105407    3.660170    0.836960
  H      1.528495    4.241104    1.395193
  H      2.453967    3.093561    2.380934
  H      0.053903   -2.839901   -1.154120
  H     -0.049760   -1.091699   -1.570482
  H     -1.373229    0.478589    3.589208
  H     -3.049343    0.546075    2.968653
  H     -1.259038   -1.931804    2.839572
  H     -2.498092   -1.654272    4.075360
  H     -2.966446   -1.843999    2.379500
  H     -5.609763    0.727592    0.021151
  H     -4.407924    1.492444   -1.061751
  H     -4.968188   -1.513084   -0.987334
  H     -5.654703   -0.392428   -2.178579
  H     -3.907991   -0.658985   -2.116668

 Total Charge           Charge          ....    0
 Multiplicity           Mult            ....    1
 Number of Electrons    NEL             ....  202
 Basis Dimension        Dim             ....  334

ORBITAL ENERGIES
----------------

  NO   OCC          E(Eh)            E(eV)
   0   2.0000     -88.044543     -2395.8138
   1   2.0000     -88.035203     -2395.5597
   2   2.0000     -87.982108     -2394.1149
   3   2.0000     -87.981909     -2394.1095
   4   2.0000     -76.428371     -2079.7217
   5   2.0000     -76.418673     -2079.4578
   6   2.0000     -18.800569      -511.5895
   7   2.0000     -18.792558      -511.3715
   8   2.0000     -18.782822      -511.1066
   9   2.0000     -18.782354      -511.0938
  10   2.0000      -9.958389      -270.9815
  11   2.0000      -9.957952      -270.9696
  12   2.0000      -9.951071      -270.7824
  13   2.0000      -9.946485      -270.6576
  14   2.0000      -9.935261      -270.3522
  15   2.0000      -9.887589      -269.0550
  16   2.0000      -9.887394      -269.0497
  17   2.0000      -9.879283      -268.8290
  18   2.0000      -9.877965      -268.7931
  19   2.0000      -7.689382      -209.2387
  20   2.0000      -7.680487      -208.9967
  21   2.0000      -7.627093      -207.5437
  22   2.0000      -7.626814      -207.5362
  23   2.0000      -6.425454      -174.8455
  24   2.0000      -6.416551      -174.6032
  25   2.0000      -5.717300      -155.5756
  26   2.0000      -5.713811      -155.4807
  27   2.0000      -5.708424      -155.3341
  28   2.0000      -5.706433      -155.2799
  29   2.0000      -5.705124      -155.2443
  30   2.0000      -5.697189      -155.0284
  31   2.0000      -5.656056      -153.9091
  32   2.0000      -5.655607      -153.8969
  33   2.0000      -5.647773      -153.6837
  34   2.0000      -5.647650      -153.6804
  35   2.0000      -5.647125      -153.6661
  36   2.0000      -5.646884      -153.6595
  37   2.0000      -4.648580      -126.4943
  38   2.0000      -4.647042      -126.4524
  39   2.0000      -4.645614      -126.4136
  40   2.0000      -4.638778      -126.2276
  41   2.0000      -4.638217      -126.2123
  42   2.0000      -4.637378      -126.1895
  43   2.0000      -0.992117       -26.9969
  44   2.0000      -0.978350       -26.6223
  45   2.0000      -0.947773       -25.7902
  46   2.0000      -0.936495       -25.4833
  47   2.0000      -0.760243       -20.6873
  48   2.0000      -0.720275       -19.5997
  49   2.0000      -0.708234       -19.2720
  50   2.0000      -0.694079       -18.8869
  51   2.0000      -0.680515       -18.5178
  52   2.0000      -0.672635       -18.3033
  53   2.0000      -0.648920       -17.6580
  54   2.0000      -0.630476       -17.1561
  55   2.0000      -0.600191       -16.3320
  56   2.0000      -0.590400       -16.0656
  57   2.0000      -0.582192       -15.8422
  58   2.0000      -0.557143       -15.1606
  59   2.0000      -0.555903       -15.1269
  60   2.0000      -0.499962       -13.6047
  61   2.0000      -0.493033       -13.4161
  62   2.0000      -0.473152       -12.8751
  63   2.0000      -0.469494       -12.7756
  64   2.0000      -0.453308       -12.3351
  65   2.0000      -0.446050       -12.1376
  66   2.0000      -0.443835       -12.0774
  67   2.0000      -0.430304       -11.7092
  68   2.0000      -0.422458       -11.4957
  69   2.0000      -0.418433       -11.3862
  70   2.0000      -0.408813       -11.1244
  71   2.0000      -0.401298       -10.9199
  72   2.0000      -0.391688       -10.6584
  73   2.0000      -0.380583       -10.3562
  74   2.0000      -0.378820       -10.3082
  75   2.0000      -0.369080       -10.0432
  76   2.0000      -0.366852        -9.9826
  77   2.0000      -0.358182        -9.7466
  78   2.0000      -0.353258        -9.6126
  79   2.0000      -0.348848        -9.4926
  80   2.0000      -0.345844        -9.4109
  81   2.0000      -0.341939        -9.3046
  82   2.0000      -0.338326        -9.2063
  83   2.0000      -0.335782        -9.1371
  84   2.0000      -0.330288        -8.9876
  85   2.0000      -0.320821        -8.7300
  86   2.0000      -0.307783        -8.3752
  87   2.0000      -0.298534        -8.1235
  88   2.0000      -0.296113        -8.0577
  89   2.0000      -0.288749        -7.8573
  90   2.0000      -0.278467        -7.5775
  91   2.0000      -0.275118        -7.4863
  92   2.0000      -0.268071        -7.2946
  93   2.0000      -0.262950        -7.1552
  94   2.0000      -0.252481        -6.8704
  95   2.0000      -0.231139        -6.2896
  96   2.0000      -0.217390        -5.9155
  97   2.0000      -0.210895        -5.7388
  98   2.0000      -0.200371        -5.4524
  99   2.0000      -0.193546        -5.2666
 100   2.0000      -0.187800        -5.1103
 101   0.0000      -0.042104        -1.1457
 102   0.0000      -0.031911        -0.8683
 103   0.0000      -0.009372        -0.2550
 104   0.0000       0.010734         0.2921
 105   0.0000       0.020428         0.5559

MULLIKEN ATOMIC CHARGES
-----------------------
   0 C :   -0.308735
   1 C :   -0.001848
   2 O :   -0.370512
   3 P :    0.626659
   4 S :   -0.320866
   5 O :   -0.377640
   6 C :   -0.037074
   7 C :   -0.277020
   8 S :   -0.107148
   9 C :   -0.354627
  10 S :   -0.108281
  11 P :    0.607753
  12 S :   -0.303427
  13 O :   -0.353891
  14 C :    0.007516
  15 C :   -0.321663
  16 O :   -0.384875
  17 C :    0.001487
  18 C :   -0.323655
  19 H :    0.125379
  20 H :    0.116707
  21 H :    0.109470
  22 H :    0.103466
  23 H :    0.109223
  24 H :    0.118854
  25 H :    0.119909
  26 H :    0.112833
  27 H :    0.111002
  28 H :    0.108903
  29 H :    0.182807
  30 H :    0.215584
  31 H :    0.108610
  32 H :    0.109071
  33 H :    0.131475
  34 H :    0.112603
  35 H :    0.122528
  36 H :    0.105140
  37 H :    0.114387
  38 H :    0.117802
  39 H :    0.116762
  40 H :    0.135333
Sum of atomic charges:   -0.0000000

LOEWDIN ATOMIC CHARGES
----------------------
   0 C :   -0.365201
   1 C :   -0.116053
   2 O :   -0.246344
   3 P :    0.568426
   4 S :   -0.303256
   5 O :   -0.245735
   6 C :   -0.127623
   7 C :   -0.351208
   8 S :    0.072631
   9 C :   -0.478766
  10 S :    0.085408
  11 P :    0.568503
  12 S :   -0.295927
  13 O :   -0.235561
  14 C :   -0.107793
  15 C :   -0.370761
  16 O :   -0.247584
  17 C :   -0.115217
  18 C :   -0.371972
  19 H :    0.122792
  20 H :    0.126269
  21 H :    0.129089
  22 H :    0.118101
  23 H :    0.109916
  24 H :    0.107574
  25 H :    0.110258
  26 H :    0.123910
  27 H :    0.130342
  28 H :    0.123274
  29 H :    0.135652
  30 H :    0.124060
  31 H :    0.121632
  32 H :    0.113978
  33 H :    0.125265
  34 H :    0.130656
  35 H :    0.117297
  36 H :    0.118732
  37 H :    0.114639
  38 H :    0.123082
  39 H :    0.133203
  40 H :    0.124314

  Mayer bond orders larger than 0.100000
B(  0-C ,  1-C ) :   1.1633 B(  0-C , 19-H ) :   0.9361 B(  0-C , 20-H ) :   0.9461
B(  0-C , 21-H ) :   0.9382 B(  1-C ,  2-O ) :   0.9127 B(  1-C , 22-H ) :   0.9354
B(  1-C , 23-H ) :   0.9167 B(  2-O ,  3-P ) :   1.1303 B(  3-P ,  4-S ) :   1.6140
B(  3-P ,  5-O ) :   1.1118 B(  3-P ,  8-S ) :   0.9596 B(  4-S ,  8-S ) :   0.1178
B(  5-O ,  6-C ) :   0.8983 B(  6-C ,  7-C ) :   1.1529 B(  6-C , 24-H ) :   0.9112
B(  6-C , 25-H ) :   0.9189 B(  7-C , 26-H ) :   0.9510 B(  7-C , 27-H ) :   0.9432
B(  7-C , 28-H ) :   0.9500 B(  8-S ,  9-C ) :   0.9949 B(  9-C , 10-S ) :   1.0114
B(  9-C , 29-H ) :   0.9101 B(  9-C , 30-H ) :   0.8438 B( 10-S , 11-P ) :   0.9347
B( 10-S , 12-S ) :   0.1078 B( 11-P , 12-S ) :   1.6545 B( 11-P , 13-O ) :   1.1169
B( 11-P , 16-O ) :   1.0801 B( 13-O , 14-C ) :   0.8976 B( 14-C , 15-C ) :   1.1712
B( 14-C , 31-H ) :   0.9339 B( 14-C , 32-H ) :   0.9279 B( 15-C , 33-H ) :   0.9390
B( 15-C , 34-H ) :   0.9350 B( 15-C , 35-H ) :   0.9397 B( 16-O , 17-C ) :   0.9015
B( 17-C , 18-C ) :   1.1673 B( 17-C , 36-H ) :   0.9343 B( 17-C , 37-H ) :   0.9180
B( 18-C , 38-H ) :   0.9435 B( 18-C , 39-H ) :   0.9364 B( 18-C , 40-H ) :   0.9330

Dispersion correction           -0.065991203
FINAL SINGLE POINT ENERGY     -2929.518246029776

DIPOLE MOMENT
-------------

Method             : SCF
Type of density    : Electron Density
Multiplicity       :   1
Irrep              :   0
Energy             : -2929.6373689899141937 Eh
Relativity type    :
Basis              : AO
                                X                 Y                 Z
Electronic contribution:     -0.611971476      -7.278434719      -7.632659720
Nuclear contribution   :     -0.107275731       7.066135242       8.730860266
                        -----------------------------------------
Total Dipole Moment    :     -0.719247207      -0.212299477       1.098200546
                        -----------------------------------------
Magnitude (a.u.)       :      1.329824068
Magnitude (Debye)      :      3.380144156

Rotational constants in cm-1:             0.013397             0.004794             0.004737
Rotational constants in MHz :           401.637500           143.718435           142.004369

                             ****ORCA TERMINATED NORMALLY****
TOTAL RUN TIME: 0 days 0 hours 0 minutes 21 seconds 3 msec
