                         Program Version 6.0.0  -   RELEASE  -
|  1> ! pbe def2-sv(p) def2/J RI DEFGRID1 loosescf d4 GCP(DFT/SV(P)) printgap
|  2> %output
|  3>     printlevel normal
|  4> end
|  5> * xyz 0 1
|  6> C 2.9511572802 -2.4148667895 2.2824744215
|  7> C 1.6165971349 -2.2253721077 1.5932787294
|  8> O 1.3973106903 -0.8489048932 1.2199512289
|  9> P 2.2571961107 -0.1329711658 0.0960175079
| 10> S 2.890529432 -1.2758429882 -1.3713123369
| 11> O 3.3955134014 0.5615406017 0.9581552209
| 12> C 4.599050497 1.0846374828 0.37097398
| 13> C 4.3311979571 2.299284925 -0.4942531858
| 14> S 0.9378916737 1.4397790992 -0.4068585158
| 15> C 0.0212259397 0.5230102579 -1.676369771
| 16> S -0.9564687336 -0.8384957201 -1.0046030069
| 17> P -2.6663903394 0.2814572293 -0.3626869657
| 18> S -2.8598661972 2.060460212 -1.1557090521
| 19> O -2.6771496083 0.1886023893 1.2270213238
| 20> C -1.6677401453 0.6789943642 2.1233071224
| 21> C -1.6287520582 2.1926505463 2.1900743483
| 22> O -3.9099803051 -0.6034456989 -0.7358991729
| 23> C -3.9967285694 -2.0498462836 -0.7201196753
| 24> C -3.5693513703 -2.6611912459 0.59632878
| 25> H 3.0403053743 -1.7323085566 3.1234895955
| 26> H 3.0327531529 -3.4383606836 2.6346721878
| 27> H 3.7609221589 -2.2170799137 1.5810704847
| 28> H 0.7818520422 -2.4534463609 2.2573362319
| 29> H 1.5524364106 -2.8414304487 0.6907299292
| 30> H 5.2241206407 1.3318706129 1.2299996874
| 31> H 5.0702665189 0.2909601892 -0.2179167425
| 32> H 3.7672070149 3.0436941795 0.0622912054
| 33> H 5.2750885057 2.7275225311 -0.8161712221
| 34> H 3.756931222 2.0117725506 -1.3742810403
| 35> H 0.7247975955 0.083286982 -2.3825701374
| 36> H -0.6428231928 1.2413892182 -2.1593131504
| 37> H -1.9532704074 0.2515934317 3.0867424659
| 38> H -0.6949746194 0.2785379179 1.8216702828
| 39> H -2.6165551835 2.5835162534 2.4205460267
| 40> H -0.9304930023 2.4969218502 2.9632126258
| 41> H -1.3035039816 2.6114928372 1.2396198917
| 42> H -5.0520848904 -2.2348979826 -0.9262966704
| 43> H -3.3858786212 -2.4311934946 -1.5423418652
| 44> H -3.7650680384 -3.7287681368 0.5686262725
| 45> H -2.5043432657 -2.5029013691 0.7560734173
| 46> H -4.1233839988 -2.213682513 1.4171812209
| 47> *
| 48>
| 49>                          ****END OF INPUT****

CARTESIAN COORDINATES (ANGSTROEM)
---------------------------------
  C      2.951157   -2.414867    2.282474
  C      1.616597   -2.225372    1.593279
  O      1.397311   -0.848905    1.219951
  P      2.257196   -0.132971    0.096018
  S      2.890529   -1.275843   -1.371312
  O      3.395513    0.561541    0.958155
  C      4.599050    1.084637    0.370974
  C      4.331198    2.299285   -0.494253
  S      0.937892    1.439779   -0.406859
  C      0.021226    0.523010   -1.676370
  S     -0.956469   -0.838496   -1.004603
  P     -2.666390    0.281457   -0.362687
  S     -2.859866    2.060460   -1.155709
  O     -2.677150    0.188602    1.227021
  C     -1.667740    0.678994    2.123307
  C     -1.628752    2.192651    2.190074
  O     -3.909980   -0.603446   -0.735899
  C     -3.996729   -2.049846   -0.720120
  C     -3.569351   -2.661191    0.596329
  H      3.040305   -1.732309    3.123490
  H      3.032753   -3.438361    2.634672
  H      3.760922   -2.217080    1.581070
  H      0.781852   -2.453446    2.257336
  H      1.552436   -2.841430    0.690730
  H      5.224121    1.331871    1.230000
  H      5.070267    0.290960   -0.217917
  H      3.767207    3.043694    0.062291
  H      5.275089    2.727523   -0.816171
  H      3.756931    2.011773   -1.374281
  H      0.724798    0.083287   -2.382570
  H     -0.642823    1.241389   -2.159313
  H     -1.953270    0.251593    3.086742
  H     -0.694975    0.278538    1.821670
  H     -2.616555    2.583516    2.420546
  H     -0.930493    2.496922    2.963213
  H     -1.303504    2.611493    1.239620
  H     -5.052085   -2.234898   -0.926297
  H     -3.385879   -2.431193   -1.542342
  H     -3.765068   -3.728768    0.568626
  H     -2.504343   -2.502901    0.756073
  H     -4.123384   -2.213683    1.417181

 Total Charge           Charge          ....    0
 Multiplicity           Mult            ....    1
 Number of Electrons    NEL             ....  202
 Basis Dimension        Dim             ....  334

ORBITAL ENERGIES
----------------

  NO   OCC          E(Eh)            E(eV)
   0   2.0000     -88.047448     -2395.8929
   1   2.0000     -88.043638     -2395.7892
   2   2.0000     -87.996873     -2394.5166
   3   2.0000     -87.981854     -2394.1080
   4   2.0000     -76.433065     -2079.8494
   5   2.0000     -76.425145     -2079.6339
   6   2.0000     -18.800437      -511.5859
   7   2.0000     -18.797213      -511.4982
   8   2.0000     -18.790666      -511.3200
   9   2.0000     -18.787110      -511.2233
  10   2.0000      -9.959378      -271.0085
  11   2.0000      -9.958513      -270.9849
  12   2.0000      -9.957354      -270.9534
  13   2.0000      -9.953938      -270.8604
  14   2.0000      -9.946204      -270.6500
  15   2.0000      -9.891924      -269.1729
  16   2.0000      -9.889469      -269.1061
  17   2.0000      -9.888486      -269.0794
  18   2.0000      -9.872592      -268.6469
  19   2.0000      -7.692263      -209.3171
  20   2.0000      -7.688239      -209.2076
  21   2.0000      -7.641693      -207.9410
  22   2.0000      -7.627077      -207.5433
  23   2.0000      -6.430693      -174.9881
  24   2.0000      -6.422279      -174.7591
  25   2.0000      -5.720048      -155.6504
  26   2.0000      -5.716927      -155.5655
  27   2.0000      -5.716055      -155.5418
  28   2.0000      -5.712690      -155.4502
  29   2.0000      -5.709185      -155.3548
  30   2.0000      -5.705434      -155.2528
  31   2.0000      -5.670451      -154.3008
  32   2.0000      -5.662367      -154.0808
  33   2.0000      -5.662013      -154.0712
  34   2.0000      -5.656132      -153.9112
  35   2.0000      -5.647776      -153.6838
  36   2.0000      -5.646959      -153.6616
  37   2.0000      -4.653094      -126.6171
  38   2.0000      -4.652450      -126.5996
  39   2.0000      -4.651287      -126.5680
  40   2.0000      -4.644978      -126.3963
  41   2.0000      -4.644266      -126.3769
  42   2.0000      -4.642488      -126.3285
  43   2.0000      -0.994225       -27.0542
  44   2.0000      -0.984156       -26.7802
  45   2.0000      -0.953360       -25.9422
  46   2.0000      -0.941422       -25.6174
  47   2.0000      -0.766458       -20.8564
  48   2.0000      -0.724045       -19.7023
  49   2.0000      -0.713211       -19.4075
  50   2.0000      -0.692837       -18.8531
  51   2.0000      -0.688035       -18.7224
  52   2.0000      -0.677230       -18.4284
  53   2.0000      -0.653828       -17.7916
  54   2.0000      -0.640688       -17.4340
  55   2.0000      -0.607095       -16.5199
  56   2.0000      -0.592542       -16.1239
  57   2.0000      -0.578346       -15.7376
  58   2.0000      -0.573105       -15.5950
  59   2.0000      -0.565090       -15.3769
  60   2.0000      -0.501511       -13.6468
  61   2.0000      -0.491531       -13.3752
  62   2.0000      -0.479213       -13.0401
  63   2.0000      -0.471587       -12.8325
  64   2.0000      -0.461866       -12.5680
  65   2.0000      -0.447286       -12.1713
  66   2.0000      -0.445921       -12.1341
  67   2.0000      -0.439039       -11.9469
  68   2.0000      -0.430037       -11.7019
  69   2.0000      -0.419794       -11.4232
  70   2.0000      -0.403105       -10.9690
  71   2.0000      -0.400875       -10.9084
  72   2.0000      -0.398052       -10.8316
  73   2.0000      -0.396432       -10.7875
  74   2.0000      -0.391217       -10.6456
  75   2.0000      -0.378087       -10.2883
  76   2.0000      -0.366120        -9.9626
  77   2.0000      -0.359272        -9.7763
  78   2.0000      -0.356435        -9.6991
  79   2.0000      -0.353863        -9.6291
  80   2.0000      -0.352028        -9.5792
  81   2.0000      -0.349120        -9.5001
  82   2.0000      -0.342927        -9.3315
  83   2.0000      -0.339653        -9.2424
  84   2.0000      -0.330717        -8.9993
  85   2.0000      -0.323978        -8.8159
  86   2.0000      -0.314218        -8.5503
  87   2.0000      -0.301396        -8.2014
  88   2.0000      -0.293684        -7.9915
  89   2.0000      -0.287582        -7.8255
  90   2.0000      -0.285291        -7.7632
  91   2.0000      -0.279444        -7.6041
  92   2.0000      -0.274749        -7.4763
  93   2.0000      -0.270085        -7.3494
  94   2.0000      -0.257891        -7.0176
  95   2.0000      -0.238244        -6.4830
  96   2.0000      -0.220074        -5.9885
  97   2.0000      -0.217923        -5.9300
  98   2.0000      -0.210440        -5.7264
  99   2.0000      -0.202340        -5.5059
 100   2.0000      -0.194482        -5.2921
 101   0.0000      -0.048590        -1.3222
 102   0.0000      -0.029803        -0.8110
 103   0.0000      -0.005929        -0.1613
 104   0.0000      -0.000103        -0.0028
 105   0.0000       0.008092         0.2202

MULLIKEN ATOMIC CHARGES
-----------------------
   0 C :   -0.308205
   1 C :   -0.001603
   2 O :   -0.356457
   3 P :    0.611854
   4 S :   -0.331855
   5 O :   -0.369606
   6 C :   -0.006574
   7 C :   -0.317050
   8 S :   -0.073735
   9 C :   -0.352974
  10 S :   -0.120511
  11 P :    0.607339
  12 S :   -0.311162
  13 O :   -0.372143
  14 C :   -0.040873
  15 C :   -0.302351
  16 O :   -0.360330
  17 C :   -0.003266
  18 C :   -0.318411
  19 H :    0.117617
  20 H :    0.114005
  21 H :    0.123687
  22 H :    0.104896
  23 H :    0.113843
  24 H :    0.107776
  25 H :    0.112431
  26 H :    0.120925
  27 H :    0.115881
  28 H :    0.128543
  29 H :    0.193381
  30 H :    0.196017
  31 H :    0.097131
  32 H :    0.136373
  33 H :    0.113773
  34 H :    0.102866
  35 H :    0.132792
  36 H :    0.114190
  37 H :    0.115196
  38 H :    0.115411
  39 H :    0.123627
  40 H :    0.127554
Sum of atomic charges:    0.0000000

LOEWDIN ATOMIC CHARGES
----------------------
   0 C :   -0.365094
   1 C :   -0.117042
   2 O :   -0.236464
   3 P :    0.573634
   4 S :   -0.319954
   5 O :   -0.241787
   6 C :   -0.118893
   7 C :   -0.369247
   8 S :    0.107239
   9 C :   -0.486039
  10 S :    0.067645
  11 P :    0.568391
  12 S :   -0.301425
  13 O :   -0.242474
  14 C :   -0.124682
  15 C :   -0.368012
  16 O :   -0.234850
  17 C :   -0.111309
  18 C :   -0.367824
  19 H :    0.126908
  20 H :    0.131394
  21 H :    0.122707
  22 H :    0.117616
  23 H :    0.111543
  24 H :    0.119969
  25 H :    0.111154
  26 H :    0.125842
  27 H :    0.132582
  28 H :    0.122020
  29 H :    0.130046
  30 H :    0.129220
  31 H :    0.115494
  32 H :    0.105937
  33 H :    0.125611
  34 H :    0.127099
  35 H :    0.115760
  36 H :    0.124661
  37 H :    0.112272
  38 H :    0.132109
  39 H :    0.117100
  40 H :    0.131146

  Mayer bond orders larger than 0.100000
B(  0-C ,  1-C ) :   1.1645 B(  0-C , 19-H ) :   0.9455 B(  0-C , 20-H ) :   0.9388
B(  0-C , 21-H ) :   0.9360 B(  1-C ,  2-O ) :   0.9008 B(  1-C , 22-H ) :   0.9333
B(  1-C , 23-H ) :   0.9177 B(  2-O ,  3-P ) :   1.1154 B(  3-P ,  4-S ) :   1.5894
B(  3-P ,  5-O ) :   1.1141 B(  3-P ,  8-S ) :   0.9630 B(  4-S ,  8-S ) :   0.1082
B(  5-O ,  6-C ) :   0.9054 B(  6-C ,  7-C ) :   1.1664 B(  6-C , 24-H ) :   0.9336
B(  6-C , 25-H ) :   0.9166 B(  7-C , 26-H ) :   0.9444 B(  7-C , 27-H ) :   0.9375
B(  7-C , 28-H ) :   0.9356 B(  8-S ,  9-C ) :   1.0003 B(  9-C , 10-S ) :   1.0169
B(  9-C , 29-H ) :   0.8768 B(  9-C , 30-H ) :   0.8612 B( 10-S , 11-P ) :   0.9249
B( 10-S , 12-S ) :   0.1111 B( 11-P , 12-S ) :   1.6436 B( 11-P , 13-O ) :   1.0925
B( 11-P , 16-O ) :   1.1472 B( 13-O , 14-C ) :   0.9093 B( 14-C , 15-C ) :   1.1677
B( 14-C , 31-H ) :   0.9345 B( 14-C , 32-H ) :   0.8988 B( 15-C , 33-H ) :   0.9452
B( 15-C , 34-H ) :   0.9379 B( 15-C , 35-H ) :   0.9284 B( 16-O , 17-C ) :   0.9048
B( 17-C , 18-C ) :   1.1674 B( 17-C , 36-H ) :   0.9347 B( 17-C , 37-H ) :   0.9244
B( 18-C , 38-H ) :   0.9346 B( 18-C , 39-H ) :   0.9389 B( 18-C , 40-H ) :   0.9417

Dispersion correction           -0.066339496
FINAL SINGLE POINT ENERGY     -2929.522135246232

DIPOLE MOMENT
-------------

Method             : SCF
Type of density    : Electron Density
Multiplicity       :   1
Irrep              :   0
Energy             : -2929.6416118195734271 Eh
Relativity type    :
Basis              : AO
                                X                 Y                 Z
Electronic contribution:     -7.937897416       5.559360909     -14.555896707
Nuclear contribution   :      8.795656777      -6.601703555      15.810073706
                        -----------------------------------------
Total Dipole Moment    :      0.857759361      -1.042342647       1.254176999
                        -----------------------------------------
Magnitude (a.u.)       :      1.842603935
Magnitude (Debye)      :      4.683526996

Rotational constants in cm-1:             0.012365             0.005070             0.004606
Rotational constants in MHz :           370.686365           152.002783           138.079786

                             ****ORCA TERMINATED NORMALLY****
TOTAL RUN TIME: 0 days 0 hours 0 minutes 21 seconds 777 msec
