                         Program Version 6.0.0  -   RELEASE  -
|  1> ! pbe def2-sv(p) def2/J RI DEFGRID1 loosescf d4 GCP(DFT/SV(P)) printgap
|  2> %output
|  3>     printlevel normal
|  4> end
|  5> * xyz 0 1
|  6> C 4.5203428011 -1.7942860266 -1.7952271184
|  7> C 4.5156430906 -0.5721654185 -0.8990755731
|  8> O 3.4346601728 0.3193638788 -1.2817571185
|  9> P 2.1551249063 0.5623027739 -0.3962768567
| 10> S 0.962469169 1.8207679489 -1.299967735
| 11> O 2.8045667309 1.0217110753 0.9748760889
| 12> C 2.0635366433 1.5188356329 2.1054022755
| 13> C 3.0477113384 2.2054599065 3.0292837229
| 14> S 1.3720951241 -1.3719859955 0.034680547
| 15> C 0.1887924303 -1.4868203522 -1.3470645133
| 16> S -1.448494084 -2.0577496116 -0.8308227913
| 17> P -2.1935558255 -0.2997389458 0.0661062038
| 18> S -1.1626024138 0.5966306324 1.4808136912
| 19> O -3.673723777 -0.7165305292 0.4610333761
| 20> C -4.044850529 -1.8931242288 1.2042133657
| 21> C -3.2187071467 -2.0876817042 2.4584428104
| 22> O -2.4360093604 0.5900664195 -1.222579021
| 23> C -2.6158760022 2.0160430869 -1.1614845931
| 24> C -3.9264565174 2.3789770871 -0.4977116157
| 25> H 3.6355628393 -2.400490756 -1.6174875091
| 26> H 4.5380471726 -1.4895166963 -2.8378816267
| 27> H 5.4037741527 -2.3868465187 -1.580020577
| 28> H 5.4231938048 0.0195539621 -1.0259764442
| 29> H 4.3998142344 -0.8470344895 0.1511453613
| 30> H 1.2929467488 2.2090802688 1.7486956592
| 31> H 1.5681993122 0.6764953402 2.5951849177
| 32> H 2.5131030821 2.583752333 3.8940974228
| 33> H 3.8066513113 1.499792524 3.3538485529
| 34> H 3.529010553 3.0315431249 2.5132599146
| 35> H 0.5469583531 -2.2315457038 -2.0528728351
| 36> H 0.1029801465 -0.5015556705 -1.8128876377
| 37> H -5.0970931468 -1.7251377391 1.4408639573
| 38> H -3.9464222366 -2.7550054415 0.5384493269
| 39> H -3.5940504477 -2.9453112571 3.0073363736
| 40> H -2.1754175828 -2.2633657191 2.1968446463
| 41> H -3.2710561436 -1.2037472133 3.0900383137
| 42> H -1.7669343574 2.454101206 -0.6260063533
| 43> H -2.5794651875 2.3300062315 -2.2054292859
| 44> H -3.912950658 2.0493960927 0.5408912013
| 45> H -4.060185303 3.4556291247 -0.5281199428
| 46> H -4.7526531624 1.8926307417 -1.0093910436
| 47> *
| 48>
| 49>                          ****END OF INPUT****

CARTESIAN COORDINATES (ANGSTROEM)
---------------------------------
  C      4.520343   -1.794286   -1.795227
  C      4.515643   -0.572165   -0.899076
  O      3.434660    0.319364   -1.281757
  P      2.155125    0.562303   -0.396277
  S      0.962469    1.820768   -1.299968
  O      2.804567    1.021711    0.974876
  C      2.063537    1.518836    2.105402
  C      3.047711    2.205460    3.029284
  S      1.372095   -1.371986    0.034681
  C      0.188792   -1.486820   -1.347065
  S     -1.448494   -2.057750   -0.830823
  P     -2.193556   -0.299739    0.066106
  S     -1.162602    0.596631    1.480814
  O     -3.673724   -0.716531    0.461033
  C     -4.044851   -1.893124    1.204213
  C     -3.218707   -2.087682    2.458443
  O     -2.436009    0.590066   -1.222579
  C     -2.615876    2.016043   -1.161485
  C     -3.926457    2.378977   -0.497712
  H      3.635563   -2.400491   -1.617488
  H      4.538047   -1.489517   -2.837882
  H      5.403774   -2.386847   -1.580021
  H      5.423194    0.019554   -1.025976
  H      4.399814   -0.847034    0.151145
  H      1.292947    2.209080    1.748696
  H      1.568199    0.676495    2.595185
  H      2.513103    2.583752    3.894097
  H      3.806651    1.499793    3.353849
  H      3.529011    3.031543    2.513260
  H      0.546958   -2.231546   -2.052873
  H      0.102980   -0.501556   -1.812888
  H     -5.097093   -1.725138    1.440864
  H     -3.946422   -2.755005    0.538449
  H     -3.594050   -2.945311    3.007336
  H     -2.175418   -2.263366    2.196845
  H     -3.271056   -1.203747    3.090038
  H     -1.766934    2.454101   -0.626006
  H     -2.579465    2.330006   -2.205429
  H     -3.912951    2.049396    0.540891
  H     -4.060185    3.455629   -0.528120
  H     -4.752653    1.892631   -1.009391

 Total Charge           Charge          ....    0
 Multiplicity           Mult            ....    1
 Number of Electrons    NEL             ....  202
 Basis Dimension        Dim             ....  334

ORBITAL ENERGIES
----------------

  NO   OCC          E(Eh)            E(eV)
   0   2.0000     -88.044268     -2395.8063
   1   2.0000     -88.038848     -2395.6588
   2   2.0000     -87.980770     -2394.0785
   3   2.0000     -87.978070     -2394.0050
   4   2.0000     -76.423004     -2079.5757
   5   2.0000     -76.422340     -2079.5576
   6   2.0000     -18.792330      -511.3653
   7   2.0000     -18.788884      -511.2715
   8   2.0000     -18.785725      -511.1856
   9   2.0000     -18.781210      -511.0627
  10   2.0000      -9.957830      -270.9663
  11   2.0000      -9.956039      -270.9176
  12   2.0000      -9.955154      -270.8935
  13   2.0000      -9.947113      -270.6747
  14   2.0000      -9.938568      -270.4422
  15   2.0000      -9.886407      -269.0228
  16   2.0000      -9.884613      -268.9740
  17   2.0000      -9.882345      -268.9123
  18   2.0000      -9.874675      -268.7036
  19   2.0000      -7.689747      -209.2487
  20   2.0000      -7.683720      -209.0847
  21   2.0000      -7.625924      -207.5120
  22   2.0000      -7.622913      -207.4300
  23   2.0000      -6.420197      -174.7024
  24   2.0000      -6.420004      -174.6972
  25   2.0000      -5.717531      -155.5819
  26   2.0000      -5.714222      -155.4919
  27   2.0000      -5.711543      -155.4190
  28   2.0000      -5.708392      -155.3332
  29   2.0000      -5.706772      -155.2891
  30   2.0000      -5.700625      -155.1219
  31   2.0000      -5.654914      -153.8780
  32   2.0000      -5.651782      -153.7928
  33   2.0000      -5.646763      -153.6562
  34   2.0000      -5.645710      -153.6276
  35   2.0000      -5.643645      -153.5714
  36   2.0000      -5.643015      -153.5542
  37   2.0000      -4.642788      -126.3367
  38   2.0000      -4.642769      -126.3362
  39   2.0000      -4.642242      -126.3218
  40   2.0000      -4.641749      -126.3084
  41   2.0000      -4.640476      -126.2738
  42   2.0000      -4.640270      -126.2682
  43   2.0000      -0.985595       -26.8194
  44   2.0000      -0.981368       -26.7044
  45   2.0000      -0.941311       -25.6144
  46   2.0000      -0.940075       -25.5808
  47   2.0000      -0.761122       -20.7112
  48   2.0000      -0.720277       -19.5997
  49   2.0000      -0.707698       -19.2574
  50   2.0000      -0.689516       -18.7627
  51   2.0000      -0.684622       -18.6295
  52   2.0000      -0.671065       -18.2606
  53   2.0000      -0.648966       -17.6593
  54   2.0000      -0.633429       -17.2365
  55   2.0000      -0.592507       -16.1229
  56   2.0000      -0.583063       -15.8660
  57   2.0000      -0.571631       -15.5549
  58   2.0000      -0.570313       -15.5190
  59   2.0000      -0.561455       -15.2780
  60   2.0000      -0.508579       -13.8391
  61   2.0000      -0.488772       -13.3002
  62   2.0000      -0.477456       -12.9922
  63   2.0000      -0.465079       -12.6554
  64   2.0000      -0.452934       -12.3250
  65   2.0000      -0.449163       -12.2223
  66   2.0000      -0.436667       -11.8823
  67   2.0000      -0.431135       -11.7318
  68   2.0000      -0.426839       -11.6149
  69   2.0000      -0.420627       -11.4458
  70   2.0000      -0.412117       -11.2143
  71   2.0000      -0.389548       -10.6001
  72   2.0000      -0.389274       -10.5927
  73   2.0000      -0.384297       -10.4572
  74   2.0000      -0.381003       -10.3676
  75   2.0000      -0.368404       -10.0248
  76   2.0000      -0.364252        -9.9118
  77   2.0000      -0.352804        -9.6003
  78   2.0000      -0.350650        -9.5417
  79   2.0000      -0.346571        -9.4307
  80   2.0000      -0.345202        -9.3934
  81   2.0000      -0.341281        -9.2867
  82   2.0000      -0.338548        -9.2124
  83   2.0000      -0.334812        -9.1107
  84   2.0000      -0.334028        -9.0894
  85   2.0000      -0.312569        -8.5054
  86   2.0000      -0.309431        -8.4200
  87   2.0000      -0.297526        -8.0961
  88   2.0000      -0.295118        -8.0306
  89   2.0000      -0.294399        -8.0110
  90   2.0000      -0.281899        -7.6709
  91   2.0000      -0.271170        -7.3789
  92   2.0000      -0.263923        -7.1817
  93   2.0000      -0.258451        -7.0328
  94   2.0000      -0.257039        -6.9944
  95   2.0000      -0.242769        -6.6061
  96   2.0000      -0.220598        -6.0028
  97   2.0000      -0.204185        -5.5561
  98   2.0000      -0.201555        -5.4846
  99   2.0000      -0.188778        -5.1369
 100   2.0000      -0.180481        -4.9111
 101   0.0000      -0.040607        -1.1050
 102   0.0000      -0.030309        -0.8247
 103   0.0000      -0.013491        -0.3671
 104   0.0000       0.002610         0.0710
 105   0.0000       0.021206         0.5771

MULLIKEN ATOMIC CHARGES
-----------------------
   0 C :   -0.287641
   1 C :   -0.008200
   2 O :   -0.358263
   3 P :    0.606332
   4 S :   -0.304871
   5 O :   -0.383045
   6 C :   -0.027268
   7 C :   -0.273588
   8 S :   -0.103400
   9 C :   -0.341936
  10 S :   -0.104604
  11 P :    0.621458
  12 S :   -0.333522
  13 O :   -0.375495
  14 C :   -0.011774
  15 C :   -0.313987
  16 O :   -0.364640
  17 C :   -0.015076
  18 C :   -0.301630
  19 H :    0.115130
  20 H :    0.119765
  21 H :    0.108458
  22 H :    0.111224
  23 H :    0.103220
  24 H :    0.119667
  25 H :    0.118263
  26 H :    0.113618
  27 H :    0.110720
  28 H :    0.117958
  29 H :    0.181921
  30 H :    0.197212
  31 H :    0.110330
  32 H :    0.114675
  33 H :    0.110532
  34 H :    0.127818
  35 H :    0.127238
  36 H :    0.129249
  37 H :    0.102893
  38 H :    0.120731
  39 H :    0.108771
  40 H :    0.111759
Sum of atomic charges:   -0.0000000

LOEWDIN ATOMIC CHARGES
----------------------
   0 C :   -0.359691
   1 C :   -0.112883
   2 O :   -0.241798
   3 P :    0.568615
   4 S :   -0.294540
   5 O :   -0.244921
   6 C :   -0.119138
   7 C :   -0.350871
   8 S :    0.062054
   9 C :   -0.476005
  10 S :    0.080805
  11 P :    0.573401
  12 S :   -0.314706
  13 O :   -0.245359
  14 C :   -0.112882
  15 C :   -0.372385
  16 O :   -0.238184
  17 C :   -0.122215
  18 C :   -0.365119
  19 H :    0.118815
  20 H :    0.128863
  21 H :    0.129158
  22 H :    0.121770
  23 H :    0.107253
  24 H :    0.111374
  25 H :    0.111041
  26 H :    0.131872
  27 H :    0.124236
  28 H :    0.127870
  29 H :    0.135186
  30 H :    0.124352
  31 H :    0.122154
  32 H :    0.109975
  33 H :    0.129504
  34 H :    0.121334
  35 H :    0.129508
  36 H :    0.108768
  37 H :    0.118314
  38 H :    0.121559
  39 H :    0.128980
  40 H :    0.123935

  Mayer bond orders larger than 0.100000
B(  0-C ,  1-C ) :   1.1628 B(  0-C , 19-H ) :   0.9389 B(  0-C , 20-H ) :   0.9464
B(  0-C , 21-H ) :   0.9402 B(  1-C ,  2-O ) :   0.8911 B(  1-C , 22-H ) :   0.9346
B(  1-C , 23-H ) :   0.9179 B(  2-O ,  3-P ) :   1.1343 B(  3-P ,  4-S ) :   1.6373
B(  3-P ,  5-O ) :   1.1084 B(  3-P ,  8-S ) :   0.9418 B(  4-S ,  8-S ) :   0.1139
B(  4-S , 30-H ) :   0.1084 B(  5-O ,  6-C ) :   0.8959 B(  6-C ,  7-C ) :   1.1527
B(  6-C , 24-H ) :   0.9152 B(  6-C , 25-H ) :   0.9275 B(  7-C , 26-H ) :   0.9423
B(  7-C , 27-H ) :   0.9506 B(  7-C , 28-H ) :   0.9500 B(  8-S ,  9-C ) :   0.9946
B(  9-C , 10-S ) :   1.0087 B(  9-C , 29-H ) :   0.9112 B(  9-C , 30-H ) :   0.8498
B( 10-S , 11-P ) :   0.9499 B( 10-S , 12-S ) :   0.1171 B( 11-P , 12-S ) :   1.6235
B( 11-P , 13-O ) :   1.1011 B( 11-P , 16-O ) :   1.1284 B( 13-O , 14-C ) :   0.9161
B( 14-C , 15-C ) :   1.1651 B( 14-C , 31-H ) :   0.9343 B( 14-C , 32-H ) :   0.9287
B( 15-C , 33-H ) :   0.9337 B( 15-C , 34-H ) :   0.9317 B( 15-C , 35-H ) :   0.9406
B( 16-O , 17-C ) :   0.8997 B( 17-C , 18-C ) :   1.1615 B( 17-C , 36-H ) :   0.9067
B( 17-C , 37-H ) :   0.9353 B( 18-C , 38-H ) :   0.9352 B( 18-C , 39-H ) :   0.9398
B( 18-C , 40-H ) :   0.9457

Dispersion correction           -0.065563458
FINAL SINGLE POINT ENERGY     -2929.513288888456

DIPOLE MOMENT
-------------

Method             : SCF
Type of density    : Electron Density
Multiplicity       :   1
Irrep              :   0
Energy             : -2929.6319500715349022 Eh
Relativity type    :
Basis              : AO
                                X                 Y                 Z
Electronic contribution:     -1.352616092      -2.017946792      -8.987978170
Nuclear contribution   :      1.549101080       1.175313761       9.467234416
                        -----------------------------------------
Total Dipole Moment    :      0.196484988      -0.842633031       0.479256246
                        -----------------------------------------
Magnitude (a.u.)       :      0.989102282
Magnitude (Debye)      :      2.514098203

Rotational constants in cm-1:             0.011606             0.005119             0.004785
Rotational constants in MHz :           347.947831           153.453298           143.450786

                             ****ORCA TERMINATED NORMALLY****
TOTAL RUN TIME: 0 days 0 hours 0 minutes 21 seconds 187 msec
