                         Program Version 6.0.0  -   RELEASE  -
|  1> ! pbe def2-sv(p) def2/J RI DEFGRID1 loosescf d4 GCP(DFT/SV(P)) printgap
|  2> %output
|  3>     printlevel normal
|  4> end
|  5> * xyz 0 1
|  6> C 4.5025357003 -1.3567349674 -1.9301579533
|  7> C 3.4807778309 -2.3164842515 -1.3567711159
|  8> O 2.8482855568 -1.8161153073 -0.1633233538
|  9> P 2.1510994635 -0.4009844418 -0.0067860907
| 10> S 3.2948523892 1.176683796 0.2306146542
| 11> O 1.1943499812 -0.7243566905 1.2157191505
| 12> C 1.3691342475 -0.1503102797 2.5226248833
| 13> C 2.4564982008 -0.8785331945 3.2843609248
| 14> S 0.8027860844 -0.3515942064 -1.6483786766
| 15> C 0.4031942886 1.4093488668 -1.5354301004
| 16> S -0.3627502116 1.8573504227 0.050625886
| 17> P -2.0558661291 0.6123951957 -0.1297212516
| 18> S -2.818679633 0.3427672652 -1.916822646
| 19> O -2.9361686654 1.420306352 0.9079452422
| 20> C -4.3077535994 1.0350316229 1.1600354613
| 21> C -5.0002594474 2.1991508691 1.8375071271
| 22> O -1.7509390526 -0.7367529828 0.6625760654
| 23> C -1.6371000275 -2.0427780413 0.0716358386
| 24> C -2.7692957429 -2.9194728095 0.5692531824
| 25> H 5.2355946309 -1.0852546291 -1.1741967467
| 26> H 5.0075023881 -1.8267765004 -2.7679377203
| 27> H 4.0121452156 -0.4480766694 -2.2767872311
| 28> H 3.9475941388 -3.2464671226 -1.027253491
| 29> H 2.6987168671 -2.5325519797 -2.0900465588
| 30> H 1.6114073997 0.9124920782 2.4149197368
| 31> H 0.3917257922 -0.2554258252 2.9965182345
| 32> H 2.5410600188 -0.4619366458 4.282936132
| 33> H 2.225959493 -1.9383112847 3.3491461663
| 34> H 3.4064202324 -0.7567957981 2.7649468707
| 35> H -0.2838211404 1.6238065279 -2.3531194916
| 36> H 1.315453366 2.0002151581 -1.613289291
| 37> H -4.7810450737 0.7883676769 0.2030850155
| 38> H -4.3006370112 0.1467343624 1.7970157344
| 39> H -4.9883623944 3.0692521288 1.1872553592
| 40> H -6.0279119441 1.9261029767 2.0541594474
| 41> H -4.4882335948 2.4468922265 2.7627150368
| 42> H -1.6688665313 -1.948143312 -1.0189106945
| 43> H -0.6613940755 -2.428434525 0.3758703338
| 44> H -2.6404579236 -3.922206341 0.1751508034
| 45> H -2.7668496406 -2.9561732765 1.6550130839
| 46> H -3.7233624055 -2.5234542217 0.2278770409
| 47> *
| 48>
| 49>                          ****END OF INPUT****

CARTESIAN COORDINATES (ANGSTROEM)
---------------------------------
  C      4.502536   -1.356735   -1.930158
  C      3.480778   -2.316484   -1.356771
  O      2.848286   -1.816115   -0.163323
  P      2.151099   -0.400984   -0.006786
  S      3.294852    1.176684    0.230615
  O      1.194350   -0.724357    1.215719
  C      1.369134   -0.150310    2.522625
  C      2.456498   -0.878533    3.284361
  S      0.802786   -0.351594   -1.648379
  C      0.403194    1.409349   -1.535430
  S     -0.362750    1.857350    0.050626
  P     -2.055866    0.612395   -0.129721
  S     -2.818680    0.342767   -1.916823
  O     -2.936169    1.420306    0.907945
  C     -4.307754    1.035032    1.160035
  C     -5.000259    2.199151    1.837507
  O     -1.750939   -0.736753    0.662576
  C     -1.637100   -2.042778    0.071636
  C     -2.769296   -2.919473    0.569253
  H      5.235595   -1.085255   -1.174197
  H      5.007502   -1.826777   -2.767938
  H      4.012145   -0.448077   -2.276787
  H      3.947594   -3.246467   -1.027253
  H      2.698717   -2.532552   -2.090047
  H      1.611407    0.912492    2.414920
  H      0.391726   -0.255426    2.996518
  H      2.541060   -0.461937    4.282936
  H      2.225959   -1.938311    3.349146
  H      3.406420   -0.756796    2.764947
  H     -0.283821    1.623807   -2.353119
  H      1.315453    2.000215   -1.613289
  H     -4.781045    0.788368    0.203085
  H     -4.300637    0.146734    1.797016
  H     -4.988362    3.069252    1.187255
  H     -6.027912    1.926103    2.054159
  H     -4.488234    2.446892    2.762715
  H     -1.668867   -1.948143   -1.018911
  H     -0.661394   -2.428435    0.375870
  H     -2.640458   -3.922206    0.175151
  H     -2.766850   -2.956173    1.655013
  H     -3.723362   -2.523454    0.227877

 Total Charge           Charge          ....    0
 Multiplicity           Mult            ....    1
 Number of Electrons    NEL             ....  202
 Basis Dimension        Dim             ....  334

ORBITAL ENERGIES
----------------

  NO   OCC          E(Eh)            E(eV)
   0   2.0000     -88.046751     -2395.8739
   1   2.0000     -88.041002     -2395.7175
   2   2.0000     -87.989502     -2394.3161
   3   2.0000     -87.987413     -2394.2592
   4   2.0000     -76.429520     -2079.7530
   5   2.0000     -76.424451     -2079.6150
   6   2.0000     -18.796836      -511.4879
   7   2.0000     -18.792240      -511.3629
   8   2.0000     -18.787995      -511.2473
   9   2.0000     -18.787829      -511.2428
  10   2.0000      -9.961116      -271.0558
  11   2.0000      -9.955789      -270.9108
  12   2.0000      -9.954719      -270.8817
  13   2.0000      -9.945797      -270.6389
  14   2.0000      -9.943399      -270.5736
  15   2.0000      -9.888498      -269.0797
  16   2.0000      -9.885721      -269.0041
  17   2.0000      -9.883620      -268.9470
  18   2.0000      -9.880330      -268.8575
  19   2.0000      -7.691236      -209.2892
  20   2.0000      -7.686066      -209.1485
  21   2.0000      -7.634431      -207.7434
  22   2.0000      -7.632426      -207.6889
  23   2.0000      -6.426525      -174.8746
  24   2.0000      -6.422233      -174.7578
  25   2.0000      -5.718983      -155.6214
  26   2.0000      -5.715777      -155.5342
  27   2.0000      -5.714038      -155.4869
  28   2.0000      -5.710742      -155.3972
  29   2.0000      -5.708378      -155.3329
  30   2.0000      -5.702736      -155.1793
  31   2.0000      -5.663321      -154.1068
  32   2.0000      -5.661192      -154.0489
  33   2.0000      -5.655079      -153.8825
  34   2.0000      -5.654616      -153.8699
  35   2.0000      -5.653349      -153.8355
  36   2.0000      -5.652434      -153.8105
  37   2.0000      -4.648931      -126.5038
  38   2.0000      -4.648475      -126.4914
  39   2.0000      -4.647033      -126.4522
  40   2.0000      -4.644706      -126.3889
  41   2.0000      -4.643866      -126.3660
  42   2.0000      -4.642873      -126.3390
  43   2.0000      -0.988701       -26.9039
  44   2.0000      -0.984390       -26.7866
  45   2.0000      -0.946135       -25.7456
  46   2.0000      -0.941278       -25.6135
  47   2.0000      -0.766984       -20.8707
  48   2.0000      -0.723581       -19.6896
  49   2.0000      -0.710438       -19.3320
  50   2.0000      -0.687202       -18.6997
  51   2.0000      -0.686280       -18.6746
  52   2.0000      -0.672781       -18.3073
  53   2.0000      -0.651762       -17.7353
  54   2.0000      -0.640420       -17.4267
  55   2.0000      -0.600203       -16.3323
  56   2.0000      -0.591940       -16.1075
  57   2.0000      -0.574083       -15.6216
  58   2.0000      -0.570410       -15.5216
  59   2.0000      -0.559402       -15.2221
  60   2.0000      -0.505701       -13.7608
  61   2.0000      -0.494445       -13.4545
  62   2.0000      -0.480077       -13.0636
  63   2.0000      -0.470686       -12.8080
  64   2.0000      -0.458682       -12.4814
  65   2.0000      -0.441612       -12.0169
  66   2.0000      -0.438882       -11.9426
  67   2.0000      -0.437749       -11.9118
  68   2.0000      -0.426275       -11.5995
  69   2.0000      -0.419267       -11.4088
  70   2.0000      -0.406019       -11.0483
  71   2.0000      -0.393118       -10.6973
  72   2.0000      -0.389757       -10.6058
  73   2.0000      -0.387429       -10.5425
  74   2.0000      -0.382792       -10.4163
  75   2.0000      -0.378503       -10.2996
  76   2.0000      -0.364204        -9.9105
  77   2.0000      -0.356840        -9.7101
  78   2.0000      -0.354678        -9.6513
  79   2.0000      -0.350827        -9.5465
  80   2.0000      -0.348887        -9.4937
  81   2.0000      -0.346581        -9.4310
  82   2.0000      -0.342949        -9.3321
  83   2.0000      -0.338268        -9.2047
  84   2.0000      -0.332284        -9.0419
  85   2.0000      -0.322334        -8.7712
  86   2.0000      -0.311273        -8.4702
  87   2.0000      -0.299392        -8.1469
  88   2.0000      -0.296524        -8.0688
  89   2.0000      -0.288079        -7.8390
  90   2.0000      -0.284490        -7.7414
  91   2.0000      -0.277865        -7.5611
  92   2.0000      -0.275287        -7.4910
  93   2.0000      -0.267671        -7.2837
  94   2.0000      -0.254806        -6.9336
  95   2.0000      -0.234454        -6.3798
  96   2.0000      -0.217188        -5.9100
  97   2.0000      -0.215568        -5.8659
  98   2.0000      -0.207304        -5.6410
  99   2.0000      -0.200816        -5.4645
 100   2.0000      -0.198072        -5.3898
 101   0.0000      -0.049088        -1.3358
 102   0.0000      -0.028158        -0.7662
 103   0.0000      -0.004303        -0.1171
 104   0.0000       0.008114         0.2208
 105   0.0000       0.008931         0.2430

MULLIKEN ATOMIC CHARGES
-----------------------
   0 C :   -0.310786
   1 C :   -0.011941
   2 O :   -0.371579
   3 P :    0.617274
   4 S :   -0.325973
   5 O :   -0.357974
   6 C :   -0.007713
   7 C :   -0.294645
   8 S :   -0.106456
   9 C :   -0.348816
  10 S :   -0.075025
  11 P :    0.638064
  12 S :   -0.340482
  13 O :   -0.379332
  14 C :   -0.019141
  15 C :   -0.274771
  16 O :   -0.378158
  17 C :   -0.019133
  18 C :   -0.279812
  19 H :    0.127145
  20 H :    0.112710
  21 H :    0.125812
  22 H :    0.110409
  23 H :    0.114885
  24 H :    0.116141
  25 H :    0.102623
  26 H :    0.109863
  27 H :    0.111158
  28 H :    0.119510
  29 H :    0.193446
  30 H :    0.191241
  31 H :    0.107796
  32 H :    0.104034
  33 H :    0.122855
  34 H :    0.110912
  35 H :    0.117557
  36 H :    0.113630
  37 H :    0.105381
  38 H :    0.108535
  39 H :    0.110739
  40 H :    0.110017
Sum of atomic charges:    0.0000000

LOEWDIN ATOMIC CHARGES
----------------------
   0 C :   -0.369436
   1 C :   -0.113872
   2 O :   -0.243012
   3 P :    0.571751
   4 S :   -0.313262
   5 O :   -0.230325
   6 C :   -0.122599
   7 C :   -0.361841
   8 S :    0.086903
   9 C :   -0.477704
  10 S :    0.101302
  11 P :    0.568623
  12 S :   -0.325836
  13 O :   -0.250964
  14 C :   -0.117013
  15 C :   -0.349386
  16 O :   -0.242111
  17 C :   -0.128970
  18 C :   -0.355690
  19 H :    0.130026
  20 H :    0.130629
  21 H :    0.121278
  22 H :    0.122057
  23 H :    0.109827
  24 H :    0.107395
  25 H :    0.116649
  26 H :    0.129327
  27 H :    0.123757
  28 H :    0.122551
  29 H :    0.132584
  30 H :    0.131282
  31 H :    0.109465
  32 H :    0.111323
  33 H :    0.130502
  34 H :    0.130542
  35 H :    0.127657
  36 H :    0.102365
  37 H :    0.109848
  38 H :    0.129400
  39 H :    0.122602
  40 H :    0.122377

  Mayer bond orders larger than 0.100000
B(  0-C ,  1-C ) :   1.1649 B(  0-C , 19-H ) :   0.9426 B(  0-C , 20-H ) :   0.9349
B(  0-C , 21-H ) :   0.9335 B(  1-C ,  2-O ) :   0.9130 B(  1-C , 22-H ) :   0.9340
B(  1-C , 23-H ) :   0.9274 B(  2-O ,  3-P ) :   1.1201 B(  3-P ,  4-S ) :   1.5960
B(  3-P ,  5-O ) :   1.1157 B(  3-P ,  8-S ) :   0.9348 B(  4-S ,  8-S ) :   0.1073
B(  5-O ,  6-C ) :   0.8971 B(  6-C ,  7-C ) :   1.1630 B(  6-C , 24-H ) :   0.9086
B(  6-C , 25-H ) :   0.9317 B(  7-C , 26-H ) :   0.9412 B(  7-C , 27-H ) :   0.9476
B(  7-C , 28-H ) :   0.9382 B(  8-S ,  9-C ) :   0.9992 B(  9-C , 10-S ) :   1.0099
B(  9-C , 29-H ) :   0.8863 B(  9-C , 30-H ) :   0.8861 B( 10-S , 11-P ) :   0.9481
B( 10-S , 12-S ) :   0.1057 B( 11-P , 12-S ) :   1.6081 B( 11-P , 13-O ) :   1.1278
B( 11-P , 16-O ) :   1.1015 B( 13-O , 14-C ) :   0.9024 B( 14-C , 15-C ) :   1.1631
B( 14-C , 31-H ) :   0.9127 B( 14-C , 32-H ) :   0.9288 B( 15-C , 33-H ) :   0.9504
B( 15-C , 34-H ) :   0.9415 B( 15-C , 35-H ) :   0.9503 B( 16-O , 17-C ) :   0.9011
B( 17-C , 18-C ) :   1.1621 B( 17-C , 36-H ) :   0.9008 B( 17-C , 37-H ) :   0.9236
B( 18-C , 38-H ) :   0.9419 B( 18-C , 39-H ) :   0.9495 B( 18-C , 40-H ) :   0.9458

Dispersion correction           -0.066355969
FINAL SINGLE POINT ENERGY     -2929.525477105381

DIPOLE MOMENT
-------------

Method             : SCF
Type of density    : Electron Density
Multiplicity       :   1
Irrep              :   0
Energy             : -2929.6437949389351161 Eh
Relativity type    :
Basis              : AO
                                X                 Y                 Z
Electronic contribution:      3.602025748      11.774736729     -10.861252084
Nuclear contribution   :     -3.815080078     -12.890618292      11.443639761
                        -----------------------------------------
Total Dipole Moment    :     -0.213054330      -1.115881564       0.582387677
                        -----------------------------------------
Magnitude (a.u.)       :      1.276620232
Magnitude (Debye)      :      3.244910754

Rotational constants in cm-1:             0.012711             0.004999             0.004858
Rotational constants in MHz :           381.074408           149.857275           145.638104

                             ****ORCA TERMINATED NORMALLY****
TOTAL RUN TIME: 0 days 0 hours 0 minutes 21 seconds 295 msec
