                         Program Version 6.0.0  -   RELEASE  -
|  1> ! pbe def2-sv(p) def2/J RI DEFGRID1 loosescf d4 GCP(DFT/SV(P)) printgap
|  2> %output
|  3>     printlevel normal
|  4> end
|  5> * xyz 0 1
|  6> C 4.746304129 -2.5240414369 -0.2316284687
|  7> C 4.4215463233 -1.470749309 -1.2709385097
|  8> O 3.0057889978 -1.1937908955 -1.3168974596
|  9> P 2.2955897702 -0.142827192 -0.373166527
| 10> S 3.3453381003 1.4046275954 0.2130294032
| 11> O 1.6918705183 -1.0298554672 0.8059006085
| 12> C 1.6441964292 -0.6202107313 2.1880283943
| 13> C 2.8611710474 -1.116197776 2.9426706654
| 14> S 0.6785508701 0.2432948671 -1.6840975053
| 15> C 0.0513911117 1.7042243853 -0.8061861161
| 16> S -0.8253708447 1.2845847082 0.7142761905
| 17> P -2.4660360144 0.2976775827 -0.2443959494
| 18> S -3.0461075538 1.0772364879 -1.9404626843
| 19> O -3.5181389231 0.1545989439 0.9355695736
| 20> C -3.96328415 1.2259664059 1.7905439745
| 21> C -4.4991150016 2.4111170178 1.0159967607
| 22> O -2.0284247086 -1.1988307297 -0.4700413943
| 23> C -1.6345961466 -2.0862839089 0.60370828
| 24> C -2.7344315853 -3.0911276198 0.8768028554
| 25> H 5.7979071953 -2.7836030945 -0.3040068313
| 26> H 4.5420325664 -2.1429127446 0.7658356722
| 27> H 4.1435684402 -3.4120900396 -0.4013206769
| 28> H 4.6592056767 -1.8149190177 -2.2789260889
| 29> H 4.9545268723 -0.536142191 -1.0658671358
| 30> H 1.576496501 0.4698731458 2.2418564758
| 31> H 0.7270356875 -1.0626750416 2.5786559808
| 32> H 2.962037684 -2.1923755754 2.8319029801
| 33> H 3.7573995532 -0.6262054463 2.5669984252
| 34> H 2.7467355898 -0.873363772 3.9942249938
| 35> H -0.6371392275 2.2031993308 -1.488637192
| 36> H 0.88254202 2.3541370294 -0.5310392392
| 37> H -4.742242829 0.7616856328 2.3977934007
| 38> H -3.1241630452 1.5260683668 2.424217032
| 39> H -3.7027308568 2.8707963784 0.432452587
| 40> H -5.2838433591 2.0953660972 0.3326508732
| 41> H -4.8983663451 3.1444376744 1.7091853515
| 42> H -0.7210368154 -2.5711303381 0.2515929017
| 43> H -1.4157090851 -1.4903100211 1.4941036054
| 44> H -2.4062049857 -3.7803811164 1.648413185
| 45> H -3.6335787635 -2.5778458329 1.2080776437
| 46> H -2.9628991604 -3.6460571645 -0.0288081186
| 47> *
| 48>
| 49>                          ****END OF INPUT****

CARTESIAN COORDINATES (ANGSTROEM)
---------------------------------
  C      4.746304   -2.524041   -0.231628
  C      4.421546   -1.470749   -1.270939
  O      3.005789   -1.193791   -1.316897
  P      2.295590   -0.142827   -0.373167
  S      3.345338    1.404628    0.213029
  O      1.691871   -1.029855    0.805901
  C      1.644196   -0.620211    2.188028
  C      2.861171   -1.116198    2.942671
  S      0.678551    0.243295   -1.684098
  C      0.051391    1.704224   -0.806186
  S     -0.825371    1.284585    0.714276
  P     -2.466036    0.297678   -0.244396
  S     -3.046108    1.077236   -1.940463
  O     -3.518139    0.154599    0.935570
  C     -3.963284    1.225966    1.790544
  C     -4.499115    2.411117    1.015997
  O     -2.028425   -1.198831   -0.470041
  C     -1.634596   -2.086284    0.603708
  C     -2.734432   -3.091128    0.876803
  H      5.797907   -2.783603   -0.304007
  H      4.542033   -2.142913    0.765836
  H      4.143568   -3.412090   -0.401321
  H      4.659206   -1.814919   -2.278926
  H      4.954527   -0.536142   -1.065867
  H      1.576497    0.469873    2.241856
  H      0.727036   -1.062675    2.578656
  H      2.962038   -2.192376    2.831903
  H      3.757400   -0.626205    2.566998
  H      2.746736   -0.873364    3.994225
  H     -0.637139    2.203199   -1.488637
  H      0.882542    2.354137   -0.531039
  H     -4.742243    0.761686    2.397793
  H     -3.124163    1.526068    2.424217
  H     -3.702731    2.870796    0.432453
  H     -5.283843    2.095366    0.332651
  H     -4.898366    3.144438    1.709185
  H     -0.721037   -2.571130    0.251593
  H     -1.415709   -1.490310    1.494104
  H     -2.406205   -3.780381    1.648413
  H     -3.633579   -2.577846    1.208078
  H     -2.962899   -3.646057   -0.028808

 Total Charge           Charge          ....    0
 Multiplicity           Mult            ....    1
 Number of Electrons    NEL             ....  202
 Basis Dimension        Dim             ....  334

ORBITAL ENERGIES
----------------

  NO   OCC          E(Eh)            E(eV)
   0   2.0000     -88.044351     -2395.8086
   1   2.0000     -88.036869     -2395.6050
   2   2.0000     -87.993880     -2394.4352
   3   2.0000     -87.983870     -2394.1628
   4   2.0000     -76.428411     -2079.7228
   5   2.0000     -76.427601     -2079.7007
   6   2.0000     -18.799783      -511.5681
   7   2.0000     -18.795500      -511.4515
   8   2.0000     -18.794105      -511.4136
   9   2.0000     -18.788955      -511.2735
  10   2.0000      -9.962757      -271.1004
  11   2.0000      -9.957367      -270.9537
  12   2.0000      -9.955620      -270.9062
  13   2.0000      -9.953578      -270.8506
  14   2.0000      -9.951545      -270.7953
  15   2.0000      -9.891163      -269.1522
  16   2.0000      -9.888604      -269.0826
  17   2.0000      -9.886481      -269.0248
  18   2.0000      -9.885597      -269.0008
  19   2.0000      -7.688981      -209.2278
  20   2.0000      -7.682196      -209.0432
  21   2.0000      -7.638801      -207.8623
  22   2.0000      -7.629216      -207.6015
  23   2.0000      -6.426237      -174.8668
  24   2.0000      -6.424729      -174.8258
  25   2.0000      -5.716575      -155.5559
  26   2.0000      -5.713525      -155.4729
  27   2.0000      -5.710083      -155.3793
  28   2.0000      -5.707004      -155.2955
  29   2.0000      -5.706288      -155.2760
  30   2.0000      -5.698812      -155.0726
  31   2.0000      -5.667504      -154.2206
  32   2.0000      -5.659851      -154.0124
  33   2.0000      -5.658747      -153.9823
  34   2.0000      -5.658315      -153.9706
  35   2.0000      -5.649738      -153.7372
  36   2.0000      -5.649243      -153.7237
  37   2.0000      -4.648690      -126.4973
  38   2.0000      -4.647872      -126.4750
  39   2.0000      -4.647647      -126.4689
  40   2.0000      -4.646852      -126.4473
  41   2.0000      -4.646739      -126.4442
  42   2.0000      -4.644702      -126.3888
  43   2.0000      -0.991175       -26.9712
  44   2.0000      -0.987859       -26.8810
  45   2.0000      -0.948612       -25.8131
  46   2.0000      -0.946365       -25.7519
  47   2.0000      -0.763857       -20.7856
  48   2.0000      -0.725136       -19.7319
  49   2.0000      -0.713098       -19.4044
  50   2.0000      -0.693236       -18.8639
  51   2.0000      -0.691889       -18.8273
  52   2.0000      -0.675185       -18.3727
  53   2.0000      -0.653479       -17.7821
  54   2.0000      -0.640035       -17.4162
  55   2.0000      -0.605078       -16.4650
  56   2.0000      -0.591940       -16.1075
  57   2.0000      -0.575328       -15.6555
  58   2.0000      -0.573901       -15.6166
  59   2.0000      -0.563348       -15.3295
  60   2.0000      -0.508709       -13.8427
  61   2.0000      -0.498458       -13.5637
  62   2.0000      -0.482436       -13.1278
  63   2.0000      -0.476446       -12.9647
  64   2.0000      -0.460616       -12.5340
  65   2.0000      -0.449561       -12.2332
  66   2.0000      -0.438944       -11.9443
  67   2.0000      -0.437366       -11.9013
  68   2.0000      -0.435513       -11.8509
  69   2.0000      -0.414401       -11.2764
  70   2.0000      -0.407175       -11.0798
  71   2.0000      -0.402881       -10.9629
  72   2.0000      -0.395670       -10.7667
  73   2.0000      -0.386189       -10.5087
  74   2.0000      -0.384944       -10.4749
  75   2.0000      -0.377599       -10.2750
  76   2.0000      -0.368270       -10.0211
  77   2.0000      -0.362785        -9.8719
  78   2.0000      -0.358009        -9.7419
  79   2.0000      -0.354059        -9.6344
  80   2.0000      -0.351268        -9.5585
  81   2.0000      -0.348219        -9.4755
  82   2.0000      -0.342691        -9.3251
  83   2.0000      -0.340819        -9.2742
  84   2.0000      -0.337236        -9.1767
  85   2.0000      -0.327222        -8.9042
  86   2.0000      -0.314483        -8.5575
  87   2.0000      -0.301102        -8.1934
  88   2.0000      -0.299486        -8.1494
  89   2.0000      -0.290598        -7.9076
  90   2.0000      -0.286412        -7.7937
  91   2.0000      -0.280393        -7.6299
  92   2.0000      -0.278464        -7.5774
  93   2.0000      -0.268744        -7.3129
  94   2.0000      -0.258893        -7.0448
  95   2.0000      -0.234443        -6.3795
  96   2.0000      -0.218854        -5.9553
  97   2.0000      -0.218034        -5.9330
  98   2.0000      -0.203853        -5.5471
  99   2.0000      -0.199644        -5.4326
 100   2.0000      -0.198603        -5.4043
 101   0.0000      -0.047221        -1.2849
 102   0.0000      -0.024537        -0.6677
 103   0.0000      -0.007293        -0.1985
 104   0.0000       0.006144         0.1672
 105   0.0000       0.010279         0.2797

MULLIKEN ATOMIC CHARGES
-----------------------
   0 C :   -0.314935
   1 C :   -0.006976
   2 O :   -0.375459
   3 P :    0.631311
   4 S :   -0.337291
   5 O :   -0.375617
   6 C :   -0.019951
   7 C :   -0.292528
   8 S :   -0.050388
   9 C :   -0.373462
  10 S :   -0.123535
  11 P :    0.595748
  12 S :   -0.301685
  13 O :   -0.380492
  14 C :   -0.010765
  15 C :   -0.308681
  16 O :   -0.342070
  17 C :   -0.024017
  18 C :   -0.281843
  19 H :    0.113908
  20 H :    0.127076
  21 H :    0.119061
  22 H :    0.110467
  23 H :    0.113035
  24 H :    0.109358
  25 H :    0.104276
  26 H :    0.118066
  27 H :    0.128888
  28 H :    0.110050
  29 H :    0.196444
  30 H :    0.190002
  31 H :    0.109340
  32 H :    0.112111
  33 H :    0.126858
  34 H :    0.128210
  35 H :    0.112128
  36 H :    0.117662
  37 H :    0.100918
  38 H :    0.106398
  39 H :    0.115865
  40 H :    0.122514
Sum of atomic charges:    0.0000000

LOEWDIN ATOMIC CHARGES
----------------------
   0 C :   -0.361243
   1 C :   -0.113522
   2 O :   -0.244302
   3 P :    0.573605
   4 S :   -0.318804
   5 O :   -0.248797
   6 C :   -0.123186
   7 C :   -0.362973
   8 S :    0.103703
   9 C :   -0.487641
  10 S :    0.060618
  11 P :    0.568473
  12 S :   -0.299950
  13 O :   -0.245709
  14 C :   -0.114749
  15 C :   -0.368679
  16 O :   -0.227928
  17 C :   -0.115955
  18 C :   -0.356132
  19 H :    0.132011
  20 H :    0.125175
  21 H :    0.128200
  22 H :    0.121166
  23 H :    0.110410
  24 H :    0.103094
  25 H :    0.111006
  26 H :    0.123927
  27 H :    0.122959
  28 H :    0.130827
  29 H :    0.130186
  30 H :    0.127761
  31 H :    0.121097
  32 H :    0.107650
  33 H :    0.122067
  34 H :    0.131259
  35 H :    0.130634
  36 H :    0.120702
  37 H :    0.099806
  38 H :    0.127670
  39 H :    0.125541
  40 H :    0.130021

  Mayer bond orders larger than 0.100000
B(  0-C ,  1-C ) :   1.1614 B(  0-C , 19-H ) :   0.9384 B(  0-C , 20-H ) :   0.9363
B(  0-C , 21-H ) :   0.9466 B(  1-C ,  2-O ) :   0.9069 B(  1-C , 22-H ) :   0.9353
B(  1-C , 23-H ) :   0.9119 B(  2-O ,  3-P ) :   1.1338 B(  3-P ,  4-S ) :   1.5889
B(  3-P ,  5-O ) :   1.0939 B(  3-P ,  8-S ) :   0.9652 B(  4-S ,  8-S ) :   0.1030
B(  5-O ,  6-C ) :   0.9022 B(  6-C ,  7-C ) :   1.1712 B(  6-C , 24-H ) :   0.9053
B(  6-C , 25-H ) :   0.9257 B(  7-C , 26-H ) :   0.9400 B(  7-C , 27-H ) :   0.9275
B(  7-C , 28-H ) :   0.9365 B(  8-S ,  9-C ) :   1.0142 B(  9-C , 10-S ) :   0.9963
B(  9-C , 29-H ) :   0.8755 B(  9-C , 30-H ) :   0.8750 B( 10-S , 11-P ) :   0.9305
B( 10-S , 12-S ) :   0.1090 B( 11-P , 12-S ) :   1.6529 B( 11-P , 13-O ) :   1.0793
B( 11-P , 16-O ) :   1.1430 B( 13-O , 14-C ) :   0.9106 B( 14-C , 15-C ) :   1.1681
B( 14-C , 31-H ) :   0.9330 B( 14-C , 32-H ) :   0.9258 B( 15-C , 33-H ) :   0.9321
B( 15-C , 34-H ) :   0.9430 B( 15-C , 35-H ) :   0.9347 B( 16-O , 17-C ) :   0.8922
B( 17-C , 18-C ) :   1.1586 B( 17-C , 36-H ) :   0.9304 B( 17-C , 37-H ) :   0.9059
B( 18-C , 38-H ) :   0.9413 B( 18-C , 39-H ) :   0.9447 B( 18-C , 40-H ) :   0.9472

Dispersion correction           -0.065360192
FINAL SINGLE POINT ENERGY     -2929.521513660075

DIPOLE MOMENT
-------------

Method             : SCF
Type of density    : Electron Density
Multiplicity       :   1
Irrep              :   0
Energy             : -2929.6410459196595184 Eh
Relativity type    :
Basis              : AO
                                X                 Y                 Z
Electronic contribution:     -2.886618127      12.543044721     -18.277447747
Nuclear contribution   :      3.157699557     -13.516460195      20.123805713
                        -----------------------------------------
Total Dipole Moment    :      0.271081430      -0.973415474       1.846357965
                        -----------------------------------------
Magnitude (a.u.)       :      2.104770905
Magnitude (Debye)      :      5.349902477

Rotational constants in cm-1:             0.013240             0.004654             0.004458
Rotational constants in MHz :           396.913763           139.514415           133.643733

                             ****ORCA TERMINATED NORMALLY****
TOTAL RUN TIME: 0 days 0 hours 0 minutes 21 seconds 129 msec
