                         Program Version 6.0.0  -   RELEASE  -
|  1> ! pbe def2-sv(p) def2/J RI DEFGRID1 loosescf d4 GCP(DFT/SV(P)) printgap
|  2> %output
|  3>     printlevel normal
|  4> end
|  5> * xyz 0 1
|  6> C 4.5775176993 -1.7774897649 -1.8873835081
|  7> C 4.6136389519 -0.5387107612 -1.0144790146
|  8> O 3.4853892015 0.321032562 -1.3188177895
|  9> P 2.2407009307 0.5131915203 -0.3723399592
| 10> S 1.005667463 1.7557564325 -1.2439920191
| 11> O 2.9535365059 0.9241800902 0.9825624236
| 12> C 2.322124813 1.176693937 2.2514101809
| 13> C 1.788164966 2.5921828352 2.3287709671
| 14> S 1.4946352352 -1.4422263266 0.041910218
| 15> C 0.3172457009 -1.5621274749 -1.3419388765
| 16> S -1.3278889968 -2.1344620901 -0.8402781761
| 17> P -2.1030197533 -0.3810739027 0.0426746698
| 18> S -1.0936051575 0.4562351155 1.5038296936
| 19> O -3.5715023757 -0.853117767 0.4222665091
| 20> C -3.8458419028 -1.6560890447 1.5891874928
| 21> C -4.3264706762 -0.7870503509 2.7354563039
| 22> O -2.3556304605 0.4965545993 -1.2454257257
| 23> C -2.5725612005 1.920746843 -1.1897116981
| 24> C -3.841381189 2.2656658034 -0.4412754026
| 25> H 5.4926472565 -2.3415602931 -1.7379620853
| 26> H 3.7289906001 -2.4046739209 -1.6256088789
| 27> H 4.4991245316 -1.4923330857 -2.9328501943
| 28> H 5.4917862834 0.0725303744 -1.2277871645
| 29> H 4.5938368515 -0.7962427363 0.0460478889
| 30> H 1.5198855778 0.452271916 2.4119828876
| 31> H 3.1200548011 1.0120772499 2.977847386
| 32> H 0.9789309374 2.7256774616 1.6137213216
| 33> H 1.4013502759 2.772621294 3.3262114975
| 34> H 2.5765566721 3.3062642978 2.1065137567
| 35> H 0.6803934558 -2.3074437679 -2.0444670825
| 36> H 0.2321121142 -0.5778748586 -1.8104565172
| 37> H -4.6180596992 -2.3572306449 1.2679515157
| 38> H -2.9452366815 -2.2098115614 1.8689035721
| 39> H -3.5405386899 -0.0988122884 3.0393256372
| 40> H -5.1985283925 -0.215293379 2.4307237283
| 41> H -4.5871507266 -1.4194650067 3.5778452374
| 42> H -1.6980015787 2.3868963378 -0.7246941015
| 43> H -2.6194761421 2.2151778316 -2.2388553691
| 44> H -3.7407022014 1.9790185066 0.605048414
| 45> H -4.0133737272 3.335760637 -0.4999479329
| 46> H -4.6863678503 1.7351486435 -0.8725688382
| 47> *
| 48>
| 49>                          ****END OF INPUT****

CARTESIAN COORDINATES (ANGSTROEM)
---------------------------------
  C      4.577518   -1.777490   -1.887384
  C      4.613639   -0.538711   -1.014479
  O      3.485389    0.321033   -1.318818
  P      2.240701    0.513192   -0.372340
  S      1.005667    1.755756   -1.243992
  O      2.953537    0.924180    0.982562
  C      2.322125    1.176694    2.251410
  C      1.788165    2.592183    2.328771
  S      1.494635   -1.442226    0.041910
  C      0.317246   -1.562127   -1.341939
  S     -1.327889   -2.134462   -0.840278
  P     -2.103020   -0.381074    0.042675
  S     -1.093605    0.456235    1.503830
  O     -3.571502   -0.853118    0.422267
  C     -3.845842   -1.656089    1.589187
  C     -4.326471   -0.787050    2.735456
  O     -2.355630    0.496555   -1.245426
  C     -2.572561    1.920747   -1.189712
  C     -3.841381    2.265666   -0.441275
  H      5.492647   -2.341560   -1.737962
  H      3.728991   -2.404674   -1.625609
  H      4.499125   -1.492333   -2.932850
  H      5.491786    0.072530   -1.227787
  H      4.593837   -0.796243    0.046048
  H      1.519886    0.452272    2.411983
  H      3.120055    1.012077    2.977847
  H      0.978931    2.725677    1.613721
  H      1.401350    2.772621    3.326211
  H      2.576557    3.306264    2.106514
  H      0.680393   -2.307444   -2.044467
  H      0.232112   -0.577875   -1.810457
  H     -4.618060   -2.357231    1.267952
  H     -2.945237   -2.209812    1.868904
  H     -3.540539   -0.098812    3.039326
  H     -5.198528   -0.215293    2.430724
  H     -4.587151   -1.419465    3.577845
  H     -1.698002    2.386896   -0.724694
  H     -2.619476    2.215178   -2.238855
  H     -3.740702    1.979019    0.605048
  H     -4.013374    3.335761   -0.499948
  H     -4.686368    1.735149   -0.872569

 Total Charge           Charge          ....    0
 Multiplicity           Mult            ....    1
 Number of Electrons    NEL             ....  202
 Basis Dimension        Dim             ....  334

ORBITAL ENERGIES
----------------

  NO   OCC          E(Eh)            E(eV)
   0   2.0000     -88.040755     -2395.7107
   1   2.0000     -88.039102     -2395.6658
   2   2.0000     -87.983197     -2394.1445
   3   2.0000     -87.980775     -2394.0786
   4   2.0000     -76.424507     -2079.6166
   5   2.0000     -76.423660     -2079.5935
   6   2.0000     -18.793513      -511.3975
   7   2.0000     -18.790612      -511.3185
   8   2.0000     -18.786717      -511.2126
   9   2.0000     -18.784949      -511.1645
  10   2.0000      -9.954780      -270.8833
  11   2.0000      -9.954254      -270.8690
  12   2.0000      -9.953912      -270.8597
  13   2.0000      -9.950108      -270.7562
  14   2.0000      -9.943425      -270.5743
  15   2.0000      -9.885645      -269.0021
  16   2.0000      -9.881583      -268.8915
  17   2.0000      -9.878562      -268.8093
  18   2.0000      -9.874902      -268.7098
  19   2.0000      -7.686414      -209.1579
  20   2.0000      -7.683886      -209.0892
  21   2.0000      -7.628002      -207.5685
  22   2.0000      -7.625931      -207.5121
  23   2.0000      -6.421957      -174.7503
  24   2.0000      -6.421011      -174.7246
  25   2.0000      -5.714248      -155.4926
  26   2.0000      -5.711704      -155.4234
  27   2.0000      -5.710931      -155.4023
  28   2.0000      -5.708503      -155.3363
  29   2.0000      -5.703323      -155.1953
  30   2.0000      -5.700866      -155.1285
  31   2.0000      -5.656728      -153.9274
  32   2.0000      -5.654959      -153.8793
  33   2.0000      -5.648642      -153.7074
  34   2.0000      -5.648316      -153.6985
  35   2.0000      -5.646721      -153.6551
  36   2.0000      -5.645712      -153.6276
  37   2.0000      -4.644464      -126.3823
  38   2.0000      -4.643816      -126.3646
  39   2.0000      -4.643792      -126.3640
  40   2.0000      -4.642864      -126.3387
  41   2.0000      -4.642465      -126.3279
  42   2.0000      -4.641226      -126.2942
  43   2.0000      -0.985861       -26.8266
  44   2.0000      -0.984497       -26.7895
  45   2.0000      -0.943556       -25.6755
  46   2.0000      -0.941027       -25.6066
  47   2.0000      -0.759539       -20.6681
  48   2.0000      -0.720035       -19.5931
  49   2.0000      -0.708074       -19.2677
  50   2.0000      -0.686461       -18.6796
  51   2.0000      -0.684225       -18.6187
  52   2.0000      -0.671306       -18.2672
  53   2.0000      -0.650760       -17.7081
  54   2.0000      -0.634260       -17.2591
  55   2.0000      -0.594184       -16.1686
  56   2.0000      -0.584490       -15.9048
  57   2.0000      -0.573130       -15.5957
  58   2.0000      -0.568112       -15.4591
  59   2.0000      -0.561688       -15.2843
  60   2.0000      -0.505128       -13.7452
  61   2.0000      -0.495873       -13.4934
  62   2.0000      -0.474020       -12.8987
  63   2.0000      -0.472007       -12.8440
  64   2.0000      -0.448441       -12.2027
  65   2.0000      -0.442317       -12.0360
  66   2.0000      -0.438999       -11.9458
  67   2.0000      -0.436149       -11.8682
  68   2.0000      -0.427691       -11.6381
  69   2.0000      -0.413700       -11.2573
  70   2.0000      -0.403407       -10.9773
  71   2.0000      -0.400024       -10.8852
  72   2.0000      -0.392730       -10.6867
  73   2.0000      -0.385457       -10.4888
  74   2.0000      -0.382851       -10.4179
  75   2.0000      -0.369531       -10.0555
  76   2.0000      -0.358040        -9.7428
  77   2.0000      -0.354260        -9.6399
  78   2.0000      -0.351457        -9.5636
  79   2.0000      -0.346025        -9.4158
  80   2.0000      -0.345230        -9.3942
  81   2.0000      -0.342864        -9.3298
  82   2.0000      -0.337019        -9.1708
  83   2.0000      -0.332387        -9.0447
  84   2.0000      -0.327832        -8.9208
  85   2.0000      -0.317188        -8.6311
  86   2.0000      -0.310639        -8.4529
  87   2.0000      -0.296512        -8.0685
  88   2.0000      -0.293998        -8.0001
  89   2.0000      -0.291024        -7.9192
  90   2.0000      -0.282018        -7.6741
  91   2.0000      -0.272561        -7.4168
  92   2.0000      -0.268254        -7.2996
  93   2.0000      -0.262331        -7.1384
  94   2.0000      -0.259985        -7.0745
  95   2.0000      -0.241819        -6.5802
  96   2.0000      -0.222499        -6.0545
  97   2.0000      -0.205445        -5.5904
  98   2.0000      -0.200034        -5.4432
  99   2.0000      -0.191558        -5.2126
 100   2.0000      -0.183817        -5.0019
 101   0.0000      -0.037678        -1.0253
 102   0.0000      -0.030634        -0.8336
 103   0.0000      -0.011386        -0.3098
 104   0.0000       0.002189         0.0596
 105   0.0000       0.021095         0.5740

MULLIKEN ATOMIC CHARGES
-----------------------
   0 C :   -0.290615
   1 C :   -0.006246
   2 O :   -0.358363
   3 P :    0.609457
   4 S :   -0.306495
   5 O :   -0.379398
   6 C :   -0.018235
   7 C :   -0.304703
   8 S :   -0.102933
   9 C :   -0.349754
  10 S :   -0.089059
  11 P :    0.619709
  12 S :   -0.335002
  13 O :   -0.373868
  14 C :   -0.010695
  15 C :   -0.292285
  16 O :   -0.363500
  17 C :   -0.012343
  18 C :   -0.311999
  19 H :    0.108266
  20 H :    0.116642
  21 H :    0.119198
  22 H :    0.110213
  23 H :    0.101842
  24 H :    0.128945
  25 H :    0.100914
  26 H :    0.141442
  27 H :    0.107057
  28 H :    0.112306
  29 H :    0.181705
  30 H :    0.195827
  31 H :    0.108032
  32 H :    0.104492
  33 H :    0.127933
  34 H :    0.114904
  35 H :    0.107455
  36 H :    0.132583
  37 H :    0.105198
  38 H :    0.124778
  39 H :    0.111271
  40 H :    0.115326
Sum of atomic charges:    0.0000000

LOEWDIN ATOMIC CHARGES
----------------------
   0 C :   -0.360799
   1 C :   -0.113090
   2 O :   -0.241177
   3 P :    0.568779
   4 S :   -0.292480
   5 O :   -0.240403
   6 C :   -0.115598
   7 C :   -0.364889
   8 S :    0.064129
   9 C :   -0.479474
  10 S :    0.080415
  11 P :    0.571169
  12 S :   -0.315498
  13 O :   -0.245975
  14 C :   -0.115272
  15 C :   -0.362904
  16 O :   -0.233767
  17 C :   -0.118216
  18 C :   -0.367422
  19 H :    0.129021
  20 H :    0.118361
  21 H :    0.128468
  22 H :    0.121572
  23 H :    0.107680
  24 H :    0.108143
  25 H :    0.116235
  26 H :    0.125280
  27 H :    0.129383
  28 H :    0.125132
  29 H :    0.135126
  30 H :    0.123605
  31 H :    0.118881
  32 H :    0.109456
  33 H :    0.124437
  34 H :    0.125563
  35 H :    0.128627
  36 H :    0.110477
  37 H :    0.119974
  38 H :    0.121385
  39 H :    0.130434
  40 H :    0.125233

  Mayer bond orders larger than 0.100000
B(  0-C ,  1-C ) :   1.1630 B(  0-C , 19-H ) :   0.9403 B(  0-C , 20-H ) :   0.9376
B(  0-C , 21-H ) :   0.9467 B(  1-C ,  2-O ) :   0.8941 B(  1-C , 22-H ) :   0.9352
B(  1-C , 23-H ) :   0.9181 B(  2-O ,  3-P ) :   1.1300 B(  3-P ,  4-S ) :   1.6270
B(  3-P ,  5-O ) :   1.1097 B(  3-P ,  8-S ) :   0.9450 B(  4-S ,  8-S ) :   0.1150
B(  4-S , 30-H ) :   0.1080 B(  5-O ,  6-C ) :   0.8992 B(  6-C ,  7-C ) :   1.1732
B(  6-C , 24-H ) :   0.9118 B(  6-C , 25-H ) :   0.9347 B(  7-C , 26-H ) :   0.9304
B(  7-C , 27-H ) :   0.9388 B(  7-C , 28-H ) :   0.9463 B(  8-S ,  9-C ) :   0.9917
B(  9-C , 10-S ) :   1.0048 B(  9-C , 29-H ) :   0.9110 B(  9-C , 30-H ) :   0.8504
B( 10-S , 11-P ) :   0.9668 B( 10-S , 12-S ) :   0.1165 B( 11-P , 12-S ) :   1.6107
B( 11-P , 13-O ) :   1.1036 B( 11-P , 16-O ) :   1.1404 B( 13-O , 14-C ) :   0.9024
B( 14-C , 15-C ) :   1.1692 B( 14-C , 31-H ) :   0.9351 B( 14-C , 32-H ) :   0.9152
B( 15-C , 33-H ) :   0.9319 B( 15-C , 34-H ) :   0.9461 B( 15-C , 35-H ) :   0.9395
B( 16-O , 17-C ) :   0.8958 B( 17-C , 18-C ) :   1.1626 B( 17-C , 36-H ) :   0.9097
B( 17-C , 37-H ) :   0.9357 B( 18-C , 38-H ) :   0.9327 B( 18-C , 39-H ) :   0.9382
B( 18-C , 40-H ) :   0.9448

Dispersion correction           -0.066193634
FINAL SINGLE POINT ENERGY     -2929.517728882603

DIPOLE MOMENT
-------------

Method             : SCF
Type of density    : Electron Density
Multiplicity       :   1
Irrep              :   0
Energy             : -2929.6357951378918187 Eh
Relativity type    :
Basis              : AO
                                X                 Y                 Z
Electronic contribution:      3.397545100      -5.970832851      -8.724730316
Nuclear contribution   :     -3.243489594       5.350404617       9.259012855
                        -----------------------------------------
Total Dipole Moment    :      0.154055507      -0.620428233       0.534282539
                        -----------------------------------------
Magnitude (a.u.)       :      0.833139918
Magnitude (Debye)      :      2.117673378

Rotational constants in cm-1:             0.012379             0.005124             0.004735
Rotational constants in MHz :           371.099634           153.623332           141.949210

                             ****ORCA TERMINATED NORMALLY****
TOTAL RUN TIME: 0 days 0 hours 0 minutes 21 seconds 94 msec
