                         Program Version 6.0.1  -  RELEASE   -
|  1> ! pbe def2-sv(p) def2/J RI DEFGRID1 loosescf d4 GCP(DFT/SV(P)) printgap
|  2> %output
|  3>     printlevel normal
|  4> end
|  5> * xyz 0 1
|  6> C 3.2611939117 -3.8275671868 0.2627511347
|  7> C 3.7342907232 -2.9375038167 -0.8751311219
|  8> O 2.6153795316 -2.3203385109 -1.546194296
|  9> C 2.1273742237 -1.202428386 -1.062134963
| 10> O 2.5717734514 -0.6145457911 -0.0948469467
| 11> C 0.9163274895 -0.7371274659 -1.8364664669
| 12> C 0.5425046388 0.7012283241 -1.4747153716
| 13> H 1.0177510146 1.4288603542 -2.1321863866
| 14> C 0.8628099444 1.0465935278 -0.0346663522
| 15> O 0.2168758152 0.5539201615 0.8809462837
| 16> O 1.7351205782 1.9985071946 0.0933128713
| 17> C 2.0838400991 2.4268940718 1.4281701012
| 18> C 2.799230877 3.7582164118 1.3200233968
| 19> S -1.2603878068 0.9596706972 -1.6106982908
| 20> P -2.0306214991 0.1796714657 0.215712989
| 21> S -2.3769905544 1.2048846328 1.8620137112
| 22> O -3.4148486721 -0.0375760595 -0.5831002631
| 23> C -4.6324976859 -0.4009068321 0.0682004185
| 24> O -1.6178434689 -1.3626798528 0.4115134435
| 25> C -0.9047234585 -1.8778606955 1.5322151998
| 26> H 4.1149060517 -4.3353979876 0.6989281115
| 27> H 2.7780382667 -3.23004138 1.0332328071
| 28> H 2.5557713627 -4.5663618839 -0.1072269036
| 29> H 4.2283007086 -3.517043006 -1.6545421658
| 30> H 4.3962668569 -2.150463788 -0.503856001
| 31> H 0.0978244574 -1.4158076332 -1.5769292132
| 32> H 1.0924869508 -0.8375096503 -2.9063511527
| 33> H 1.165485547 2.4954972571 2.0204650455
| 34> H 2.7237343009 1.6515334487 1.8594347352
| 35> H 2.1428526027 4.5013830346 0.8769758322
| 36> H 3.0911494571 4.0860760912 2.3120071666
| 37> H 3.6840194913 3.6532514561 0.6998420789
| 38> H -4.6442280699 -1.4735593134 0.2592529683
| 39> H -5.4301086745 -0.1248424482 -0.6171472812
| 40> H -4.7341678159 0.1443307807 1.0095795303
| 41> H 0.1664075042 -1.8592397689 1.3329193431
| 42> H -1.2578502136 -2.8975946526 1.6673012289
| 43> H -1.1102805199 -1.2755721334 2.4186687066
| 44> *
| 45>
| 46>                          ****END OF INPUT****

CARTESIAN COORDINATES (ANGSTROEM)
---------------------------------
  C      3.261194   -3.827567    0.262751
  C      3.734291   -2.937504   -0.875131
  O      2.615380   -2.320339   -1.546194
  C      2.127374   -1.202428   -1.062135
  O      2.571773   -0.614546   -0.094847
  C      0.916327   -0.737127   -1.836466
  C      0.542505    0.701228   -1.474715
  H      1.017751    1.428860   -2.132186
  C      0.862810    1.046594   -0.034666
  O      0.216876    0.553920    0.880946
  O      1.735121    1.998507    0.093313
  C      2.083840    2.426894    1.428170
  C      2.799231    3.758216    1.320023
  S     -1.260388    0.959671   -1.610698
  P     -2.030621    0.179671    0.215713
  S     -2.376991    1.204885    1.862014
  O     -3.414849   -0.037576   -0.583100
  C     -4.632498   -0.400907    0.068200
  O     -1.617843   -1.362680    0.411513
  C     -0.904723   -1.877861    1.532215
  H      4.114906   -4.335398    0.698928
  H      2.778038   -3.230041    1.033233
  H      2.555771   -4.566362   -0.107227
  H      4.228301   -3.517043   -1.654542
  H      4.396267   -2.150464   -0.503856
  H      0.097824   -1.415808   -1.576929
  H      1.092487   -0.837510   -2.906351
  H      1.165486    2.495497    2.020465
  H      2.723734    1.651533    1.859435
  H      2.142853    4.501383    0.876976
  H      3.091149    4.086076    2.312007
  H      3.684019    3.653251    0.699842
  H     -4.644228   -1.473559    0.259253
  H     -5.430109   -0.124842   -0.617147
  H     -4.734168    0.144331    1.009580
  H      0.166408   -1.859240    1.332919
  H     -1.257850   -2.897595    1.667301
  H     -1.110281   -1.275572    2.418669

 Total Charge           Charge          ....    0
 Multiplicity           Mult            ....    1
 Number of Electrons    NEL             ....  174
 Basis Dimension        Dim             ....  316

ORBITAL ENERGIES
----------------

  NO   OCC          E(Eh)            E(eV)
   0   2.0000     -88.031073     -2395.4473
   1   2.0000     -87.958738     -2393.4789
   2   2.0000     -76.411087     -2079.2514
   3   2.0000     -18.821857      -512.1688
   4   2.0000     -18.812046      -511.9018
   5   2.0000     -18.777772      -510.9691
   6   2.0000     -18.762401      -510.5509
   7   2.0000     -18.762066      -510.5418
   8   2.0000     -18.752798      -510.2896
   9   2.0000     -10.030630      -272.9473
  10   2.0000     -10.024419      -272.7783
  11   2.0000      -9.963540      -271.1217
  12   2.0000      -9.948043      -270.7000
  13   2.0000      -9.948013      -270.6992
  14   2.0000      -9.929675      -270.2002
  15   2.0000      -9.922477      -270.0043
  16   2.0000      -9.920527      -269.9513
  17   2.0000      -9.900051      -269.3941
  18   2.0000      -9.888869      -269.0898
  19   2.0000      -7.675901      -208.8719
  20   2.0000      -7.603955      -206.9141
  21   2.0000      -6.406337      -174.3253
  22   2.0000      -5.704431      -155.2255
  23   2.0000      -5.700275      -155.1124
  24   2.0000      -5.692386      -154.8977
  25   2.0000      -5.633213      -153.2875
  26   2.0000      -5.624787      -153.0582
  27   2.0000      -5.623547      -153.0245
  28   2.0000      -4.629272      -125.9689
  29   2.0000      -4.628383      -125.9447
  30   2.0000      -4.626706      -125.8991
  31   2.0000      -1.032339       -28.0914
  32   2.0000      -1.023632       -27.8544
  33   2.0000      -0.962169       -26.1819
  34   2.0000      -0.939100       -25.5542
  35   2.0000      -0.929978       -25.3060
  36   2.0000      -0.918549       -24.9950
  37   2.0000      -0.765745       -20.8370
  38   2.0000      -0.725305       -19.7366
  39   2.0000      -0.709761       -19.3136
  40   2.0000      -0.688430       -18.7331
  41   2.0000      -0.656314       -17.8592
  42   2.0000      -0.621465       -16.9109
  43   2.0000      -0.609278       -16.5793
  44   2.0000      -0.607476       -16.5303
  45   2.0000      -0.605568       -16.4783
  46   2.0000      -0.557491       -15.1701
  47   2.0000      -0.516017       -14.0415
  48   2.0000      -0.512410       -13.9434
  49   2.0000      -0.499913       -13.6033
  50   2.0000      -0.486404       -13.2357
  51   2.0000      -0.467560       -12.7230
  52   2.0000      -0.460460       -12.5298
  53   2.0000      -0.454680       -12.3725
  54   2.0000      -0.444394       -12.0926
  55   2.0000      -0.439657       -11.9637
  56   2.0000      -0.434396       -11.8205
  57   2.0000      -0.414541       -11.2802
  58   2.0000      -0.411471       -11.1967
  59   2.0000      -0.406854       -11.0711
  60   2.0000      -0.402628       -10.9561
  61   2.0000      -0.395286       -10.7563
  62   2.0000      -0.385725       -10.4961
  63   2.0000      -0.384261       -10.4563
  64   2.0000      -0.379346       -10.3225
  65   2.0000      -0.368813       -10.0359
  66   2.0000      -0.361827        -9.8458
  67   2.0000      -0.359618        -9.7857
  68   2.0000      -0.354042        -9.6340
  69   2.0000      -0.346069        -9.4170
  70   2.0000      -0.339665        -9.2427
  71   2.0000      -0.328188        -8.9304
  72   2.0000      -0.322057        -8.7636
  73   2.0000      -0.312882        -8.5139
  74   2.0000      -0.309863        -8.4318
  75   2.0000      -0.294267        -8.0074
  76   2.0000      -0.288570        -7.8524
  77   2.0000      -0.282567        -7.6890
  78   2.0000      -0.267840        -7.2883
  79   2.0000      -0.264092        -7.1863
  80   2.0000      -0.254838        -6.9345
  81   2.0000      -0.251532        -6.8445
  82   2.0000      -0.245645        -6.6843
  83   2.0000      -0.235834        -6.4174
  84   2.0000      -0.211652        -5.7593
  85   2.0000      -0.179387        -4.8814
  86   2.0000      -0.170689        -4.6447
  87   0.0000      -0.050699        -1.3796
  88   0.0000      -0.042696        -1.1618
  89   0.0000      -0.015388        -0.4187
  90   0.0000       0.010429         0.2838
  91   0.0000       0.028060         0.7636

MULLIKEN ATOMIC CHARGES
-----------------------
   0 C :   -0.315082
   1 C :   -0.014227
   2 O :   -0.221335
   3 C :    0.132091
   4 O :   -0.210197
   5 C :   -0.066036
   6 C :   -0.290850
   7 H :    0.131831
   8 C :    0.217932
   9 O :   -0.228823
  10 O :   -0.205650
  11 C :   -0.034187
  12 C :   -0.276548
  13 S :   -0.066810
  14 P :    0.650150
  15 S :   -0.341291
  16 O :   -0.402958
  17 C :   -0.094917
  18 O :   -0.396712
  19 C :   -0.107177
  20 H :    0.118852
  21 H :    0.135413
  22 H :    0.120272
  23 H :    0.110031
  24 H :    0.112516
  25 H :    0.147235
  26 H :    0.126602
  27 H :    0.129147
  28 H :    0.110529
  29 H :    0.120528
  30 H :    0.114078
  31 H :    0.114299
  32 H :    0.102413
  33 H :    0.115127
  34 H :    0.112186
  35 H :    0.120178
  36 H :    0.112144
  37 H :    0.119247
Sum of atomic charges:    0.0000000

LOEWDIN ATOMIC CHARGES
----------------------
   0 C :   -0.356261
   1 C :   -0.108257
   2 O :   -0.050293
   3 C :    0.043246
   4 O :   -0.152031
   5 C :   -0.256035
   6 C :   -0.262658
   7 H :    0.141575
   8 C :    0.018721
   9 O :   -0.166476
  10 O :   -0.029519
  11 C :   -0.103769
  12 C :   -0.350068
  13 S :    0.125985
  14 P :    0.589015
  15 S :   -0.339236
  16 O :   -0.277756
  17 C :   -0.218719
  18 O :   -0.260668
  19 C :   -0.220599
  20 H :    0.134103
  21 H :    0.130613
  22 H :    0.127870
  23 H :    0.121490
  24 H :    0.121610
  25 H :    0.153699
  26 H :    0.148172
  27 H :    0.126697
  28 H :    0.121087
  29 H :    0.129161
  30 H :    0.132556
  31 H :    0.126218
  32 H :    0.107406
  33 H :    0.117160
  34 H :    0.104630
  35 H :    0.105748
  36 H :    0.114035
  37 H :    0.111548

  Mayer bond orders larger than 0.100000
B(  0-C ,  1-C ) :   1.1760 B(  0-C , 20-H ) :   0.9420 B(  0-C , 21-H ) :   0.9422
B(  0-C , 22-H ) :   0.9483 B(  1-C ,  2-O ) :   0.9060 B(  1-C , 23-H ) :   0.9364
B(  1-C , 24-H ) :   0.9155 B(  2-O ,  3-C ) :   1.2582 B(  3-C ,  4-O ) :   1.9353
B(  3-C ,  5-C ) :   1.0157 B(  4-O ,  8-C ) :   0.1317 B(  5-C ,  6-C ) :   0.9957
B(  5-C , 25-H ) :   0.8668 B(  5-C , 26-H ) :   0.9013 B(  6-C ,  7-H ) :   0.8827
B(  6-C ,  8-C ) :   0.9243 B(  6-C , 13-S ) :   1.0283 B(  8-C ,  9-O ) :   1.8142
B(  8-C , 10-O ) :   1.2952 B(  9-O , 14-P ) :   0.1839 B( 10-O , 11-C ) :   0.8921
B( 11-C , 12-C ) :   1.1571 B( 11-C , 27-H ) :   0.9207 B( 11-C , 28-H ) :   0.9302
B( 12-C , 29-H ) :   0.9511 B( 12-C , 30-H ) :   0.9432 B( 12-C , 31-H ) :   0.9488
B( 13-S , 14-P ) :   0.9158 B( 14-P , 15-S ) :   1.5774 B( 14-P , 16-O ) :   1.0470
B( 14-P , 18-O ) :   1.0468 B( 16-O , 17-C ) :   0.9443 B( 17-C , 32-H ) :   0.9534
B( 17-C , 33-H ) :   0.9605 B( 17-C , 34-H ) :   0.9253 B( 18-O , 19-C ) :   0.9330
B( 19-C , 35-H ) :   0.9403 B( 19-C , 36-H ) :   0.9533 B( 19-C , 37-H ) :   0.9306

Dispersion correction           -0.051547346
FINAL SINGLE POINT ENERGY     -1979.002552852365

DIPOLE MOMENT
-------------

Method             : SCF
Type of density    : Electron Density
Multiplicity       :   1
Irrep              :   0
Energy             : -1979.1359490862987514 Eh
Relativity type    :
Basis              : AO
                                X                 Y                 Z
Electronic contribution:    -15.035811221       8.147877203      -6.572753521
Nuclear contribution   :     17.035123504      -9.370972967       6.064279151
                        -----------------------------------------
Total Dipole Moment    :      1.999312283      -1.223095764      -0.508474371
                        -----------------------------------------
Magnitude (a.u.)       :      2.398282518
Magnitude (Debye)      :      6.095949709

Rotational constants in cm-1:             0.012168             0.007264             0.005779
Rotational constants in MHz :           364.792477           217.762509           173.264964

                             ****ORCA TERMINATED NORMALLY****
TOTAL RUN TIME: 0 days 0 hours 0 minutes 41 seconds 299 msec
