                         Program Version 6.0.0  -   RELEASE  -
|  1> ! pbe def2-sv(p) def2/J RI DEFGRID1 loosescf d4 GCP(DFT/SV(P)) printgap
|  2> %output
|  3>     printlevel normal
|  4> end
|  5> * xyz 0 1
|  6> C 5.0109966823 1.1251066773 -0.5076073833
|  7> C 4.3176535036 0.0726761044 -1.3466185126
|  8> O 3.4593026791 -0.7852264939 -0.5708564996
|  9> P 2.2942641384 -0.2925708007 0.3890821555
| 10> S 2.7676398204 0.424080419 2.1448166135
| 11> O 1.4396720028 -1.6059263179 0.5668049333
| 12> C 1.0963096451 -2.5019284401 -0.5169994694
| 13> C 2.0429838463 -3.6828598337 -0.5473185102
| 14> S 1.1827517147 1.0279679607 -0.8743280356
| 15> C 0.3043129872 1.885137506 0.4521946267
| 16> S -0.8302425634 0.8231625935 1.3904555378
| 17> P -2.2423970924 0.3879554645 -0.1290564039
| 18> S -1.7923572382 -0.8282326357 -1.6039825034
| 19> O -2.6087073025 1.8692017036 -0.5490125756
| 20> C -3.2601499886 2.1673335722 -1.8034220102
| 21> C -4.693730304 1.6813905911 -1.8193167671
| 22> O -3.5153384925 -0.0747281732 0.7045841131
| 23> C -3.7495517641 -1.4538462899 1.0303055889
| 24> C -2.7791459535 -1.9547907617 2.0811474225
| 25> H 4.2802406996 1.8178250245 -0.0928869378
| 26> H 5.5472391532 0.6605615182 0.3164467562
| 27> H 5.7102160078 1.6764845904 -1.1278918609
| 28> H 5.035514741 -0.6187632044 -1.7915329235
| 29> H 3.7149567084 0.5375906431 -2.1319623211
| 30> H 0.0720262388 -2.8178594909 -0.3082489768
| 31> H 1.1090062884 -1.950796373 -1.4612859972
| 32> H 3.0565727764 -3.3468980002 -0.7494178309
| 33> H 2.0274576336 -4.1937401712 0.4115021982
| 34> H 1.7269052234 -4.3684384522 -1.3271642025
| 35> H -0.2454008647 2.7045119349 -0.0034626677
| 36> H 1.0285466345 2.2455060728 1.184104838
| 37> H -3.199569977 3.2538605248 -1.8775428724
| 38> H -2.6846610043 1.7040971829 -2.6113751259
| 39> H -5.2311661236 2.068683073 -0.9577355363
| 40> H -5.17774858 2.0181033939 -2.7307227397
| 41> H -4.7160757952 0.5929285591 -1.7878226302
| 42> H -4.778326104 -1.4717924283 1.3919557741
| 43> H -3.6651608497 -2.0463296499 0.1126767985
| 44> H -3.0289247043 -2.9761768303 2.3498779173
| 45> H -1.7602329109 -1.9293776194 1.692908365
| 46> H -2.8222565089 -1.3260152281 2.9669686238
| 47> *
| 48>
| 49>                          ****END OF INPUT****

CARTESIAN COORDINATES (ANGSTROEM)
---------------------------------
  C      5.010997    1.125107   -0.507607
  C      4.317654    0.072676   -1.346619
  O      3.459303   -0.785226   -0.570856
  P      2.294264   -0.292571    0.389082
  S      2.767640    0.424080    2.144817
  O      1.439672   -1.605926    0.566805
  C      1.096310   -2.501928   -0.516999
  C      2.042984   -3.682860   -0.547319
  S      1.182752    1.027968   -0.874328
  C      0.304313    1.885138    0.452195
  S     -0.830243    0.823163    1.390456
  P     -2.242397    0.387955   -0.129056
  S     -1.792357   -0.828233   -1.603983
  O     -2.608707    1.869202   -0.549013
  C     -3.260150    2.167334   -1.803422
  C     -4.693730    1.681391   -1.819317
  O     -3.515338   -0.074728    0.704584
  C     -3.749552   -1.453846    1.030306
  C     -2.779146   -1.954791    2.081147
  H      4.280241    1.817825   -0.092887
  H      5.547239    0.660562    0.316447
  H      5.710216    1.676485   -1.127892
  H      5.035515   -0.618763   -1.791533
  H      3.714957    0.537591   -2.131962
  H      0.072026   -2.817859   -0.308249
  H      1.109006   -1.950796   -1.461286
  H      3.056573   -3.346898   -0.749418
  H      2.027458   -4.193740    0.411502
  H      1.726905   -4.368438   -1.327164
  H     -0.245401    2.704512   -0.003463
  H      1.028547    2.245506    1.184105
  H     -3.199570    3.253861   -1.877543
  H     -2.684661    1.704097   -2.611375
  H     -5.231166    2.068683   -0.957736
  H     -5.177749    2.018103   -2.730723
  H     -4.716076    0.592929   -1.787823
  H     -4.778326   -1.471792    1.391956
  H     -3.665161   -2.046330    0.112677
  H     -3.028925   -2.976177    2.349878
  H     -1.760233   -1.929378    1.692908
  H     -2.822257   -1.326015    2.966969

 Total Charge           Charge          ....    0
 Multiplicity           Mult            ....    1
 Number of Electrons    NEL             ....  202
 Basis Dimension        Dim             ....  334

ORBITAL ENERGIES
----------------

  NO   OCC          E(Eh)            E(eV)
   0   2.0000     -88.039502     -2395.6766
   1   2.0000     -88.039381     -2395.6734
   2   2.0000     -87.988304     -2394.2835
   3   2.0000     -87.979992     -2394.0573
   4   2.0000     -76.427120     -2079.6877
   5   2.0000     -76.423664     -2079.5936
   6   2.0000     -18.796089      -511.4676
   7   2.0000     -18.795367      -511.4479
   8   2.0000     -18.793767      -511.4044
   9   2.0000     -18.784029      -511.1394
  10   2.0000      -9.958829      -270.9935
  11   2.0000      -9.955245      -270.8960
  12   2.0000      -9.954515      -270.8761
  13   2.0000      -9.953068      -270.8367
  14   2.0000      -9.943690      -270.5816
  15   2.0000      -9.886524      -269.0260
  16   2.0000      -9.885438      -268.9964
  17   2.0000      -9.882843      -268.9258
  18   2.0000      -9.878662      -268.8121
  19   2.0000      -7.684409      -209.1034
  20   2.0000      -7.684391      -209.1029
  21   2.0000      -7.633101      -207.7072
  22   2.0000      -7.625351      -207.4964
  23   2.0000      -6.424875      -174.8297
  24   2.0000      -6.420735      -174.7171
  25   2.0000      -5.712415      -155.4427
  26   2.0000      -5.712112      -155.4345
  27   2.0000      -5.709022      -155.3504
  28   2.0000      -5.708927      -155.3478
  29   2.0000      -5.701554      -155.1472
  30   2.0000      -5.701111      -155.1351
  31   2.0000      -5.661816      -154.0658
  32   2.0000      -5.654424      -153.8647
  33   2.0000      -5.653751      -153.8464
  34   2.0000      -5.653440      -153.8379
  35   2.0000      -5.645897      -153.6327
  36   2.0000      -5.645380      -153.6186
  37   2.0000      -4.647523      -126.4655
  38   2.0000      -4.646683      -126.4427
  39   2.0000      -4.645194      -126.4022
  40   2.0000      -4.643668      -126.3606
  41   2.0000      -4.642687      -126.3339
  42   2.0000      -4.640764      -126.2816
  43   2.0000      -0.989760       -26.9328
  44   2.0000      -0.986231       -26.8367
  45   2.0000      -0.950334       -25.8599
  46   2.0000      -0.941039       -25.6070
  47   2.0000      -0.762156       -20.7393
  48   2.0000      -0.719816       -19.5872
  49   2.0000      -0.708009       -19.2659
  50   2.0000      -0.689534       -18.7632
  51   2.0000      -0.688121       -18.7247
  52   2.0000      -0.671606       -18.2753
  53   2.0000      -0.651567       -17.7300
  54   2.0000      -0.638308       -17.3693
  55   2.0000      -0.600822       -16.3492
  56   2.0000      -0.588320       -16.0090
  57   2.0000      -0.575341       -15.6558
  58   2.0000      -0.568986       -15.4829
  59   2.0000      -0.563312       -15.3285
  60   2.0000      -0.502014       -13.6605
  61   2.0000      -0.493468       -13.4279
  62   2.0000      -0.476950       -12.9785
  63   2.0000      -0.469964       -12.7884
  64   2.0000      -0.460220       -12.5232
  65   2.0000      -0.447510       -12.1774
  66   2.0000      -0.440919       -11.9980
  67   2.0000      -0.431018       -11.7286
  68   2.0000      -0.428922       -11.6716
  69   2.0000      -0.414064       -11.2673
  70   2.0000      -0.408709       -11.1215
  71   2.0000      -0.399356       -10.8670
  72   2.0000      -0.393811       -10.7162
  73   2.0000      -0.390401       -10.6233
  74   2.0000      -0.380628       -10.3574
  75   2.0000      -0.375197       -10.2096
  76   2.0000      -0.363070        -9.8797
  77   2.0000      -0.356634        -9.7045
  78   2.0000      -0.352149        -9.5825
  79   2.0000      -0.350779        -9.5452
  80   2.0000      -0.347695        -9.4613
  81   2.0000      -0.346007        -9.4153
  82   2.0000      -0.343963        -9.3597
  83   2.0000      -0.335330        -9.1248
  84   2.0000      -0.333165        -9.0659
  85   2.0000      -0.320760        -8.7283
  86   2.0000      -0.310751        -8.4560
  87   2.0000      -0.297164        -8.0862
  88   2.0000      -0.295851        -8.0505
  89   2.0000      -0.287030        -7.8105
  90   2.0000      -0.283713        -7.7202
  91   2.0000      -0.277089        -7.5400
  92   2.0000      -0.274435        -7.4678
  93   2.0000      -0.264899        -7.2083
  94   2.0000      -0.257424        -7.0049
  95   2.0000      -0.238873        -6.5001
  96   2.0000      -0.218759        -5.9527
  97   2.0000      -0.205858        -5.6017
  98   2.0000      -0.201151        -5.4736
  99   2.0000      -0.197180        -5.3655
 100   2.0000      -0.190818        -5.1924
 101   0.0000      -0.044888        -1.2215
 102   0.0000      -0.021734        -0.5914
 103   0.0000      -0.010540        -0.2868
 104   0.0000      -0.000727        -0.0198
 105   0.0000       0.015646         0.4257

MULLIKEN ATOMIC CHARGES
-----------------------
   0 C :   -0.307208
   1 C :   -0.010514
   2 O :   -0.381119
   3 P :    0.606917
   4 S :   -0.314959
   5 O :   -0.348118
   6 C :   -0.022947
   7 C :   -0.281564
   8 S :   -0.105552
   9 C :   -0.353857
  10 S :   -0.063744
  11 P :    0.609170
  12 S :   -0.329118
  13 O :   -0.372750
  14 C :   -0.005990
  15 C :   -0.305594
  16 O :   -0.369493
  17 C :   -0.006029
  18 C :   -0.338596
  19 H :    0.123870
  20 H :    0.127306
  21 H :    0.110578
  22 H :    0.108374
  23 H :    0.113905
  24 H :    0.117012
  25 H :    0.105314
  26 H :    0.116418
  27 H :    0.115716
  28 H :    0.107221
  29 H :    0.185154
  30 H :    0.194140
  31 H :    0.104934
  32 H :    0.112527
  33 H :    0.119374
  34 H :    0.113045
  35 H :    0.122701
  36 H :    0.106361
  37 H :    0.108088
  38 H :    0.115385
  39 H :    0.149018
  40 H :    0.124628
Sum of atomic charges:    0.0000000

LOEWDIN ATOMIC CHARGES
----------------------
   0 C :   -0.368988
   1 C :   -0.115059
   2 O :   -0.243654
   3 P :    0.570906
   4 S :   -0.309120
   5 O :   -0.230817
   6 C :   -0.118636
   7 C :   -0.359093
   8 S :    0.063548
   9 C :   -0.481217
  10 S :    0.102975
  11 P :    0.569234
  12 S :   -0.314030
  13 O :   -0.241707
  14 C :   -0.118301
  15 C :   -0.364146
  16 O :   -0.242350
  17 C :   -0.122577
  18 C :   -0.370731
  19 H :    0.120667
  20 H :    0.130732
  21 H :    0.129780
  22 H :    0.120596
  23 H :    0.108434
  24 H :    0.113692
  25 H :    0.104698
  26 H :    0.123877
  27 H :    0.126968
  28 H :    0.128225
  29 H :    0.132602
  30 H :    0.130247
  31 H :    0.118243
  32 H :    0.111125
  33 H :    0.127855
  34 H :    0.131016
  35 H :    0.123023
  36 H :    0.119248
  37 H :    0.107118
  38 H :    0.132467
  39 H :    0.124933
  40 H :    0.128219

  Mayer bond orders larger than 0.100000
B(  0-C ,  1-C ) :   1.1672 B(  0-C , 19-H ) :   0.9323 B(  0-C , 20-H ) :   0.9429
B(  0-C , 21-H ) :   0.9348 B(  1-C ,  2-O ) :   0.9118 B(  1-C , 22-H ) :   0.9330
B(  1-C , 23-H ) :   0.9257 B(  2-O ,  3-P ) :   1.0789 B(  3-P ,  4-S ) :   1.6389
B(  3-P ,  5-O ) :   1.1430 B(  3-P ,  8-S ) :   0.9385 B(  4-S ,  8-S ) :   0.1119
B(  5-O ,  6-C ) :   0.8928 B(  6-C ,  7-C ) :   1.1569 B(  6-C , 24-H ) :   0.9231
B(  6-C , 25-H ) :   0.9188 B(  7-C , 26-H ) :   0.9429 B(  7-C , 27-H ) :   0.9465
B(  7-C , 28-H ) :   0.9415 B(  8-S ,  9-C ) :   1.0100 B(  9-C , 10-S ) :   1.0020
B(  9-C , 29-H ) :   0.8979 B(  9-C , 30-H ) :   0.8765 B( 10-S , 11-P ) :   0.9703
B( 10-S , 12-S ) :   0.1121 B( 11-P , 12-S ) :   1.6062 B( 11-P , 13-O ) :   1.1118
B( 11-P , 16-O ) :   1.1030 B( 13-O , 14-C ) :   0.9014 B( 14-C , 15-C ) :   1.1664
B( 14-C , 31-H ) :   0.9339 B( 14-C , 32-H ) :   0.9150 B( 15-C , 33-H ) :   0.9458
B( 15-C , 34-H ) :   0.9387 B( 15-C , 35-H ) :   0.9366 B( 16-O , 17-C ) :   0.9095
B( 17-C , 18-C ) :   1.1626 B( 17-C , 36-H ) :   0.9321 B( 17-C , 37-H ) :   0.9115
B( 18-C , 38-H ) :   0.9386 B( 18-C , 39-H ) :   0.9287 B( 18-C , 40-H ) :   0.9436

Dispersion correction           -0.066149704
FINAL SINGLE POINT ENERGY     -2929.519646651431

DIPOLE MOMENT
-------------

Method             : SCF
Type of density    : Electron Density
Multiplicity       :   1
Irrep              :   0
Energy             : -2929.6383885011077837 Eh
Relativity type    :
Basis              : AO
                                X                 Y                 Z
Electronic contribution:      3.297756492       7.485206052       7.100013885
Nuclear contribution   :     -3.856399397      -7.421824676      -8.265741910
                        -----------------------------------------
Total Dipole Moment    :     -0.558642905       0.063381376      -1.165728025
                        -----------------------------------------
Magnitude (a.u.)       :      1.294225994
Magnitude (Debye)      :      3.289661042

Rotational constants in cm-1:             0.012707             0.004986             0.004665
Rotational constants in MHz :           380.943043           149.464926           139.854033

                             ****ORCA TERMINATED NORMALLY****
TOTAL RUN TIME: 0 days 0 hours 0 minutes 21 seconds 198 msec
