                         Program Version 6.0.0  -   RELEASE  -
|  1> ! r2scan-3c def2/J RI DEFGRID2 scfconv6 printgap
|  2> %output
|  3>     printlevel normal
|  4> end
|  5> * xyz 0 1
|  6> C 1.0471379375 1.3510627765 7.31708e-05
|  7> C 0.3623711375 0.1892464379 0.0001046974
|  8> C 1.0558142098 -1.0866660583 4.48109e-05
|  9> O 0.530886801 -2.1804634924 2.2605e-05
| 10> N 2.4353259805 -0.9527426675 5.187e-07
| 11> C 3.1610075733 0.2129401201 5.0033e-06
| 12> O 4.3747065564 0.2320607737 -8.44058e-05
| 13> N 2.4050653487 1.3592557079 9.5595e-06
| 14> I -1.73637094 0.1159711838 -1.53435e-05
| 15> H 0.5545342955 2.31217438 0.0001312157
| 16> H 2.9733286062 -1.8151927213 -3.79472e-05
| 17> H 2.9133528887 2.2372653806 -3.3607e-05
| 18> *
| 19>
| 20>                          ****END OF INPUT****

CARTESIAN COORDINATES (ANGSTROEM)
---------------------------------
  C      1.047138    1.351063    0.000073
  C      0.362371    0.189246    0.000105
  C      1.055814   -1.086666    0.000045
  O      0.530887   -2.180463    0.000023
  N      2.435326   -0.952743    0.000001
  C      3.161008    0.212940    0.000005
  O      4.374707    0.232061   -0.000084
  N      2.405065    1.359256    0.000010
  I     -1.736371    0.115971   -0.000015
  H      0.554534    2.312174    0.000131
  H      2.973329   -1.815193   -0.000038
  H      2.913353    2.237265   -0.000034

 Total Charge           Charge          ....    0
 Multiplicity           Mult            ....    1
 Number of Electrons    NEL             ....   82
 Basis Dimension        Dim             ....  223

ORBITAL ENERGIES
----------------

  NO   OCC          E(Eh)            E(eV)
   0   2.0000     -18.945086      -515.5220
   1   2.0000     -18.941908      -515.4355
   2   2.0000     -14.255129      -387.9018
   3   2.0000     -14.235952      -387.3799
   4   2.0000     -10.196815      -277.4694
   5   2.0000     -10.166237      -276.6374
   6   2.0000     -10.133332      -275.7420
   7   2.0000     -10.106697      -275.0172
   8   2.0000      -6.829635      -185.8438
   9   2.0000      -4.850016      -131.9756
  10   2.0000      -4.831381      -131.4686
  11   2.0000      -4.830731      -131.4509
  12   2.0000      -1.885138       -51.2972
  13   2.0000      -1.880157       -51.1617
  14   2.0000      -1.879731       -51.1501
  15   2.0000      -1.864733       -50.7420
  16   2.0000      -1.864720       -50.7416
  17   2.0000      -1.065232       -28.9864
  18   2.0000      -1.028652       -27.9910
  19   2.0000      -0.970423       -26.4065
  20   2.0000      -0.919292       -25.0152
  21   2.0000      -0.796811       -21.6823
  22   2.0000      -0.693655       -18.8753
  23   2.0000      -0.666829       -18.1454
  24   2.0000      -0.654585       -17.8122
  25   2.0000      -0.562926       -15.3180
  26   2.0000      -0.555493       -15.1157
  27   2.0000      -0.512888       -13.9564
  28   2.0000      -0.474216       -12.9041
  29   2.0000      -0.458812       -12.4849
  30   2.0000      -0.420669       -11.4470
  31   2.0000      -0.403544       -10.9810
  32   2.0000      -0.398719       -10.8497
  33   2.0000      -0.371805       -10.1173
  34   2.0000      -0.367093        -9.9891
  35   2.0000      -0.283222        -7.7069
  36   2.0000      -0.278553        -7.5798
  37   2.0000      -0.278214        -7.5706
  38   2.0000      -0.256039        -6.9672
  39   2.0000      -0.246077        -6.6961
  40   2.0000      -0.226600        -6.1661
  41   0.0000      -0.090193        -2.4543
  42   0.0000      -0.073138        -1.9902
  43   0.0000      -0.034965        -0.9515
  44   0.0000       0.036821         1.0020
  45   0.0000       0.061117         1.6631

MULLIKEN ATOMIC CHARGES
-----------------------
   0 C :   -0.077203
   1 C :   -0.104041
   2 C :    0.213336
   3 O :   -0.387935
   4 N :   -0.091161
   5 C :    0.235555
   6 O :   -0.418319
   7 N :   -0.086571
   8 I :    0.001566
   9 H :    0.155050
  10 H :    0.280561
  11 H :    0.279162
Sum of atomic charges:    0.0000000

LOEWDIN ATOMIC CHARGES
----------------------
   0 C :    0.124971
   1 C :   -0.231590
   2 C :    0.340734
   3 O :   -0.423743
   4 N :   -0.436892
   5 C :    0.439124
   6 O :   -0.384658
   7 N :   -0.512243
   8 I :    0.277085
   9 H :    0.205762
  10 H :    0.303973
  11 H :    0.297476

  Mayer bond orders larger than 0.100000
B(  0-C ,  1-C ) :   1.5295 B(  0-C ,  7-N ) :   1.1713 B(  0-C ,  9-H ) :   0.9450
B(  1-C ,  2-C ) :   0.9970 B(  1-C ,  8-I ) :   1.1147 B(  2-C ,  3-O ) :   2.0299
B(  2-C ,  4-N ) :   1.0594 B(  4-N ,  5-C ) :   1.0874 B(  4-N , 10-H ) :   0.8992
B(  5-C ,  6-O ) :   1.9793 B(  5-C ,  7-N ) :   1.0791 B(  7-N , 11-H ) :   0.9026

Dispersion correction           -0.004724517
FINAL SINGLE POINT ENERGY      -711.882606869002

DIPOLE MOMENT
-------------

Method             : SCF
Type of density    : Electron Density
Multiplicity       :   1
Irrep              :   0
Energy             :  -711.8900682188731253 Eh
Relativity type    :
Basis              : AO
                                X                 Y                 Z
Electronic contribution:   -132.111837935       7.415468576      -0.001137003
Nuclear contribution   :    132.118849659      -5.874885249       0.001168334
                        -----------------------------------------
Total Dipole Moment    :      0.007011724       1.540583328       0.000031330
                        -----------------------------------------
Magnitude (a.u.)       :      1.540599284
Magnitude (Debye)      :      3.915892180

Rotational constants in cm-1:             0.100304             0.016473             0.014150
Rotational constants in MHz :          3007.034937           493.861918           424.194172

                             ****ORCA TERMINATED NORMALLY****
TOTAL RUN TIME: 0 days 0 hours 0 minutes 30 seconds 244 msec
