                         Program Version 6.0.0  -   RELEASE  -
|  1> ! r2scan-3c def2/J RI DEFGRID2 scfconv6 printgap
|  2> %output
|  3>     printlevel normal
|  4> end
|  5> %cpcm
|  6>     smd true
|  7>     smdsolvent "water"
|  8> end
|  9> * xyz 0 1
| 10> C 1.0471379375 1.3510627765 7.31708e-05
| 11> C 0.3623711375 0.1892464379 0.0001046974
| 12> C 1.0558142098 -1.0866660583 4.48109e-05
| 13> O 0.530886801 -2.1804634924 2.2605e-05
| 14> N 2.4353259805 -0.9527426675 5.187e-07
| 15> C 3.1610075733 0.2129401201 5.0033e-06
| 16> O 4.3747065564 0.2320607737 -8.44058e-05
| 17> N 2.4050653487 1.3592557079 9.5595e-06
| 18> I -1.73637094 0.1159711838 -1.53435e-05
| 19> H 0.5545342955 2.31217438 0.0001312157
| 20> H 2.9733286062 -1.8151927213 -3.79472e-05
| 21> H 2.9133528887 2.2372653806 -3.3607e-05
| 22> *
| 23>
| 24>                          ****END OF INPUT****

CARTESIAN COORDINATES (ANGSTROEM)
---------------------------------
  C      1.047138    1.351063    0.000073
  C      0.362371    0.189246    0.000105
  C      1.055814   -1.086666    0.000045
  O      0.530887   -2.180463    0.000023
  N      2.435326   -0.952743    0.000001
  C      3.161008    0.212940    0.000005
  O      4.374707    0.232061   -0.000084
  N      2.405065    1.359256    0.000010
  I     -1.736371    0.115971   -0.000015
  H      0.554534    2.312174    0.000131
  H      2.973329   -1.815193   -0.000038
  H      2.913353    2.237265   -0.000034

 Total Charge           Charge          ....    0
 Multiplicity           Mult            ....    1
 Number of Electrons    NEL             ....   82
 Basis Dimension        Dim             ....  223

ORBITAL ENERGIES
----------------

  NO   OCC          E(Eh)            E(eV)
   0   2.0000     -18.944931      -515.5178
   1   2.0000     -18.944876      -515.5163
   2   2.0000     -14.234853      -387.3501
   3   2.0000     -14.225797      -387.1036
   4   2.0000     -10.191033      -277.3121
   5   2.0000     -10.164377      -276.5868
   6   2.0000     -10.113164      -275.1932
   7   2.0000     -10.090776      -274.5840
   8   2.0000      -6.820117      -185.5848
   9   2.0000      -4.840088      -131.7055
  10   2.0000      -4.822016      -131.2137
  11   2.0000      -4.821469      -131.1988
  12   2.0000      -1.875199       -51.0268
  13   2.0000      -1.870373       -50.8955
  14   2.0000      -1.870053       -50.8867
  15   2.0000      -1.855615       -50.4939
  16   2.0000      -1.855595       -50.4933
  17   2.0000      -1.059747       -28.8372
  18   2.0000      -1.031712       -28.0743
  19   2.0000      -0.957559       -26.0565
  20   2.0000      -0.907621       -24.6976
  21   2.0000      -0.781465       -21.2647
  22   2.0000      -0.678455       -18.4617
  23   2.0000      -0.654048       -17.7976
  24   2.0000      -0.640485       -17.4285
  25   2.0000      -0.544519       -14.8171
  26   2.0000      -0.541910       -14.7461
  27   2.0000      -0.490086       -13.3359
  28   2.0000      -0.462754       -12.5922
  29   2.0000      -0.452504       -12.3133
  30   2.0000      -0.425394       -11.5756
  31   2.0000      -0.404383       -11.0038
  32   2.0000      -0.396003       -10.7758
  33   2.0000      -0.358176        -9.7465
  34   2.0000      -0.352278        -9.5860
  35   2.0000      -0.281177        -7.6512
  36   2.0000      -0.279384        -7.6024
  37   2.0000      -0.273503        -7.4424
  38   2.0000      -0.258621        -7.0374
  39   2.0000      -0.243507        -6.6262
  40   2.0000      -0.216449        -5.8899
  41   0.0000      -0.075577        -2.0566
  42   0.0000      -0.055950        -1.5225
  43   0.0000      -0.029212        -0.7949
  44   0.0000       0.068118         1.8536
  45   0.0000       0.077300         2.1034

MULLIKEN ATOMIC CHARGES
-----------------------
   0 C :   -0.062293
   1 C :   -0.073912
   2 C :    0.221637
   3 O :   -0.490331
   4 N :   -0.095379
   5 C :    0.265459
   6 O :   -0.504824
   7 N :   -0.093000
   8 I :   -0.033984
   9 H :    0.207740
  10 H :    0.324641
  11 H :    0.334246
Sum of atomic charges:    0.0000000

LOEWDIN ATOMIC CHARGES
----------------------
   0 C :    0.161930
   1 C :   -0.238403
   2 C :    0.344544
   3 O :   -0.506442
   4 N :   -0.415317
   5 C :    0.447175
   6 O :   -0.449229
   7 N :   -0.470396
   8 I :    0.265815
   9 H :    0.227549
  10 H :    0.316461
  11 H :    0.316312

  Mayer bond orders larger than 0.100000
B(  0-C ,  1-C ) :   1.4881 B(  0-C ,  7-N ) :   1.1987 B(  0-C ,  9-H ) :   0.9427
B(  1-C ,  2-C ) :   1.0154 B(  1-C ,  8-I ) :   1.0398 B(  2-C ,  3-O ) :   1.9562
B(  2-C ,  4-N ) :   1.0824 B(  4-N ,  5-C ) :   1.1005 B(  4-N , 10-H ) :   0.8793
B(  5-C ,  6-O ) :   1.9129 B(  5-C ,  7-N ) :   1.1077 B(  7-N , 11-H ) :   0.8768

Dispersion correction           -0.004724517
FINAL SINGLE POINT ENERGY      -711.907853988951

DIPOLE MOMENT
-------------

Method             : SCF
Type of density    : Electron Density
Multiplicity       :   1
Irrep              :   0
Energy             :  -711.9153153388220971 Eh
Relativity type    :
Basis              : AO
                                X                 Y                 Z
Electronic contribution:   -132.151912254       8.318152534      -0.001121966
Nuclear contribution   :    132.118849659      -5.874885249       0.001168334
                        -----------------------------------------
Total Dipole Moment    :     -0.033062594       2.443267285       0.000046368
                        -----------------------------------------
Magnitude (a.u.)       :      2.443490979
Magnitude (Debye)      :      6.210860483

Rotational constants in cm-1:             0.100304             0.016473             0.014150
Rotational constants in MHz :          3007.034937           493.861918           424.194172

                             ****ORCA TERMINATED NORMALLY****
TOTAL RUN TIME: 0 days 0 hours 0 minutes 34 seconds 495 msec
