                         Program Version 6.0.0  -   RELEASE  -
|  1> ! pbe def2-sv(p) def2/J RI DEFGRID1 loosescf d4 GCP(DFT/SV(P)) printgap
|  2> %output
|  3>     printlevel normal
|  4> end
|  5> * xyz 0 1
|  6> C 2.3029051386 -3.3716114551 -0.5553150728
|  7> C 1.3172001424 -2.5855791353 0.2849585024
|  8> O 1.8738301452 -1.3318322877 0.7079459773
|  9> P 2.1367111178 -0.1116703194 -0.2917057185
| 10> S 0.9755322108 -0.0689747092 -1.8669334095
| 11> O 3.654636607 -0.1633506772 -0.7396864556
| 12> C 4.7909559018 0.1922262967 0.0835016941
| 13> C 4.9507686618 -0.7199908325 1.2813309954
| 14> S 2.0512328771 1.5024670853 1.0571622836
| 15> C 0.2731263197 1.8117671561 0.9964924872
| 16> S -0.7275433864 0.3979517178 1.5796377672
| 17> P -2.1222317533 0.2545344264 -2.3747e-06
| 18> S -2.2028856048 1.7340608767 -1.2894703217
| 19> O -3.499331379 -0.041139311 0.7410681108
| 20> C -4.4003058073 1.0015347374 1.1488865587
| 21> C -3.812871128 1.8785844132 2.2359450021
| 22> O -1.7756826093 -1.1935830575 -0.5430669245
| 23> C -2.1848515836 -1.6433351552 -1.8509929925
| 24> C -3.6904878029 -1.6958056822 -1.9952155956
| 25> H 2.5535305719 -2.8022123271 -1.4507931597
| 26> H 3.2125143918 -3.5609429114 0.0082142155
| 27> H 1.8577904685 -4.3171236706 -0.8485428201
| 28> H 1.0740999966 -3.0954128205 1.2184178898
| 29> H 0.3979134206 -2.3897171954 -0.2757884088
| 30> H 5.6333260983 0.1071225021 -0.6050105157
| 31> H 4.6732978198 1.2320656964 0.3990950205
| 32> H 5.0455867061 -1.7538123489 0.9596585974
| 33> H 5.8446838672 -0.4326553446 1.8259824648
| 34> H 4.0900130231 -0.6301704144 1.9405919953
| 35> H -0.0301080137 2.052801589 -0.0263830428
| 36> H 0.1047546562 2.6538605132 1.6633878495
| 37> H -4.6522731817 1.6020720507 0.2689116784
| 38> H -5.2821268376 0.4625700959 1.4976680991
| 39> H -2.9805030003 2.4558930892 1.8349839235
| 40> H -4.5745189549 2.5635446768 2.5944898277
| 41> H -3.4546297461 1.2695985906 3.0620993652
| 42> H -1.7370472445 -0.9767596275 -2.5958447398
| 43> H -1.7358361681 -2.6341147921 -1.937547888
| 44> H -4.1226112544 -2.2896971423 -1.1938250051
| 45> H -4.1034610598 -0.688597113 -1.9522436785
| 46> H -3.9419843259 -2.1384731733 -2.9539524335
| 47> *
| 48>
| 49>                          ****END OF INPUT****

CARTESIAN COORDINATES (ANGSTROEM)
---------------------------------
  C      2.302905   -3.371611   -0.555315
  C      1.317200   -2.585579    0.284959
  O      1.873830   -1.331832    0.707946
  P      2.136711   -0.111670   -0.291706
  S      0.975532   -0.068975   -1.866933
  O      3.654637   -0.163351   -0.739686
  C      4.790956    0.192226    0.083502
  C      4.950769   -0.719991    1.281331
  S      2.051233    1.502467    1.057162
  C      0.273126    1.811767    0.996492
  S     -0.727543    0.397952    1.579638
  P     -2.122232    0.254534   -0.000002
  S     -2.202886    1.734061   -1.289470
  O     -3.499331   -0.041139    0.741068
  C     -4.400306    1.001535    1.148887
  C     -3.812871    1.878584    2.235945
  O     -1.775683   -1.193583   -0.543067
  C     -2.184852   -1.643335   -1.850993
  C     -3.690488   -1.695806   -1.995216
  H      2.553531   -2.802212   -1.450793
  H      3.212514   -3.560943    0.008214
  H      1.857790   -4.317124   -0.848543
  H      1.074100   -3.095413    1.218418
  H      0.397913   -2.389717   -0.275788
  H      5.633326    0.107123   -0.605011
  H      4.673298    1.232066    0.399095
  H      5.045587   -1.753812    0.959659
  H      5.844684   -0.432655    1.825982
  H      4.090013   -0.630170    1.940592
  H     -0.030108    2.052802   -0.026383
  H      0.104755    2.653861    1.663388
  H     -4.652273    1.602072    0.268912
  H     -5.282127    0.462570    1.497668
  H     -2.980503    2.455893    1.834984
  H     -4.574519    2.563545    2.594490
  H     -3.454630    1.269599    3.062099
  H     -1.737047   -0.976760   -2.595845
  H     -1.735836   -2.634115   -1.937548
  H     -4.122611   -2.289697   -1.193825
  H     -4.103461   -0.688597   -1.952244
  H     -3.941984   -2.138473   -2.953952

 Total Charge           Charge          ....    0
 Multiplicity           Mult            ....    1
 Number of Electrons    NEL             ....  202
 Basis Dimension        Dim             ....  334

ORBITAL ENERGIES
----------------

  NO   OCC          E(Eh)            E(eV)
   0   2.0000     -88.044330     -2395.8080
   1   2.0000     -88.040627     -2395.7073
   2   2.0000     -87.987082     -2394.2502
   3   2.0000     -87.977737     -2393.9959
   4   2.0000     -76.424251     -2079.6096
   5   2.0000     -76.422060     -2079.5500
   6   2.0000     -18.792284      -511.3640
   7   2.0000     -18.788485      -511.2607
   8   2.0000     -18.785158      -511.1701
   9   2.0000     -18.783139      -511.1152
  10   2.0000      -9.959830      -271.0208
  11   2.0000      -9.955336      -270.8985
  12   2.0000      -9.950549      -270.7682
  13   2.0000      -9.946537      -270.6590
  14   2.0000      -9.943136      -270.5665
  15   2.0000      -9.889963      -269.1196
  16   2.0000      -9.883338      -268.9393
  17   2.0000      -9.880468      -268.8612
  18   2.0000      -9.879918      -268.8462
  19   2.0000      -7.689908      -209.2530
  20   2.0000      -7.685503      -209.1332
  21   2.0000      -7.631925      -207.6752
  22   2.0000      -7.622672      -207.4235
  23   2.0000      -6.421651      -174.7420
  24   2.0000      -6.419643      -174.6874
  25   2.0000      -5.717827      -155.5900
  26   2.0000      -5.714299      -155.4940
  27   2.0000      -5.713387      -155.4692
  28   2.0000      -5.710208      -155.3827
  29   2.0000      -5.706861      -155.2916
  30   2.0000      -5.702240      -155.1658
  31   2.0000      -5.660789      -154.0379
  32   2.0000      -5.652752      -153.8192
  33   2.0000      -5.651956      -153.7975
  34   2.0000      -5.651751      -153.7920
  35   2.0000      -5.643521      -153.5680
  36   2.0000      -5.642394      -153.5374
  37   2.0000      -4.643879      -126.3664
  38   2.0000      -4.643286      -126.3502
  39   2.0000      -4.642566      -126.3307
  40   2.0000      -4.642449      -126.3275
  41   2.0000      -4.641257      -126.2950
  42   2.0000      -4.640068      -126.2627
  43   2.0000      -0.983224       -26.7549
  44   2.0000      -0.980374       -26.6773
  45   2.0000      -0.941480       -25.6190
  46   2.0000      -0.940835       -25.6014
  47   2.0000      -0.762549       -20.7500
  48   2.0000      -0.719568       -19.5804
  49   2.0000      -0.708023       -19.2663
  50   2.0000      -0.689795       -18.7703
  51   2.0000      -0.684214       -18.6184
  52   2.0000      -0.673187       -18.3184
  53   2.0000      -0.650132       -17.6910
  54   2.0000      -0.634765       -17.2728
  55   2.0000      -0.601517       -16.3681
  56   2.0000      -0.590258       -16.0617
  57   2.0000      -0.575637       -15.6639
  58   2.0000      -0.569430       -15.4950
  59   2.0000      -0.560600       -15.2547
  60   2.0000      -0.495009       -13.4699
  61   2.0000      -0.487215       -13.2578
  62   2.0000      -0.472799       -12.8655
  63   2.0000      -0.468186       -12.7400
  64   2.0000      -0.450736       -12.2651
  65   2.0000      -0.447094       -12.1661
  66   2.0000      -0.437667       -11.9095
  67   2.0000      -0.435683       -11.8555
  68   2.0000      -0.425675       -11.5832
  69   2.0000      -0.417113       -11.3502
  70   2.0000      -0.409910       -11.1542
  71   2.0000      -0.394678       -10.7397
  72   2.0000      -0.390049       -10.6138
  73   2.0000      -0.388193       -10.5633
  74   2.0000      -0.384702       -10.4683
  75   2.0000      -0.379641       -10.3306
  76   2.0000      -0.365176        -9.9369
  77   2.0000      -0.353880        -9.6296
  78   2.0000      -0.351636        -9.5685
  79   2.0000      -0.348942        -9.4952
  80   2.0000      -0.346580        -9.4309
  81   2.0000      -0.343182        -9.3385
  82   2.0000      -0.339778        -9.2458
  83   2.0000      -0.335832        -9.1385
  84   2.0000      -0.334252        -9.0955
  85   2.0000      -0.312843        -8.5129
  86   2.0000      -0.309981        -8.4350
  87   2.0000      -0.305291        -8.3074
  88   2.0000      -0.293095        -7.9755
  89   2.0000      -0.281797        -7.6681
  90   2.0000      -0.276864        -7.5339
  91   2.0000      -0.272115        -7.4046
  92   2.0000      -0.268097        -7.2953
  93   2.0000      -0.263637        -7.1739
  94   2.0000      -0.260007        -7.0752
  95   2.0000      -0.228583        -6.2201
  96   2.0000      -0.219664        -5.9774
  97   2.0000      -0.213933        -5.8214
  98   2.0000      -0.201917        -5.4944
  99   2.0000      -0.191635        -5.2147
 100   2.0000      -0.188001        -5.1158
 101   0.0000      -0.041993        -1.1427
 102   0.0000      -0.032948        -0.8966
 103   0.0000      -0.005368        -0.1461
 104   0.0000       0.010128         0.2756
 105   0.0000       0.023407         0.6369

MULLIKEN ATOMIC CHARGES
-----------------------
   0 C :   -0.316238
   1 C :   -0.026876
   2 O :   -0.377586
   3 P :    0.617043
   4 S :   -0.310308
   5 O :   -0.368944
   6 C :   -0.026077
   7 C :   -0.316821
   8 S :   -0.113296
   9 C :   -0.345750
  10 S :   -0.088437
  11 P :    0.616812
  12 S :   -0.316063
  13 O :   -0.372662
  14 C :   -0.000768
  15 C :   -0.312143
  16 O :   -0.362583
  17 C :   -0.005089
  18 C :   -0.300687
  19 H :    0.127190
  20 H :    0.113281
  21 H :    0.107863
  22 H :    0.100628
  23 H :    0.140585
  24 H :    0.115423
  25 H :    0.122288
  26 H :    0.124344
  27 H :    0.113640
  28 H :    0.132542
  29 H :    0.212725
  30 H :    0.180715
  31 H :    0.108894
  32 H :    0.103947
  33 H :    0.118308
  34 H :    0.111687
  35 H :    0.119744
  36 H :    0.122979
  37 H :    0.101400
  38 H :    0.114477
  39 H :    0.123024
  40 H :    0.110788
Sum of atomic charges:   -0.0000000

LOEWDIN ATOMIC CHARGES
----------------------
   0 C :   -0.366309
   1 C :   -0.123717
   2 O :   -0.248654
   3 P :    0.565543
   4 S :   -0.299499
   5 O :   -0.242919
   6 C :   -0.116999
   7 C :   -0.367797
   8 S :    0.080272
   9 C :   -0.475565
  10 S :    0.088571
  11 P :    0.576815
  12 S :   -0.303686
  13 O :   -0.245987
  14 C :   -0.119285
  15 C :   -0.369508
  16 O :   -0.236491
  17 C :   -0.116006
  18 C :   -0.366858
  19 H :    0.124304
  20 H :    0.120427
  21 H :    0.128539
  22 H :    0.117422
  23 H :    0.114378
  24 H :    0.124586
  25 H :    0.109358
  26 H :    0.126897
  27 H :    0.131695
  28 H :    0.124581
  29 H :    0.126312
  30 H :    0.134447
  31 H :    0.109312
  32 H :    0.118185
  33 H :    0.118553
  34 H :    0.129973
  35 H :    0.124497
  36 H :    0.112233
  37 H :    0.115451
  38 H :    0.125266
  39 H :    0.121462
  40 H :    0.130203

  Mayer bond orders larger than 0.100000
B(  0-C ,  1-C ) :   1.1588 B(  0-C , 19-H ) :   0.9343 B(  0-C , 20-H ) :   0.9427
B(  0-C , 21-H ) :   0.9401 B(  1-C ,  2-O ) :   0.9036 B(  1-C , 22-H ) :   0.9341
B(  1-C , 23-H ) :   0.9038 B(  2-O ,  3-P ) :   1.0768 B(  3-P ,  4-S ) :   1.6419
B(  3-P ,  5-O ) :   1.1176 B(  3-P ,  8-S ) :   0.9516 B(  4-S ,  8-S ) :   0.1013
B(  5-O ,  6-C ) :   0.9087 B(  6-C ,  7-C ) :   1.1634 B(  6-C , 24-H ) :   0.9345
B(  6-C , 25-H ) :   0.9185 B(  7-C , 26-H ) :   0.9418 B(  7-C , 27-H ) :   0.9356
B(  7-C , 28-H ) :   0.9351 B(  8-S ,  9-C ) :   1.0095 B(  9-C , 10-S ) :   0.9970
B(  9-C , 29-H ) :   0.8488 B(  9-C , 30-H ) :   0.9106 B( 10-S , 11-P ) :   0.9612
B( 10-S , 12-S ) :   0.1182 B( 11-P , 12-S ) :   1.5857 B( 11-P , 13-O ) :   1.0979
B( 11-P , 16-O ) :   1.1292 B( 13-O , 14-C ) :   0.9152 B( 14-C , 15-C ) :   1.1665
B( 14-C , 31-H ) :   0.9159 B( 14-C , 32-H ) :   0.9341 B( 15-C , 33-H ) :   0.9375
B( 15-C , 34-H ) :   0.9378 B( 15-C , 35-H ) :   0.9428 B( 16-O , 17-C ) :   0.8994
B( 17-C , 18-C ) :   1.1642 B( 17-C , 36-H ) :   0.9176 B( 17-C , 37-H ) :   0.9326
B( 18-C , 38-H ) :   0.9444 B( 18-C , 39-H ) :   0.9343 B( 18-C , 40-H ) :   0.9380

Dispersion correction           -0.068300680
FINAL SINGLE POINT ENERGY     -2929.517267922866

DIPOLE MOMENT
-------------

Method             : SCF
Type of density    : Electron Density
Multiplicity       :   1
Irrep              :   0
Energy             : -2929.6355918032177215 Eh
Relativity type    :
Basis              : AO
                                X                 Y                 Z
Electronic contribution:      2.164690752      12.057179777      -2.464966183
Nuclear contribution   :     -2.008016110     -12.758508600       3.499423980
                        -----------------------------------------
Total Dipole Moment    :      0.156674641      -0.701328823       1.034457797
                        -----------------------------------------
Magnitude (a.u.)       :      1.259568178
Magnitude (Debye)      :      3.201567876

Rotational constants in cm-1:             0.013454             0.005317             0.004671
Rotational constants in MHz :           403.351409           159.405266           140.036243

                             ****ORCA TERMINATED NORMALLY****
TOTAL RUN TIME: 0 days 0 hours 0 minutes 21 seconds 631 msec
