                         Program Version 6.0.0  -   RELEASE  -
|  1> ! pbe def2-sv(p) def2/J RI DEFGRID1 loosescf d4 GCP(DFT/SV(P)) printgap
|  2> %output
|  3>     printlevel normal
|  4> end
|  5> * xyz 0 1
|  6> C 2.0691277585 -2.119572171 2.7088156665
|  7> C 1.2032014265 -1.7032769302 1.5362320083
|  8> O 1.4173792216 -0.3112707745 1.2487836089
|  9> P 2.1661528932 0.2549934387 -0.0398791001
| 10> S 3.1590953589 -1.0976431896 -1.0574920256
| 11> O 2.9320459971 1.5122710283 0.5436634535
| 12> C 3.8893528806 1.4271335798 1.6225452626
| 13> C 5.2549560137 0.9909820651 1.1294054782
| 14> S 0.767052535 1.4152178517 -1.1213602642
| 15> C 0.2172325188 0.1070926442 -2.2510289276
| 16> S -0.5230325451 -1.2959972912 -1.3712123517
| 17> P -2.1083969618 -0.2279296404 -0.4678304728
| 18> S -2.9123732436 1.2196951034 -1.520509943
| 19> O -1.6133041145 0.2133113539 0.9826718356
| 20> C -1.4849063474 1.5722593822 1.4334155794
| 21> C -2.5990702768 1.8957313702 2.4090836484
| 22> O -2.9569729489 -1.5274852122 -0.1519535095
| 23> C -4.1248388427 -1.5176227264 0.6990827795
| 24> C -5.3691383731 -1.1089488279 -0.0645795639
| 25> H 1.8692191187 -1.4872513856 3.569587195
| 26> H 1.8485802591 -3.1512126666 2.9627648179
| 27> H 3.1206479368 -2.0391682478 2.4407382855
| 28> H 0.1390649352 -1.801176262 1.7619469399
| 29> H 1.4411527273 -2.2955806721 0.6466726301
| 30> H 3.9187584557 2.4420457828 2.0232723843
| 31> H 3.5064095162 0.7418607725 2.3833604093
| 32> H 5.9555847052 1.0006529969 1.9584673928
| 33> H 5.2078900738 -0.0137945146 0.7140291092
| 34> H 5.6058164184 1.6668599712 0.3542089232
| 35> H 1.0680525086 -0.2868845963 -2.8059351585
| 36> H -0.518159183 0.5584707472 -2.9162377879
| 37> H -0.501212761 1.6351961576 1.9034351382
| 38> H -1.518067298 2.2439378401 0.5696249544
| 39> H -3.560516711 1.8520709538 1.9009860753
| 40> H -2.5965415425 1.1886613925 3.2342328371
| 41> H -2.4511966741 2.8988082182 2.7956254834
| 42> H -4.1984944581 -2.5476010807 1.0530016956
| 43> H -3.9430902344 -0.8503200457 1.5458154116
| 44> H -5.5153672631 -1.7653226242 -0.9180835756
| 45> H -6.2309649071 -1.1759025712 0.5919480626
| 46> H -5.2760301763 -0.0873688649 -0.4275548257
| 47> *
| 48>
| 49>                          ****END OF INPUT****

CARTESIAN COORDINATES (ANGSTROEM)
---------------------------------
  C      2.069128   -2.119572    2.708816
  C      1.203201   -1.703277    1.536232
  O      1.417379   -0.311271    1.248784
  P      2.166153    0.254993   -0.039879
  S      3.159095   -1.097643   -1.057492
  O      2.932046    1.512271    0.543663
  C      3.889353    1.427134    1.622545
  C      5.254956    0.990982    1.129405
  S      0.767053    1.415218   -1.121360
  C      0.217233    0.107093   -2.251029
  S     -0.523033   -1.295997   -1.371212
  P     -2.108397   -0.227930   -0.467830
  S     -2.912373    1.219695   -1.520510
  O     -1.613304    0.213311    0.982672
  C     -1.484906    1.572259    1.433416
  C     -2.599070    1.895731    2.409084
  O     -2.956973   -1.527485   -0.151954
  C     -4.124839   -1.517623    0.699083
  C     -5.369138   -1.108949   -0.064580
  H      1.869219   -1.487251    3.569587
  H      1.848580   -3.151213    2.962765
  H      3.120648   -2.039168    2.440738
  H      0.139065   -1.801176    1.761947
  H      1.441153   -2.295581    0.646673
  H      3.918758    2.442046    2.023272
  H      3.506410    0.741861    2.383360
  H      5.955585    1.000653    1.958467
  H      5.207890   -0.013795    0.714029
  H      5.605816    1.666860    0.354209
  H      1.068053   -0.286885   -2.805935
  H     -0.518159    0.558471   -2.916238
  H     -0.501213    1.635196    1.903435
  H     -1.518067    2.243938    0.569625
  H     -3.560517    1.852071    1.900986
  H     -2.596542    1.188661    3.234233
  H     -2.451197    2.898808    2.795625
  H     -4.198494   -2.547601    1.053002
  H     -3.943090   -0.850320    1.545815
  H     -5.515367   -1.765323   -0.918084
  H     -6.230965   -1.175903    0.591948
  H     -5.276030   -0.087369   -0.427555

 Total Charge           Charge          ....    0
 Multiplicity           Mult            ....    1
 Number of Electrons    NEL             ....  202
 Basis Dimension        Dim             ....  334

ORBITAL ENERGIES
----------------

  NO   OCC          E(Eh)            E(eV)
   0   2.0000     -88.041357     -2395.7271
   1   2.0000     -88.041267     -2395.7247
   2   2.0000     -87.989888     -2394.3266
   3   2.0000     -87.989586     -2394.3184
   4   2.0000     -76.428268     -2079.7189
   5   2.0000     -76.428245     -2079.7183
   6   2.0000     -18.795732      -511.4579
   7   2.0000     -18.795699      -511.4570
   8   2.0000     -18.793450      -511.3958
   9   2.0000     -18.793197      -511.3889
  10   2.0000      -9.959814      -271.0203
  11   2.0000      -9.959767      -271.0190
  12   2.0000      -9.952238      -270.8142
  13   2.0000      -9.947010      -270.6719
  14   2.0000      -9.946896      -270.6688
  15   2.0000      -9.887283      -269.0466
  16   2.0000      -9.887027      -269.0397
  17   2.0000      -9.884649      -268.9750
  18   2.0000      -9.884366      -268.9673
  19   2.0000      -7.686150      -209.1508
  20   2.0000      -7.686052      -209.1481
  21   2.0000      -7.634799      -207.7534
  22   2.0000      -7.634500      -207.7453
  23   2.0000      -6.425648      -174.8508
  24   2.0000      -6.425628      -174.8502
  25   2.0000      -5.714097      -155.4885
  26   2.0000      -5.714003      -155.4859
  27   2.0000      -5.710782      -155.3983
  28   2.0000      -5.710662      -155.3950
  29   2.0000      -5.702945      -155.1850
  30   2.0000      -5.702870      -155.1830
  31   2.0000      -5.663620      -154.1149
  32   2.0000      -5.663320      -154.1068
  33   2.0000      -5.655705      -153.8996
  34   2.0000      -5.655368      -153.8904
  35   2.0000      -5.654772      -153.8742
  36   2.0000      -5.654514      -153.8671
  37   2.0000      -4.648409      -126.4897
  38   2.0000      -4.648374      -126.4887
  39   2.0000      -4.647160      -126.4557
  40   2.0000      -4.647126      -126.4547
  41   2.0000      -4.646226      -126.4302
  42   2.0000      -4.646194      -126.4294
  43   2.0000      -0.989153       -26.9162
  44   2.0000      -0.987952       -26.8835
  45   2.0000      -0.946091       -25.7445
  46   2.0000      -0.944648       -25.7052
  47   2.0000      -0.765678       -20.8352
  48   2.0000      -0.726125       -19.7589
  49   2.0000      -0.710107       -19.3230
  50   2.0000      -0.689410       -18.7598
  51   2.0000      -0.689030       -18.7494
  52   2.0000      -0.671435       -18.2707
  53   2.0000      -0.653094       -17.7716
  54   2.0000      -0.640341       -17.4246
  55   2.0000      -0.599956       -16.3256
  56   2.0000      -0.590742       -16.0749
  57   2.0000      -0.577526       -15.7153
  58   2.0000      -0.577356       -15.7107
  59   2.0000      -0.559305       -15.2195
  60   2.0000      -0.505600       -13.7581
  61   2.0000      -0.496875       -13.5207
  62   2.0000      -0.479581       -13.0500
  63   2.0000      -0.477612       -12.9965
  64   2.0000      -0.460669       -12.5354
  65   2.0000      -0.448584       -12.2066
  66   2.0000      -0.438726       -11.9383
  67   2.0000      -0.432156       -11.7596
  68   2.0000      -0.429477       -11.6867
  69   2.0000      -0.413265       -11.2455
  70   2.0000      -0.409043       -11.1306
  71   2.0000      -0.393457       -10.7065
  72   2.0000      -0.389763       -10.6060
  73   2.0000      -0.382562       -10.4100
  74   2.0000      -0.377871       -10.2824
  75   2.0000      -0.376982       -10.2582
  76   2.0000      -0.375677       -10.2227
  77   2.0000      -0.357280        -9.7221
  78   2.0000      -0.354817        -9.6551
  79   2.0000      -0.353322        -9.6144
  80   2.0000      -0.352600        -9.5947
  81   2.0000      -0.350842        -9.5469
  82   2.0000      -0.342278        -9.3139
  83   2.0000      -0.340018        -9.2524
  84   2.0000      -0.334785        -9.1100
  85   2.0000      -0.324750        -8.8369
  86   2.0000      -0.310209        -8.4412
  87   2.0000      -0.296313        -8.0631
  88   2.0000      -0.295835        -8.0501
  89   2.0000      -0.292565        -7.9611
  90   2.0000      -0.290002        -7.8914
  91   2.0000      -0.281080        -7.6486
  92   2.0000      -0.279068        -7.5938
  93   2.0000      -0.269448        -7.3321
  94   2.0000      -0.259889        -7.0719
  95   2.0000      -0.233926        -6.3654
  96   2.0000      -0.216743        -5.8979
  97   2.0000      -0.216124        -5.8810
  98   2.0000      -0.207307        -5.6411
  99   2.0000      -0.199962        -5.4412
 100   2.0000      -0.198216        -5.3937
 101   0.0000      -0.047110        -1.2819
 102   0.0000      -0.027974        -0.7612
 103   0.0000       0.003988         0.1085
 104   0.0000       0.005090         0.1385
 105   0.0000       0.009896         0.2693

MULLIKEN ATOMIC CHARGES
-----------------------
   0 C :   -0.286072
   1 C :   -0.019276
   2 O :   -0.380836
   3 P :    0.647723
   4 S :   -0.329279
   5 O :   -0.377538
   6 C :   -0.017443
   7 C :   -0.303482
   8 S :   -0.088984
   9 C :   -0.354199
  10 S :   -0.088320
  11 P :    0.646631
  12 S :   -0.329074
  13 O :   -0.380835
  14 C :   -0.019336
  15 C :   -0.286238
  16 O :   -0.378075
  17 C :   -0.017616
  18 C :   -0.300975
  19 H :    0.112277
  20 H :    0.112478
  21 H :    0.113174
  22 H :    0.103757
  23 H :    0.119639
  24 H :    0.109372
  25 H :    0.107358
  26 H :    0.108377
  27 H :    0.131829
  28 H :    0.120772
  29 H :    0.193474
  30 H :    0.193214
  31 H :    0.103251
  32 H :    0.120385
  33 H :    0.113616
  34 H :    0.112080
  35 H :    0.112322
  36 H :    0.109190
  37 H :    0.106917
  38 H :    0.120060
  39 H :    0.108225
  40 H :    0.131454
Sum of atomic charges:    0.0000000

LOEWDIN ATOMIC CHARGES
----------------------
   0 C :   -0.357731
   1 C :   -0.129688
   2 O :   -0.239919
   3 P :    0.567664
   4 S :   -0.313950
   5 O :   -0.246605
   6 C :   -0.111819
   7 C :   -0.364742
   8 S :    0.101369
   9 C :   -0.480896
  10 S :    0.101680
  11 P :    0.567687
  12 S :   -0.314321
  13 O :   -0.240359
  14 C :   -0.129481
  15 C :   -0.358438
  16 O :   -0.246965
  17 C :   -0.111650
  18 C :   -0.364237
  19 H :    0.122049
  20 H :    0.131249
  21 H :    0.122267
  22 H :    0.110834
  23 H :    0.104614
  24 H :    0.120977
  25 H :    0.109767
  26 H :    0.128867
  27 H :    0.123236
  28 H :    0.129843
  29 H :    0.132471
  30 H :    0.132471
  31 H :    0.111466
  32 H :    0.104644
  33 H :    0.121984
  34 H :    0.121845
  35 H :    0.131196
  36 H :    0.120810
  37 H :    0.109794
  38 H :    0.129542
  39 H :    0.128790
  40 H :    0.123686

  Mayer bond orders larger than 0.100000
B(  0-C ,  1-C ) :   1.1625 B(  0-C , 19-H ) :   0.9470 B(  0-C , 20-H ) :   0.9409
B(  0-C , 21-H ) :   0.9422 B(  1-C ,  2-O ) :   0.9003 B(  1-C , 22-H ) :   0.9258
B(  1-C , 23-H ) :   0.8997 B(  2-O ,  3-P ) :   1.0831 B(  3-P ,  4-S ) :   1.6129
B(  3-P ,  5-O ) :   1.1215 B(  3-P ,  8-S ) :   0.9454 B(  4-S ,  8-S ) :   0.1075
B(  5-O ,  6-C ) :   0.9075 B(  6-C ,  7-C ) :   1.1671 B(  6-C , 24-H ) :   0.9357
B(  6-C , 25-H ) :   0.9196 B(  7-C , 26-H ) :   0.9384 B(  7-C , 27-H ) :   0.9334
B(  7-C , 28-H ) :   0.9464 B(  8-S ,  9-C ) :   1.0004 B(  9-C , 10-S ) :   1.0003
B(  9-C , 29-H ) :   0.8866 B(  9-C , 30-H ) :   0.8868 B( 10-S , 11-P ) :   0.9457
B( 10-S , 12-S ) :   0.1073 B( 11-P , 12-S ) :   1.6113 B( 11-P , 13-O ) :   1.0831
B( 11-P , 16-O ) :   1.1208 B( 13-O , 14-C ) :   0.9001 B( 14-C , 15-C ) :   1.1635
B( 14-C , 31-H ) :   0.9267 B( 14-C , 32-H ) :   0.9002 B( 15-C , 33-H ) :   0.9407
B( 15-C , 34-H ) :   0.9464 B( 15-C , 35-H ) :   0.9407 B( 16-O , 17-C ) :   0.9062
B( 17-C , 18-C ) :   1.1680 B( 17-C , 36-H ) :   0.9357 B( 17-C , 37-H ) :   0.9180
B( 18-C , 38-H ) :   0.9465 B( 18-C , 39-H ) :   0.9388 B( 18-C , 40-H ) :   0.9333

Dispersion correction           -0.066882517
FINAL SINGLE POINT ENERGY     -2929.527421056925

DIPOLE MOMENT
-------------

Method             : SCF
Type of density    : Electron Density
Multiplicity       :   1
Irrep              :   0
Energy             : -2929.6460383539142640 Eh
Relativity type    :
Basis              : AO
                                X                 Y                 Z
Electronic contribution:      2.341309113       1.141338303     -22.475747563
Nuclear contribution   :     -2.535033038      -1.227152184      24.414331847
                        -----------------------------------------
Total Dipole Moment    :     -0.193723925      -0.085813881       1.938584284
                        -----------------------------------------
Magnitude (a.u.)       :      1.950128716
Magnitude (Debye)      :      4.956833269

Rotational constants in cm-1:             0.013538             0.004940             0.004837
Rotational constants in MHz :           405.873708           148.105257           145.020967

                             ****ORCA TERMINATED NORMALLY****
TOTAL RUN TIME: 0 days 0 hours 0 minutes 21 seconds 828 msec
