                         Program Version 6.0.0  -   RELEASE  -
|  1> ! pbe def2-sv(p) def2/J RI DEFGRID1 loosescf d4 GCP(DFT/SV(P)) printgap
|  2> %output
|  3>     printlevel normal
|  4> end
|  5> * xyz 0 1
|  6> C 4.442496068 -1.6609077747 1.2184822743
|  7> C 4.0095798641 -0.2094535886 1.1590733928
|  8> O 3.5655834508 0.1391719093 -0.1764229749
|  9> P 2.0367397195 0.3005639755 -0.573958539
| 10> S 1.8775004283 0.8820429174 -2.4308348468
| 11> O 1.3870575422 1.2475195362 0.5427572354
| 12> C 1.3483593159 2.6756824247 0.38838861
| 13> C 2.7221746426 3.2957421408 0.5372603346
| 14> S 1.1846497781 -1.548256586 -0.0518620478
| 15> C -0.1496565227 -1.664826114 -1.2916515466
| 16> S -1.7676675846 -1.9182818795 -0.5483008737
| 17> P -2.0115232562 0.0468818059 0.2380673583
| 18> S -1.5376534465 1.4634223255 -1.0349663721
| 19> O -1.1463203695 0.2160704994 1.5438149876
| 20> C -1.418892645 -0.3650999723 2.844469313
| 21> C -1.3204443956 -1.8766109978 2.8481252017
| 22> O -3.4845507958 0.0271143995 0.826846907
| 23> C -4.6444875496 -0.4781812614 0.1391819449
| 24> C -4.8838593351 0.2094913062 -1.1881425324
| 25> H 3.5948610301 -2.3214246691 1.0522309198
| 26> H 5.1924928397 -1.8533267509 0.4564295811
| 27> H 4.8657987769 -1.8625533539 2.1974425645
| 28> H 4.8513203764 0.4589827874 1.3503358686
| 29> H 3.2042626016 -0.0033494424 1.868738389
| 30> H 0.9186806444 2.9078708945 -0.592007194
| 31> H 0.6588096942 3.0066708554 1.1669488048
| 32> H 3.3763824681 2.9338339289 -0.2558630669
| 33> H 2.6360084072 4.3748176486 0.4568498758
| 34> H 3.1525648084 3.0383181841 1.5017106621
| 35> H 0.0437707611 -2.5374642337 -1.9102172627
| 36> H -0.1497865647 -0.749227827 -1.8906162938
| 37> H -0.6525578103 0.0854219811 3.4773229367
| 38> H -2.4081368113 -0.0326478487 3.1636928501
| 39> H -0.3736263142 -2.1968035167 2.4185365358
| 40> H -1.3829007301 -2.2277054749 3.8735014728
| 41> H -2.1329361334 -2.31699427 2.2747949863
| 42> H -4.5161781335 -1.5547638643 -0.0016628233
| 43> H -5.4595473529 -0.2876172398 0.8396281381
| 44> H -4.0635418995 0.0008388185 -1.8734892618
| 45> H -5.8088304505 -0.1557088915 -1.6224136203
| 46> H -4.9491400877 1.2865256425 -1.0525231865
| 47> *
| 48>
| 49>                          ****END OF INPUT****

CARTESIAN COORDINATES (ANGSTROEM)
---------------------------------
  C      4.442496   -1.660908    1.218482
  C      4.009580   -0.209454    1.159073
  O      3.565583    0.139172   -0.176423
  P      2.036740    0.300564   -0.573959
  S      1.877500    0.882043   -2.430835
  O      1.387058    1.247520    0.542757
  C      1.348359    2.675682    0.388389
  C      2.722175    3.295742    0.537260
  S      1.184650   -1.548257   -0.051862
  C     -0.149657   -1.664826   -1.291652
  S     -1.767668   -1.918282   -0.548301
  P     -2.011523    0.046882    0.238067
  S     -1.537653    1.463422   -1.034966
  O     -1.146320    0.216070    1.543815
  C     -1.418893   -0.365100    2.844469
  C     -1.320444   -1.876611    2.848125
  O     -3.484551    0.027114    0.826847
  C     -4.644488   -0.478181    0.139182
  C     -4.883859    0.209491   -1.188143
  H      3.594861   -2.321425    1.052231
  H      5.192493   -1.853327    0.456430
  H      4.865799   -1.862553    2.197443
  H      4.851320    0.458983    1.350336
  H      3.204263   -0.003349    1.868738
  H      0.918681    2.907871   -0.592007
  H      0.658810    3.006671    1.166949
  H      3.376382    2.933834   -0.255863
  H      2.636008    4.374818    0.456850
  H      3.152565    3.038318    1.501711
  H      0.043771   -2.537464   -1.910217
  H     -0.149787   -0.749228   -1.890616
  H     -0.652558    0.085422    3.477323
  H     -2.408137   -0.032648    3.163693
  H     -0.373626   -2.196804    2.418537
  H     -1.382901   -2.227705    3.873501
  H     -2.132936   -2.316994    2.274795
  H     -4.516178   -1.554764   -0.001663
  H     -5.459547   -0.287617    0.839628
  H     -4.063542    0.000839   -1.873489
  H     -5.808830   -0.155709   -1.622414
  H     -4.949140    1.286526   -1.052523

 Total Charge           Charge          ....    0
 Multiplicity           Mult            ....    1
 Number of Electrons    NEL             ....  202
 Basis Dimension        Dim             ....  334

ORBITAL ENERGIES
----------------

  NO   OCC          E(Eh)            E(eV)
   0   2.0000     -88.045252     -2395.8331
   1   2.0000     -88.039096     -2395.6656
   2   2.0000     -87.976957     -2393.9747
   3   2.0000     -87.976651     -2393.9664
   4   2.0000     -76.425384     -2079.6404
   5   2.0000     -76.417503     -2079.4260
   6   2.0000     -18.798422      -511.5311
   7   2.0000     -18.788216      -511.2533
   8   2.0000     -18.786848      -511.2161
   9   2.0000     -18.777180      -510.9530
  10   2.0000      -9.962657      -271.0977
  11   2.0000      -9.956176      -270.9213
  12   2.0000      -9.955507      -270.9031
  13   2.0000      -9.954467      -270.8748
  14   2.0000      -9.935815      -270.3673
  15   2.0000      -9.887283      -269.0466
  16   2.0000      -9.886570      -269.0272
  17   2.0000      -9.884118      -268.9605
  18   2.0000      -9.877052      -268.7682
  19   2.0000      -7.690236      -209.2620
  20   2.0000      -7.684367      -209.1023
  21   2.0000      -7.621928      -207.4032
  22   2.0000      -7.621832      -207.4006
  23   2.0000      -6.422395      -174.7623
  24   2.0000      -6.415502      -174.5747
  25   2.0000      -5.717981      -155.5942
  26   2.0000      -5.714655      -155.5037
  27   2.0000      -5.712256      -155.4384
  28   2.0000      -5.708938      -155.3481
  29   2.0000      -5.707449      -155.3076
  30   2.0000      -5.701146      -155.1361
  31   2.0000      -5.651068      -153.7734
  32   2.0000      -5.650956      -153.7703
  33   2.0000      -5.642700      -153.5457
  34   2.0000      -5.642386      -153.5371
  35   2.0000      -5.641844      -153.5224
  36   2.0000      -5.641655      -153.5172
  37   2.0000      -4.645448      -126.4091
  38   2.0000      -4.644359      -126.3794
  39   2.0000      -4.642279      -126.3228
  40   2.0000      -4.638313      -126.2149
  41   2.0000      -4.636889      -126.1762
  42   2.0000      -4.636102      -126.1547
  43   2.0000      -0.989645       -26.9296
  44   2.0000      -0.976931       -26.5837
  45   2.0000      -0.944221       -25.6936
  46   2.0000      -0.933889       -25.4124
  47   2.0000      -0.762878       -20.7590
  48   2.0000      -0.720142       -19.5961
  49   2.0000      -0.709891       -19.3171
  50   2.0000      -0.692676       -18.8487
  51   2.0000      -0.687304       -18.7025
  52   2.0000      -0.672594       -18.3022
  53   2.0000      -0.648308       -17.6414
  54   2.0000      -0.631064       -17.1721
  55   2.0000      -0.591876       -16.1058
  56   2.0000      -0.585411       -15.9298
  57   2.0000      -0.580326       -15.7915
  58   2.0000      -0.573523       -15.6064
  59   2.0000      -0.558918       -15.2089
  60   2.0000      -0.500860       -13.6291
  61   2.0000      -0.494588       -13.4584
  62   2.0000      -0.472251       -12.8506
  63   2.0000      -0.468726       -12.7547
  64   2.0000      -0.454466       -12.3666
  65   2.0000      -0.447974       -12.1900
  66   2.0000      -0.438654       -11.9364
  67   2.0000      -0.434985       -11.8366
  68   2.0000      -0.428572       -11.6620
  69   2.0000      -0.413963       -11.2645
  70   2.0000      -0.411753       -11.2044
  71   2.0000      -0.404306       -11.0017
  72   2.0000      -0.392831       -10.6895
  73   2.0000      -0.386784       -10.5249
  74   2.0000      -0.379822       -10.3355
  75   2.0000      -0.364057        -9.9065
  76   2.0000      -0.355828        -9.6826
  77   2.0000      -0.354861        -9.6563
  78   2.0000      -0.354204        -9.6384
  79   2.0000      -0.350045        -9.5252
  80   2.0000      -0.346372        -9.4253
  81   2.0000      -0.343977        -9.3601
  82   2.0000      -0.341665        -9.2972
  83   2.0000      -0.337468        -9.1830
  84   2.0000      -0.330808        -9.0017
  85   2.0000      -0.324369        -8.8265
  86   2.0000      -0.307636        -8.3712
  87   2.0000      -0.302788        -8.2393
  88   2.0000      -0.299295        -8.1442
  89   2.0000      -0.290827        -7.9138
  90   2.0000      -0.278165        -7.5693
  91   2.0000      -0.270339        -7.3563
  92   2.0000      -0.266585        -7.2541
  93   2.0000      -0.260527        -7.0893
  94   2.0000      -0.254067        -6.9135
  95   2.0000      -0.233767        -6.3611
  96   2.0000      -0.215895        -5.8748
  97   2.0000      -0.207807        -5.6547
  98   2.0000      -0.196648        -5.3511
  99   2.0000      -0.188602        -5.1321
 100   2.0000      -0.182208        -4.9581
 101   0.0000      -0.042423        -1.1544
 102   0.0000      -0.029466        -0.8018
 103   0.0000      -0.012458        -0.3390
 104   0.0000       0.008079         0.2198
 105   0.0000       0.018693         0.5087

MULLIKEN ATOMIC CHARGES
-----------------------
   0 C :   -0.286383
   1 C :   -0.035073
   2 O :   -0.371143
   3 P :    0.617510
   4 S :   -0.300568
   5 O :   -0.371140
   6 C :   -0.007998
   7 C :   -0.309084
   8 S :   -0.118590
   9 C :   -0.342012
  10 S :   -0.124709
  11 P :    0.604405
  12 S :   -0.298481
  13 O :   -0.344134
  14 C :    0.006354
  15 C :   -0.321535
  16 O :   -0.382861
  17 C :   -0.016789
  18 C :   -0.306690
  19 H :    0.127454
  20 H :    0.122926
  21 H :    0.107959
  22 H :    0.110929
  23 H :    0.107535
  24 H :    0.124655
  25 H :    0.099576
  26 H :    0.127875
  27 H :    0.111036
  28 H :    0.105120
  29 H :    0.185484
  30 H :    0.214111
  31 H :    0.105485
  32 H :    0.107790
  33 H :    0.130106
  34 H :    0.109746
  35 H :    0.118603
  36 H :    0.115100
  37 H :    0.109350
  38 H :    0.130080
  39 H :    0.111265
  40 H :    0.126739
Sum of atomic charges:   -0.0000000

LOEWDIN ATOMIC CHARGES
----------------------
   0 C :   -0.360660
   1 C :   -0.119767
   2 O :   -0.246611
   3 P :    0.569088
   4 S :   -0.298859
   5 O :   -0.244582
   6 C :   -0.124579
   7 C :   -0.367136
   8 S :    0.075575
   9 C :   -0.475821
  10 S :    0.069070
  11 P :    0.565519
  12 S :   -0.289264
  13 O :   -0.227875
  14 C :   -0.108142
  15 C :   -0.372271
  16 O :   -0.245932
  17 C :   -0.114938
  18 C :   -0.368561
  19 H :    0.119145
  20 H :    0.130955
  21 H :    0.128996
  22 H :    0.120206
  23 H :    0.107643
  24 H :    0.109046
  25 H :    0.116206
  26 H :    0.124619
  27 H :    0.130300
  28 H :    0.118631
  29 H :    0.138426
  30 H :    0.127468
  31 H :    0.120498
  32 H :    0.113051
  33 H :    0.122089
  34 H :    0.129227
  35 H :    0.115753
  36 H :    0.107449
  37 H :    0.121125
  38 H :    0.123505
  39 H :    0.130200
  40 H :    0.131206

  Mayer bond orders larger than 0.100000
B(  0-C ,  1-C ) :   1.1654 B(  0-C , 19-H ) :   0.9366 B(  0-C , 20-H ) :   0.9459
B(  0-C , 21-H ) :   0.9391 B(  1-C ,  2-O ) :   0.9033 B(  1-C , 22-H ) :   0.9337
B(  1-C , 23-H ) :   0.9151 B(  2-O ,  3-P ) :   1.1022 B(  3-P ,  4-S ) :   1.6444
B(  3-P ,  5-O ) :   1.0924 B(  3-P ,  8-S ) :   0.9608 B(  4-S ,  8-S ) :   0.1077
B(  5-O ,  6-C ) :   0.9070 B(  6-C ,  7-C ) :   1.1532 B(  6-C , 24-H ) :   0.9097
B(  6-C , 25-H ) :   0.9350 B(  7-C , 26-H ) :   0.9356 B(  7-C , 27-H ) :   0.9404
B(  7-C , 28-H ) :   0.9452 B(  8-S ,  9-C ) :   0.9954 B(  9-C , 10-S ) :   1.0122
B(  9-C , 29-H ) :   0.9112 B(  9-C , 30-H ) :   0.8406 B( 10-S , 11-P ) :   0.9251
B( 10-S , 12-S ) :   0.1067 B( 11-P , 12-S ) :   1.6557 B( 11-P , 13-O ) :   1.1429
B( 11-P , 16-O ) :   1.0768 B( 13-O , 14-C ) :   0.9009 B( 14-C , 15-C ) :   1.1692
B( 14-C , 31-H ) :   0.9344 B( 14-C , 32-H ) :   0.9283 B( 15-C , 33-H ) :   0.9360
B( 15-C , 34-H ) :   0.9354 B( 15-C , 35-H ) :   0.9405 B( 16-O , 17-C ) :   0.9123
B( 17-C , 18-C ) :   1.1668 B( 17-C , 36-H ) :   0.9251 B( 17-C , 37-H ) :   0.9335
B( 18-C , 38-H ) :   0.9311 B( 18-C , 39-H ) :   0.9350 B( 18-C , 40-H ) :   0.9435

Dispersion correction           -0.068326342
FINAL SINGLE POINT ENERGY     -2929.510040639489

DIPOLE MOMENT
-------------

Method             : SCF
Type of density    : Electron Density
Multiplicity       :   1
Irrep              :   0
Energy             : -2929.6283877334735735 Eh
Relativity type    :
Basis              : AO
                                X                 Y                 Z
Electronic contribution:     -1.131233606      -0.551112079     -14.322223031
Nuclear contribution   :      0.550084514      -0.259770615      16.312867679
                        -----------------------------------------
Total Dipole Moment    :     -0.581149092      -0.810882693       1.990644648
                        -----------------------------------------
Magnitude (a.u.)       :      2.226641220
Magnitude (Debye)      :      5.659672199

Rotational constants in cm-1:             0.012342             0.005590             0.005147
Rotational constants in MHz :           370.003398           167.587531           154.294651

                             ****ORCA TERMINATED NORMALLY****
TOTAL RUN TIME: 0 days 0 hours 0 minutes 21 seconds 836 msec
