                         Program Version 6.0.0  -   RELEASE  -
|  1> ! r2scan-3c def2/J RI DEFGRID2 scfconv6 printgap
|  2> %output
|  3>     printlevel normal
|  4> end
|  5> * xyz 0 1
|  6> C 2.9611152926 -2.7709457852 1.1400022894
|  7> C 1.6997358303 -2.2814921924 0.4585362253
|  8> O 1.52184793 -0.86881501 0.6610322104
|  9> P 2.3201810821 0.2333698792 -0.1833949063
| 10> S 3.2151363044 -0.3848526712 -1.8040063192
| 11> O 3.3460028527 0.883822362 0.829999303
| 12> C 3.0561435371 1.2158227535 2.2110720281
| 13> C 2.5560101666 2.6397320196 2.3458608486
| 14> S 0.8012176124 1.6938278249 -0.4449807274
| 15> C 0.1239886586 1.0179455095 -1.9809702324
| 16> S -0.5153813916 -0.6698107313 -1.7994045492
| 17> P -2.1030874757 -0.2094315549 -0.469830641
| 18> S -2.9779883174 1.5311093187 -0.6943885538
| 19> O -1.5726387185 -0.5139312175 0.9983573913
| 20> C -1.2676650002 0.4738697598 1.9984913233
| 21> C -1.9237176756 0.0754503497 3.305849759
| 22> O -2.953279024 -1.5015934664 -0.7997987903
| 23> C -4.3802449611 -1.5616834103 -0.5902715644
| 24> C -4.7467321721 -1.4649563724 0.8758861337
| 25> H 3.0578138356 -3.8416361121 0.9911673449
| 26> H 3.8270644462 -2.2734768567 0.7038823698
| 27> H 2.9277936314 -2.5563554405 2.2048572702
| 28> H 0.7998651776 -2.7300138299 0.8829520167
| 29> H 1.73553386 -2.4814314429 -0.6171000637
| 30> H 2.3314841236 0.4984176668 2.6029154762
| 31> H 4.0149995662 1.0854702754 2.715664163
| 32> H 3.2717501585 3.3282893532 1.9056347918
| 33> H 1.6002798304 2.7643117413 1.8401820104
| 34> H 2.4347959846 2.8739418437 3.3988671331
| 35> H 0.9093000178 0.9706086923 -2.7345668711
| 36> H -0.6801556732 1.6880635339 -2.2836403016
| 37> H -0.1799757405 0.5026914354 2.0970591971
| 38> H -1.6225682626 1.4513142107 1.6540742628
| 39> H -1.6132549808 -0.926244583 3.5885106531
| 40> H -1.6229484058 0.7768386973 4.0772966875
| 41> H -3.0058255564 0.0954141826 3.2106536132
| 42> H -4.8465542571 -0.7507940105 -1.1582801144
| 43> H -4.6635392831 -2.5243661428 -1.0179423677
| 44> H -4.5006302008 -0.4717798487 1.2495432955
| 45> H -5.813445745 -1.6298817748 0.9917912669
| 46> H -4.1999326737 -2.2081987411 1.4502871715
| 47> *
| 48>
| 49>                          ****END OF INPUT****

CARTESIAN COORDINATES (ANGSTROEM)
---------------------------------
  C      2.961115   -2.770946    1.140002
  C      1.699736   -2.281492    0.458536
  O      1.521848   -0.868815    0.661032
  P      2.320181    0.233370   -0.183395
  S      3.215136   -0.384853   -1.804006
  O      3.346003    0.883822    0.829999
  C      3.056144    1.215823    2.211072
  C      2.556010    2.639732    2.345861
  S      0.801218    1.693828   -0.444981
  C      0.123989    1.017946   -1.980970
  S     -0.515381   -0.669811   -1.799405
  P     -2.103087   -0.209432   -0.469831
  S     -2.977988    1.531109   -0.694389
  O     -1.572639   -0.513931    0.998357
  C     -1.267665    0.473870    1.998491
  C     -1.923718    0.075450    3.305850
  O     -2.953279   -1.501593   -0.799799
  C     -4.380245   -1.561683   -0.590272
  C     -4.746732   -1.464956    0.875886
  H      3.057814   -3.841636    0.991167
  H      3.827064   -2.273477    0.703882
  H      2.927794   -2.556355    2.204857
  H      0.799865   -2.730014    0.882952
  H      1.735534   -2.481431   -0.617100
  H      2.331484    0.498418    2.602915
  H      4.015000    1.085470    2.715664
  H      3.271750    3.328289    1.905635
  H      1.600280    2.764312    1.840182
  H      2.434796    2.873942    3.398867
  H      0.909300    0.970609   -2.734567
  H     -0.680156    1.688064   -2.283640
  H     -0.179976    0.502691    2.097059
  H     -1.622568    1.451314    1.654074
  H     -1.613255   -0.926245    3.588511
  H     -1.622948    0.776839    4.077297
  H     -3.005826    0.095414    3.210654
  H     -4.846554   -0.750794   -1.158280
  H     -4.663539   -2.524366   -1.017942
  H     -4.500630   -0.471780    1.249543
  H     -5.813446   -1.629882    0.991791
  H     -4.199933   -2.208199    1.450287

 Total Charge           Charge          ....    0
 Multiplicity           Mult            ....    1
 Number of Electrons    NEL             ....  202
 Basis Dimension        Dim             ....  539

ORBITAL ENERGIES
----------------

  NO   OCC          E(Eh)            E(eV)
   0   2.0000     -88.574755     -2410.2416
   1   2.0000     -88.571679     -2410.1579
   2   2.0000     -88.524178     -2408.8653
   3   2.0000     -88.520789     -2408.7731
   4   2.0000     -76.915897     -2092.9880
   5   2.0000     -76.915191     -2092.9687
   6   2.0000     -18.996135      -516.9111
   7   2.0000     -18.992331      -516.8076
   8   2.0000     -18.991256      -516.7783
   9   2.0000     -18.989410      -516.7281
  10   2.0000     -10.110507      -275.1209
  11   2.0000     -10.104023      -274.9444
  12   2.0000     -10.102497      -274.9029
  13   2.0000     -10.096475      -274.7391
  14   2.0000     -10.094945      -274.6974
  15   2.0000     -10.039857      -273.1984
  16   2.0000     -10.034602      -273.0554
  17   2.0000     -10.033644      -273.0293
  18   2.0000     -10.029504      -272.9167
  19   2.0000      -7.869313      -214.1349
  20   2.0000      -7.865877      -214.0414
  21   2.0000      -7.818977      -212.7652
  22   2.0000      -7.815607      -212.6735
  23   2.0000      -6.594084      -179.4342
  24   2.0000      -6.593595      -179.4208
  25   2.0000      -5.816147      -158.2654
  26   2.0000      -5.813204      -158.1853
  27   2.0000      -5.812892      -158.1768
  28   2.0000      -5.809858      -158.0943
  29   2.0000      -5.806396      -158.0001
  30   2.0000      -5.802745      -157.9007
  31   2.0000      -5.766577      -156.9165
  32   2.0000      -5.763412      -156.8304
  33   2.0000      -5.759449      -156.7226
  34   2.0000      -5.758828      -156.7057
  35   2.0000      -5.755788      -156.6230
  36   2.0000      -5.755533      -156.6160
  37   2.0000      -4.740015      -128.9824
  38   2.0000      -4.738903      -128.9521
  39   2.0000      -4.738637      -128.9449
  40   2.0000      -4.738415      -128.9388
  41   2.0000      -4.737821      -128.9227
  42   2.0000      -4.737603      -128.9167
  43   2.0000      -1.050350       -28.5815
  44   2.0000      -1.049425       -28.5563
  45   2.0000      -1.011577       -27.5264
  46   2.0000      -1.010161       -27.4879
  47   2.0000      -0.801745       -21.8166
  48   2.0000      -0.763068       -20.7641
  49   2.0000      -0.754466       -20.5301
  50   2.0000      -0.736409       -20.0387
  51   2.0000      -0.735408       -20.0115
  52   2.0000      -0.710069       -19.3220
  53   2.0000      -0.688573       -18.7370
  54   2.0000      -0.670462       -18.2442
  55   2.0000      -0.635296       -17.2873
  56   2.0000      -0.623680       -16.9712
  57   2.0000      -0.615732       -16.7549
  58   2.0000      -0.604048       -16.4370
  59   2.0000      -0.591966       -16.1082
  60   2.0000      -0.530248       -14.4288
  61   2.0000      -0.522768       -14.2252
  62   2.0000      -0.500605       -13.6221
  63   2.0000      -0.497608       -13.5406
  64   2.0000      -0.474867       -12.9218
  65   2.0000      -0.470638       -12.8067
  66   2.0000      -0.460541       -12.5319
  67   2.0000      -0.452765       -12.3204
  68   2.0000      -0.447827       -12.1860
  69   2.0000      -0.431485       -11.7413
  70   2.0000      -0.426076       -11.5941
  71   2.0000      -0.416330       -11.3289
  72   2.0000      -0.413886       -11.2624
  73   2.0000      -0.396495       -10.7892
  74   2.0000      -0.394328       -10.7302
  75   2.0000      -0.392270       -10.6742
  76   2.0000      -0.389464       -10.5979
  77   2.0000      -0.377913       -10.2835
  78   2.0000      -0.377067       -10.2605
  79   2.0000      -0.376692       -10.2503
  80   2.0000      -0.369027       -10.0417
  81   2.0000      -0.366242        -9.9659
  82   2.0000      -0.360683        -9.8147
  83   2.0000      -0.357070        -9.7164
  84   2.0000      -0.349330        -9.5057
  85   2.0000      -0.337889        -9.1944
  86   2.0000      -0.329559        -8.9678
  87   2.0000      -0.317457        -8.6385
  88   2.0000      -0.310928        -8.4608
  89   2.0000      -0.302917        -8.2428
  90   2.0000      -0.297647        -8.0994
  91   2.0000      -0.291990        -7.9455
  92   2.0000      -0.289155        -7.8683
  93   2.0000      -0.285885        -7.7793
  94   2.0000      -0.273654        -7.4465
  95   2.0000      -0.244630        -6.6567
  96   2.0000      -0.231310        -6.2943
  97   2.0000      -0.226598        -6.1661
  98   2.0000      -0.222115        -6.0441
  99   2.0000      -0.214720        -5.8428
 100   2.0000      -0.211466        -5.7543
 101   0.0000      -0.048562        -1.3215
 102   0.0000      -0.027101        -0.7375
 103   0.0000       0.002122         0.0577
 104   0.0000       0.003066         0.0834
 105   0.0000       0.006805         0.1852

MULLIKEN ATOMIC CHARGES
-----------------------
   0 C :   -0.450416
   1 C :   -0.160608
   2 O :   -0.270416
   3 P :    0.678484
   4 S :   -0.444009
   5 O :   -0.276965
   6 C :   -0.179500
   7 C :   -0.417239
   8 S :   -0.159916
   9 C :   -0.238595
  10 S :   -0.131325
  11 P :    0.696763
  12 S :   -0.487297
  13 O :   -0.254374
  14 C :   -0.114700
  15 C :   -0.477965
  16 O :   -0.314455
  17 C :   -0.154381
  18 C :   -0.446179
  19 H :    0.148542
  20 H :    0.174603
  21 H :    0.145003
  22 H :    0.160658
  23 H :    0.180304
  24 H :    0.161459
  25 H :    0.156032
  26 H :    0.165488
  27 H :    0.151449
  28 H :    0.149927
  29 H :    0.212402
  30 H :    0.210286
  31 H :    0.151651
  32 H :    0.180624
  33 H :    0.156504
  34 H :    0.146496
  35 H :    0.152542
  36 H :    0.172851
  37 H :    0.150925
  38 H :    0.167261
  39 H :    0.149776
  40 H :    0.158311
Sum of atomic charges:   -0.0000000

LOEWDIN ATOMIC CHARGES
----------------------
   0 C :   -0.399079
   1 C :    0.008181
   2 O :   -0.707561
   3 P :    0.383904
   4 S :   -0.092942
   5 O :   -0.652250
   6 C :    0.023524
   7 C :   -0.398921
   8 S :    0.143786
   9 C :   -0.419685
  10 S :    0.185994
  11 P :    0.388642
  12 S :   -0.130727
  13 O :   -0.657533
  14 C :    0.002960
  15 C :   -0.390718
  16 O :   -0.669103
  17 C :    0.026266
  18 C :   -0.402389
  19 H :    0.160684
  20 H :    0.166767
  21 H :    0.154320
  22 H :    0.181364
  23 H :    0.183790
  24 H :    0.175465
  25 H :    0.182817
  26 H :    0.165322
  27 H :    0.162574
  28 H :    0.160163
  29 H :    0.191200
  30 H :    0.190370
  31 H :    0.176361
  32 H :    0.183542
  33 H :    0.159426
  34 H :    0.158971
  35 H :    0.158481
  36 H :    0.179840
  37 H :    0.181218
  38 H :    0.163116
  39 H :    0.160424
  40 H :    0.161438

  Mayer bond orders larger than 0.100000
B(  0-C ,  1-C ) :   0.9219 B(  0-C , 19-H ) :   0.9636 B(  0-C , 20-H ) :   0.9618
B(  0-C , 21-H ) :   0.9755 B(  1-C ,  2-O ) :   0.7707 B(  1-C , 22-H ) :   0.9649
B(  1-C , 23-H ) :   0.9553 B(  2-O ,  3-P ) :   1.0268 B(  3-P ,  4-S ) :   1.8416
B(  3-P ,  5-O ) :   1.1268 B(  3-P ,  8-S ) :   1.0329 B(  5-O ,  6-C ) :   0.7636
B(  6-C ,  7-C ) :   0.9542 B(  6-C , 24-H ) :   0.9694 B(  6-C , 25-H ) :   0.9603
B(  7-C , 26-H ) :   0.9707 B(  7-C , 27-H ) :   0.9482 B(  7-C , 28-H ) :   0.9664
B(  8-S ,  9-C ) :   0.8928 B(  9-C , 10-S ) :   0.8947 B(  9-C , 29-H ) :   0.9100
B(  9-C , 30-H ) :   0.9119 B( 10-S , 11-P ) :   1.0775 B( 11-P , 12-S ) :   1.7398
B( 11-P , 13-O ) :   1.0712 B( 11-P , 16-O ) :   1.1735 B( 13-O , 14-C ) :   0.7342
B( 14-C , 15-C ) :   0.9353 B( 14-C , 31-H ) :   0.9517 B( 14-C , 32-H ) :   0.9468
B( 15-C , 33-H ) :   0.9796 B( 15-C , 34-H ) :   0.9673 B( 15-C , 35-H ) :   0.9708
B( 16-O , 17-C ) :   0.8069 B( 17-C , 18-C ) :   0.9191 B( 17-C , 36-H ) :   0.9686
B( 17-C , 37-H ) :   0.9606 B( 18-C , 38-H ) :   0.9623 B( 18-C , 39-H ) :   0.9597
B( 18-C , 40-H ) :   0.9681

Dispersion correction           -0.022341865
FINAL SINGLE POINT ENERGY     -2932.461026106077

DIPOLE MOMENT
-------------

Method             : SCF
Type of density    : Electron Density
Multiplicity       :   1
Irrep              :   0
Energy             : -2932.4853445018156890 Eh
Relativity type    :
Basis              : AO
                                X                 Y                 Z
Electronic contribution:      5.108803526       5.485867043     -24.744824923
Nuclear contribution   :     -5.681236963      -6.079503421      26.783814949
                        -----------------------------------------
Total Dipole Moment    :     -0.572433436      -0.593636378       2.038990026
                        -----------------------------------------
Magnitude (a.u.)       :      2.199446411
Magnitude (Debye)      :      5.590548487

Rotational constants in cm-1:             0.011842             0.005432             0.005156
Rotational constants in MHz :           355.015788           162.859159           154.582917

                             ****ORCA TERMINATED NORMALLY****
TOTAL RUN TIME: 0 days 0 hours 1 minutes 23 seconds 962 msec
