                         Program Version 6.0.0  -   RELEASE  -
|  1> ! r2scan-3c def2/J RI DEFGRID2 scfconv6 printgap
|  2> %output
|  3>     printlevel normal
|  4> end
|  5> %cpcm
|  6>     smd true
|  7>     smdsolvent "water"
|  8> end
|  9> * xyz 0 1
| 10> C 2.9611152926 -2.7709457852 1.1400022894
| 11> C 1.6997358303 -2.2814921924 0.4585362253
| 12> O 1.52184793 -0.86881501 0.6610322104
| 13> P 2.3201810821 0.2333698792 -0.1833949063
| 14> S 3.2151363044 -0.3848526712 -1.8040063192
| 15> O 3.3460028527 0.883822362 0.829999303
| 16> C 3.0561435371 1.2158227535 2.2110720281
| 17> C 2.5560101666 2.6397320196 2.3458608486
| 18> S 0.8012176124 1.6938278249 -0.4449807274
| 19> C 0.1239886586 1.0179455095 -1.9809702324
| 20> S -0.5153813916 -0.6698107313 -1.7994045492
| 21> P -2.1030874757 -0.2094315549 -0.469830641
| 22> S -2.9779883174 1.5311093187 -0.6943885538
| 23> O -1.5726387185 -0.5139312175 0.9983573913
| 24> C -1.2676650002 0.4738697598 1.9984913233
| 25> C -1.9237176756 0.0754503497 3.305849759
| 26> O -2.953279024 -1.5015934664 -0.7997987903
| 27> C -4.3802449611 -1.5616834103 -0.5902715644
| 28> C -4.7467321721 -1.4649563724 0.8758861337
| 29> H 3.0578138356 -3.8416361121 0.9911673449
| 30> H 3.8270644462 -2.2734768567 0.7038823698
| 31> H 2.9277936314 -2.5563554405 2.2048572702
| 32> H 0.7998651776 -2.7300138299 0.8829520167
| 33> H 1.73553386 -2.4814314429 -0.6171000637
| 34> H 2.3314841236 0.4984176668 2.6029154762
| 35> H 4.0149995662 1.0854702754 2.715664163
| 36> H 3.2717501585 3.3282893532 1.9056347918
| 37> H 1.6002798304 2.7643117413 1.8401820104
| 38> H 2.4347959846 2.8739418437 3.3988671331
| 39> H 0.9093000178 0.9706086923 -2.7345668711
| 40> H -0.6801556732 1.6880635339 -2.2836403016
| 41> H -0.1799757405 0.5026914354 2.0970591971
| 42> H -1.6225682626 1.4513142107 1.6540742628
| 43> H -1.6132549808 -0.926244583 3.5885106531
| 44> H -1.6229484058 0.7768386973 4.0772966875
| 45> H -3.0058255564 0.0954141826 3.2106536132
| 46> H -4.8465542571 -0.7507940105 -1.1582801144
| 47> H -4.6635392831 -2.5243661428 -1.0179423677
| 48> H -4.5006302008 -0.4717798487 1.2495432955
| 49> H -5.813445745 -1.6298817748 0.9917912669
| 50> H -4.1999326737 -2.2081987411 1.4502871715
| 51> *
| 52>
| 53>                          ****END OF INPUT****

CARTESIAN COORDINATES (ANGSTROEM)
---------------------------------
  C      2.961115   -2.770946    1.140002
  C      1.699736   -2.281492    0.458536
  O      1.521848   -0.868815    0.661032
  P      2.320181    0.233370   -0.183395
  S      3.215136   -0.384853   -1.804006
  O      3.346003    0.883822    0.829999
  C      3.056144    1.215823    2.211072
  C      2.556010    2.639732    2.345861
  S      0.801218    1.693828   -0.444981
  C      0.123989    1.017946   -1.980970
  S     -0.515381   -0.669811   -1.799405
  P     -2.103087   -0.209432   -0.469831
  S     -2.977988    1.531109   -0.694389
  O     -1.572639   -0.513931    0.998357
  C     -1.267665    0.473870    1.998491
  C     -1.923718    0.075450    3.305850
  O     -2.953279   -1.501593   -0.799799
  C     -4.380245   -1.561683   -0.590272
  C     -4.746732   -1.464956    0.875886
  H      3.057814   -3.841636    0.991167
  H      3.827064   -2.273477    0.703882
  H      2.927794   -2.556355    2.204857
  H      0.799865   -2.730014    0.882952
  H      1.735534   -2.481431   -0.617100
  H      2.331484    0.498418    2.602915
  H      4.015000    1.085470    2.715664
  H      3.271750    3.328289    1.905635
  H      1.600280    2.764312    1.840182
  H      2.434796    2.873942    3.398867
  H      0.909300    0.970609   -2.734567
  H     -0.680156    1.688064   -2.283640
  H     -0.179976    0.502691    2.097059
  H     -1.622568    1.451314    1.654074
  H     -1.613255   -0.926245    3.588511
  H     -1.622948    0.776839    4.077297
  H     -3.005826    0.095414    3.210654
  H     -4.846554   -0.750794   -1.158280
  H     -4.663539   -2.524366   -1.017942
  H     -4.500630   -0.471780    1.249543
  H     -5.813446   -1.629882    0.991791
  H     -4.199933   -2.208199    1.450287

 Total Charge           Charge          ....    0
 Multiplicity           Mult            ....    1
 Number of Electrons    NEL             ....  202
 Basis Dimension        Dim             ....  539

ORBITAL ENERGIES
----------------

  NO   OCC          E(Eh)            E(eV)
   0   2.0000     -88.578268     -2410.3372
   1   2.0000     -88.577138     -2410.3065
   2   2.0000     -88.530352     -2409.0334
   3   2.0000     -88.530304     -2409.0320
   4   2.0000     -76.920851     -2093.1228
   5   2.0000     -76.919826     -2093.0949
   6   2.0000     -18.996183      -516.9124
   7   2.0000     -18.994371      -516.8631
   8   2.0000     -18.993190      -516.8310
   9   2.0000     -18.989614      -516.7337
  10   2.0000     -10.104357      -274.9535
  11   2.0000     -10.093043      -274.6456
  12   2.0000     -10.091267      -274.5973
  13   2.0000     -10.087099      -274.4839
  14   2.0000     -10.086438      -274.4659
  15   2.0000     -10.021466      -272.6979
  16   2.0000     -10.019018      -272.6313
  17   2.0000     -10.017567      -272.5919
  18   2.0000     -10.017524      -272.5907
  19   2.0000      -7.872796      -214.2297
  20   2.0000      -7.871439      -214.1927
  21   2.0000      -7.825499      -212.9427
  22   2.0000      -7.825409      -212.9402
  23   2.0000      -6.599042      -179.5691
  24   2.0000      -6.598260      -179.5478
  25   2.0000      -5.819611      -158.3597
  26   2.0000      -5.818381      -158.3262
  27   2.0000      -5.816680      -158.2799
  28   2.0000      -5.815369      -158.2442
  29   2.0000      -5.809913      -158.0958
  30   2.0000      -5.808430      -158.0554
  31   2.0000      -5.773184      -157.0963
  32   2.0000      -5.772966      -157.0904
  33   2.0000      -5.765818      -156.8959
  34   2.0000      -5.765641      -156.8911
  35   2.0000      -5.765511      -156.8875
  36   2.0000      -5.765317      -156.8823
  37   2.0000      -4.744904      -129.1154
  38   2.0000      -4.743569      -129.0791
  39   2.0000      -4.743531      -129.0780
  40   2.0000      -4.743067      -129.0654
  41   2.0000      -4.742927      -129.0616
  42   2.0000      -4.742346      -129.0458
  43   2.0000      -1.051706       -28.6184
  44   2.0000      -1.049349       -28.5542
  45   2.0000      -1.012355       -27.5476
  46   2.0000      -1.009545       -27.4711
  47   2.0000      -0.804422       -21.8894
  48   2.0000      -0.757915       -20.6239
  49   2.0000      -0.745066       -20.2743
  50   2.0000      -0.726071       -19.7574
  51   2.0000      -0.723663       -19.6919
  52   2.0000      -0.707767       -19.2593
  53   2.0000      -0.690495       -18.7893
  54   2.0000      -0.676277       -18.4024
  55   2.0000      -0.631762       -17.1911
  56   2.0000      -0.618662       -16.8347
  57   2.0000      -0.605300       -16.4710
  58   2.0000      -0.594905       -16.1882
  59   2.0000      -0.589294       -16.0355
  60   2.0000      -0.525191       -14.2912
  61   2.0000      -0.516358       -14.0508
  62   2.0000      -0.495314       -13.4782
  63   2.0000      -0.492120       -13.3913
  64   2.0000      -0.473476       -12.8839
  65   2.0000      -0.463476       -12.6118
  66   2.0000      -0.454007       -12.3542
  67   2.0000      -0.445428       -12.1207
  68   2.0000      -0.441004       -12.0003
  69   2.0000      -0.427874       -11.6430
  70   2.0000      -0.420423       -11.4403
  71   2.0000      -0.412042       -11.2122
  72   2.0000      -0.407528       -11.0894
  73   2.0000      -0.394286       -10.7291
  74   2.0000      -0.390527       -10.6268
  75   2.0000      -0.386568       -10.5190
  76   2.0000      -0.385608       -10.4929
  77   2.0000      -0.370746       -10.0885
  78   2.0000      -0.365481        -9.9453
  79   2.0000      -0.364348        -9.9144
  80   2.0000      -0.358717        -9.7612
  81   2.0000      -0.354843        -9.6558
  82   2.0000      -0.350715        -9.5435
  83   2.0000      -0.346032        -9.4160
  84   2.0000      -0.344749        -9.3811
  85   2.0000      -0.332575        -9.0498
  86   2.0000      -0.322276        -8.7696
  87   2.0000      -0.308611        -8.3977
  88   2.0000      -0.305341        -8.3087
  89   2.0000      -0.300637        -8.1808
  90   2.0000      -0.294284        -8.0079
  91   2.0000      -0.289690        -7.8829
  92   2.0000      -0.285739        -7.7754
  93   2.0000      -0.284691        -7.7468
  94   2.0000      -0.273327        -7.4376
  95   2.0000      -0.248477        -6.7614
  96   2.0000      -0.238947        -6.5021
  97   2.0000      -0.234352        -6.3770
  98   2.0000      -0.230871        -6.2823
  99   2.0000      -0.223319        -6.0768
 100   2.0000      -0.218350        -5.9416
 101   0.0000      -0.053935        -1.4676
 102   0.0000      -0.033183        -0.9030
 103   0.0000      -0.002055        -0.0559
 104   0.0000       0.002625         0.0714
 105   0.0000       0.005796         0.1577

MULLIKEN ATOMIC CHARGES
-----------------------
   0 C :   -0.486194
   1 C :   -0.144160
   2 O :   -0.282904
   3 P :    0.694819
   4 S :   -0.503261
   5 O :   -0.314464
   6 C :   -0.160609
   7 C :   -0.459480
   8 S :   -0.167933
   9 C :   -0.250235
  10 S :   -0.156110
  11 P :    0.718043
  12 S :   -0.522083
  13 O :   -0.288014
  14 C :   -0.091802
  15 C :   -0.523444
  16 O :   -0.344434
  17 C :   -0.151271
  18 C :   -0.482140
  19 H :    0.170312
  20 H :    0.167116
  21 H :    0.167230
  22 H :    0.180240
  23 H :    0.176620
  24 H :    0.182977
  25 H :    0.178295
  26 H :    0.174339
  27 H :    0.152088
  28 H :    0.175741
  29 H :    0.232660
  30 H :    0.231936
  31 H :    0.173589
  32 H :    0.176009
  33 H :    0.169718
  34 H :    0.169704
  35 H :    0.166383
  36 H :    0.178006
  37 H :    0.176043
  38 H :    0.172105
  39 H :    0.173913
  40 H :    0.170652
Sum of atomic charges:   -0.0000000

LOEWDIN ATOMIC CHARGES
----------------------
   0 C :   -0.401204
   1 C :    0.012700
   2 O :   -0.708397
   3 P :    0.386517
   4 S :   -0.137012
   5 O :   -0.671739
   6 C :    0.033499
   7 C :   -0.400286
   8 S :    0.143827
   9 C :   -0.415866
  10 S :    0.169654
  11 P :    0.389847
  12 S :   -0.153744
  13 O :   -0.670893
  14 C :    0.009544
  15 C :   -0.393632
  16 O :   -0.684787
  17 C :    0.030436
  18 C :   -0.404298
  19 H :    0.168060
  20 H :    0.162543
  21 H :    0.162476
  22 H :    0.189380
  23 H :    0.181918
  24 H :    0.186040
  25 H :    0.192556
  26 H :    0.165503
  27 H :    0.160940
  28 H :    0.171167
  29 H :    0.196749
  30 H :    0.196751
  31 H :    0.184569
  32 H :    0.183134
  33 H :    0.163551
  34 H :    0.168067
  35 H :    0.161853
  36 H :    0.181634
  37 H :    0.191647
  38 H :    0.162924
  39 H :    0.169597
  40 H :    0.164773

  Mayer bond orders larger than 0.100000
B(  0-C ,  1-C ) :   0.9223 B(  0-C , 19-H ) :   0.9593 B(  0-C , 20-H ) :   0.9636
B(  0-C , 21-H ) :   0.9702 B(  1-C ,  2-O ) :   0.7564 B(  1-C , 22-H ) :   0.9543
B(  1-C , 23-H ) :   0.9530 B(  2-O ,  3-P ) :   1.0397 B(  3-P ,  4-S ) :   1.8125
B(  3-P ,  5-O ) :   1.1382 B(  3-P ,  8-S ) :   1.0452 B(  5-O ,  6-C ) :   0.7555
B(  6-C ,  7-C ) :   0.9421 B(  6-C , 24-H ) :   0.9569 B(  6-C , 25-H ) :   0.9514
B(  7-C , 26-H ) :   0.9719 B(  7-C , 27-H ) :   0.9483 B(  7-C , 28-H ) :   0.9587
B(  8-S ,  9-C ) :   0.8806 B(  9-C , 10-S ) :   0.8852 B(  9-C , 29-H ) :   0.9043
B(  9-C , 30-H ) :   0.9066 B( 10-S , 11-P ) :   1.0850 B( 11-P , 12-S ) :   1.7244
B( 11-P , 13-O ) :   1.0744 B( 11-P , 16-O ) :   1.1771 B( 13-O , 14-C ) :   0.7251
B( 14-C , 15-C ) :   0.9327 B( 14-C , 31-H ) :   0.9411 B( 14-C , 32-H ) :   0.9443
B( 15-C , 33-H ) :   0.9755 B( 15-C , 34-H ) :   0.9605 B( 15-C , 35-H ) :   0.9684
B( 16-O , 17-C ) :   0.7948 B( 17-C , 18-C ) :   0.9076 B( 17-C , 36-H ) :   0.9642
B( 17-C , 37-H ) :   0.9506 B( 18-C , 38-H ) :   0.9596 B( 18-C , 39-H ) :   0.9539
B( 18-C , 40-H ) :   0.9666

Dispersion correction           -0.022341865
FINAL SINGLE POINT ENERGY     -2932.471516315025

DIPOLE MOMENT
-------------

Method             : SCF
Type of density    : Electron Density
Multiplicity       :   1
Irrep              :   0
Energy             : -2932.4958347107635745 Eh
Relativity type    :
Basis              : AO
                                X                 Y                 Z
Electronic contribution:      4.814340446       5.371879856     -23.893291290
Nuclear contribution   :     -5.681236963      -6.079503421      26.783814949
                        -----------------------------------------
Total Dipole Moment    :     -0.866896517      -0.707623564       2.890523659
                        -----------------------------------------
Magnitude (a.u.)       :      3.099575407
Magnitude (Debye)      :      7.878494571

Rotational constants in cm-1:             0.011842             0.005432             0.005156
Rotational constants in MHz :           355.015788           162.859159           154.582917

                             ****ORCA TERMINATED NORMALLY****
TOTAL RUN TIME: 0 days 0 hours 2 minutes 0 seconds 719 msec
