                         Program Version 6.0.0  -   RELEASE  -
|  1> ! pbe def2-sv(p) def2/J RI DEFGRID1 loosescf d4 GCP(DFT/SV(P)) printgap
|  2> %output
|  3>     printlevel normal
|  4> end
|  5> * xyz 0 1
|  6> C 5.6599937962 0.8005721278 -1.1151140397
|  7> C 4.2651056327 0.2504996108 -1.3333628401
|  8> O 3.5780523352 0.2727121852 -0.0669419424
|  9> P 1.9975289869 0.1713984433 0.0188110694
| 10> S 1.0406163764 1.4709667475 -1.1011236593
| 11> O 1.7108926906 0.4090108647 1.546628082
| 12> C 1.9264892463 -0.538570047 2.627636743
| 13> C 3.3426372388 -1.0665049457 2.6758359838
| 14> S 1.6238789678 -1.8759185735 -0.41742241
| 15> C -0.141268529 -1.747894348 -0.7747954596
| 16> S -1.0725902037 -1.0522217434 0.6271736268
| 17> P -2.2699458909 0.3983288059 -0.3735300604
| 18> S -2.2251268143 0.3783003866 -2.3291958017
| 19> O -1.9158071486 1.8049109938 0.2385335887
| 20> C -1.474239553 2.0913346232 1.5851810307
| 21> C -2.3864582797 1.5067840709 2.6412527656
| 22> O -3.7266066383 0.1612253446 0.2285247701
| 23> C -4.6727233399 -0.7510513901 -0.351283677
| 24> C -4.2161003945 -2.1936345732 -0.2661950163
| 25> H 5.6045714266 1.8221860039 -0.749761124
| 26> H 6.1885467354 0.192992628 -0.3866941268
| 27> H 6.1996331135 0.7857697006 -2.0562944541
| 28> H 4.2937422931 -0.7836025177 -1.6871496128
| 29> H 3.7005737668 0.8579982342 -2.0492207302
| 30> H 1.6838592633 0.046003366 3.5160154611
| 31> H 1.2031345648 -1.3504048112 2.5094227425
| 32> H 3.4605029748 -1.6739026991 3.5679051534
| 33> H 3.5498066939 -1.6794597674 1.8011571674
| 34> H 4.0504527343 -0.2423793019 2.7046717496
| 35> H -0.4832927678 -2.7634187809 -0.9591005096
| 36> H -0.3073983924 -1.1088903975 -1.6471412538
| 37> H -0.4499525448 1.7205650199 1.6910431595
| 38> H -1.4650708796 3.1822462916 1.6132944709
| 39> H -3.4068031437 1.8458397312 2.4822203231
| 40> H -2.3655584246 0.4187426363 2.5986301544
| 41> H -2.0458966264 1.8300033764 3.620037008
| 42> H -5.5823779822 -0.5811695314 0.2263687551
| 43> H -4.8344243444 -0.4623525615 -1.3946574864
| 44> H -3.9396407753 -2.4460664453 0.7542588253
| 45> H -5.0223342593 -2.8423325905 -0.5931401496
| 46> H -3.3572216037 -2.3466697673 -0.9183410869
| 47> *
| 48>
| 49>                          ****END OF INPUT****

CARTESIAN COORDINATES (ANGSTROEM)
---------------------------------
  C      5.659994    0.800572   -1.115114
  C      4.265106    0.250500   -1.333363
  O      3.578052    0.272712   -0.066942
  P      1.997529    0.171398    0.018811
  S      1.040616    1.470967   -1.101124
  O      1.710893    0.409011    1.546628
  C      1.926489   -0.538570    2.627637
  C      3.342637   -1.066505    2.675836
  S      1.623879   -1.875919   -0.417422
  C     -0.141269   -1.747894   -0.774795
  S     -1.072590   -1.052222    0.627174
  P     -2.269946    0.398329   -0.373530
  S     -2.225127    0.378300   -2.329196
  O     -1.915807    1.804911    0.238534
  C     -1.474240    2.091335    1.585181
  C     -2.386458    1.506784    2.641253
  O     -3.726607    0.161225    0.228525
  C     -4.672723   -0.751051   -0.351284
  C     -4.216100   -2.193635   -0.266195
  H      5.604571    1.822186   -0.749761
  H      6.188547    0.192993   -0.386694
  H      6.199633    0.785770   -2.056294
  H      4.293742   -0.783603   -1.687150
  H      3.700574    0.857998   -2.049221
  H      1.683859    0.046003    3.516015
  H      1.203135   -1.350405    2.509423
  H      3.460503   -1.673903    3.567905
  H      3.549807   -1.679460    1.801157
  H      4.050453   -0.242379    2.704672
  H     -0.483293   -2.763419   -0.959101
  H     -0.307398   -1.108890   -1.647141
  H     -0.449953    1.720565    1.691043
  H     -1.465071    3.182246    1.613294
  H     -3.406803    1.845840    2.482220
  H     -2.365558    0.418743    2.598630
  H     -2.045897    1.830003    3.620037
  H     -5.582378   -0.581170    0.226369
  H     -4.834424   -0.462353   -1.394657
  H     -3.939641   -2.446066    0.754259
  H     -5.022334   -2.842333   -0.593140
  H     -3.357222   -2.346670   -0.918341

 Total Charge           Charge          ....    0
 Multiplicity           Mult            ....    1
 Number of Electrons    NEL             ....  202
 Basis Dimension        Dim             ....  334

ORBITAL ENERGIES
----------------

  NO   OCC          E(Eh)            E(eV)
   0   2.0000     -88.047234     -2395.8870
   1   2.0000     -88.043279     -2395.7794
   2   2.0000     -87.978245     -2394.0098
   3   2.0000     -87.977526     -2393.9902
   4   2.0000     -76.425309     -2079.6384
   5   2.0000     -76.421064     -2079.5229
   6   2.0000     -18.795076      -511.4400
   7   2.0000     -18.793106      -511.3864
   8   2.0000     -18.782926      -511.1094
   9   2.0000     -18.781616      -511.0738
  10   2.0000      -9.960530      -271.0398
  11   2.0000      -9.954961      -270.8883
  12   2.0000      -9.953192      -270.8401
  13   2.0000      -9.947013      -270.6720
  14   2.0000      -9.945603      -270.6336
  15   2.0000      -9.891973      -269.1743
  16   2.0000      -9.889031      -269.0942
  17   2.0000      -9.884505      -268.9710
  18   2.0000      -9.881667      -268.8938
  19   2.0000      -7.692204      -209.3155
  20   2.0000      -7.687253      -209.1808
  21   2.0000      -7.623482      -207.4455
  22   2.0000      -7.622249      -207.4119
  23   2.0000      -6.422499      -174.7651
  24   2.0000      -6.418041      -174.6438
  25   2.0000      -5.720041      -155.6502
  26   2.0000      -5.716504      -155.5540
  27   2.0000      -5.715134      -155.5167
  28   2.0000      -5.711803      -155.4261
  29   2.0000      -5.709481      -155.3629
  30   2.0000      -5.704313      -155.2223
  31   2.0000      -5.652511      -153.8126
  32   2.0000      -5.651374      -153.7817
  33   2.0000      -5.644175      -153.5858
  34   2.0000      -5.643398      -153.5647
  35   2.0000      -5.642706      -153.5458
  36   2.0000      -5.642415      -153.5379
  37   2.0000      -4.645251      -126.4037
  38   2.0000      -4.644548      -126.3846
  39   2.0000      -4.642519      -126.3294
  40   2.0000      -4.640674      -126.2792
  41   2.0000      -4.639831      -126.2562
  42   2.0000      -4.638530      -126.2208
  43   2.0000      -0.989247       -26.9188
  44   2.0000      -0.978219       -26.6187
  45   2.0000      -0.948014       -25.7968
  46   2.0000      -0.935744       -25.4629
  47   2.0000      -0.763321       -20.7710
  48   2.0000      -0.720395       -19.6029
  49   2.0000      -0.709496       -19.3064
  50   2.0000      -0.695357       -18.9216
  51   2.0000      -0.684901       -18.6371
  52   2.0000      -0.677604       -18.4385
  53   2.0000      -0.646834       -17.6012
  54   2.0000      -0.631593       -17.1865
  55   2.0000      -0.596673       -16.2363
  56   2.0000      -0.592539       -16.1238
  57   2.0000      -0.571645       -15.5553
  58   2.0000      -0.569526       -15.4976
  59   2.0000      -0.565181       -15.3794
  60   2.0000      -0.505431       -13.7535
  61   2.0000      -0.487041       -13.2531
  62   2.0000      -0.479776       -13.0554
  63   2.0000      -0.463274       -12.6063
  64   2.0000      -0.452866       -12.3231
  65   2.0000      -0.448179       -12.1956
  66   2.0000      -0.438010       -11.9188
  67   2.0000      -0.435312       -11.8454
  68   2.0000      -0.434758       -11.8304
  69   2.0000      -0.422900       -11.5077
  70   2.0000      -0.411164       -11.1883
  71   2.0000      -0.402607       -10.9555
  72   2.0000      -0.391898       -10.6641
  73   2.0000      -0.387315       -10.5394
  74   2.0000      -0.379254       -10.3200
  75   2.0000      -0.365469        -9.9449
  76   2.0000      -0.363453        -9.8901
  77   2.0000      -0.361025        -9.8240
  78   2.0000      -0.355514        -9.6740
  79   2.0000      -0.353389        -9.6162
  80   2.0000      -0.350054        -9.5255
  81   2.0000      -0.348392        -9.4802
  82   2.0000      -0.342099        -9.3090
  83   2.0000      -0.338372        -9.2076
  84   2.0000      -0.332970        -9.0606
  85   2.0000      -0.317892        -8.6503
  86   2.0000      -0.304440        -8.2842
  87   2.0000      -0.299185        -8.1412
  88   2.0000      -0.293189        -7.9781
  89   2.0000      -0.288532        -7.8513
  90   2.0000      -0.284854        -7.7513
  91   2.0000      -0.280378        -7.6295
  92   2.0000      -0.265552        -7.2260
  93   2.0000      -0.260348        -7.0844
  94   2.0000      -0.255449        -6.9511
  95   2.0000      -0.238827        -6.4988
  96   2.0000      -0.217794        -5.9265
  97   2.0000      -0.207736        -5.6528
  98   2.0000      -0.196709        -5.3527
  99   2.0000      -0.192979        -5.2512
 100   2.0000      -0.181803        -4.9471
 101   0.0000      -0.046931        -1.2771
 102   0.0000      -0.034806        -0.9471
 103   0.0000      -0.006429        -0.1749
 104   0.0000       0.007947         0.2163
 105   0.0000       0.019666         0.5351

MULLIKEN ATOMIC CHARGES
-----------------------
   0 C :   -0.281260
   1 C :   -0.011295
   2 O :   -0.374303
   3 P :    0.584185
   4 S :   -0.286716
   5 O :   -0.354356
   6 C :   -0.001249
   7 C :   -0.305279
   8 S :   -0.125607
   9 C :   -0.326990
  10 S :   -0.145682
  11 P :    0.614844
  12 S :   -0.296822
  13 O :   -0.350935
  14 C :   -0.017432
  15 C :   -0.316487
  16 O :   -0.375457
  17 C :    0.003145
  18 C :   -0.313952
  19 H :    0.122602
  20 H :    0.113510
  21 H :    0.113564
  22 H :    0.101626
  23 H :    0.109267
  24 H :    0.107501
  25 H :    0.111097
  26 H :    0.114779
  27 H :    0.119970
  28 H :    0.124250
  29 H :    0.179827
  30 H :    0.209898
  31 H :    0.134854
  32 H :    0.108556
  33 H :    0.123051
  34 H :    0.120170
  35 H :    0.110848
  36 H :    0.101559
  37 H :    0.111408
  38 H :    0.115628
  39 H :    0.110691
  40 H :    0.116993
Sum of atomic charges:    0.0000000

LOEWDIN ATOMIC CHARGES
----------------------
   0 C :   -0.350445
   1 C :   -0.121241
   2 O :   -0.245669
   3 P :    0.558661
   4 S :   -0.293926
   5 O :   -0.231203
   6 C :   -0.113504
   7 C :   -0.366505
   8 S :    0.062535
   9 C :   -0.477182
  10 S :    0.066327
  11 P :    0.577388
  12 S :   -0.294795
  13 O :   -0.225178
  14 C :   -0.117664
  15 C :   -0.367688
  16 O :   -0.248279
  17 C :   -0.118276
  18 C :   -0.370975
  19 H :    0.130024
  20 H :    0.125174
  21 H :    0.131705
  22 H :    0.108570
  23 H :    0.110763
  24 H :    0.121170
  25 H :    0.104404
  26 H :    0.132223
  27 H :    0.117850
  28 H :    0.129582
  29 H :    0.133619
  30 H :    0.126381
  31 H :    0.112675
  32 H :    0.123523
  33 H :    0.128864
  34 H :    0.113451
  35 H :    0.130052
  36 H :    0.117167
  37 H :    0.111307
  38 H :    0.122045
  39 H :    0.129381
  40 H :    0.117689

  Mayer bond orders larger than 0.100000
B(  0-C ,  1-C ) :   1.1604 B(  0-C , 19-H ) :   0.9507 B(  0-C , 20-H ) :   0.9514
B(  0-C , 21-H ) :   0.9418 B(  1-C ,  2-O ) :   0.9015 B(  1-C , 22-H ) :   0.9294
B(  1-C , 23-H ) :   0.9072 B(  2-O ,  3-P ) :   1.0920 B(  3-P ,  4-S ) :   1.6648
B(  3-P ,  5-O ) :   1.1221 B(  3-P ,  8-S ) :   0.9343 B(  4-S ,  8-S ) :   0.1086
B(  5-O ,  6-C ) :   0.8922 B(  6-C ,  7-C ) :   1.1732 B(  6-C , 24-H ) :   0.9339
B(  6-C , 25-H ) :   0.9145 B(  7-C , 26-H ) :   0.9356 B(  7-C , 27-H ) :   0.9381
B(  7-C , 28-H ) :   0.9423 B(  8-S ,  9-C ) :   0.9994 B(  9-C , 10-S ) :   0.9992
B(  9-C , 29-H ) :   0.9071 B(  9-C , 30-H ) :   0.8443 B( 10-S , 11-P ) :   0.9237
B( 10-S , 12-S ) :   0.1120 B( 11-P , 12-S ) :   1.6195 B( 11-P , 13-O ) :   1.1560
B( 11-P , 16-O ) :   1.0808 B( 12-S , 30-H ) :   0.1017 B( 13-O , 14-C ) :   0.8960
B( 14-C , 15-C ) :   1.1637 B( 14-C , 31-H ) :   0.9087 B( 14-C , 32-H ) :   0.9336
B( 15-C , 33-H ) :   0.9414 B( 15-C , 34-H ) :   0.9374 B( 15-C , 35-H ) :   0.9363
B( 16-O , 17-C ) :   0.9178 B( 17-C , 18-C ) :   1.1642 B( 17-C , 36-H ) :   0.9344
B( 17-C , 37-H ) :   0.9159 B( 18-C , 38-H ) :   0.9428 B( 18-C , 39-H ) :   0.9377
B( 18-C , 40-H ) :   0.9365

Dispersion correction           -0.067814857
FINAL SINGLE POINT ENERGY     -2929.514253882366

DIPOLE MOMENT
-------------

Method             : SCF
Type of density    : Electron Density
Multiplicity       :   1
Irrep              :   0
Energy             : -2929.6326283770604277 Eh
Relativity type    :
Basis              : AO
                                X                 Y                 Z
Electronic contribution:     -5.864319077       4.560431841     -12.588271361
Nuclear contribution   :      6.518658790      -5.672014414      14.177143222
                        -----------------------------------------
Total Dipole Moment    :      0.654339713      -1.111582573       1.588871861
                        -----------------------------------------
Magnitude (a.u.)       :      2.046531228
Magnitude (Debye)      :      5.201868983

Rotational constants in cm-1:             0.013503             0.005020             0.004817
Rotational constants in MHz :           404.814795           150.506795           144.398878

                             ****ORCA TERMINATED NORMALLY****
TOTAL RUN TIME: 0 days 0 hours 0 minutes 21 seconds 310 msec
