                         Program Version 6.0.0  -   RELEASE  -
|  1> ! pbe def2-sv(p) def2/J RI DEFGRID1 loosescf d4 GCP(DFT/SV(P)) printgap
|  2> %output
|  3>     printlevel normal
|  4> end
|  5> * xyz 0 1
|  6> C 4.7650259015 -2.0182444931 0.0039564066
|  7> C 4.2537325719 -1.6800623724 -1.3814331096
|  8> O 2.8292597304 -1.4550531045 -1.3955797672
|  9> P 2.157444355 -0.2507706936 -0.6152304791
| 10> S 3.1632910836 1.4309193729 -0.5158063115
| 11> O 1.7875187598 -0.8941215938 0.7934973147
| 12> C 1.8813658052 -0.2296247364 2.0700580034
| 13> C 0.78669493 -0.7577222196 2.9741788317
| 14> S 0.3836674867 -0.2430354883 -1.7671506364
| 15> C -0.1379161863 1.4371804135 -1.3237760932
| 16> S -0.5861758576 1.5715776921 0.4205166884
| 17> P -2.3056575106 0.3154843782 0.3202406424
| 18> S -3.3342279482 0.4259206682 -1.3508710721
| 19> O -3.0420619666 0.6343106117 1.6840462173
| 20> C -3.3311243403 1.9517116182 2.1890324725
| 21> C -4.1123074522 2.7980363613 1.2050686
| 22> O -1.8242469323 -1.1454769355 0.6945144165
| 23> C -1.962596399 -2.3058147757 -0.1503443665
| 24> C -0.7775783357 -3.220448184 0.0833057859
| 25> H 4.2012055069 -2.8486421232 0.421203011
| 26> H 5.8149676815 -2.2876603709 -0.0560769911
| 27> H 4.6610719674 -1.1519262147 0.6570622589
| 28> H 4.3924190263 -2.5075329243 -2.078509624
| 29> H 4.747947762 -0.7825699071 -1.7662645246
| 30> H 2.8689581924 -0.4553387041 2.4805496275
| 31> H 1.7975020856 0.8512285573 1.923100922
| 32> H 0.8697567952 -0.2797074146 3.9446588797
| 33> H -0.1934804395 -0.543975368 2.5546229774
| 34> H 0.8887429299 -1.8326676281 3.0907855095
| 35> H -1.0041371353 1.6690564135 -1.9437388052
| 36> H 0.6791561516 2.1371377769 -1.4970322253
| 37> H -3.9091823784 1.7559880591 3.0938529187
| 38> H -2.3852659197 2.4345142804 2.450171
| 39> H -4.384282446 3.7382228485 1.6739452832
| 40> H -3.5083795508 3.0039606865 0.3223853388
| 41> H -5.014210742 2.2782084927 0.8904557257
| 42> H -2.8984649248 -2.7957826083 0.1287590236
| 43> H -2.025949205 -1.9882796528 -1.1963346821
| 44> H -0.7199562882 -3.4894595257 1.1339119281
| 45> H -0.9022378146 -4.1176075707 -0.5141249482
| 46> H 0.1483683873 -2.7285355153 -0.2057014873
| 47> *
| 48>
| 49>                          ****END OF INPUT****

CARTESIAN COORDINATES (ANGSTROEM)
---------------------------------
  C      4.765026   -2.018244    0.003956
  C      4.253733   -1.680062   -1.381433
  O      2.829260   -1.455053   -1.395580
  P      2.157444   -0.250771   -0.615230
  S      3.163291    1.430919   -0.515806
  O      1.787519   -0.894122    0.793497
  C      1.881366   -0.229625    2.070058
  C      0.786695   -0.757722    2.974179
  S      0.383667   -0.243035   -1.767151
  C     -0.137916    1.437180   -1.323776
  S     -0.586176    1.571578    0.420517
  P     -2.305658    0.315484    0.320241
  S     -3.334228    0.425921   -1.350871
  O     -3.042062    0.634311    1.684046
  C     -3.331124    1.951712    2.189032
  C     -4.112307    2.798036    1.205069
  O     -1.824247   -1.145477    0.694514
  C     -1.962596   -2.305815   -0.150344
  C     -0.777578   -3.220448    0.083306
  H      4.201206   -2.848642    0.421203
  H      5.814968   -2.287660   -0.056077
  H      4.661072   -1.151926    0.657062
  H      4.392419   -2.507533   -2.078510
  H      4.747948   -0.782570   -1.766265
  H      2.868958   -0.455339    2.480550
  H      1.797502    0.851229    1.923101
  H      0.869757   -0.279707    3.944659
  H     -0.193480   -0.543975    2.554623
  H      0.888743   -1.832668    3.090786
  H     -1.004137    1.669056   -1.943739
  H      0.679156    2.137138   -1.497032
  H     -3.909182    1.755988    3.093853
  H     -2.385266    2.434514    2.450171
  H     -4.384282    3.738223    1.673945
  H     -3.508380    3.003961    0.322385
  H     -5.014211    2.278208    0.890456
  H     -2.898465   -2.795783    0.128759
  H     -2.025949   -1.988280   -1.196335
  H     -0.719956   -3.489460    1.133912
  H     -0.902238   -4.117608   -0.514125
  H      0.148368   -2.728536   -0.205701

 Total Charge           Charge          ....    0
 Multiplicity           Mult            ....    1
 Number of Electrons    NEL             ....  202
 Basis Dimension        Dim             ....  334

ORBITAL ENERGIES
----------------

  NO   OCC          E(Eh)            E(eV)
   0   2.0000     -88.047434     -2395.8925
   1   2.0000     -88.042947     -2395.7704
   2   2.0000     -87.992878     -2394.4079
   3   2.0000     -87.989050     -2394.3038
   4   2.0000     -76.430245     -2079.7727
   5   2.0000     -76.429362     -2079.7487
   6   2.0000     -18.796289      -511.4730
   7   2.0000     -18.795547      -511.4528
   8   2.0000     -18.792056      -511.3578
   9   2.0000     -18.788403      -511.2584
  10   2.0000      -9.960258      -271.0324
  11   2.0000      -9.957675      -270.9621
  12   2.0000      -9.954953      -270.8880
  13   2.0000      -9.950165      -270.7578
  14   2.0000      -9.946048      -270.6457
  15   2.0000      -9.889937      -269.1189
  16   2.0000      -9.884929      -268.9826
  17   2.0000      -9.880740      -268.8686
  18   2.0000      -9.877889      -268.7910
  19   2.0000      -7.691916      -209.3077
  20   2.0000      -7.687893      -209.1982
  21   2.0000      -7.637772      -207.8343
  22   2.0000      -7.633972      -207.7309
  23   2.0000      -6.426963      -174.8866
  24   2.0000      -6.426770      -174.8813
  25   2.0000      -5.719613      -155.6386
  26   2.0000      -5.716413      -155.5515
  27   2.0000      -5.715756      -155.5336
  28   2.0000      -5.712624      -155.4484
  29   2.0000      -5.709176      -155.3546
  30   2.0000      -5.704663      -155.2318
  31   2.0000      -5.666606      -154.1962
  32   2.0000      -5.662868      -154.0945
  33   2.0000      -5.658712      -153.9814
  34   2.0000      -5.657723      -153.9545
  35   2.0000      -5.654573      -153.8688
  36   2.0000      -5.654197      -153.8585
  37   2.0000      -4.649332      -126.5148
  38   2.0000      -4.649136      -126.5094
  39   2.0000      -4.649017      -126.5062
  40   2.0000      -4.648440      -126.4905
  41   2.0000      -4.647537      -126.4659
  42   2.0000      -4.647433      -126.4631
  43   2.0000      -0.989028       -26.9128
  44   2.0000      -0.987182       -26.8626
  45   2.0000      -0.946230       -25.7482
  46   2.0000      -0.944575       -25.7032
  47   2.0000      -0.768012       -20.8987
  48   2.0000      -0.725286       -19.7360
  49   2.0000      -0.712278       -19.3821
  50   2.0000      -0.689837       -18.7714
  51   2.0000      -0.685406       -18.6509
  52   2.0000      -0.673331       -18.3223
  53   2.0000      -0.651701       -17.7337
  54   2.0000      -0.641615       -17.4592
  55   2.0000      -0.605016       -16.4633
  56   2.0000      -0.595780       -16.2120
  57   2.0000      -0.571714       -15.5571
  58   2.0000      -0.567806       -15.4508
  59   2.0000      -0.559194       -15.2164
  60   2.0000      -0.504352       -13.7241
  61   2.0000      -0.498814       -13.5734
  62   2.0000      -0.480216       -13.0673
  63   2.0000      -0.472501       -12.8574
  64   2.0000      -0.463992       -12.6259
  65   2.0000      -0.446532       -12.1507
  66   2.0000      -0.437785       -11.9127
  67   2.0000      -0.432650       -11.7730
  68   2.0000      -0.426614       -11.6087
  69   2.0000      -0.419409       -11.4127
  70   2.0000      -0.402930       -10.9643
  71   2.0000      -0.402644       -10.9565
  72   2.0000      -0.395895       -10.7728
  73   2.0000      -0.389472       -10.5981
  74   2.0000      -0.384309       -10.4576
  75   2.0000      -0.379229       -10.3193
  76   2.0000      -0.365984        -9.9589
  77   2.0000      -0.358095        -9.7443
  78   2.0000      -0.351876        -9.5750
  79   2.0000      -0.350411        -9.5352
  80   2.0000      -0.349070        -9.4987
  81   2.0000      -0.345170        -9.3925
  82   2.0000      -0.339206        -9.2303
  83   2.0000      -0.335368        -9.1258
  84   2.0000      -0.332111        -9.0372
  85   2.0000      -0.326004        -8.8710
  86   2.0000      -0.313354        -8.5268
  87   2.0000      -0.298985        -8.1358
  88   2.0000      -0.297463        -8.0944
  89   2.0000      -0.287765        -7.8305
  90   2.0000      -0.286134        -7.7861
  91   2.0000      -0.279404        -7.6030
  92   2.0000      -0.276421        -7.5218
  93   2.0000      -0.268832        -7.3153
  94   2.0000      -0.256189        -6.9713
  95   2.0000      -0.235344        -6.4040
  96   2.0000      -0.219170        -5.9639
  97   2.0000      -0.217518        -5.9190
  98   2.0000      -0.208487        -5.6732
  99   2.0000      -0.202954        -5.5226
 100   2.0000      -0.201577        -5.4852
 101   0.0000      -0.052105        -1.4178
 102   0.0000      -0.029103        -0.7919
 103   0.0000      -0.006129        -0.1668
 104   0.0000       0.002637         0.0717
 105   0.0000       0.004627         0.1259

MULLIKEN ATOMIC CHARGES
-----------------------
   0 C :   -0.321615
   1 C :    0.001112
   2 O :   -0.384497
   3 P :    0.636375
   4 S :   -0.328738
   5 O :   -0.379341
   6 C :   -0.007619
   7 C :   -0.303250
   8 S :   -0.073098
   9 C :   -0.362041
  10 S :   -0.110562
  11 P :    0.609243
  12 S :   -0.320155
  13 O :   -0.366271
  14 C :   -0.012394
  15 C :   -0.308315
  16 O :   -0.363712
  17 C :   -0.001943
  18 C :   -0.299188
  19 H :    0.120484
  20 H :    0.115659
  21 H :    0.126997
  22 H :    0.109260
  23 H :    0.114620
  24 H :    0.102910
  25 H :    0.111791
  26 H :    0.104082
  27 H :    0.136789
  28 H :    0.112573
  29 H :    0.194230
  30 H :    0.193806
  31 H :    0.111031
  32 H :    0.114208
  33 H :    0.112194
  34 H :    0.124880
  35 H :    0.126922
  36 H :    0.102252
  37 H :    0.114178
  38 H :    0.112014
  39 H :    0.105135
  40 H :    0.129993
Sum of atomic charges:   -0.0000000

LOEWDIN ATOMIC CHARGES
----------------------
   0 C :   -0.366749
   1 C :   -0.112237
   2 O :   -0.247685
   3 P :    0.573244
   4 S :   -0.319891
   5 O :   -0.243592
   6 C :   -0.118558
   7 C :   -0.357973
   8 S :    0.104092
   9 C :   -0.484505
  10 S :    0.081329
  11 P :    0.571649
  12 S :   -0.310755
  13 O :   -0.237332
  14 C :   -0.115062
  15 C :   -0.368566
  16 O :   -0.233378
  17 C :   -0.117589
  18 C :   -0.356772
  19 H :    0.127596
  20 H :    0.132327
  21 H :    0.122208
  22 H :    0.121215
  23 H :    0.113919
  24 H :    0.109353
  25 H :    0.101960
  26 H :    0.127740
  27 H :    0.120402
  28 H :    0.124426
  29 H :    0.129943
  30 H :    0.130383
  31 H :    0.122379
  32 H :    0.108003
  33 H :    0.130421
  34 H :    0.121052
  35 H :    0.130502
  36 H :    0.113202
  37 H :    0.103697
  38 H :    0.123702
  39 H :    0.128263
  40 H :    0.117638

  Mayer bond orders larger than 0.100000
B(  0-C ,  1-C ) :   1.1613 B(  0-C , 19-H ) :   0.9458 B(  0-C , 20-H ) :   0.9369
B(  0-C , 21-H ) :   0.9309 B(  1-C ,  2-O ) :   0.9105 B(  1-C , 22-H ) :   0.9353
B(  1-C , 23-H ) :   0.9215 B(  2-O ,  3-P ) :   1.1095 B(  3-P ,  4-S ) :   1.5982
B(  3-P ,  5-O ) :   1.0932 B(  3-P ,  8-S ) :   0.9467 B(  4-S ,  8-S ) :   0.1025
B(  5-O ,  6-C ) :   0.8966 B(  6-C ,  7-C ) :   1.1633 B(  6-C , 24-H ) :   0.9292
B(  6-C , 25-H ) :   0.9053 B(  7-C , 26-H ) :   0.9390 B(  7-C , 27-H ) :   0.9323
B(  7-C , 28-H ) :   0.9463 B(  8-S ,  9-C ) :   1.0100 B(  9-C , 10-S ) :   1.0032
B(  9-C , 29-H ) :   0.8765 B(  9-C , 30-H ) :   0.8780 B( 10-S , 11-P ) :   0.9288
B( 10-S , 12-S ) :   0.1082 B( 11-P , 12-S ) :   1.6077 B( 11-P , 13-O ) :   1.1211
B( 11-P , 16-O ) :   1.1165 B( 13-O , 14-C ) :   0.9136 B( 14-C , 15-C ) :   1.1658
B( 14-C , 31-H ) :   0.9333 B( 14-C , 32-H ) :   0.9247 B( 15-C , 33-H ) :   0.9355
B( 15-C , 34-H ) :   0.9335 B( 15-C , 35-H ) :   0.9433 B( 16-O , 17-C ) :   0.8945
B( 17-C , 18-C ) :   1.1636 B( 17-C , 36-H ) :   0.9346 B( 17-C , 37-H ) :   0.9043
B( 18-C , 38-H ) :   0.9464 B( 18-C , 39-H ) :   0.9396 B( 18-C , 40-H ) :   0.9361

Dispersion correction           -0.067956242
FINAL SINGLE POINT ENERGY     -2929.524888581243

DIPOLE MOMENT
-------------

Method             : SCF
Type of density    : Electron Density
Multiplicity       :   1
Irrep              :   0
Energy             : -2929.6435113559600723 Eh
Relativity type    :
Basis              : AO
                                X                 Y                 Z
Electronic contribution:     -3.589123641       9.016030013     -13.856872593
Nuclear contribution   :      4.009080025      -9.519103670      14.931770550
                        -----------------------------------------
Total Dipole Moment    :      0.419956384      -0.503073658       1.074897957
                        -----------------------------------------
Magnitude (a.u.)       :      1.258909087
Magnitude (Debye)      :      3.199892599

Rotational constants in cm-1:             0.013444             0.005115             0.004978
Rotational constants in MHz :           403.029585           153.347001           149.243418

                             ****ORCA TERMINATED NORMALLY****
TOTAL RUN TIME: 0 days 0 hours 0 minutes 21 seconds 957 msec
