                         Program Version 6.0.0  -   RELEASE  -
|  1> ! pbe def2-sv(p) def2/J RI DEFGRID1 loosescf d4 GCP(DFT/SV(P)) printgap
|  2> %output
|  3>     printlevel normal
|  4> end
|  5> * xyz 0 1
|  6> C 5.939157344 -0.7173072569 -0.3993168427
|  7> C 5.0019099935 -0.2812897663 -1.5061911785
|  8> O 3.6660858114 -0.7930316901 -1.3222705667
|  9> P 2.7280557666 -0.3129332272 -0.1393187516
| 10> S 2.8610019748 1.5902014196 0.3333333002
| 11> O 3.1248413356 -1.3246475262 1.020649931
| 12> C 2.7467386417 -1.1158825372 2.3921772353
| 13> C 1.2551084047 -1.2777583334 2.6023336336
| 14> S 0.8936216296 -1.0194041059 -0.9240238938
| 15> C 0.0094118305 0.5643249247 -1.0528817332
| 16> S -1.0279624812 0.9310695799 0.3832295869
| 17> P -2.957479699 0.4860901216 -0.4332081793
| 18> S -2.9959109206 -0.0439011396 -2.3181110338
| 19> O -3.8016017268 1.793646776 -0.1899291884
| 20> C -3.7097052314 2.6858820292 0.9471019088
| 21> C -3.8391364994 1.9645836021 2.2705205596
| 22> O -3.6537723365 -0.549087015 0.5540228572
| 23> C -3.5175999038 -1.9719163065 0.4191194215
| 24> C -2.1560565551 -2.4578257741 0.8739306546
| 25> H 5.6473315355 -0.2514327478 0.5407496764
| 26> H 5.9045050339 -1.7972730001 -0.2827417339
| 27> H 6.9512917807 -0.4112602975 -0.6451499123
| 28> H 5.3027167814 -0.6850102091 -2.4739133106
| 29> H 4.948672491 0.8110805008 -1.5593544633
| 30> H 3.3148962631 -1.8706952617 2.9376737714
| 31> H 3.0714860329 -0.114325089 2.6925776467
| 32> H 0.9202518034 -2.2295464238 2.1973551504
| 33> H 1.0363185421 -1.2390779948 3.6645913928
| 34> H 0.7175480505 -0.4709970423 2.1040114275
| 35> H -0.6294738091 0.5034487191 -1.9364026917
| 36> H 0.7384921709 1.3695025799 -1.1361801542
| 37> H -2.7563809857 3.217145683 0.8857487688
| 38> H -4.5330831379 3.382403016 0.7820910745
| 39> H -4.7556985898 1.3813257369 2.2942195973
| 40> H -2.990578749 1.2983850397 2.4157800759
| 41> H -3.8549462264 2.6958551798 3.0727537117
| 42> H -4.3153869419 -2.3710288035 1.0475139033
| 43> H -3.6982074524 -2.2441686319 -0.6259973731
| 44> H -2.1521326759 -3.5428593098 0.892826119
| 45> H -1.3838274285 -2.1202062022 0.1838499215
| 46> H -1.9355675689 -2.0791617056 1.8686062803
| 47> *
| 48>
| 49>                          ****END OF INPUT****

CARTESIAN COORDINATES (ANGSTROEM)
---------------------------------
  C      5.939157   -0.717307   -0.399317
  C      5.001910   -0.281290   -1.506191
  O      3.666086   -0.793032   -1.322271
  P      2.728056   -0.312933   -0.139319
  S      2.861002    1.590201    0.333333
  O      3.124841   -1.324648    1.020650
  C      2.746739   -1.115883    2.392177
  C      1.255108   -1.277758    2.602334
  S      0.893622   -1.019404   -0.924024
  C      0.009412    0.564325   -1.052882
  S     -1.027962    0.931070    0.383230
  P     -2.957480    0.486090   -0.433208
  S     -2.995911   -0.043901   -2.318111
  O     -3.801602    1.793647   -0.189929
  C     -3.709705    2.685882    0.947102
  C     -3.839136    1.964584    2.270521
  O     -3.653772   -0.549087    0.554023
  C     -3.517600   -1.971916    0.419119
  C     -2.156057   -2.457826    0.873931
  H      5.647332   -0.251433    0.540750
  H      5.904505   -1.797273   -0.282742
  H      6.951292   -0.411260   -0.645150
  H      5.302717   -0.685010   -2.473913
  H      4.948672    0.811081   -1.559354
  H      3.314896   -1.870695    2.937674
  H      3.071486   -0.114325    2.692578
  H      0.920252   -2.229546    2.197355
  H      1.036319   -1.239078    3.664591
  H      0.717548   -0.470997    2.104011
  H     -0.629474    0.503449   -1.936403
  H      0.738492    1.369503   -1.136180
  H     -2.756381    3.217146    0.885749
  H     -4.533083    3.382403    0.782091
  H     -4.755699    1.381326    2.294220
  H     -2.990579    1.298385    2.415780
  H     -3.854946    2.695855    3.072754
  H     -4.315387   -2.371029    1.047514
  H     -3.698207   -2.244169   -0.625997
  H     -2.152133   -3.542859    0.892826
  H     -1.383827   -2.120206    0.183850
  H     -1.935568   -2.079162    1.868606

 Total Charge           Charge          ....    0
 Multiplicity           Mult            ....    1
 Number of Electrons    NEL             ....  202
 Basis Dimension        Dim             ....  334

ORBITAL ENERGIES
----------------

  NO   OCC          E(Eh)            E(eV)
   0   2.0000     -88.045632     -2395.8435
   1   2.0000     -88.044518     -2395.8131
   2   2.0000     -87.996088     -2394.4953
   3   2.0000     -87.987551     -2394.2630
   4   2.0000     -76.429597     -2079.7551
   5   2.0000     -76.427486     -2079.6976
   6   2.0000     -18.795505      -511.4517
   7   2.0000     -18.792121      -511.3596
   8   2.0000     -18.791868      -511.3527
   9   2.0000     -18.790763      -511.3227
  10   2.0000      -9.959099      -271.0009
  11   2.0000      -9.955450      -270.9016
  12   2.0000      -9.953585      -270.8508
  13   2.0000      -9.951684      -270.7991
  14   2.0000      -9.950681      -270.7718
  15   2.0000      -9.891704      -269.1669
  16   2.0000      -9.885933      -269.0099
  17   2.0000      -9.885131      -268.9881
  18   2.0000      -9.882935      -268.9283
  19   2.0000      -7.689756      -209.2489
  20   2.0000      -7.689255      -209.2353
  21   2.0000      -7.640886      -207.9191
  22   2.0000      -7.632676      -207.6957
  23   2.0000      -6.427448      -174.8997
  24   2.0000      -6.425000      -174.8331
  25   2.0000      -5.717517      -155.5816
  26   2.0000      -5.717097      -155.5701
  27   2.0000      -5.714203      -155.4914
  28   2.0000      -5.713875      -155.4824
  29   2.0000      -5.707054      -155.2968
  30   2.0000      -5.706165      -155.2727
  31   2.0000      -5.669611      -154.2780
  32   2.0000      -5.661620      -154.0605
  33   2.0000      -5.661587      -154.0596
  34   2.0000      -5.661203      -154.0492
  35   2.0000      -5.653300      -153.8341
  36   2.0000      -5.652772      -153.8197
  37   2.0000      -4.649728      -126.5255
  38   2.0000      -4.649116      -126.5089
  39   2.0000      -4.648215      -126.4844
  40   2.0000      -4.647636      -126.4686
  41   2.0000      -4.646684      -126.4427
  42   2.0000      -4.645483      -126.4100
  43   2.0000      -0.989251       -26.9189
  44   2.0000      -0.987556       -26.8728
  45   2.0000      -0.947968       -25.7955
  46   2.0000      -0.946053       -25.7434
  47   2.0000      -0.761880       -20.7318
  48   2.0000      -0.723770       -19.6948
  49   2.0000      -0.712493       -19.3879
  50   2.0000      -0.691831       -18.8257
  51   2.0000      -0.689419       -18.7601
  52   2.0000      -0.677987       -18.4490
  53   2.0000      -0.654016       -17.7967
  54   2.0000      -0.640506       -17.4291
  55   2.0000      -0.606736       -16.5101
  56   2.0000      -0.598574       -16.2880
  57   2.0000      -0.576673       -15.6921
  58   2.0000      -0.574741       -15.6395
  59   2.0000      -0.558723       -15.2036
  60   2.0000      -0.496452       -13.5092
  61   2.0000      -0.494148       -13.4465
  62   2.0000      -0.475621       -12.9423
  63   2.0000      -0.473896       -12.8954
  64   2.0000      -0.459890       -12.5142
  65   2.0000      -0.449954       -12.2439
  66   2.0000      -0.442353       -12.0370
  67   2.0000      -0.441186       -12.0053
  68   2.0000      -0.434503       -11.8234
  69   2.0000      -0.420631       -11.4460
  70   2.0000      -0.407968       -11.1014
  71   2.0000      -0.401086       -10.9141
  72   2.0000      -0.395457       -10.7609
  73   2.0000      -0.391538       -10.6543
  74   2.0000      -0.386997       -10.5307
  75   2.0000      -0.373735       -10.1699
  76   2.0000      -0.369227       -10.0472
  77   2.0000      -0.356772        -9.7082
  78   2.0000      -0.356383        -9.6977
  79   2.0000      -0.355443        -9.6721
  80   2.0000      -0.350934        -9.5494
  81   2.0000      -0.345959        -9.4140
  82   2.0000      -0.343448        -9.3457
  83   2.0000      -0.341605        -9.2955
  84   2.0000      -0.339142        -9.2285
  85   2.0000      -0.320287        -8.7154
  86   2.0000      -0.310755        -8.4561
  87   2.0000      -0.299221        -8.1422
  88   2.0000      -0.296128        -8.0581
  89   2.0000      -0.291865        -7.9420
  90   2.0000      -0.287394        -7.8204
  91   2.0000      -0.276080        -7.5125
  92   2.0000      -0.273777        -7.4499
  93   2.0000      -0.268115        -7.2958
  94   2.0000      -0.260569        -7.0904
  95   2.0000      -0.229596        -6.2476
  96   2.0000      -0.221984        -6.0405
  97   2.0000      -0.216982        -5.9044
  98   2.0000      -0.210742        -5.7346
  99   2.0000      -0.206633        -5.6228
 100   2.0000      -0.202503        -5.5104
 101   0.0000      -0.045442        -1.2365
 102   0.0000      -0.038066        -1.0358
 103   0.0000      -0.016041        -0.4365
 104   0.0000       0.006720         0.1829
 105   0.0000       0.013945         0.3795

MULLIKEN ATOMIC CHARGES
-----------------------
   0 C :   -0.308314
   1 C :   -0.002554
   2 O :   -0.365400
   3 P :    0.609583
   4 S :   -0.333472
   5 O :   -0.370049
   6 C :    0.000911
   7 C :   -0.340331
   8 S :   -0.077698
   9 C :   -0.346993
  10 S :   -0.115792
  11 P :    0.595781
  12 S :   -0.306227
  13 O :   -0.358371
  14 C :   -0.004513
  15 C :   -0.317377
  16 O :   -0.371748
  17 C :    0.002226
  18 C :   -0.334833
  19 H :    0.122062
  20 H :    0.118967
  21 H :    0.112821
  22 H :    0.108455
  23 H :    0.111938
  24 H :    0.105190
  25 H :    0.109705
  26 H :    0.124966
  27 H :    0.110641
  28 H :    0.143308
  29 H :    0.196704
  30 H :    0.195414
  31 H :    0.116475
  32 H :    0.113944
  33 H :    0.126504
  34 H :    0.125475
  35 H :    0.116799
  36 H :    0.103060
  37 H :    0.112478
  38 H :    0.111057
  39 H :    0.139776
  40 H :    0.119432
Sum of atomic charges:    0.0000000

LOEWDIN ATOMIC CHARGES
----------------------
   0 C :   -0.364827
   1 C :   -0.115050
   2 O :   -0.243412
   3 P :    0.571130
   4 S :   -0.315537
   5 O :   -0.242522
   6 C :   -0.117869
   7 C :   -0.372408
   8 S :    0.104968
   9 C :   -0.486725
  10 S :    0.081283
  11 P :    0.569184
  12 S :   -0.299463
  13 O :   -0.235734
  14 C :   -0.113918
  15 C :   -0.367233
  16 O :   -0.242564
  17 C :   -0.118319
  18 C :   -0.370582
  19 H :    0.122605
  20 H :    0.127479
  21 H :    0.130723
  22 H :    0.120701
  23 H :    0.111440
  24 H :    0.118774
  25 H :    0.109890
  26 H :    0.126399
  27 H :    0.130278
  28 H :    0.113603
  29 H :    0.126289
  30 H :    0.127545
  31 H :    0.111952
  32 H :    0.124439
  33 H :    0.130709
  34 H :    0.117289
  35 H :    0.133069
  36 H :    0.117799
  37 H :    0.111096
  38 H :    0.130495
  39 H :    0.112596
  40 H :    0.124427

  Mayer bond orders larger than 0.100000
B(  0-C ,  1-C ) :   1.1629 B(  0-C , 19-H ) :   0.9386 B(  0-C , 20-H ) :   0.9458
B(  0-C , 21-H ) :   0.9383 B(  1-C ,  2-O ) :   0.9107 B(  1-C , 22-H ) :   0.9352
B(  1-C , 23-H ) :   0.9189 B(  2-O ,  3-P ) :   1.1368 B(  3-P ,  4-S ) :   1.5878
B(  3-P ,  5-O ) :   1.1068 B(  3-P ,  8-S ) :   0.9623 B(  4-S ,  8-S ) :   0.1150
B(  5-O ,  6-C ) :   0.9104 B(  6-C ,  7-C ) :   1.1633 B(  6-C , 24-H ) :   0.9332
B(  6-C , 25-H ) :   0.9162 B(  7-C , 26-H ) :   0.9416 B(  7-C , 27-H ) :   0.9371
B(  7-C , 28-H ) :   0.9253 B(  8-S ,  9-C ) :   1.0133 B(  9-C , 10-S ) :   1.0153
B(  9-C , 29-H ) :   0.8481 B(  9-C , 30-H ) :   0.8673 B( 10-S , 11-P ) :   0.9392
B( 10-S , 12-S ) :   0.1121 B( 11-P , 12-S ) :   1.6267 B( 11-P , 13-O ) :   1.1487
B( 11-P , 16-O ) :   1.0891 B( 12-S , 29-H ) :   0.1167 B( 13-O , 14-C ) :   0.9022
B( 14-C , 15-C ) :   1.1692 B( 14-C , 31-H ) :   0.9213 B( 14-C , 32-H ) :   0.9333
B( 15-C , 33-H ) :   0.9420 B( 15-C , 34-H ) :   0.9369 B( 15-C , 35-H ) :   0.9346
B( 16-O , 17-C ) :   0.9129 B( 17-C , 18-C ) :   1.1608 B( 17-C , 36-H ) :   0.9334
B( 17-C , 37-H ) :   0.9128 B( 18-C , 38-H ) :   0.9380 B( 18-C , 39-H ) :   0.9280
B( 18-C , 40-H ) :   0.9433

Dispersion correction           -0.063787801
FINAL SINGLE POINT ENERGY     -2929.519255976083

DIPOLE MOMENT
-------------

Method             : SCF
Type of density    : Electron Density
Multiplicity       :   1
Irrep              :   0
Energy             : -2929.6408978641197791 Eh
Relativity type    :
Basis              : AO
                                X                 Y                 Z
Electronic contribution:     -4.940949894       6.147948988     -16.805519121
Nuclear contribution   :      5.408134976      -6.559301162      18.336371148
                        -----------------------------------------
Total Dipole Moment    :      0.467185081      -0.411352174       1.530852027
                        -----------------------------------------
Magnitude (a.u.)       :      1.652567832
Magnitude (Debye)      :      4.200493611

Rotational constants in cm-1:             0.014072             0.003971             0.003926
Rotational constants in MHz :           421.882109           119.057896           117.703786

                             ****ORCA TERMINATED NORMALLY****
TOTAL RUN TIME: 0 days 0 hours 0 minutes 20 seconds 852 msec
