                         Program Version 6.0.0  -   RELEASE  -
|  1> ! pbe def2-sv(p) def2/J RI DEFGRID1 loosescf d4 GCP(DFT/SV(P)) printgap
|  2> %output
|  3>     printlevel normal
|  4> end
|  5> * xyz 0 1
|  6> C 3.6651796495 -1.7407767676 -2.3582721614
|  7> C 4.0409076722 -0.3178543673 -2.0002016073
|  8> O 3.6008417851 0.0462347961 -0.6793103967
|  9> P 2.0620618253 0.1501893639 -0.2920758934
| 10> S 0.9356505072 0.9585372828 -1.6675491739
| 11> O 2.0688211528 1.0085195514 1.0278413281
| 12> C 2.8408004833 0.7066638109 2.2149947409
| 13> C 4.1785867709 1.416393196 2.18708856
| 14> S 1.6303661064 -1.8363970478 0.3510418217
| 15> C -0.0467672544 -1.5929917095 0.9812299967
| 16> S -1.2951181812 -1.4443370818 -0.3390963658
| 17> P -2.2829395104 0.2975386016 0.3881791411
| 18> S -1.1932744615 1.550192095 1.4252690841
| 19> O -3.4526084857 -0.2146786337 1.3117613942
| 20> C -4.4563459775 -1.1764346206 0.8952755848
| 21> C -4.2168731623 -2.5087708016 1.5775120747
| 22> O -3.1025306829 0.8056719228 -0.8717852927
| 23> C -2.5728477628 1.3473645338 -2.0946372486
| 24> C -2.2242045045 2.8138989781 -1.9442295161
| 25> H 4.1248244789 -2.0050529828 -3.3051700648
| 26> H 4.0028547902 -2.4282998234 -1.5866843029
| 27> H 2.5836790131 -1.8261832058 -2.456426769
| 28> H 3.604262203 0.3869838731 -2.7145244319
| 29> H 5.1226862032 -0.1834124314 -1.9596557658
| 30> H 2.2146806492 1.0651741324 3.034983091
| 31> H 2.9711201114 -0.3768588245 2.2890165093
| 32> H 4.6923254796 1.2379814436 3.1265938895
| 33> H 4.786675488 1.0433298131 1.3674224266
| 34> H 4.0292172215 2.4848670874 2.0568093042
| 35> H -0.0867739766 -0.6822926236 1.5861395399
| 36> H -0.2688966791 -2.4765822848 1.5735747727
| 37> H -5.4058465509 -0.736401637 1.203514826
| 38> H -4.4327161332 -1.2736702445 -0.1917710035
| 39> H -5.0462000622 -3.1729495864 1.3560864145
| 40> H -3.295844808 -2.9611076241 1.2185248287
| 41> H -4.1479217831 -2.3672292503 2.6524513379
| 42> H -1.69519834 0.7728152108 -2.4014997161
| 43> H -3.3802508684 1.2028677687 -2.8149944855
| 44> H -1.9135657506 3.2063054646 -2.9069141825
| 45> H -3.0829845878 3.3717042303 -1.5802893694
| 46> H -1.4021678318 2.9333598577 -1.2407689842
| 47> *
| 48>
| 49>                          ****END OF INPUT****

CARTESIAN COORDINATES (ANGSTROEM)
---------------------------------
  C      3.665180   -1.740777   -2.358272
  C      4.040908   -0.317854   -2.000202
  O      3.600842    0.046235   -0.679310
  P      2.062062    0.150189   -0.292076
  S      0.935651    0.958537   -1.667549
  O      2.068821    1.008520    1.027841
  C      2.840800    0.706664    2.214995
  C      4.178587    1.416393    2.187089
  S      1.630366   -1.836397    0.351042
  C     -0.046767   -1.592992    0.981230
  S     -1.295118   -1.444337   -0.339096
  P     -2.282940    0.297539    0.388179
  S     -1.193274    1.550192    1.425269
  O     -3.452608   -0.214679    1.311761
  C     -4.456346   -1.176435    0.895276
  C     -4.216873   -2.508771    1.577512
  O     -3.102531    0.805672   -0.871785
  C     -2.572848    1.347365   -2.094637
  C     -2.224205    2.813899   -1.944230
  H      4.124824   -2.005053   -3.305170
  H      4.002855   -2.428300   -1.586684
  H      2.583679   -1.826183   -2.456427
  H      3.604262    0.386984   -2.714524
  H      5.122686   -0.183412   -1.959656
  H      2.214681    1.065174    3.034983
  H      2.971120   -0.376859    2.289017
  H      4.692325    1.237981    3.126594
  H      4.786675    1.043330    1.367422
  H      4.029217    2.484867    2.056809
  H     -0.086774   -0.682293    1.586140
  H     -0.268897   -2.476582    1.573575
  H     -5.405847   -0.736402    1.203515
  H     -4.432716   -1.273670   -0.191771
  H     -5.046200   -3.172950    1.356086
  H     -3.295845   -2.961108    1.218525
  H     -4.147922   -2.367229    2.652451
  H     -1.695198    0.772815   -2.401500
  H     -3.380251    1.202868   -2.814994
  H     -1.913566    3.206305   -2.906914
  H     -3.082985    3.371704   -1.580289
  H     -1.402168    2.933360   -1.240769

 Total Charge           Charge          ....    0
 Multiplicity           Mult            ....    1
 Number of Electrons    NEL             ....  202
 Basis Dimension        Dim             ....  334

ORBITAL ENERGIES
----------------

  NO   OCC          E(Eh)            E(eV)
   0   2.0000     -88.044326     -2395.8079
   1   2.0000     -88.037406     -2395.6196
   2   2.0000     -87.980373     -2394.0677
   3   2.0000     -87.976732     -2393.9686
   4   2.0000     -76.424550     -2079.6177
   5   2.0000     -76.419720     -2079.4863
   6   2.0000     -18.793459      -511.3960
   7   2.0000     -18.789265      -511.2819
   8   2.0000     -18.788550      -511.2624
   9   2.0000     -18.781048      -511.0583
  10   2.0000      -9.954962      -270.8883
  11   2.0000      -9.953760      -270.8556
  12   2.0000      -9.952180      -270.8126
  13   2.0000      -9.951837      -270.8032
  14   2.0000      -9.946217      -270.6503
  15   2.0000      -9.885589      -269.0006
  16   2.0000      -9.884560      -268.9725
  17   2.0000      -9.883400      -268.9410
  18   2.0000      -9.870286      -268.5841
  19   2.0000      -7.689192      -209.2336
  20   2.0000      -7.682243      -209.0445
  21   2.0000      -7.625471      -207.4996
  22   2.0000      -7.621926      -207.4032
  23   2.0000      -6.421934      -174.7497
  24   2.0000      -6.417130      -174.6190
  25   2.0000      -5.716880      -155.5642
  26   2.0000      -5.713650      -155.4763
  27   2.0000      -5.710063      -155.3787
  28   2.0000      -5.706848      -155.2912
  29   2.0000      -5.706426      -155.2798
  30   2.0000      -5.699212      -155.0834
  31   2.0000      -5.654392      -153.8638
  32   2.0000      -5.651057      -153.7731
  33   2.0000      -5.645914      -153.6331
  34   2.0000      -5.645731      -153.6282
  35   2.0000      -5.642709      -153.5459
  36   2.0000      -5.641653      -153.5172
  37   2.0000      -4.644947      -126.3954
  38   2.0000      -4.643751      -126.3629
  39   2.0000      -4.641983      -126.3148
  40   2.0000      -4.639894      -126.2579
  41   2.0000      -4.639001      -126.2336
  42   2.0000      -4.637345      -126.1886
  43   2.0000      -0.986758       -26.8510
  44   2.0000      -0.982018       -26.7221
  45   2.0000      -0.944989       -25.7145
  46   2.0000      -0.937227       -25.5032
  47   2.0000      -0.759884       -20.6775
  48   2.0000      -0.718219       -19.5437
  49   2.0000      -0.709363       -19.3027
  50   2.0000      -0.690022       -18.7764
  51   2.0000      -0.683406       -18.5964
  52   2.0000      -0.673562       -18.3286
  53   2.0000      -0.648609       -17.6496
  54   2.0000      -0.632153       -17.2017
  55   2.0000      -0.593849       -16.1595
  56   2.0000      -0.581361       -15.8196
  57   2.0000      -0.574478       -15.6324
  58   2.0000      -0.570488       -15.5238
  59   2.0000      -0.560259       -15.2454
  60   2.0000      -0.501732       -13.6528
  61   2.0000      -0.497370       -13.5341
  62   2.0000      -0.474409       -12.9093
  63   2.0000      -0.470800       -12.8111
  64   2.0000      -0.450435       -12.2570
  65   2.0000      -0.445233       -12.1154
  66   2.0000      -0.439997       -11.9729
  67   2.0000      -0.433870       -11.8062
  68   2.0000      -0.428189       -11.6516
  69   2.0000      -0.420144       -11.4327
  70   2.0000      -0.409914       -11.1543
  71   2.0000      -0.395394       -10.7592
  72   2.0000      -0.390176       -10.6172
  73   2.0000      -0.381272       -10.3749
  74   2.0000      -0.379666       -10.3312
  75   2.0000      -0.366187        -9.9644
  76   2.0000      -0.357897        -9.7389
  77   2.0000      -0.355346        -9.6695
  78   2.0000      -0.352456        -9.5908
  79   2.0000      -0.350828        -9.5465
  80   2.0000      -0.346398        -9.4260
  81   2.0000      -0.345154        -9.3921
  82   2.0000      -0.339837        -9.2474
  83   2.0000      -0.334248        -9.0954
  84   2.0000      -0.324718        -8.8360
  85   2.0000      -0.316050        -8.6002
  86   2.0000      -0.309791        -8.4298
  87   2.0000      -0.294498        -8.0137
  88   2.0000      -0.291402        -7.9294
  89   2.0000      -0.290489        -7.9046
  90   2.0000      -0.285483        -7.7684
  91   2.0000      -0.270093        -7.3496
  92   2.0000      -0.268370        -7.3027
  93   2.0000      -0.261255        -7.1091
  94   2.0000      -0.257145        -6.9973
  95   2.0000      -0.241810        -6.5800
  96   2.0000      -0.221437        -6.0256
  97   2.0000      -0.202547        -5.5116
  98   2.0000      -0.196279        -5.3410
  99   2.0000      -0.188635        -5.1330
 100   2.0000      -0.183184        -4.9847
 101   0.0000      -0.037653        -1.0246
 102   0.0000      -0.028697        -0.7809
 103   0.0000      -0.013302        -0.3620
 104   0.0000       0.003191         0.0868
 105   0.0000       0.025711         0.6996

MULLIKEN ATOMIC CHARGES
-----------------------
   0 C :   -0.327208
   1 C :    0.000723
   2 O :   -0.381601
   3 P :    0.615111
   4 S :   -0.312380
   5 O :   -0.344899
   6 C :   -0.016363
   7 C :   -0.289808
   8 S :   -0.108282
   9 C :   -0.348110
  10 S :   -0.102330
  11 P :    0.602495
  12 S :   -0.293536
  13 O :   -0.359042
  14 C :   -0.006037
  15 C :   -0.290081
  16 O :   -0.379635
  17 C :   -0.017984
  18 C :   -0.305879
  19 H :    0.115661
  20 H :    0.118999
  21 H :    0.133267
  22 H :    0.113720
  23 H :    0.104556
  24 H :    0.113448
  25 H :    0.098768
  26 H :    0.108237
  27 H :    0.121252
  28 H :    0.122029
  29 H :    0.191608
  30 H :    0.180440
  31 H :    0.109657
  32 H :    0.101440
  33 H :    0.107562
  34 H :    0.115538
  35 H :    0.118067
  36 H :    0.128695
  37 H :    0.098956
  38 H :    0.105909
  39 H :    0.110830
  40 H :    0.146207
Sum of atomic charges:    0.0000000

LOEWDIN ATOMIC CHARGES
----------------------
   0 C :   -0.373435
   1 C :   -0.118043
   2 O :   -0.247474
   3 P :    0.572684
   4 S :   -0.301624
   5 O :   -0.224813
   6 C :   -0.116744
   7 C :   -0.359885
   8 S :    0.076373
   9 C :   -0.483057
  10 S :    0.062531
  11 P :    0.564991
  12 S :   -0.292079
  13 O :   -0.242708
  14 C :   -0.113555
  15 C :   -0.360988
  16 O :   -0.240600
  17 C :   -0.116155
  18 C :   -0.365532
  19 H :    0.132624
  20 H :    0.123063
  21 H :    0.123432
  22 H :    0.113049
  23 H :    0.118230
  24 H :    0.122129
  25 H :    0.101309
  26 H :    0.129038
  27 H :    0.125405
  28 H :    0.129727
  29 H :    0.120847
  30 H :    0.134442
  31 H :    0.121179
  32 H :    0.107363
  33 H :    0.128617
  34 H :    0.117997
  35 H :    0.127950
  36 H :    0.107325
  37 H :    0.115306
  38 H :    0.128929
  39 H :    0.124416
  40 H :    0.127739

  Mayer bond orders larger than 0.100000
B(  0-C ,  1-C ) :   1.1653 B(  0-C , 19-H ) :   0.9370 B(  0-C , 20-H ) :   0.9425
B(  0-C , 21-H ) :   0.9326 B(  1-C ,  2-O ) :   0.9051 B(  1-C , 22-H ) :   0.9168
B(  1-C , 23-H ) :   0.9333 B(  2-O ,  3-P ) :   1.0795 B(  3-P ,  4-S ) :   1.6529
B(  3-P ,  5-O ) :   1.1438 B(  3-P ,  8-S ) :   0.9465 B(  4-S ,  8-S ) :   0.1120
B(  5-O ,  6-C ) :   0.8962 B(  6-C ,  7-C ) :   1.1674 B(  6-C , 24-H ) :   0.9324
B(  6-C , 25-H ) :   0.9080 B(  7-C , 26-H ) :   0.9395 B(  7-C , 27-H ) :   0.9415
B(  7-C , 28-H ) :   0.9473 B(  8-S ,  9-C ) :   0.9979 B(  9-C , 10-S ) :   0.9961
B(  9-C , 29-H ) :   0.8480 B(  9-C , 30-H ) :   0.9106 B( 10-S , 11-P ) :   0.9398
B( 10-S , 12-S ) :   0.1155 B( 11-P , 12-S ) :   1.6431 B( 11-P , 13-O ) :   1.1252
B( 11-P , 16-O ) :   1.1079 B( 12-S , 29-H ) :   0.1175 B( 13-O , 14-C ) :   0.8955
B( 14-C , 15-C ) :   1.1633 B( 14-C , 31-H ) :   0.9353 B( 14-C , 32-H ) :   0.9179
B( 15-C , 33-H ) :   0.9404 B( 15-C , 34-H ) :   0.9377 B( 15-C , 35-H ) :   0.9467
B( 16-O , 17-C ) :   0.8999 B( 17-C , 18-C ) :   1.1732 B( 17-C , 36-H ) :   0.9119
B( 17-C , 37-H ) :   0.9346 B( 18-C , 38-H ) :   0.9387 B( 18-C , 39-H ) :   0.9464
B( 18-C , 40-H ) :   0.9289

Dispersion correction           -0.066144793
FINAL SINGLE POINT ENERGY     -2929.514189422133

DIPOLE MOMENT
-------------

Method             : SCF
Type of density    : Electron Density
Multiplicity       :   1
Irrep              :   0
Energy             : -2929.6327279068123062 Eh
Relativity type    :
Basis              : AO
                                X                 Y                 Z
Electronic contribution:     -3.546264927       1.818493710       1.513010768
Nuclear contribution   :      3.910249898      -2.965807714      -1.656394424
                        -----------------------------------------
Total Dipole Moment    :      0.363984971      -1.147314004      -0.143383657
                        -----------------------------------------
Magnitude (a.u.)       :      1.212177114
Magnitude (Debye)      :      3.081109364

Rotational constants in cm-1:             0.011957             0.005062             0.004879
Rotational constants in MHz :           358.454220           151.743093           146.283645

                             ****ORCA TERMINATED NORMALLY****
TOTAL RUN TIME: 0 days 0 hours 0 minutes 20 seconds 989 msec
