                         Program Version 6.0.0  -   RELEASE  -
|  1> ! pbe def2-sv(p) def2/J RI DEFGRID1 loosescf d4 GCP(DFT/SV(P)) printgap
|  2> %output
|  3>     printlevel normal
|  4> end
|  5> * xyz 0 1
|  6> C 4.6315878745 -1.5907435647 -0.7084415443
|  7> C 4.6724306796 -0.1425300413 -0.2649280927
|  8> O 3.5002796015 0.2345003863 0.4770894843
|  9> P 2.0582093702 0.3390582906 -0.1870749338
| 10> S 2.0581633593 1.0325864357 -2.0239802773
| 11> O 1.2762969539 1.1585869405 0.9209022376
| 12> C 1.2318397197 2.5976461698 0.9339897416
| 13> C 2.5939391753 3.2111303904 1.1765478555
| 14> S 1.2618038973 -1.5791812494 0.1379711883
| 15> C 0.0525802913 -1.6956849172 -1.2289988689
| 16> S -1.6217287571 -2.0139246487 -0.6390567424
| 17> P -2.0206240037 -0.0893488002 0.1743553417
| 18> S -1.4128127154 1.4046721013 -0.9391362283
| 19> O -1.3979958993 -0.0133667418 1.6155086025
| 20> C -1.3415230968 -1.0722483092 2.6069897309
| 21> C -2.687313131 -1.7016091093 2.8907598591
| 22> O -3.579127058 -0.1481006482 0.4663193731
| 23> C -4.5684772805 -0.1976462047 -0.5813045656
| 24> C -5.0846767836 1.1908910461 -0.9047861389
| 25> H 4.4283354707 -2.240866466 0.1387656929
| 26> H 3.8498396282 -1.7281880759 -1.4543033803
| 27> H 5.5872052623 -1.857157752 -1.1485500164
| 28> H 4.7595408662 0.5203703982 -1.1317992967
| 29> H 5.4917110633 0.0432254473 0.4308208553
| 30> H 0.8114973925 2.9379434734 -0.0187072741
| 31> H 0.5293117417 2.8255475714 1.7374397813
| 32> H 3.2473326814 3.0098441028 0.328307838
| 33> H 2.4858629122 4.2852541959 1.2905050586
| 34> H 3.0399312638 2.7912906142 2.0744647963
| 35> H 0.3235402801 -2.5466963053 -1.8481054663
| 36> H 0.0784688599 -0.7638812003 -1.8011316077
| 37> H -0.6229158736 -1.8206646444 2.2603800005
| 38> H -0.9409635026 -0.5613528238 3.4839139371
| 39> H -3.0392700332 -2.2553748154 2.023038349
| 40> H -2.5817427274 -2.3867492808 3.7264420618
| 41> H -3.416715338 -0.9361775591 3.1422381224
| 42> H -4.1355105044 -0.6714542714 -1.4662716384
| 43> H -5.3615663324 -0.8313846844 -0.1800245611
| 44> H -5.481200377 1.6602326584 -0.0088420416
| 45> H -4.2800048303 1.810014545 -1.2959538827
| 46> H -5.8694656666 1.1170461639 -1.6506097378
| 47> *
| 48>
| 49>                          ****END OF INPUT****

CARTESIAN COORDINATES (ANGSTROEM)
---------------------------------
  C      4.631588   -1.590744   -0.708442
  C      4.672431   -0.142530   -0.264928
  O      3.500280    0.234500    0.477089
  P      2.058209    0.339058   -0.187075
  S      2.058163    1.032586   -2.023980
  O      1.276297    1.158587    0.920902
  C      1.231840    2.597646    0.933990
  C      2.593939    3.211130    1.176548
  S      1.261804   -1.579181    0.137971
  C      0.052580   -1.695685   -1.228999
  S     -1.621729   -2.013925   -0.639057
  P     -2.020624   -0.089349    0.174355
  S     -1.412813    1.404672   -0.939136
  O     -1.397996   -0.013367    1.615509
  C     -1.341523   -1.072248    2.606990
  C     -2.687313   -1.701609    2.890760
  O     -3.579127   -0.148101    0.466319
  C     -4.568477   -0.197646   -0.581305
  C     -5.084677    1.190891   -0.904786
  H      4.428335   -2.240866    0.138766
  H      3.849840   -1.728188   -1.454303
  H      5.587205   -1.857158   -1.148550
  H      4.759541    0.520370   -1.131799
  H      5.491711    0.043225    0.430821
  H      0.811497    2.937943   -0.018707
  H      0.529312    2.825548    1.737440
  H      3.247333    3.009844    0.328308
  H      2.485863    4.285254    1.290505
  H      3.039931    2.791291    2.074465
  H      0.323540   -2.546696   -1.848105
  H      0.078469   -0.763881   -1.801132
  H     -0.622916   -1.820665    2.260380
  H     -0.940964   -0.561353    3.483914
  H     -3.039270   -2.255375    2.023038
  H     -2.581743   -2.386749    3.726442
  H     -3.416715   -0.936178    3.142238
  H     -4.135511   -0.671454   -1.466272
  H     -5.361566   -0.831385   -0.180025
  H     -5.481200    1.660233   -0.008842
  H     -4.280005    1.810015   -1.295954
  H     -5.869466    1.117046   -1.650610

 Total Charge           Charge          ....    0
 Multiplicity           Mult            ....    1
 Number of Electrons    NEL             ....  202
 Basis Dimension        Dim             ....  334

ORBITAL ENERGIES
----------------

  NO   OCC          E(Eh)            E(eV)
   0   2.0000     -88.046100     -2395.8562
   1   2.0000     -88.041719     -2395.7370
   2   2.0000     -87.982982     -2394.1386
   3   2.0000     -87.978391     -2394.0137
   4   2.0000     -76.424730     -2079.6226
   5   2.0000     -76.421025     -2079.5218
   6   2.0000     -18.793723      -511.4032
   7   2.0000     -18.789357      -511.2844
   8   2.0000     -18.788525      -511.2617
   9   2.0000     -18.778455      -510.9877
  10   2.0000      -9.955739      -270.9094
  11   2.0000      -9.955674      -270.9077
  12   2.0000      -9.952422      -270.8192
  13   2.0000      -9.948953      -270.7248
  14   2.0000      -9.937649      -270.4172
  15   2.0000      -9.886519      -269.0258
  16   2.0000      -9.881599      -268.8920
  17   2.0000      -9.879957      -268.8473
  18   2.0000      -9.875379      -268.7227
  19   2.0000      -7.691133      -209.2864
  20   2.0000      -7.686771      -209.1677
  21   2.0000      -7.627869      -207.5649
  22   2.0000      -7.623321      -207.4411
  23   2.0000      -6.421993      -174.7513
  24   2.0000      -6.418567      -174.6581
  25   2.0000      -5.718899      -155.6192
  26   2.0000      -5.715399      -155.5239
  27   2.0000      -5.714621      -155.5027
  28   2.0000      -5.711306      -155.4125
  29   2.0000      -5.708486      -155.3358
  30   2.0000      -5.703667      -155.2047
  31   2.0000      -5.656753      -153.9281
  32   2.0000      -5.652296      -153.8068
  33   2.0000      -5.648693      -153.7088
  34   2.0000      -5.647897      -153.6871
  35   2.0000      -5.643828      -153.5764
  36   2.0000      -5.643481      -153.5669
  37   2.0000      -4.644739      -126.3898
  38   2.0000      -4.644051      -126.3711
  39   2.0000      -4.642057      -126.3168
  40   2.0000      -4.640811      -126.2829
  41   2.0000      -4.640184      -126.2658
  42   2.0000      -4.639483      -126.2467
  43   2.0000      -0.986484       -26.8436
  44   2.0000      -0.979906       -26.6646
  45   2.0000      -0.944380       -25.6979
  46   2.0000      -0.937113       -25.5001
  47   2.0000      -0.762801       -20.7569
  48   2.0000      -0.718971       -19.5642
  49   2.0000      -0.706787       -19.2327
  50   2.0000      -0.690027       -18.7766
  51   2.0000      -0.682538       -18.5728
  52   2.0000      -0.671992       -18.2858
  53   2.0000      -0.648601       -17.6493
  54   2.0000      -0.632497       -17.2111
  55   2.0000      -0.598095       -16.2750
  56   2.0000      -0.589489       -16.0408
  57   2.0000      -0.572114       -15.5680
  58   2.0000      -0.566826       -15.4241
  59   2.0000      -0.563111       -15.3230
  60   2.0000      -0.499566       -13.5939
  61   2.0000      -0.485866       -13.2211
  62   2.0000      -0.474049       -12.8995
  63   2.0000      -0.465242       -12.6599
  64   2.0000      -0.447205       -12.1691
  65   2.0000      -0.445705       -12.1283
  66   2.0000      -0.440290       -11.9809
  67   2.0000      -0.434691       -11.8286
  68   2.0000      -0.429474       -11.6866
  69   2.0000      -0.413480       -11.2514
  70   2.0000      -0.403294       -10.9742
  71   2.0000      -0.398837       -10.8529
  72   2.0000      -0.390008       -10.6127
  73   2.0000      -0.385363       -10.4862
  74   2.0000      -0.383823       -10.4444
  75   2.0000      -0.377089       -10.2611
  76   2.0000      -0.358364        -9.7516
  77   2.0000      -0.355749        -9.6804
  78   2.0000      -0.350548        -9.5389
  79   2.0000      -0.349820        -9.5191
  80   2.0000      -0.346462        -9.4277
  81   2.0000      -0.342561        -9.3216
  82   2.0000      -0.335928        -9.1411
  83   2.0000      -0.332481        -9.0473
  84   2.0000      -0.330637        -8.9971
  85   2.0000      -0.316504        -8.6125
  86   2.0000      -0.308071        -8.3830
  87   2.0000      -0.295818        -8.0496
  88   2.0000      -0.291772        -7.9395
  89   2.0000      -0.289096        -7.8667
  90   2.0000      -0.274652        -7.4737
  91   2.0000      -0.271329        -7.3832
  92   2.0000      -0.263813        -7.1787
  93   2.0000      -0.262896        -7.1538
  94   2.0000      -0.257548        -7.0082
  95   2.0000      -0.238974        -6.5028
  96   2.0000      -0.219982        -5.9860
  97   2.0000      -0.212112        -5.7718
  98   2.0000      -0.202007        -5.4969
  99   2.0000      -0.192534        -5.2391
 100   2.0000      -0.184248        -5.0137
 101   0.0000      -0.040757        -1.1090
 102   0.0000      -0.030765        -0.8372
 103   0.0000      -0.010216        -0.2780
 104   0.0000       0.014673         0.3993
 105   0.0000       0.023187         0.6310

MULLIKEN ATOMIC CHARGES
-----------------------
   0 C :   -0.309458
   1 C :   -0.003029
   2 O :   -0.375098
   3 P :    0.614792
   4 S :   -0.319078
   5 O :   -0.354515
   6 C :   -0.000802
   7 C :   -0.302836
   8 S :   -0.098068
   9 C :   -0.353281
  10 S :   -0.113978
  11 P :    0.592841
  12 S :   -0.301057
  13 O :   -0.348556
  14 C :    0.000564
  15 C :   -0.307600
  16 O :   -0.372562
  17 C :   -0.013541
  18 C :   -0.288590
  19 H :    0.116370
  20 H :    0.120761
  21 H :    0.111101
  22 H :    0.109154
  23 H :    0.103342
  24 H :    0.121643
  25 H :    0.101771
  26 H :    0.119263
  27 H :    0.108983
  28 H :    0.112012
  29 H :    0.182567
  30 H :    0.213605
  31 H :    0.115296
  32 H :    0.108036
  33 H :    0.115766
  34 H :    0.112761
  35 H :    0.121559
  36 H :    0.104801
  37 H :    0.104822
  38 H :    0.112476
  39 H :    0.130860
  40 H :    0.106901
Sum of atomic charges:   -0.0000000

LOEWDIN ATOMIC CHARGES
----------------------
   0 C :   -0.369335
   1 C :   -0.120027
   2 O :   -0.245485
   3 P :    0.571808
   4 S :   -0.312400
   5 O :   -0.232559
   6 C :   -0.118668
   7 C :   -0.366339
   8 S :    0.089509
   9 C :   -0.477749
  10 S :    0.064388
  11 P :    0.563301
  12 S :   -0.290737
  13 O :   -0.226597
  14 C :   -0.112596
  15 C :   -0.367412
  16 O :   -0.243433
  17 C :   -0.116400
  18 C :   -0.362390
  19 H :    0.123242
  20 H :    0.119646
  21 H :    0.129835
  22 H :    0.109451
  23 H :    0.117732
  24 H :    0.109184
  25 H :    0.118529
  26 H :    0.120541
  27 H :    0.128985
  28 H :    0.123799
  29 H :    0.136740
  30 H :    0.127706
  31 H :    0.103800
  32 H :    0.122454
  33 H :    0.117223
  34 H :    0.131043
  35 H :    0.127808
  36 H :    0.107603
  37 H :    0.117375
  38 H :    0.125672
  39 H :    0.126144
  40 H :    0.128606

  Mayer bond orders larger than 0.100000
B(  0-C ,  1-C ) :   1.1676 B(  0-C , 19-H ) :   0.9440 B(  0-C , 20-H ) :   0.9367
B(  0-C , 21-H ) :   0.9381 B(  1-C ,  2-O ) :   0.9124 B(  1-C , 22-H ) :   0.9145
B(  1-C , 23-H ) :   0.9340 B(  2-O ,  3-P ) :   1.0958 B(  3-P ,  4-S ) :   1.5957
B(  3-P ,  5-O ) :   1.1491 B(  3-P ,  8-S ) :   0.9571 B(  4-S ,  8-S ) :   0.1134
B(  5-O ,  6-C ) :   0.9039 B(  6-C ,  7-C ) :   1.1572 B(  6-C , 24-H ) :   0.9140
B(  6-C , 25-H ) :   0.9361 B(  7-C , 26-H ) :   0.9373 B(  7-C , 27-H ) :   0.9392
B(  7-C , 28-H ) :   0.9447 B(  8-S ,  9-C ) :   0.9916 B(  9-C , 10-S ) :   1.0074
B(  9-C , 29-H ) :   0.9108 B(  9-C , 30-H ) :   0.8459 B( 10-S , 11-P ) :   0.9346
B( 10-S , 12-S ) :   0.1065 B( 11-P , 12-S ) :   1.6422 B( 11-P , 13-O ) :   1.1560
B( 11-P , 16-O ) :   1.0899 B( 13-O , 14-C ) :   0.8960 B( 14-C , 15-C ) :   1.1690
B( 14-C , 31-H ) :   0.9112 B( 14-C , 32-H ) :   0.9357 B( 15-C , 33-H ) :   0.9395
B( 15-C , 34-H ) :   0.9357 B( 15-C , 35-H ) :   0.9425 B( 16-O , 17-C ) :   0.9037
B( 17-C , 18-C ) :   1.1689 B( 17-C , 36-H ) :   0.9146 B( 17-C , 37-H ) :   0.9355
B( 18-C , 38-H ) :   0.9476 B( 18-C , 39-H ) :   0.9306 B( 18-C , 40-H ) :   0.9391

Dispersion correction           -0.068097859
FINAL SINGLE POINT ENERGY     -2929.519466475654

DIPOLE MOMENT
-------------

Method             : SCF
Type of density    : Electron Density
Multiplicity       :   1
Irrep              :   0
Energy             : -2929.6373360171096465 Eh
Relativity type    :
Basis              : AO
                                X                 Y                 Z
Electronic contribution:      0.845948542      -2.921921370      -7.333104890
Nuclear contribution   :     -1.073781133       2.080965162       8.261496394
                        -----------------------------------------
Total Dipole Moment    :     -0.227832590      -0.840956208       0.928391504
                        -----------------------------------------
Magnitude (a.u.)       :      1.273195121
Magnitude (Debye)      :      3.236204813

Rotational constants in cm-1:             0.013020             0.005243             0.004917
Rotational constants in MHz :           390.339983           157.191968           147.416869

                             ****ORCA TERMINATED NORMALLY****
TOTAL RUN TIME: 0 days 0 hours 0 minutes 21 seconds 550 msec
