                         Program Version 6.0.0  -   RELEASE  -
|  1> ! pbe def2-sv(p) def2/J RI DEFGRID1 loosescf d4 GCP(DFT/SV(P)) printgap
|  2> %output
|  3>     printlevel normal
|  4> end
|  5> * xyz 0 1
|  6> C 4.4540969869 -0.4123903634 -2.1789351686
|  7> C 4.577685845 0.1031211656 -0.7600287143
|  8> O 3.5184088362 -0.3757184694 0.087339485
|  9> P 2.0076287379 0.0988753143 -0.0787057334
| 10> S 1.8513155799 1.986740706 -0.5996785449
| 11> O 1.3973425232 -0.3854547511 1.2950614383
| 12> C 1.9309435053 -0.0702414969 2.5980743386
| 13> C 1.6144235985 1.3543405082 3.0053330262
| 14> S 1.1413757842 -1.299300581 -1.4009484433
| 15> C 0.0044330571 -0.2126518279 -2.3088603728
| 16> S -1.7552760387 -0.4828792487 -1.9430939397
| 17> P -1.771620585 -0.4092319062 0.1940335657
| 18> S -1.19148964 -2.0014777194 1.1713622313
| 19> O -3.2955868034 -0.0445538328 0.4557217659
| 20> C -4.3366326686 -1.0238644404 0.2662716085
| 21> C -5.591997271 -0.5037293404 0.9363702388
| 22> O -1.0251438077 0.9247303088 0.5837340815
| 23> C -1.5506684468 2.2328629439 0.2207577507
| 24> C -2.3097293786 2.8430664244 1.3791237339
| 25> H 4.3505863079 -1.4945516008 -2.1802436713
| 26> H 3.5799829713 0.0243397405 -2.6596575338
| 27> H 5.3407215994 -0.1330507091 -2.7388820921
| 28> H 4.5624044965 1.1977613253 -0.7459413817
| 29> H 5.4840086466 -0.2625497915 -0.2755575163
| 30> H 1.4361601491 -0.7919958187 3.251488751
| 31> H 3.0078055303 -0.2555907332 2.5891915226
| 32> H 1.949070057 1.5194531127 4.0245523703
| 33> H 2.1152580153 2.0603578961 2.3451622469
| 34> H 0.5416443104 1.5218375538 2.9449783204
| 35> H 0.1082669666 -0.4368699457 -3.3677781282
| 36> H 0.2735706658 0.8268059952 -2.0983154543
| 37> H -4.4826221377 -1.1601466304 -0.8087831144
| 38> H -4.0063200293 -1.9709628981 0.7055832397
| 39> H -5.419561093 -0.3700529014 2.0006530972
| 40> H -5.8788180426 0.4489583137 0.5007534928
| 41> H -6.3933150939 -1.2206641214 0.7918283274
| 42> H -0.6668623357 2.8227200725 -0.033326574
| 43> H -2.1904568634 2.1251141081 -0.6585720985
| 44> H -2.6526209126 3.8314710116 1.0896252065
| 45> H -3.16545471 2.2247194124 1.636652094
| 46> H -1.6634585835 2.931239072 2.2483624214
| 47> *
| 48>
| 49>                          ****END OF INPUT****

CARTESIAN COORDINATES (ANGSTROEM)
---------------------------------
  C      4.454097   -0.412390   -2.178935
  C      4.577686    0.103121   -0.760029
  O      3.518409   -0.375718    0.087339
  P      2.007629    0.098875   -0.078706
  S      1.851316    1.986741   -0.599679
  O      1.397343   -0.385455    1.295061
  C      1.930944   -0.070241    2.598074
  C      1.614424    1.354341    3.005333
  S      1.141376   -1.299301   -1.400948
  C      0.004433   -0.212652   -2.308860
  S     -1.755276   -0.482879   -1.943094
  P     -1.771621   -0.409232    0.194034
  S     -1.191490   -2.001478    1.171362
  O     -3.295587   -0.044554    0.455722
  C     -4.336633   -1.023864    0.266272
  C     -5.591997   -0.503729    0.936370
  O     -1.025144    0.924730    0.583734
  C     -1.550668    2.232863    0.220758
  C     -2.309729    2.843066    1.379124
  H      4.350586   -1.494552   -2.180244
  H      3.579983    0.024340   -2.659658
  H      5.340722   -0.133051   -2.738882
  H      4.562404    1.197761   -0.745941
  H      5.484009   -0.262550   -0.275558
  H      1.436160   -0.791996    3.251489
  H      3.007806   -0.255591    2.589192
  H      1.949070    1.519453    4.024552
  H      2.115258    2.060358    2.345162
  H      0.541644    1.521838    2.944978
  H      0.108267   -0.436870   -3.367778
  H      0.273571    0.826806   -2.098315
  H     -4.482622   -1.160147   -0.808783
  H     -4.006320   -1.970963    0.705583
  H     -5.419561   -0.370053    2.000653
  H     -5.878818    0.448958    0.500753
  H     -6.393315   -1.220664    0.791828
  H     -0.666862    2.822720   -0.033327
  H     -2.190457    2.125114   -0.658572
  H     -2.652621    3.831471    1.089625
  H     -3.165455    2.224719    1.636652
  H     -1.663459    2.931239    2.248362

 Total Charge           Charge          ....    0
 Multiplicity           Mult            ....    1
 Number of Electrons    NEL             ....  202
 Basis Dimension        Dim             ....  334

ORBITAL ENERGIES
----------------

  NO   OCC          E(Eh)            E(eV)
   0   2.0000     -88.042235     -2395.7510
   1   2.0000     -88.034739     -2395.5470
   2   2.0000     -87.990450     -2394.3419
   3   2.0000     -87.974066     -2393.8960
   4   2.0000     -76.426082     -2079.6594
   5   2.0000     -76.419901     -2079.4912
   6   2.0000     -18.793088      -511.3859
   7   2.0000     -18.789816      -511.2969
   8   2.0000     -18.789381      -511.2850
   9   2.0000     -18.781618      -511.0738
  10   2.0000      -9.954051      -270.8635
  11   2.0000      -9.951775      -270.8016
  12   2.0000      -9.951476      -270.7934
  13   2.0000      -9.946991      -270.6714
  14   2.0000      -9.945868      -270.6408
  15   2.0000      -9.888223      -269.0722
  16   2.0000      -9.883551      -268.9451
  17   2.0000      -9.881796      -268.8973
  18   2.0000      -9.876565      -268.7550
  19   2.0000      -7.687157      -209.1782
  20   2.0000      -7.680067      -208.9853
  21   2.0000      -7.635213      -207.7647
  22   2.0000      -7.619291      -207.3314
  23   2.0000      -6.423396      -174.7895
  24   2.0000      -6.417330      -174.6244
  25   2.0000      -5.715022      -155.5137
  26   2.0000      -5.711779      -155.4254
  27   2.0000      -5.707924      -155.3205
  28   2.0000      -5.704507      -155.2275
  29   2.0000      -5.703981      -155.2132
  30   2.0000      -5.697130      -155.0268
  31   2.0000      -5.663806      -154.1200
  32   2.0000      -5.656211      -153.9133
  33   2.0000      -5.655268      -153.8877
  34   2.0000      -5.648442      -153.7019
  35   2.0000      -5.639750      -153.4654
  36   2.0000      -5.639358      -153.4547
  37   2.0000      -4.646127      -126.4276
  38   2.0000      -4.644779      -126.3909
  39   2.0000      -4.644120      -126.3729
  40   2.0000      -4.640498      -126.2744
  41   2.0000      -4.639237      -126.2400
  42   2.0000      -4.637094      -126.1817
  43   2.0000      -0.986375       -26.8406
  44   2.0000      -0.984260       -26.7831
  45   2.0000      -0.942411       -25.6443
  46   2.0000      -0.939147       -25.5555
  47   2.0000      -0.758827       -20.6487
  48   2.0000      -0.717474       -19.5235
  49   2.0000      -0.706903       -19.2358
  50   2.0000      -0.689473       -18.7615
  51   2.0000      -0.685242       -18.6464
  52   2.0000      -0.670777       -18.2528
  53   2.0000      -0.646406       -17.5896
  54   2.0000      -0.635673       -17.2975
  55   2.0000      -0.596038       -16.2190
  56   2.0000      -0.582092       -15.8395
  57   2.0000      -0.574119       -15.6226
  58   2.0000      -0.566629       -15.4188
  59   2.0000      -0.560622       -15.2553
  60   2.0000      -0.505273       -13.7492
  61   2.0000      -0.495128       -13.4731
  62   2.0000      -0.478088       -13.0094
  63   2.0000      -0.466290       -12.6884
  64   2.0000      -0.452086       -12.3019
  65   2.0000      -0.440984       -11.9998
  66   2.0000      -0.439483       -11.9589
  67   2.0000      -0.432430       -11.7670
  68   2.0000      -0.427262       -11.6264
  69   2.0000      -0.413938       -11.2638
  70   2.0000      -0.404678       -11.0118
  71   2.0000      -0.402923       -10.9641
  72   2.0000      -0.387561       -10.5461
  73   2.0000      -0.384958       -10.4752
  74   2.0000      -0.377691       -10.2775
  75   2.0000      -0.369349       -10.0505
  76   2.0000      -0.359768        -9.7898
  77   2.0000      -0.353750        -9.6260
  78   2.0000      -0.353191        -9.6108
  79   2.0000      -0.351037        -9.5522
  80   2.0000      -0.344392        -9.3714
  81   2.0000      -0.342330        -9.3153
  82   2.0000      -0.339433        -9.2364
  83   2.0000      -0.335344        -9.1252
  84   2.0000      -0.329776        -8.9737
  85   2.0000      -0.315320        -8.5803
  86   2.0000      -0.310864        -8.4590
  87   2.0000      -0.299402        -8.1471
  88   2.0000      -0.296538        -8.0692
  89   2.0000      -0.292673        -7.9640
  90   2.0000      -0.280718        -7.6387
  91   2.0000      -0.270668        -7.3653
  92   2.0000      -0.267043        -7.2666
  93   2.0000      -0.261110        -7.1052
  94   2.0000      -0.253577        -6.9002
  95   2.0000      -0.236580        -6.4377
  96   2.0000      -0.220893        -6.0108
  97   2.0000      -0.208677        -5.6784
  98   2.0000      -0.201589        -5.4855
  99   2.0000      -0.188718        -5.1353
 100   2.0000      -0.182643        -4.9700
 101   0.0000      -0.044055        -1.1988
 102   0.0000      -0.031660        -0.8615
 103   0.0000      -0.008510        -0.2316
 104   0.0000       0.009072         0.2469
 105   0.0000       0.012914         0.3514

MULLIKEN ATOMIC CHARGES
-----------------------
   0 C :   -0.308592
   1 C :   -0.003404
   2 O :   -0.379995
   3 P :    0.642599
   4 S :   -0.340226
   5 O :   -0.342137
   6 C :    0.001120
   7 C :   -0.325130
   8 S :   -0.067720
   9 C :   -0.347668
  10 S :   -0.123804
  11 P :    0.592609
  12 S :   -0.288175
  13 O :   -0.385593
  14 C :   -0.013921
  15 C :   -0.283286
  16 O :   -0.356931
  17 C :   -0.018521
  18 C :   -0.299279
  19 H :    0.119659
  20 H :    0.117732
  21 H :    0.111793
  22 H :    0.110541
  23 H :    0.103895
  24 H :    0.109616
  25 H :    0.103212
  26 H :    0.105192
  27 H :    0.121253
  28 H :    0.134878
  29 H :    0.180051
  30 H :    0.195680
  31 H :    0.104627
  32 H :    0.105946
  33 H :    0.122182
  34 H :    0.115384
  35 H :    0.112924
  36 H :    0.120997
  37 H :    0.098910
  38 H :    0.107821
  39 H :    0.120984
  40 H :    0.124777
Sum of atomic charges:   -0.0000000

LOEWDIN ATOMIC CHARGES
----------------------
   0 C :   -0.368431
   1 C :   -0.120402
   2 O :   -0.245706
   3 P :    0.574962
   4 S :   -0.301214
   5 O :   -0.222495
   6 C :   -0.108060
   7 C :   -0.367849
   8 S :    0.111398
   9 C :   -0.482075
  10 S :    0.043348
  11 P :    0.560551
  12 S :   -0.298846
  13 O :   -0.251186
  14 C :   -0.122295
  15 C :   -0.350987
  16 O :   -0.231644
  17 C :   -0.123606
  18 C :   -0.358577
  19 H :    0.125539
  20 H :    0.118439
  21 H :    0.130263
  22 H :    0.108873
  23 H :    0.117909
  24 H :    0.121456
  25 H :    0.109367
  26 H :    0.127016
  27 H :    0.119457
  28 H :    0.128481
  29 H :    0.137410
  30 H :    0.118973
  31 H :    0.108690
  32 H :    0.108925
  33 H :    0.129042
  34 H :    0.125500
  35 H :    0.131346
  36 H :    0.111170
  37 H :    0.104745
  38 H :    0.129747
  39 H :    0.124541
  40 H :    0.126222

  Mayer bond orders larger than 0.100000
B(  0-C ,  1-C ) :   1.1665 B(  0-C , 19-H ) :   0.9445 B(  0-C , 20-H ) :   0.9378
B(  0-C , 21-H ) :   0.9379 B(  1-C ,  2-O ) :   0.9117 B(  1-C , 22-H ) :   0.9137
B(  1-C , 23-H ) :   0.9332 B(  2-O ,  3-P ) :   1.0886 B(  3-P ,  4-S ) :   1.5601
B(  3-P ,  5-O ) :   1.1576 B(  3-P ,  8-S ) :   0.9735 B(  4-S ,  8-S ) :   0.1217
B(  4-S , 30-H ) :   0.1119 B(  5-O ,  6-C ) :   0.9062 B(  6-C ,  7-C ) :   1.1639
B(  6-C , 24-H ) :   0.9299 B(  6-C , 25-H ) :   0.9277 B(  7-C , 26-H ) :   0.9374
B(  7-C , 27-H ) :   0.9368 B(  7-C , 28-H ) :   0.9374 B(  8-S ,  9-C ) :   1.0147
B(  9-C , 10-S ) :   0.9880 B(  9-C , 29-H ) :   0.9125 B(  9-C , 30-H ) :   0.8531
B( 10-S , 11-P ) :   0.9509 B( 10-S , 12-S ) :   0.1122 B( 11-P , 12-S ) :   1.6905
B( 11-P , 13-O ) :   1.0575 B( 11-P , 16-O ) :   1.1199 B( 13-O , 14-C ) :   0.9108
B( 14-C , 15-C ) :   1.1600 B( 14-C , 31-H ) :   0.9278 B( 14-C , 32-H ) :   0.9061
B( 15-C , 33-H ) :   0.9508 B( 15-C , 34-H ) :   0.9508 B( 15-C , 35-H ) :   0.9419
B( 16-O , 17-C ) :   0.8809 B( 17-C , 18-C ) :   1.1669 B( 17-C , 36-H ) :   0.9089
B( 17-C , 37-H ) :   0.9113 B( 18-C , 38-H ) :   0.9393 B( 18-C , 39-H ) :   0.9413
B( 18-C , 40-H ) :   0.9456

Dispersion correction           -0.068290391
FINAL SINGLE POINT ENERGY     -2929.513088442402

DIPOLE MOMENT
-------------

Method             : SCF
Type of density    : Electron Density
Multiplicity       :   1
Irrep              :   0
Energy             : -2929.6317704943944591 Eh
Relativity type    :
Basis              : AO
                                X                 Y                 Z
Electronic contribution:      3.749431325     -12.280149364      -8.171605355
Nuclear contribution   :     -3.740308663      12.938557345       8.045488749
                        -----------------------------------------
Total Dipole Moment    :      0.009122662       0.658407981      -0.126116606
                        -----------------------------------------
Magnitude (a.u.)       :      0.670439924
Magnitude (Debye)      :      1.704122857

Rotational constants in cm-1:             0.013064             0.005527             0.005089
Rotational constants in MHz :           391.637482           165.692564           152.575930

                             ****ORCA TERMINATED NORMALLY****
TOTAL RUN TIME: 0 days 0 hours 0 minutes 21 seconds 956 msec
