                         Program Version 6.0.0  -   RELEASE  -
|  1> ! pbe def2-sv(p) def2/J RI DEFGRID1 loosescf d4 GCP(DFT/SV(P)) printgap
|  2> %output
|  3>     printlevel normal
|  4> end
|  5> * xyz 0 1
|  6> C 4.3191352177 -0.737287826 -2.974161379
|  7> C 4.41077267 -0.1580998474 -1.5759061499
|  8> O 3.4225248898 -0.7584659171 -0.7155167886
|  9> P 2.068946893 0.019697065 -0.3465561629
| 10> S 1.1097793102 0.6841486055 -1.9183148116
| 11> O 2.4939692199 1.2249612494 0.5906680275
| 12> C 2.8050791584 1.1454613133 2.0005916009
| 13> C 3.9356251103 0.1841517717 2.3010501668
| 14> S 1.2137923749 -1.5169902465 0.8029170466
| 15> C -0.155555035 -1.9805898755 -0.3063270599
| 16> S -1.796552192 -1.757390822 0.4217094064
| 17> P -1.9785652644 0.3623062743 0.2939790587
| 18> S -0.6399134871 1.376552996 1.3069430408
| 19> O -3.4713147855 0.5944985335 0.7733124075
| 20> C -3.8460540236 0.4268625754 2.1576737482
| 21> C -5.1880466981 1.1000288871 2.3598616189
| 22> O -2.0218784275 0.7805685622 -1.2195072982
| 23> C -3.1566814157 0.6576914147 -2.1146450632
| 24> C -3.5204674782 -0.7829531885 -2.4048079509
| 25> H 3.3594262035 -0.4853908703 -3.4202650741
| 26> H 5.1151728613 -0.3257695511 -3.5863709774
| 27> H 4.4150120433 -1.818373358 -2.9324598966
| 28> H 4.2675612855 0.9277340748 -1.5892500762
| 29> H 5.3707017938 -0.3941896222 -1.1121471206
| 30> H 3.0668031248 2.174140307 2.2537522603
| 31> H 1.8900220534 0.8662680627 2.5301738287
| 32> H 4.1455552131 0.2137464092 3.3656296538
| 33> H 3.6540404991 -0.8311315506 2.0251647873
| 34> H 4.8297983511 0.4673360309 1.7510253738
| 35> H -0.0687682694 -3.0437798204 -0.5130138979
| 36> H -0.0751792157 -1.3842855558 -1.2198355406
| 37> H -3.8984938627 -0.6447127762 2.3658585703
| 38> H -3.0695255909 0.877426578 2.7842996084
| 39> H -5.4936603988 0.9770521394 3.3935556188
| 40> H -5.1127903451 2.1598280802 2.1325626279
| 41> H -5.9320164279 0.6506940564 1.7087269449
| 42> H -3.9966927202 1.1956338432 -1.6727112789
| 43> H -2.8107354946 1.1733518809 -3.0121747492
| 44> H -4.2971765821 -0.7995513981 -3.1631385885
| 45> H -2.6532604753 -1.3246604099 -2.7746455943
| 46> H -3.8904053592 -1.2732958731 -1.5073247435
| 47> *
| 48>
| 49>                          ****END OF INPUT****

CARTESIAN COORDINATES (ANGSTROEM)
---------------------------------
  C      4.319135   -0.737288   -2.974161
  C      4.410773   -0.158100   -1.575906
  O      3.422525   -0.758466   -0.715517
  P      2.068947    0.019697   -0.346556
  S      1.109779    0.684149   -1.918315
  O      2.493969    1.224961    0.590668
  C      2.805079    1.145461    2.000592
  C      3.935625    0.184152    2.301050
  S      1.213792   -1.516990    0.802917
  C     -0.155555   -1.980590   -0.306327
  S     -1.796552   -1.757391    0.421709
  P     -1.978565    0.362306    0.293979
  S     -0.639913    1.376553    1.306943
  O     -3.471315    0.594499    0.773312
  C     -3.846054    0.426863    2.157674
  C     -5.188047    1.100029    2.359862
  O     -2.021878    0.780569   -1.219507
  C     -3.156681    0.657691   -2.114645
  C     -3.520467   -0.782953   -2.404808
  H      3.359426   -0.485391   -3.420265
  H      5.115173   -0.325770   -3.586371
  H      4.415012   -1.818373   -2.932460
  H      4.267561    0.927734   -1.589250
  H      5.370702   -0.394190   -1.112147
  H      3.066803    2.174140    2.253752
  H      1.890022    0.866268    2.530174
  H      4.145555    0.213746    3.365630
  H      3.654040   -0.831132    2.025165
  H      4.829798    0.467336    1.751025
  H     -0.068768   -3.043780   -0.513014
  H     -0.075179   -1.384286   -1.219836
  H     -3.898494   -0.644713    2.365859
  H     -3.069526    0.877427    2.784300
  H     -5.493660    0.977052    3.393556
  H     -5.112790    2.159828    2.132563
  H     -5.932016    0.650694    1.708727
  H     -3.996693    1.195634   -1.672711
  H     -2.810735    1.173352   -3.012175
  H     -4.297177   -0.799551   -3.163139
  H     -2.653260   -1.324660   -2.774646
  H     -3.890405   -1.273296   -1.507325

 Total Charge           Charge          ....    0
 Multiplicity           Mult            ....    1
 Number of Electrons    NEL             ....  202
 Basis Dimension        Dim             ....  334

ORBITAL ENERGIES
----------------

  NO   OCC          E(Eh)            E(eV)
   0   2.0000     -88.038416     -2395.6471
   1   2.0000     -88.036660     -2395.5993
   2   2.0000     -87.973891     -2393.8913
   3   2.0000     -87.973238     -2393.8735
   4   2.0000     -76.421419     -2079.5325
   5   2.0000     -76.415562     -2079.3731
   6   2.0000     -18.793146      -511.3875
   7   2.0000     -18.785920      -511.1909
   8   2.0000     -18.782453      -511.0965
   9   2.0000     -18.774292      -510.8745
  10   2.0000      -9.954639      -270.8795
  11   2.0000      -9.954080      -270.8643
  12   2.0000      -9.953998      -270.8621
  13   2.0000      -9.948549      -270.7138
  14   2.0000      -9.943931      -270.5881
  15   2.0000      -9.890226      -269.1267
  16   2.0000      -9.885943      -269.0102
  17   2.0000      -9.885934      -269.0099
  18   2.0000      -9.873063      -268.6597
  19   2.0000      -7.683565      -209.0804
  20   2.0000      -7.681987      -209.0375
  21   2.0000      -7.618839      -207.3192
  22   2.0000      -7.618534      -207.3108
  23   2.0000      -6.418755      -174.6632
  24   2.0000      -6.413221      -174.5126
  25   2.0000      -5.711186      -155.4093
  26   2.0000      -5.709877      -155.3736
  27   2.0000      -5.708178      -155.3274
  28   2.0000      -5.706687      -155.2868
  29   2.0000      -5.700675      -155.1233
  30   2.0000      -5.698667      -155.0686
  31   2.0000      -5.647798      -153.6844
  32   2.0000      -5.647564      -153.6780
  33   2.0000      -5.639737      -153.4650
  34   2.0000      -5.639730      -153.4649
  35   2.0000      -5.638674      -153.4361
  36   2.0000      -5.637873      -153.4143
  37   2.0000      -4.641975      -126.3146
  38   2.0000      -4.640504      -126.2745
  39   2.0000      -4.638634      -126.2237
  40   2.0000      -4.636089      -126.1544
  41   2.0000      -4.634888      -126.1217
  42   2.0000      -4.633541      -126.0851
  43   2.0000      -0.986965       -26.8567
  44   2.0000      -0.972255       -26.4564
  45   2.0000      -0.942859       -25.6565
  46   2.0000      -0.931133       -25.3374
  47   2.0000      -0.758521       -20.6404
  48   2.0000      -0.718024       -19.5384
  49   2.0000      -0.706608       -19.2278
  50   2.0000      -0.692829       -18.8528
  51   2.0000      -0.686088       -18.6694
  52   2.0000      -0.669098       -18.2071
  53   2.0000      -0.644553       -17.5392
  54   2.0000      -0.628392       -17.0994
  55   2.0000      -0.588834       -16.0230
  56   2.0000      -0.583140       -15.8681
  57   2.0000      -0.573436       -15.6040
  58   2.0000      -0.572684       -15.5835
  59   2.0000      -0.555070       -15.1042
  60   2.0000      -0.506220       -13.7749
  61   2.0000      -0.490339       -13.3428
  62   2.0000      -0.473218       -12.8769
  63   2.0000      -0.467088       -12.7101
  64   2.0000      -0.451610       -12.2889
  65   2.0000      -0.446300       -12.1444
  66   2.0000      -0.443108       -12.0576
  67   2.0000      -0.431759       -11.7488
  68   2.0000      -0.424667       -11.5558
  69   2.0000      -0.412818       -11.2334
  70   2.0000      -0.402044       -10.9402
  71   2.0000      -0.397333       -10.8120
  72   2.0000      -0.395028       -10.7493
  73   2.0000      -0.377539       -10.2734
  74   2.0000      -0.376140       -10.2353
  75   2.0000      -0.365609        -9.9487
  76   2.0000      -0.359701        -9.7880
  77   2.0000      -0.352883        -9.6024
  78   2.0000      -0.351270        -9.5585
  79   2.0000      -0.348973        -9.4960
  80   2.0000      -0.346671        -9.4334
  81   2.0000      -0.342044        -9.3075
  82   2.0000      -0.340165        -9.2563
  83   2.0000      -0.335234        -9.1222
  84   2.0000      -0.329637        -8.9699
  85   2.0000      -0.319474        -8.6933
  86   2.0000      -0.305651        -8.3172
  87   2.0000      -0.301514        -8.2046
  88   2.0000      -0.297664        -8.0998
  89   2.0000      -0.290496        -7.9048
  90   2.0000      -0.271430        -7.3860
  91   2.0000      -0.270446        -7.3592
  92   2.0000      -0.263484        -7.1698
  93   2.0000      -0.258109        -7.0235
  94   2.0000      -0.254477        -6.9247
  95   2.0000      -0.237527        -6.4634
  96   2.0000      -0.214528        -5.8376
  97   2.0000      -0.201224        -5.4756
  98   2.0000      -0.192616        -5.2414
  99   2.0000      -0.181722        -4.9449
 100   2.0000      -0.175932        -4.7874
 101   0.0000      -0.037696        -1.0258
 102   0.0000      -0.028474        -0.7748
 103   0.0000      -0.008220        -0.2237
 104   0.0000       0.005661         0.1540
 105   0.0000       0.028031         0.7628

MULLIKEN ATOMIC CHARGES
-----------------------
   0 C :   -0.279940
   1 C :   -0.018269
   2 O :   -0.381128
   3 P :    0.608293
   4 S :   -0.302476
   5 O :   -0.368580
   6 C :   -0.013056
   7 C :   -0.321411
   8 S :   -0.083242
   9 C :   -0.345123
  10 S :   -0.122615
  11 P :    0.616247
  12 S :   -0.309023
  13 O :   -0.388903
  14 C :   -0.011891
  15 C :   -0.281606
  16 O :   -0.346716
  17 C :    0.005999
  18 C :   -0.318746
  19 H :    0.122734
  20 H :    0.102250
  21 H :    0.108072
  22 H :    0.104194
  23 H :    0.099758
  24 H :    0.109725
  25 H :    0.127731
  26 H :    0.114663
  27 H :    0.133388
  28 H :    0.116905
  29 H :    0.183344
  30 H :    0.193392
  31 H :    0.105676
  32 H :    0.107036
  33 H :    0.113394
  34 H :    0.122883
  35 H :    0.113986
  36 H :    0.109508
  37 H :    0.113836
  38 H :    0.111948
  39 H :    0.124592
  40 H :    0.123172
Sum of atomic charges:   -0.0000000

LOEWDIN ATOMIC CHARGES
----------------------
   0 C :   -0.361525
   1 C :   -0.120179
   2 O :   -0.264173
   3 P :    0.570560
   4 S :   -0.298401
   5 O :   -0.237036
   6 C :   -0.117660
   7 C :   -0.367457
   8 S :    0.088151
   9 C :   -0.480177
  10 S :    0.060320
  11 P :    0.566296
  12 S :   -0.305428
  13 O :   -0.251057
  14 C :   -0.119749
  15 C :   -0.350789
  16 O :   -0.224926
  17 C :   -0.105896
  18 C :   -0.368749
  19 H :    0.123630
  20 H :    0.125906
  21 H :    0.123707
  22 H :    0.108775
  23 H :    0.112937
  24 H :    0.122750
  25 H :    0.110949
  26 H :    0.132291
  27 H :    0.119928
  28 H :    0.125458
  29 H :    0.138173
  30 H :    0.121135
  31 H :    0.109716
  32 H :    0.110223
  33 H :    0.131774
  34 H :    0.130113
  35 H :    0.125409
  36 H :    0.114512
  37 H :    0.124461
  38 H :    0.130571
  39 H :    0.127824
  40 H :    0.117636

  Mayer bond orders larger than 0.100000
B(  0-C ,  1-C ) :   1.1687 B(  0-C , 19-H ) :   0.9332 B(  0-C , 20-H ) :   0.9408
B(  0-C , 21-H ) :   0.9475 B(  1-C ,  2-O ) :   0.9080 B(  1-C , 22-H ) :   0.9134
B(  1-C , 23-H ) :   0.9332 B(  2-O ,  3-P ) :   1.0735 B(  3-P ,  4-S ) :   1.6132
B(  3-P ,  5-O ) :   1.1154 B(  3-P ,  8-S ) :   0.9595 B(  4-S ,  8-S ) :   0.1110
B(  4-S , 30-H ) :   0.1193 B(  5-O ,  6-C ) :   0.9057 B(  6-C ,  7-C ) :   1.1610
B(  6-C , 24-H ) :   0.9356 B(  6-C , 25-H ) :   0.9138 B(  7-C , 26-H ) :   0.9366
B(  7-C , 27-H ) :   0.9355 B(  7-C , 28-H ) :   0.9440 B(  8-S ,  9-C ) :   1.0033
B(  9-C , 10-S ) :   0.9975 B(  9-C , 29-H ) :   0.9122 B(  9-C , 30-H ) :   0.8455
B( 10-S , 11-P ) :   0.9434 B( 10-S , 12-S ) :   0.1151 B( 11-P , 12-S ) :   1.6645
B( 11-P , 13-O ) :   1.0715 B( 11-P , 16-O ) :   1.1449 B( 13-O , 14-C ) :   0.9024
B( 14-C , 15-C ) :   1.1604 B( 14-C , 31-H ) :   0.9296 B( 14-C , 32-H ) :   0.9068
B( 15-C , 33-H ) :   0.9415 B( 15-C , 34-H ) :   0.9506 B( 15-C , 35-H ) :   0.9512
B( 16-O , 17-C ) :   0.8966 B( 17-C , 18-C ) :   1.1700 B( 17-C , 36-H ) :   0.9273
B( 17-C , 37-H ) :   0.9335 B( 18-C , 38-H ) :   0.9358 B( 18-C , 39-H ) :   0.9448
B( 18-C , 40-H ) :   0.9377

Dispersion correction           -0.066378120
FINAL SINGLE POINT ENERGY     -2929.506187471517

DIPOLE MOMENT
-------------

Method             : SCF
Type of density    : Electron Density
Multiplicity       :   1
Irrep              :   0
Energy             : -2929.6244575519344835 Eh
Relativity type    :
Basis              : AO
                                X                 Y                 Z
Electronic contribution:      0.707628773       0.275852480       2.313192798
Nuclear contribution   :     -1.182588296      -0.881155376      -2.036255717
                        -----------------------------------------
Total Dipole Moment    :     -0.474959524      -0.605302897       0.276937081
                        -----------------------------------------
Magnitude (a.u.)       :      0.817723849
Magnitude (Debye)      :      2.078488843

Rotational constants in cm-1:             0.013324             0.005069             0.004465
Rotational constants in MHz :           399.451849           151.955233           133.855547

                             ****ORCA TERMINATED NORMALLY****
TOTAL RUN TIME: 0 days 0 hours 0 minutes 20 seconds 729 msec
