                         Program Version 6.0.0  -   RELEASE  -
|  1> ! pbe def2-sv(p) def2/J RI DEFGRID1 loosescf d4 GCP(DFT/SV(P)) printgap
|  2> %output
|  3>     printlevel normal
|  4> end
|  5> * xyz 0 1
|  6> C 4.421813997 -1.6693211884 -0.8840198004
|  7> C 4.7074383269 -0.1844819422 -0.7812690255
|  8> O 3.7160399135 0.5154192604 -0.0125465041
|  9> P 2.1987092639 0.6570848413 -0.4793365371
| 10> S 2.0002650879 0.9143525166 -2.4085301433
| 11> O 1.7390112309 1.9071636815 0.3599058425
| 12> C 1.3791279343 1.9408534905 1.7599592902
| 13> C 2.4415327631 1.3412496927 2.6548782594
| 14> S 1.2526358055 -1.0585087186 0.3617710631
| 15> C 0.2812695791 -1.6373788003 -1.0643865193
| 16> S -1.4324735025 -2.000507338 -0.626179344
| 17> P -1.9675686099 -0.0837064943 0.128929133
| 18> S -1.257147011 1.4553552868 -0.8562614727
| 19> O -1.5542828938 -0.0558093382 1.6470305158
| 20> C -1.9693659921 -1.063391336 2.6089540042
| 21> C -3.1741063577 -0.5865556776 3.3922632359
| 22> O -3.5496801689 -0.1844148847 0.1949582098
| 23> C -4.3490410392 -0.1866592252 -1.006022945
| 24> C -5.7942100851 0.0182863652 -0.6000924175
| 25> H 4.2572934425 -2.0946029202 0.1026517938
| 26> H 3.5355748174 -1.8321471118 -1.4958393406
| 27> H 5.2662197502 -2.1629083596 -1.3541655438
| 28> H 4.7514790086 0.2659116909 -1.7779315657
| 29> H 5.6363211712 0.0111778992 -0.2437645816
| 30> H 1.2384745986 3.0059856905 1.9513921393
| 31> H 0.4212462262 1.4242737782 1.8754726379
| 32> H 2.1464630839 1.4738997628 3.6911583203
| 33> H 2.5513641281 0.2774199567 2.4491189976
| 34> H 3.3956032942 1.8329081203 2.4836042609
| 35> H 0.7012023397 -2.5748193647 -1.4209175197
| 36> H 0.3175181067 -0.8670624044 -1.8405405372
| 37> H -2.1832304881 -1.993269494 2.0754997588
| 38> H -1.097748895 -1.1992366972 3.2514510518
| 39> H -2.9525754833 0.3577371921 3.8817447994
| 40> H -4.022838174 -0.4460008003 2.7284893528
| 41> H -3.4241395004 -1.3297835598 4.1427930603
| 42> H -3.995063182 0.6167130008 -1.6603953049
| 43> H -4.2069025812 -1.1465927945 -1.5097979171
| 44> H -6.4159036437 0.0199629621 -1.4892884991
| 45> H -6.1123764022 -0.783993798 0.0591052794
| 46> H -5.9059688667 0.9674196522 -0.0835134038
| 47> *
| 48>
| 49>                          ****END OF INPUT****

CARTESIAN COORDINATES (ANGSTROEM)
---------------------------------
  C      4.421814   -1.669321   -0.884020
  C      4.707438   -0.184482   -0.781269
  O      3.716040    0.515419   -0.012547
  P      2.198709    0.657085   -0.479337
  S      2.000265    0.914353   -2.408530
  O      1.739011    1.907164    0.359906
  C      1.379128    1.940853    1.759959
  C      2.441533    1.341250    2.654878
  S      1.252636   -1.058509    0.361771
  C      0.281270   -1.637379   -1.064387
  S     -1.432474   -2.000507   -0.626179
  P     -1.967569   -0.083706    0.128929
  S     -1.257147    1.455355   -0.856261
  O     -1.554283   -0.055809    1.647031
  C     -1.969366   -1.063391    2.608954
  C     -3.174106   -0.586556    3.392263
  O     -3.549680   -0.184415    0.194958
  C     -4.349041   -0.186659   -1.006023
  C     -5.794210    0.018286   -0.600092
  H      4.257293   -2.094603    0.102652
  H      3.535575   -1.832147   -1.495839
  H      5.266220   -2.162908   -1.354166
  H      4.751479    0.265912   -1.777932
  H      5.636321    0.011178   -0.243765
  H      1.238475    3.005986    1.951392
  H      0.421246    1.424274    1.875473
  H      2.146463    1.473900    3.691158
  H      2.551364    0.277420    2.449119
  H      3.395603    1.832908    2.483604
  H      0.701202   -2.574819   -1.420918
  H      0.317518   -0.867062   -1.840541
  H     -2.183230   -1.993269    2.075500
  H     -1.097749   -1.199237    3.251451
  H     -2.952575    0.357737    3.881745
  H     -4.022838   -0.446001    2.728489
  H     -3.424140   -1.329784    4.142793
  H     -3.995063    0.616713   -1.660395
  H     -4.206903   -1.146593   -1.509798
  H     -6.415904    0.019963   -1.489288
  H     -6.112376   -0.783994    0.059105
  H     -5.905969    0.967420   -0.083513

 Total Charge           Charge          ....    0
 Multiplicity           Mult            ....    1
 Number of Electrons    NEL             ....  202
 Basis Dimension        Dim             ....  334

ORBITAL ENERGIES
----------------

  NO   OCC          E(Eh)            E(eV)
   0   2.0000     -88.044738     -2395.8191
   1   2.0000     -88.040651     -2395.7079
   2   2.0000     -87.980131     -2394.0611
   3   2.0000     -87.976856     -2393.9720
   4   2.0000     -76.425413     -2079.6412
   5   2.0000     -76.419740     -2079.4869
   6   2.0000     -18.796455      -511.4775
   7   2.0000     -18.796200      -511.4706
   8   2.0000     -18.782050      -511.0856
   9   2.0000     -18.780648      -511.0474
  10   2.0000      -9.959790      -271.0197
  11   2.0000      -9.956152      -270.9207
  12   2.0000      -9.953211      -270.8406
  13   2.0000      -9.946028      -270.6452
  14   2.0000      -9.944530      -270.6044
  15   2.0000      -9.891943      -269.1735
  16   2.0000      -9.890576      -269.1363
  17   2.0000      -9.883312      -268.9386
  18   2.0000      -9.880526      -268.8628
  19   2.0000      -7.689893      -209.2526
  20   2.0000      -7.684854      -209.1155
  21   2.0000      -7.624883      -207.4836
  22   2.0000      -7.622109      -207.4081
  23   2.0000      -6.422868      -174.7751
  24   2.0000      -6.416737      -174.6083
  25   2.0000      -5.717707      -155.5867
  26   2.0000      -5.714201      -155.4913
  27   2.0000      -5.712748      -155.4518
  28   2.0000      -5.709401      -155.3607
  29   2.0000      -5.707158      -155.2997
  30   2.0000      -5.701867      -155.1557
  31   2.0000      -5.654023      -153.8538
  32   2.0000      -5.651146      -153.7755
  33   2.0000      -5.645363      -153.6182
  34   2.0000      -5.645017      -153.6087
  35   2.0000      -5.642783      -153.5479
  36   2.0000      -5.642031      -153.5275
  37   2.0000      -4.645739      -126.4170
  38   2.0000      -4.644784      -126.3910
  39   2.0000      -4.642858      -126.3386
  40   2.0000      -4.639371      -126.2437
  41   2.0000      -4.638513      -126.2204
  42   2.0000      -4.637233      -126.1855
  43   2.0000      -0.992360       -27.0035
  44   2.0000      -0.977217       -26.5914
  45   2.0000      -0.949613       -25.8403
  46   2.0000      -0.934803       -25.4373
  47   2.0000      -0.761581       -20.7237
  48   2.0000      -0.720672       -19.6105
  49   2.0000      -0.708233       -19.2720
  50   2.0000      -0.696429       -18.9508
  51   2.0000      -0.683810       -18.6074
  52   2.0000      -0.675943       -18.3934
  53   2.0000      -0.646733       -17.5985
  54   2.0000      -0.631292       -17.1783
  55   2.0000      -0.594466       -16.1762
  56   2.0000      -0.588810       -16.0223
  57   2.0000      -0.573705       -15.6113
  58   2.0000      -0.569154       -15.4875
  59   2.0000      -0.564163       -15.3517
  60   2.0000      -0.511085       -13.9073
  61   2.0000      -0.487058       -13.2535
  62   2.0000      -0.484255       -13.1772
  63   2.0000      -0.462324       -12.5805
  64   2.0000      -0.449443       -12.2300
  65   2.0000      -0.446807       -12.1582
  66   2.0000      -0.444426       -12.0935
  67   2.0000      -0.434480       -11.8228
  68   2.0000      -0.433732       -11.8025
  69   2.0000      -0.420471       -11.4416
  70   2.0000      -0.408583       -11.1181
  71   2.0000      -0.393811       -10.7161
  72   2.0000      -0.390379       -10.6228
  73   2.0000      -0.386892       -10.5279
  74   2.0000      -0.384365       -10.4591
  75   2.0000      -0.365525        -9.9465
  76   2.0000      -0.362900        -9.8750
  77   2.0000      -0.359457        -9.7813
  78   2.0000      -0.356230        -9.6935
  79   2.0000      -0.352103        -9.5812
  80   2.0000      -0.349737        -9.5168
  81   2.0000      -0.347151        -9.4465
  82   2.0000      -0.342080        -9.3085
  83   2.0000      -0.340708        -9.2711
  84   2.0000      -0.332066        -9.0360
  85   2.0000      -0.320472        -8.7205
  86   2.0000      -0.304175        -8.2770
  87   2.0000      -0.302166        -8.2223
  88   2.0000      -0.296913        -8.0794
  89   2.0000      -0.287606        -7.8262
  90   2.0000      -0.283057        -7.7024
  91   2.0000      -0.278700        -7.5838
  92   2.0000      -0.265491        -7.2244
  93   2.0000      -0.261208        -7.1078
  94   2.0000      -0.254428        -6.9233
  95   2.0000      -0.236554        -6.4370
  96   2.0000      -0.216434        -5.8895
  97   2.0000      -0.207633        -5.6500
  98   2.0000      -0.197568        -5.3761
  99   2.0000      -0.193924        -5.2769
 100   2.0000      -0.181840        -4.9481
 101   0.0000      -0.043435        -1.1819
 102   0.0000      -0.031993        -0.8706
 103   0.0000      -0.006388        -0.1738
 104   0.0000       0.011033         0.3002
 105   0.0000       0.018345         0.4992

MULLIKEN ATOMIC CHARGES
-----------------------
   0 C :   -0.313646
   1 C :    0.003454
   2 O :   -0.375663
   3 P :    0.611899
   4 S :   -0.299178
   5 O :   -0.351470
   6 C :   -0.019435
   7 C :   -0.315032
   8 S :   -0.138637
   9 C :   -0.336730
  10 S :   -0.115910
  11 P :    0.584312
  12 S :   -0.280930
  13 O :   -0.348864
  14 C :   -0.008649
  15 C :   -0.290836
  16 O :   -0.382020
  17 C :   -0.011904
  18 C :   -0.283204
  19 H :    0.115666
  20 H :    0.117427
  21 H :    0.110239
  22 H :    0.110925
  23 H :    0.101235
  24 H :    0.107698
  25 H :    0.134922
  26 H :    0.109950
  27 H :    0.120363
  28 H :    0.122273
  29 H :    0.179671
  30 H :    0.209296
  31 H :    0.102626
  32 H :    0.108138
  33 H :    0.118516
  34 H :    0.124293
  35 H :    0.110659
  36 H :    0.109903
  37 H :    0.105167
  38 H :    0.115202
  39 H :    0.115183
  40 H :    0.123093
Sum of atomic charges:   -0.0000000

LOEWDIN ATOMIC CHARGES
----------------------
   0 C :   -0.370952
   1 C :   -0.118308
   2 O :   -0.248287
   3 P :    0.576854
   4 S :   -0.297016
   5 O :   -0.225877
   6 C :   -0.118397
   7 C :   -0.367176
   8 S :    0.062945
   9 C :   -0.478954
  10 S :    0.061049
  11 P :    0.556185
  12 S :   -0.287831
  13 O :   -0.229899
  14 C :   -0.114941
  15 C :   -0.359496
  16 O :   -0.250170
  17 C :   -0.119983
  18 C :   -0.350680
  19 H :    0.122086
  20 H :    0.117883
  21 H :    0.129136
  22 H :    0.111146
  23 H :    0.116967
  24 H :    0.122981
  25 H :    0.112162
  26 H :    0.129650
  27 H :    0.113888
  28 H :    0.128486
  29 H :    0.133475
  30 H :    0.125932
  31 H :    0.104259
  32 H :    0.119086
  33 H :    0.128182
  34 H :    0.126861
  35 H :    0.129993
  36 H :    0.112466
  37 H :    0.108685
  38 H :    0.132501
  39 H :    0.125266
  40 H :    0.129842

  Mayer bond orders larger than 0.100000
B(  0-C ,  1-C ) :   1.1645 B(  0-C , 19-H ) :   0.9429 B(  0-C , 20-H ) :   0.9368
B(  0-C , 21-H ) :   0.9377 B(  1-C ,  2-O ) :   0.9179 B(  1-C , 22-H ) :   0.9158
B(  1-C , 23-H ) :   0.9345 B(  2-O ,  3-P ) :   1.0804 B(  3-P ,  4-S ) :   1.6168
B(  3-P ,  5-O ) :   1.1551 B(  3-P ,  8-S ) :   0.9288 B(  4-S ,  8-S ) :   0.1142
B(  4-S , 30-H ) :   0.1035 B(  5-O ,  6-C ) :   0.8962 B(  6-C ,  7-C ) :   1.1639
B(  6-C , 24-H ) :   0.9336 B(  6-C , 25-H ) :   0.9068 B(  7-C , 26-H ) :   0.9365
B(  7-C , 27-H ) :   0.9376 B(  7-C , 28-H ) :   0.9418 B(  8-S ,  9-C ) :   0.9989
B(  9-C , 10-S ) :   0.9975 B(  9-C , 29-H ) :   0.9081 B(  9-C , 30-H ) :   0.8441
B( 10-S , 11-P ) :   0.9443 B( 10-S , 12-S ) :   0.1096 B( 11-P , 12-S ) :   1.6816
B( 11-P , 13-O ) :   1.1133 B( 11-P , 16-O ) :   1.0783 B( 13-O , 14-C ) :   0.8849
B( 14-C , 15-C ) :   1.1659 B( 14-C , 31-H ) :   0.9108 B( 14-C , 32-H ) :   0.9348
B( 15-C , 33-H ) :   0.9473 B( 15-C , 34-H ) :   0.9409 B( 15-C , 35-H ) :   0.9398
B( 16-O , 17-C ) :   0.9022 B( 17-C , 18-C ) :   1.1594 B( 17-C , 36-H ) :   0.9115
B( 17-C , 37-H ) :   0.9272 B( 18-C , 38-H ) :   0.9417 B( 18-C , 39-H ) :   0.9507
B( 18-C , 40-H ) :   0.9508

Dispersion correction           -0.066797573
FINAL SINGLE POINT ENERGY     -2929.515841342421

DIPOLE MOMENT
-------------

Method             : SCF
Type of density    : Electron Density
Multiplicity       :   1
Irrep              :   0
Energy             : -2929.6348303050685900 Eh
Relativity type    :
Basis              : AO
                                X                 Y                 Z
Electronic contribution:      5.326762617       4.948480197     -13.825732948
Nuclear contribution   :     -5.938590818      -6.255136214      15.286108332
                        -----------------------------------------
Total Dipole Moment    :     -0.611828201      -1.306656016       1.460375384
                        -----------------------------------------
Magnitude (a.u.)       :      2.052895505
Magnitude (Debye)      :      5.218045688

Rotational constants in cm-1:             0.013405             0.005012             0.004684
Rotational constants in MHz :           401.866034           150.270672           140.410048

                             ****ORCA TERMINATED NORMALLY****
TOTAL RUN TIME: 0 days 0 hours 0 minutes 22 seconds 159 msec
