                         Program Version 6.0.1  -  RELEASE   -
|  1> ! pbe def2-sv(p) def2/J RI DEFGRID1 loosescf d4 GCP(DFT/SV(P)) printgap
|  2> %output
|  3>     printlevel normal
|  4> end
|  5> * xyz 0 1
|  6> C 2.1082810327 -3.4638039914 -2.5440173937
|  7> C 2.9721147881 -3.2460148562 -1.311618865
|  8> O 2.8735637323 -1.8771289258 -0.8715641264
|  9> C 1.9546340892 -1.5650890827 0.015949052
| 10> O 1.220590962 -2.3587571488 0.5645798865
| 11> C 1.883073726 -0.067285022 0.2378868081
| 12> C 1.0000941864 0.5384097764 -0.8582939023
| 13> H 1.54827554 0.5738784358 -1.8041008154
| 14> C 0.5230484469 1.9438106505 -0.5108115328
| 15> O -0.6374623266 2.279848029 -0.6052755053
| 16> O 1.5180394992 2.7057580808 -0.1455013052
| 17> C 1.2365765692 4.0556804354 0.2840122475
| 18> C 1.1420716712 4.1119017247 1.7995149424
| 19> S -0.4709019223 -0.4670352778 -1.2418608282
| 20> P -1.5863102607 -0.2451252095 0.5558869068
| 21> S -0.9757633682 0.8263343703 2.0752074269
| 22> O -3.059069278 0.0909141374 0.026611366
| 23> C -3.4726555557 1.3608643868 -0.4818442175
| 24> O -1.8255907895 -1.7209713615 1.0670342434
| 25> C -2.0847624326 -2.844104661 0.2070868678
| 26> H 2.4293273947 -2.8074479961 -3.347553051
| 27> H 2.1958010541 -4.4956833894 -2.8670444675
| 28> H 1.0664919613 -3.2494120932 -2.3143047969
| 29> H 4.0291761073 -3.3929176377 -1.5334371199
| 30> H 2.6600507072 -3.8995463829 -0.492275142
| 31> H 2.8766282158 0.3738915175 0.1782781128
| 32> H 1.4462908598 0.1168214274 1.2212622538
| 33> H 2.076135023 4.6445670016 -0.0862394145
| 34> H 0.3024886522 4.3821616618 -0.1800601512
| 35> H 0.3470260478 3.4562256044 2.1514519336
| 36> H 2.0778224233 3.7910768334 2.2475264532
| 37> H 0.92533689 5.128746241 2.1087763649
| 38> H -3.1699848204 2.1567395777 0.1984459081
| 39> H -4.5560199339 1.3038188138 -0.552438803
| 40> H -3.0253300674 1.5357682977 -1.4594449126
| 41> H -2.7140510166 -3.5168505741 0.7841219358
| 42> H -1.1327783122 -3.319176331 -0.0281879404
| 43> H -2.5929434274 -2.5279860095 -0.7023193468
| 44> *
| 45>
| 46>                          ****END OF INPUT****

CARTESIAN COORDINATES (ANGSTROEM)
---------------------------------
  C      2.108281   -3.463804   -2.544017
  C      2.972115   -3.246015   -1.311619
  O      2.873564   -1.877129   -0.871564
  C      1.954634   -1.565089    0.015949
  O      1.220591   -2.358757    0.564580
  C      1.883074   -0.067285    0.237887
  C      1.000094    0.538410   -0.858294
  H      1.548276    0.573878   -1.804101
  C      0.523048    1.943811   -0.510812
  O     -0.637462    2.279848   -0.605276
  O      1.518039    2.705758   -0.145501
  C      1.236577    4.055680    0.284012
  C      1.142072    4.111902    1.799515
  S     -0.470902   -0.467035   -1.241861
  P     -1.586310   -0.245125    0.555887
  S     -0.975763    0.826334    2.075207
  O     -3.059069    0.090914    0.026611
  C     -3.472656    1.360864   -0.481844
  O     -1.825591   -1.720971    1.067034
  C     -2.084762   -2.844105    0.207087
  H      2.429327   -2.807448   -3.347553
  H      2.195801   -4.495683   -2.867044
  H      1.066492   -3.249412   -2.314305
  H      4.029176   -3.392918   -1.533437
  H      2.660051   -3.899546   -0.492275
  H      2.876628    0.373892    0.178278
  H      1.446291    0.116821    1.221262
  H      2.076135    4.644567   -0.086239
  H      0.302489    4.382162   -0.180060
  H      0.347026    3.456226    2.151452
  H      2.077822    3.791077    2.247526
  H      0.925337    5.128746    2.108776
  H     -3.169985    2.156740    0.198446
  H     -4.556020    1.303819   -0.552439
  H     -3.025330    1.535768   -1.459445
  H     -2.714051   -3.516851    0.784122
  H     -1.132778   -3.319176   -0.028188
  H     -2.592943   -2.527986   -0.702319

 Total Charge           Charge          ....    0
 Multiplicity           Mult            ....    1
 Number of Electrons    NEL             ....  174
 Basis Dimension        Dim             ....  316

ORBITAL ENERGIES
----------------

  NO   OCC          E(Eh)            E(eV)
   0   2.0000     -88.036474     -2395.5942
   1   2.0000     -87.975336     -2393.9306
   2   2.0000     -76.418904     -2079.4641
   3   2.0000     -18.815515      -511.9962
   4   2.0000     -18.805025      -511.7107
   5   2.0000     -18.781892      -511.0813
   6   2.0000     -18.776832      -510.9436
   7   2.0000     -18.745614      -510.0941
   8   2.0000     -18.737244      -509.8663
   9   2.0000     -10.021731      -272.7052
  10   2.0000     -10.009217      -272.3647
  11   2.0000      -9.954809      -270.8841
  12   2.0000      -9.952493      -270.8211
  13   2.0000      -9.950099      -270.7560
  14   2.0000      -9.936850      -270.3954
  15   2.0000      -9.931137      -270.2400
  16   2.0000      -9.903510      -269.4882
  17   2.0000      -9.890446      -269.1327
  18   2.0000      -9.884340      -268.9666
  19   2.0000      -7.681166      -209.0152
  20   2.0000      -7.620582      -207.3666
  21   2.0000      -6.415556      -174.5761
  22   2.0000      -5.709283      -155.3575
  23   2.0000      -5.705921      -155.2660
  24   2.0000      -5.697626      -155.0403
  25   2.0000      -5.649797      -153.7388
  26   2.0000      -5.641233      -153.5057
  27   2.0000      -5.640268      -153.4795
  28   2.0000      -4.638208      -126.2120
  29   2.0000      -4.637603      -126.1956
  30   2.0000      -4.635908      -126.1495
  31   2.0000      -1.023500       -27.8509
  32   2.0000      -1.012330       -27.5469
  33   2.0000      -0.973388       -26.4872
  34   2.0000      -0.929685       -25.2980
  35   2.0000      -0.926920       -25.2228
  36   2.0000      -0.914560       -24.8865
  37   2.0000      -0.766654       -20.8617
  38   2.0000      -0.712475       -19.3874
  39   2.0000      -0.708458       -19.2781
  40   2.0000      -0.687516       -18.7083
  41   2.0000      -0.655678       -17.8419
  42   2.0000      -0.625592       -17.0232
  43   2.0000      -0.623015       -16.9531
  44   2.0000      -0.611213       -16.6319
  45   2.0000      -0.594285       -16.1713
  46   2.0000      -0.568087       -15.4584
  47   2.0000      -0.510105       -13.8807
  48   2.0000      -0.503522       -13.7015
  49   2.0000      -0.499443       -13.5905
  50   2.0000      -0.482610       -13.1325
  51   2.0000      -0.463402       -12.6098
  52   2.0000      -0.457027       -12.4363
  53   2.0000      -0.447783       -12.1848
  54   2.0000      -0.437606       -11.9079
  55   2.0000      -0.431243       -11.7347
  56   2.0000      -0.420412       -11.4400
  57   2.0000      -0.416871       -11.3436
  58   2.0000      -0.409107       -11.1324
  59   2.0000      -0.401394       -10.9225
  60   2.0000      -0.398739       -10.8502
  61   2.0000      -0.395143       -10.7524
  62   2.0000      -0.390238       -10.6189
  63   2.0000      -0.387433       -10.5426
  64   2.0000      -0.381373       -10.3777
  65   2.0000      -0.363190        -9.8829
  66   2.0000      -0.360287        -9.8039
  67   2.0000      -0.354501        -9.6465
  68   2.0000      -0.347585        -9.4583
  69   2.0000      -0.336332        -9.1520
  70   2.0000      -0.332330        -9.0432
  71   2.0000      -0.328562        -8.9406
  72   2.0000      -0.325563        -8.8590
  73   2.0000      -0.310132        -8.4391
  74   2.0000      -0.301256        -8.1976
  75   2.0000      -0.296263        -8.0617
  76   2.0000      -0.290609        -7.9079
  77   2.0000      -0.285748        -7.7756
  78   2.0000      -0.271629        -7.3914
  79   2.0000      -0.264001        -7.1838
  80   2.0000      -0.259015        -7.0482
  81   2.0000      -0.252077        -6.8594
  82   2.0000      -0.240536        -6.5453
  83   2.0000      -0.219694        -5.9782
  84   2.0000      -0.209526        -5.7015
  85   2.0000      -0.195226        -5.3124
  86   2.0000      -0.188655        -5.1336
  87   0.0000      -0.043052        -1.1715
  88   0.0000      -0.036594        -0.9958
  89   0.0000      -0.017203        -0.4681
  90   0.0000       0.002069         0.0563
  91   0.0000       0.025230         0.6865

MULLIKEN ATOMIC CHARGES
-----------------------
   0 C :   -0.307588
   1 C :   -0.015993
   2 O :   -0.231504
   3 C :    0.110756
   4 O :   -0.189303
   5 C :   -0.041451
   6 C :   -0.339868
   7 H :    0.151687
   8 C :    0.206180
   9 O :   -0.175594
  10 O :   -0.224537
  11 C :   -0.015493
  12 C :   -0.307085
  13 S :   -0.105827
  14 P :    0.627159
  15 S :   -0.319632
  16 O :   -0.385546
  17 C :   -0.090227
  18 O :   -0.352875
  19 C :   -0.116409
  20 H :    0.111948
  21 H :    0.113220
  22 H :    0.127988
  23 H :    0.104630
  24 H :    0.112457
  25 H :    0.108044
  26 H :    0.124068
  27 H :    0.105076
  28 H :    0.112881
  29 H :    0.144555
  30 H :    0.113844
  31 H :    0.111401
  32 H :    0.119574
  33 H :    0.116344
  34 H :    0.117578
  35 H :    0.126772
  36 H :    0.141087
  37 H :    0.111683
Sum of atomic charges:   -0.0000000

LOEWDIN ATOMIC CHARGES
----------------------
   0 C :   -0.356976
   1 C :   -0.111866
   2 O :   -0.060272
   3 C :    0.020222
   4 O :   -0.160920
   5 C :   -0.257831
   6 C :   -0.258349
   7 H :    0.150200
   8 C :    0.009322
   9 O :   -0.160099
  10 O :   -0.042460
  11 C :   -0.107156
  12 C :   -0.357323
  13 S :    0.107219
  14 P :    0.585814
  15 S :   -0.295053
  16 O :   -0.257080
  17 C :   -0.209987
  18 O :   -0.235906
  19 C :   -0.213511
  20 H :    0.123835
  21 H :    0.130613
  22 H :    0.126802
  23 H :    0.118226
  24 H :    0.121056
  25 H :    0.139391
  26 H :    0.134766
  27 H :    0.118355
  28 H :    0.121854
  29 H :    0.130581
  30 H :    0.125384
  31 H :    0.130427
  32 H :    0.113679
  33 H :    0.116682
  34 H :    0.111539
  35 H :    0.124114
  36 H :    0.118827
  37 H :    0.105879

  Mayer bond orders larger than 0.100000
B(  0-C ,  1-C ) :   1.1748 B(  0-C , 20-H ) :   0.9494 B(  0-C , 21-H ) :   0.9434
B(  0-C , 22-H ) :   0.9408 B(  1-C ,  2-O ) :   0.9111 B(  1-C , 23-H ) :   0.9370
B(  1-C , 24-H ) :   0.9101 B(  2-O ,  3-C ) :   1.2276 B(  3-C ,  4-O ) :   2.0230
B(  3-C ,  5-C ) :   1.0236 B(  5-C ,  6-C ) :   1.0476 B(  5-C , 25-H ) :   0.8756
B(  5-C , 26-H ) :   0.8670 B(  6-C ,  7-H ) :   0.8616 B(  6-C ,  8-C ) :   0.8910
B(  6-C , 13-S ) :   1.0537 B(  8-C ,  9-O ) :   2.0347 B(  8-C , 10-O ) :   1.2626
B( 10-O , 11-C ) :   0.8985 B( 11-C , 12-C ) :   1.1799 B( 11-C , 27-H ) :   0.9364
B( 11-C , 28-H ) :   0.9089 B( 12-C , 29-H ) :   0.9321 B( 12-C , 30-H ) :   0.9491
B( 12-C , 31-H ) :   0.9418 B( 13-S , 14-P ) :   0.9196 B( 13-S , 15-S ) :   0.1152
B( 14-P , 15-S ) :   1.5969 B( 14-P , 16-O ) :   1.0957 B( 14-P , 18-O ) :   1.1499
B( 16-O , 17-C ) :   0.9293 B( 17-C , 32-H ) :   0.9423 B( 17-C , 33-H ) :   0.9560
B( 17-C , 34-H ) :   0.9489 B( 18-O , 19-C ) :   0.9186 B( 19-C , 35-H ) :   0.9574
B( 19-C , 36-H ) :   0.9400 B( 19-C , 37-H ) :   0.9421

Dispersion correction           -0.054187853
FINAL SINGLE POINT ENERGY     -1979.013464483902

DIPOLE MOMENT
-------------

Method             : SCF
Type of density    : Electron Density
Multiplicity       :   1
Irrep              :   0
Energy             : -1979.1422810959506933 Eh
Relativity type    :
Basis              : AO
                                X                 Y                 Z
Electronic contribution:     -6.997759480      -0.256273298       5.124290615
Nuclear contribution   :      7.830534038       0.434510565      -6.597326530
                        -----------------------------------------
Total Dipole Moment    :      0.832774558       0.178237267      -1.473035915
                        -----------------------------------------
Magnitude (a.u.)       :      1.701504274
Magnitude (Debye)      :      4.324880161

Rotational constants in cm-1:             0.012016             0.008500             0.006158
Rotational constants in MHz :           360.232961           254.834454           184.621355

                             ****ORCA TERMINATED NORMALLY****
TOTAL RUN TIME: 0 days 0 hours 0 minutes 38 seconds 59 msec
