                         Program Version 6.0.0  -   RELEASE  -
|  1> ! pbe def2-sv(p) def2/J RI DEFGRID1 loosescf d4 GCP(DFT/SV(P)) printgap
|  2> %output
|  3>     printlevel normal
|  4> end
|  5> * xyz 0 1
|  6> C 2.6134591975 2.4547373497 -1.6568727469
|  7> C 3.170378542 1.3529057656 -0.7797515961
|  8> O 2.1570409107 1.0016843709 0.1997103541
|  9> P 2.0426901614 -0.4344858362 0.839376596
| 10> S 0.5830795816 -0.4459265029 2.1426962681
| 11> O 3.5256791392 -0.6604676716 1.3617411147
| 12> C 4.1113257089 -1.934593284 1.69023185
| 13> C 3.2826542547 -2.7211727501 2.6837657876
| 14> S 1.8964636396 -1.8391783938 -0.7624429237
| 15> C 0.1326882384 -1.6700763546 -1.0684357349
| 16> S -0.2746576075 -0.0288863238 -1.760961116
| 17> P -2.1081016418 0.3714198605 -0.797224454
| 18> S -2.6906385768 -0.9780411956 0.5098780721
| 19> O -3.0141286755 0.5141755701 -2.0876938445
| 20> C -4.215378045 1.3123770239 -2.1618050688
| 21> C -5.2415796611 0.9108590824 -1.1235279671
| 22> O -2.0231946101 1.8939858623 -0.3389535223
| 23> C -1.2591274701 2.4080455381 0.7642550344
| 24> C -1.9912619342 2.2451426775 2.0809738877
| 25> H 2.3419701441 3.3135537741 -1.0498479608
| 26> H 3.3684803908 2.7484655297 -2.3787317822
| 27> H 1.7305543735 2.1019752117 -2.1844573423
| 28> H 4.0532485509 1.6804815439 -0.2283558666
| 29> H 3.4155814498 0.4631168457 -1.3666082399
| 30> H 4.2404767295 -2.4980582937 0.7622595773
| 31> H 5.0854097678 -1.6688006733 2.10447878
| 32> H 3.8074308354 -3.6324302645 2.9517568945
| 33> H 3.102329642 -2.1317485423 3.579839076
| 34> H 2.3197186966 -2.9826386038 2.2464995424
| 35> H -0.42673657 -1.7999921507 -0.1359537312
| 36> H -0.1279365411 -2.4368015989 -1.7937343114
| 37> H -3.9353763792 2.3618721318 -2.0488734543
| 38> H -4.5768426463 1.1293807645 -3.1750779324
| 39> H -4.8506830197 1.0921359382 -0.1227819669
| 40> H -6.1463784896 1.4939383366 -1.2635057827
| 41> H -5.4761417666 -0.1475496808 -1.2115582817
| 42> H -0.2851597439 1.9114347885 0.7993365999
| 43> H -1.1201531055 3.4622071483 0.5157273064
| 44> H -1.4206858547 2.7306574362 2.8661652379
| 45> H -2.9802276029 2.6917226895 2.0221296222
| 46> H -2.0903266479 1.1905057047 2.3309453371
| 47> *
| 48>
| 49>                          ****END OF INPUT****

CARTESIAN COORDINATES (ANGSTROEM)
---------------------------------
  C      2.613459    2.454737   -1.656873
  C      3.170379    1.352906   -0.779752
  O      2.157041    1.001684    0.199710
  P      2.042690   -0.434486    0.839377
  S      0.583080   -0.445927    2.142696
  O      3.525679   -0.660468    1.361741
  C      4.111326   -1.934593    1.690232
  C      3.282654   -2.721173    2.683766
  S      1.896464   -1.839178   -0.762443
  C      0.132688   -1.670076   -1.068436
  S     -0.274658   -0.028886   -1.760961
  P     -2.108102    0.371420   -0.797224
  S     -2.690639   -0.978041    0.509878
  O     -3.014129    0.514176   -2.087694
  C     -4.215378    1.312377   -2.161805
  C     -5.241580    0.910859   -1.123528
  O     -2.023195    1.893986   -0.338954
  C     -1.259127    2.408046    0.764255
  C     -1.991262    2.245143    2.080974
  H      2.341970    3.313554   -1.049848
  H      3.368480    2.748466   -2.378732
  H      1.730554    2.101975   -2.184457
  H      4.053249    1.680482   -0.228356
  H      3.415581    0.463117   -1.366608
  H      4.240477   -2.498058    0.762260
  H      5.085410   -1.668801    2.104479
  H      3.807431   -3.632430    2.951757
  H      3.102330   -2.131749    3.579839
  H      2.319719   -2.982639    2.246500
  H     -0.426737   -1.799992   -0.135954
  H     -0.127937   -2.436802   -1.793734
  H     -3.935376    2.361872   -2.048873
  H     -4.576843    1.129381   -3.175078
  H     -4.850683    1.092136   -0.122782
  H     -6.146378    1.493938   -1.263506
  H     -5.476142   -0.147550   -1.211558
  H     -0.285160    1.911435    0.799337
  H     -1.120153    3.462207    0.515727
  H     -1.420686    2.730657    2.866165
  H     -2.980228    2.691723    2.022130
  H     -2.090327    1.190506    2.330945

 Total Charge           Charge          ....    0
 Multiplicity           Mult            ....    1
 Number of Electrons    NEL             ....  202
 Basis Dimension        Dim             ....  334

ORBITAL ENERGIES
----------------

  NO   OCC          E(Eh)            E(eV)
   0   2.0000     -88.049117     -2395.9383
   1   2.0000     -88.037778     -2395.6297
   2   2.0000     -87.982224     -2394.1180
   3   2.0000     -87.979357     -2394.0400
   4   2.0000     -76.427477     -2079.6974
   5   2.0000     -76.421596     -2079.5374
   6   2.0000     -18.797087      -511.4947
   7   2.0000     -18.792280      -511.3639
   8   2.0000     -18.787296      -511.2283
   9   2.0000     -18.781278      -511.0646
  10   2.0000      -9.961743      -271.0728
  11   2.0000      -9.955204      -270.8949
  12   2.0000      -9.952075      -270.8097
  13   2.0000      -9.949915      -270.7509
  14   2.0000      -9.940688      -270.4999
  15   2.0000      -9.886993      -269.0387
  16   2.0000      -9.884819      -268.9796
  17   2.0000      -9.878726      -268.8138
  18   2.0000      -9.868526      -268.5363
  19   2.0000      -7.693900      -209.3617
  20   2.0000      -7.682819      -209.0601
  21   2.0000      -7.627181      -207.5461
  22   2.0000      -7.624295      -207.4676
  23   2.0000      -6.424506      -174.8197
  24   2.0000      -6.418700      -174.6617
  25   2.0000      -5.721681      -155.6949
  26   2.0000      -5.718140      -155.5985
  27   2.0000      -5.711314      -155.4127
  28   2.0000      -5.710745      -155.3973
  29   2.0000      -5.707321      -155.3041
  30   2.0000      -5.699714      -155.0971
  31   2.0000      -5.656268      -153.9149
  32   2.0000      -5.653208      -153.8316
  33   2.0000      -5.647550      -153.6776
  34   2.0000      -5.647386      -153.6732
  35   2.0000      -5.645063      -153.6100
  36   2.0000      -5.644307      -153.5894
  37   2.0000      -4.647341      -126.4606
  38   2.0000      -4.646601      -126.4404
  39   2.0000      -4.644474      -126.3826
  40   2.0000      -4.641553      -126.3031
  41   2.0000      -4.640353      -126.2704
  42   2.0000      -4.639127      -126.2371
  43   2.0000      -0.990760       -26.9599
  44   2.0000      -0.980491       -26.6805
  45   2.0000      -0.946551       -25.7570
  46   2.0000      -0.935417       -25.4540
  47   2.0000      -0.762343       -20.7444
  48   2.0000      -0.721585       -19.6353
  49   2.0000      -0.709084       -19.2952
  50   2.0000      -0.692058       -18.8319
  51   2.0000      -0.679434       -18.4883
  52   2.0000      -0.672263       -18.2932
  53   2.0000      -0.650222       -17.6934
  54   2.0000      -0.633109       -17.2278
  55   2.0000      -0.591691       -16.1007
  56   2.0000      -0.586137       -15.9496
  57   2.0000      -0.572344       -15.5743
  58   2.0000      -0.569280       -15.4909
  59   2.0000      -0.563374       -15.3302
  60   2.0000      -0.509086       -13.8529
  61   2.0000      -0.491272       -13.3682
  62   2.0000      -0.476473       -12.9655
  63   2.0000      -0.463635       -12.6161
  64   2.0000      -0.455163       -12.3856
  65   2.0000      -0.448136       -12.1944
  66   2.0000      -0.436843       -11.8871
  67   2.0000      -0.432374       -11.7655
  68   2.0000      -0.420222       -11.4348
  69   2.0000      -0.418098       -11.3770
  70   2.0000      -0.410261       -11.1638
  71   2.0000      -0.402209       -10.9447
  72   2.0000      -0.395982       -10.7752
  73   2.0000      -0.386920       -10.5286
  74   2.0000      -0.384980       -10.4758
  75   2.0000      -0.361196        -9.8286
  76   2.0000      -0.358469        -9.7544
  77   2.0000      -0.351538        -9.5658
  78   2.0000      -0.350560        -9.5392
  79   2.0000      -0.346298        -9.4233
  80   2.0000      -0.343319        -9.3422
  81   2.0000      -0.340889        -9.2761
  82   2.0000      -0.338714        -9.2169
  83   2.0000      -0.332713        -9.0536
  84   2.0000      -0.324216        -8.8224
  85   2.0000      -0.321177        -8.7397
  86   2.0000      -0.310033        -8.4364
  87   2.0000      -0.299284        -8.1439
  88   2.0000      -0.296934        -8.0800
  89   2.0000      -0.286742        -7.8026
  90   2.0000      -0.285781        -7.7765
  91   2.0000      -0.278442        -7.5768
  92   2.0000      -0.265906        -7.2357
  93   2.0000      -0.263813        -7.1787
  94   2.0000      -0.255017        -6.9394
  95   2.0000      -0.237245        -6.4558
  96   2.0000      -0.220169        -5.9911
  97   2.0000      -0.209991        -5.7142
  98   2.0000      -0.199422        -5.4266
  99   2.0000      -0.192106        -5.2275
 100   2.0000      -0.183230        -4.9860
 101   0.0000      -0.041002        -1.1157
 102   0.0000      -0.030200        -0.8218
 103   0.0000      -0.013164        -0.3582
 104   0.0000       0.011860         0.3227
 105   0.0000       0.017971         0.4890

MULLIKEN ATOMIC CHARGES
-----------------------
   0 C :   -0.287951
   1 C :   -0.010055
   2 O :   -0.349004
   3 P :    0.589779
   4 S :   -0.291034
   5 O :   -0.380154
   6 C :   -0.012631
   7 C :   -0.310272
   8 S :   -0.122067
   9 C :   -0.347570
  10 S :   -0.109432
  11 P :    0.637040
  12 S :   -0.313096
  13 O :   -0.375586
  14 C :    0.005054
  15 C :   -0.319437
  16 O :   -0.388808
  17 C :   -0.025755
  18 C :   -0.302903
  19 H :    0.117497
  20 H :    0.108642
  21 H :    0.130622
  22 H :    0.107778
  23 H :    0.098857
  24 H :    0.113945
  25 H :    0.110111
  26 H :    0.112349
  27 H :    0.128350
  28 H :    0.129435
  29 H :    0.217594
  30 H :    0.183931
  31 H :    0.105717
  32 H :    0.105294
  33 H :    0.131655
  34 H :    0.107677
  35 H :    0.124644
  36 H :    0.132181
  37 H :    0.095029
  38 H :    0.106464
  39 H :    0.104878
  40 H :    0.141233
Sum of atomic charges:    0.0000000

LOEWDIN ATOMIC CHARGES
----------------------
   0 C :   -0.353801
   1 C :   -0.116757
   2 O :   -0.234878
   3 P :    0.563241
   4 S :   -0.284882
   5 O :   -0.247305
   6 C :   -0.114526
   7 C :   -0.368909
   8 S :    0.067138
   9 C :   -0.479907
  10 S :    0.077892
  11 P :    0.566388
  12 S :   -0.293624
  13 O :   -0.249796
  14 C :   -0.109554
  15 C :   -0.368488
  16 O :   -0.246387
  17 C :   -0.120250
  18 C :   -0.365610
  19 H :    0.127459
  20 H :    0.129250
  21 H :    0.124016
  22 H :    0.115615
  23 H :    0.102032
  24 H :    0.108299
  25 H :    0.121804
  26 H :    0.130619
  27 H :    0.131327
  28 H :    0.122823
  29 H :    0.124236
  30 H :    0.135936
  31 H :    0.111722
  32 H :    0.119565
  33 H :    0.122703
  34 H :    0.127925
  35 H :    0.129571
  36 H :    0.108288
  37 H :    0.113598
  38 H :    0.129414
  39 H :    0.119506
  40 H :    0.124310

  Mayer bond orders larger than 0.100000
B(  0-C ,  1-C ) :   1.1651 B(  0-C , 19-H ) :   0.9494 B(  0-C , 20-H ) :   0.9408
B(  0-C , 21-H ) :   0.9422 B(  1-C ,  2-O ) :   0.8870 B(  1-C , 22-H ) :   0.9327
B(  1-C , 23-H ) :   0.9103 B(  2-O ,  3-P ) :   1.1222 B(  3-P ,  4-S ) :   1.6620
B(  3-P ,  5-O ) :   1.0853 B(  3-P ,  8-S ) :   0.9303 B(  4-S ,  8-S ) :   0.1078
B(  5-O ,  6-C ) :   0.9133 B(  6-C ,  7-C ) :   1.1666 B(  6-C , 24-H ) :   0.9268
B(  6-C , 25-H ) :   0.9333 B(  7-C , 26-H ) :   0.9348 B(  7-C , 27-H ) :   0.9429
B(  7-C , 28-H ) :   0.9319 B(  8-S ,  9-C ) :   1.0052 B(  9-C , 10-S ) :   0.9924
B(  9-C , 29-H ) :   0.8371 B(  9-C , 30-H ) :   0.9095 B( 10-S , 11-P ) :   0.9579
B( 10-S , 12-S ) :   0.1276 B( 11-P , 12-S ) :   1.6376 B( 11-P , 13-O ) :   1.1224
B( 11-P , 16-O ) :   1.0906 B( 13-O , 14-C ) :   0.9135 B( 14-C , 15-C ) :   1.1673
B( 14-C , 31-H ) :   0.9292 B( 14-C , 32-H ) :   0.9353 B( 15-C , 33-H ) :   0.9344
B( 15-C , 34-H ) :   0.9354 B( 15-C , 35-H ) :   0.9440 B( 16-O , 17-C ) :   0.8973
B( 17-C , 18-C ) :   1.1722 B( 17-C , 36-H ) :   0.8994 B( 17-C , 37-H ) :   0.9358
B( 18-C , 38-H ) :   0.9388 B( 18-C , 39-H ) :   0.9457 B( 18-C , 40-H ) :   0.9290

Dispersion correction           -0.066324558
FINAL SINGLE POINT ENERGY     -2929.517867755626

DIPOLE MOMENT
-------------

Method             : SCF
Type of density    : Electron Density
Multiplicity       :   1
Irrep              :   0
Energy             : -2929.6366636251468663 Eh
Relativity type    :
Basis              : AO
                                X                 Y                 Z
Electronic contribution:      1.018854288      -9.992197492      -3.689042848
Nuclear contribution   :      0.108852174      10.581141749       2.966370078
                        -----------------------------------------
Total Dipole Moment    :      1.127706462       0.588944257      -0.722672770
                        -----------------------------------------
Magnitude (a.u.)       :      1.463158616
Magnitude (Debye)      :      3.719053643

Rotational constants in cm-1:             0.013256             0.004957             0.004755
Rotational constants in MHz :           397.411243           148.601751           142.549620

                             ****ORCA TERMINATED NORMALLY****
TOTAL RUN TIME: 0 days 0 hours 0 minutes 21 seconds 495 msec
