                         Program Version 6.0.0  -   RELEASE  -
|  1> ! pbe def2-sv(p) def2/J RI DEFGRID1 loosescf d4 GCP(DFT/SV(P)) printgap
|  2> %output
|  3>     printlevel normal
|  4> end
|  5> * xyz 0 1
|  6> C 5.4856900361 -0.3996557296 -0.9489307367
|  7> C 4.1072983776 -0.0875676532 -1.4943138304
|  8> O 3.311687247 0.6026141258 -0.4979341231
|  9> P 2.2725264174 -0.1171883245 0.4443785886
| 10> S 1.625723954 1.1384244707 1.797057547
| 11> O 3.0682560622 -1.3973174614 0.9430187576
| 12> C 2.4586752539 -2.5548816825 1.5454402768
| 13> C 1.9365624048 -2.2710409229 2.939148602
| 14> S 0.8275012558 -1.0008113656 -0.8739030991
| 15> C 0.2633243533 0.5231839862 -1.6724046719
| 16> S -0.8075036041 1.557649611 -0.6430833128
| 17> P -2.5745716873 0.3521383424 -0.6771863285
| 18> S -2.6043558348 -1.012903011 -2.0789212687
| 19> O -3.7914425325 1.3314425523 -0.8730905392
| 20> C -4.3280726512 2.2392423479 0.1194080862
| 21> C -3.3407465547 3.3157822121 0.5175873027
| 22> O -2.7968447468 -0.1028778029 0.8341657631
| 23> C -1.8659786295 -0.8443250455 1.6366508906
| 24> C -1.8297762217 -2.3123217204 1.2615000958
| 25> H 5.4111570819 -1.0780452891 -0.1034682777
| 26> H 6.0810580857 -0.8616510462 -1.7302948429
| 27> H 5.9711855147 0.5152630033 -0.6205634742
| 28> H 3.5864045587 -0.9986661455 -1.8006559039
| 29> H 4.1630811695 0.6081732832 -2.3338864264
| 30> H 1.6583181752 -2.9078398455 0.888735704
| 31> H 3.2659073114 -3.2894777182 1.5673829898
| 32> H 2.7324729152 -1.8754926194 3.5648295679
| 33> H 1.1338455762 -1.5376402938 2.9023516908
| 34> H 1.5612175641 -3.190999287 3.3757554661
| 35> H -0.2901427433 0.2018632804 -2.5549082995
| 36> H 1.1179915996 1.1418182825 -1.9364342098
| 37> H -5.2011095953 2.6619208608 -0.380280404
| 38> H -4.6411544694 1.653641054 0.9854799101
| 39> H -2.9828211715 3.8472396322 -0.3607687003
| 40> H -3.830908546 4.0180637894 1.1847911471
| 41> H -2.4853393712 2.8816092426 1.0339205845
| 42> H -0.8757423534 -0.3825578166 1.550486089
| 43> H -2.2317150569 -0.7051859949 2.656125836
| 44> H -1.4476247196 -2.440159713 0.2505307846
| 45> H -1.1858901657 -2.8428872315 1.9556769835
| 46> H -2.8315561375 -2.7311652369 1.3068955182
| 47> *
| 48>
| 49>                          ****END OF INPUT****

CARTESIAN COORDINATES (ANGSTROEM)
---------------------------------
  C      5.485690   -0.399656   -0.948931
  C      4.107298   -0.087568   -1.494314
  O      3.311687    0.602614   -0.497934
  P      2.272526   -0.117188    0.444379
  S      1.625724    1.138424    1.797058
  O      3.068256   -1.397317    0.943019
  C      2.458675   -2.554882    1.545440
  C      1.936562   -2.271041    2.939149
  S      0.827501   -1.000811   -0.873903
  C      0.263324    0.523184   -1.672405
  S     -0.807504    1.557650   -0.643083
  P     -2.574572    0.352138   -0.677186
  S     -2.604356   -1.012903   -2.078921
  O     -3.791443    1.331443   -0.873091
  C     -4.328073    2.239242    0.119408
  C     -3.340747    3.315782    0.517587
  O     -2.796845   -0.102878    0.834166
  C     -1.865979   -0.844325    1.636651
  C     -1.829776   -2.312322    1.261500
  H      5.411157   -1.078045   -0.103468
  H      6.081058   -0.861651   -1.730295
  H      5.971186    0.515263   -0.620563
  H      3.586405   -0.998666   -1.800656
  H      4.163081    0.608173   -2.333886
  H      1.658318   -2.907840    0.888736
  H      3.265907   -3.289478    1.567383
  H      2.732473   -1.875493    3.564830
  H      1.133846   -1.537640    2.902352
  H      1.561218   -3.190999    3.375755
  H     -0.290143    0.201863   -2.554908
  H      1.117992    1.141818   -1.936434
  H     -5.201110    2.661921   -0.380280
  H     -4.641154    1.653641    0.985480
  H     -2.982821    3.847240   -0.360769
  H     -3.830909    4.018064    1.184791
  H     -2.485339    2.881609    1.033921
  H     -0.875742   -0.382558    1.550486
  H     -2.231715   -0.705186    2.656126
  H     -1.447625   -2.440160    0.250531
  H     -1.185890   -2.842887    1.955677
  H     -2.831556   -2.731165    1.306896

 Total Charge           Charge          ....    0
 Multiplicity           Mult            ....    1
 Number of Electrons    NEL             ....  202
 Basis Dimension        Dim             ....  334

ORBITAL ENERGIES
----------------

  NO   OCC          E(Eh)            E(eV)
   0   2.0000     -88.046260     -2395.8605
   1   2.0000     -88.038166     -2395.6403
   2   2.0000     -87.985690     -2394.2124
   3   2.0000     -87.981073     -2394.0867
   4   2.0000     -76.430478     -2079.7791
   5   2.0000     -76.423184     -2079.5805
   6   2.0000     -18.801125      -511.6046
   7   2.0000     -18.798334      -511.5287
   8   2.0000     -18.789294      -511.2827
   9   2.0000     -18.787121      -511.2236
  10   2.0000      -9.966891      -271.2129
  11   2.0000      -9.961055      -271.0541
  12   2.0000      -9.957144      -270.9477
  13   2.0000      -9.954629      -270.8792
  14   2.0000      -9.946157      -270.6487
  15   2.0000      -9.890486      -269.1338
  16   2.0000      -9.890194      -269.1259
  17   2.0000      -9.888208      -269.0718
  18   2.0000      -9.876121      -268.7429
  19   2.0000      -7.690410      -209.2667
  20   2.0000      -7.682706      -209.0571
  21   2.0000      -7.630728      -207.6427
  22   2.0000      -7.626316      -207.5226
  23   2.0000      -6.427649      -174.9052
  24   2.0000      -6.420353      -174.7067
  25   2.0000      -5.718031      -155.5955
  26   2.0000      -5.714988      -155.5127
  27   2.0000      -5.710708      -155.3963
  28   2.0000      -5.707722      -155.3150
  29   2.0000      -5.707137      -155.2991
  30   2.0000      -5.699720      -155.0973
  31   2.0000      -5.659888      -154.0134
  32   2.0000      -5.655382      -153.8908
  33   2.0000      -5.651140      -153.7753
  34   2.0000      -5.650855      -153.7676
  35   2.0000      -5.646678      -153.6539
  36   2.0000      -5.646535      -153.6500
  37   2.0000      -4.650765      -126.5537
  38   2.0000      -4.649660      -126.5237
  39   2.0000      -4.647399      -126.4622
  40   2.0000      -4.643227      -126.3486
  41   2.0000      -4.642116      -126.3184
  42   2.0000      -4.640622      -126.2778
  43   2.0000      -0.995788       -27.0968
  44   2.0000      -0.984321       -26.7847
  45   2.0000      -0.953147       -25.9365
  46   2.0000      -0.939393       -25.5622
  47   2.0000      -0.762640       -20.7525
  48   2.0000      -0.723784       -19.6952
  49   2.0000      -0.713029       -19.4025
  50   2.0000      -0.698365       -19.0035
  51   2.0000      -0.687166       -18.6987
  52   2.0000      -0.673602       -18.3296
  53   2.0000      -0.652806       -17.7638
  54   2.0000      -0.638845       -17.3839
  55   2.0000      -0.593581       -16.1522
  56   2.0000      -0.589832       -16.0502
  57   2.0000      -0.581167       -15.8144
  58   2.0000      -0.576428       -15.6854
  59   2.0000      -0.566647       -15.4192
  60   2.0000      -0.512393       -13.9429
  61   2.0000      -0.493754       -13.4357
  62   2.0000      -0.484469       -13.1831
  63   2.0000      -0.469945       -12.7878
  64   2.0000      -0.462706       -12.5909
  65   2.0000      -0.449693       -12.2368
  66   2.0000      -0.443592       -12.0708
  67   2.0000      -0.438570       -11.9341
  68   2.0000      -0.424065       -11.5394
  69   2.0000      -0.421389       -11.4666
  70   2.0000      -0.413454       -11.2507
  71   2.0000      -0.401914       -10.9366
  72   2.0000      -0.397103       -10.8057
  73   2.0000      -0.393670       -10.7123
  74   2.0000      -0.383491       -10.4353
  75   2.0000      -0.372495       -10.1361
  76   2.0000      -0.363158        -9.8820
  77   2.0000      -0.359531        -9.7833
  78   2.0000      -0.353798        -9.6273
  79   2.0000      -0.352392        -9.5891
  80   2.0000      -0.351144        -9.5551
  81   2.0000      -0.346200        -9.4206
  82   2.0000      -0.344695        -9.3796
  83   2.0000      -0.339806        -9.2466
  84   2.0000      -0.332022        -9.0348
  85   2.0000      -0.327470        -8.9109
  86   2.0000      -0.311983        -8.4895
  87   2.0000      -0.304043        -8.2734
  88   2.0000      -0.297119        -8.0850
  89   2.0000      -0.292451        -7.9580
  90   2.0000      -0.287008        -7.8099
  91   2.0000      -0.283960        -7.7269
  92   2.0000      -0.272847        -7.4246
  93   2.0000      -0.266241        -7.2448
  94   2.0000      -0.256388        -6.9767
  95   2.0000      -0.246086        -6.6963
  96   2.0000      -0.214522        -5.8374
  97   2.0000      -0.204248        -5.5579
  98   2.0000      -0.200253        -5.4492
  99   2.0000      -0.198761        -5.4086
 100   2.0000      -0.188925        -5.1409
 101   0.0000      -0.042921        -1.1680
 102   0.0000      -0.028079        -0.7641
 103   0.0000      -0.015471        -0.4210
 104   0.0000       0.001339         0.0364
 105   0.0000       0.010566         0.2875

MULLIKEN ATOMIC CHARGES
-----------------------
   0 C :   -0.288040
   1 C :   -0.015001
   2 O :   -0.360366
   3 P :    0.587862
   4 S :   -0.289064
   5 O :   -0.378020
   6 C :   -0.027892
   7 C :   -0.312134
   8 S :   -0.113773
   9 C :   -0.324878
  10 S :   -0.096562
  11 P :    0.617878
  12 S :   -0.321888
  13 O :   -0.361173
  14 C :    0.004152
  15 C :   -0.334445
  16 O :   -0.381719
  17 C :   -0.033067
  18 C :   -0.317134
  19 H :    0.122697
  20 H :    0.111039
  21 H :    0.121783
  22 H :    0.101261
  23 H :    0.109368
  24 H :    0.123346
  25 H :    0.111230
  26 H :    0.123845
  27 H :    0.138957
  28 H :    0.113290
  29 H :    0.196051
  30 H :    0.181394
  31 H :    0.110470
  32 H :    0.111634
  33 H :    0.128378
  34 H :    0.117247
  35 H :    0.137993
  36 H :    0.127168
  37 H :    0.099970
  38 H :    0.141822
  39 H :    0.103254
  40 H :    0.113067
Sum of atomic charges:   -0.0000000

LOEWDIN ATOMIC CHARGES
----------------------
   0 C :   -0.357943
   1 C :   -0.117124
   2 O :   -0.236781
   3 P :    0.558917
   4 S :   -0.298077
   5 O :   -0.244886
   6 C :   -0.114410
   7 C :   -0.367324
   8 S :    0.076820
   9 C :   -0.480943
  10 S :    0.088286
  11 P :    0.566713
  12 S :   -0.310509
  13 O :   -0.236896
  14 C :   -0.109434
  15 C :   -0.371016
  16 O :   -0.244121
  17 C :   -0.124575
  18 C :   -0.370854
  19 H :    0.126930
  20 H :    0.130213
  21 H :    0.129666
  22 H :    0.105006
  23 H :    0.119830
  24 H :    0.108011
  25 H :    0.121771
  26 H :    0.131796
  27 H :    0.123093
  28 H :    0.130013
  29 H :    0.132460
  30 H :    0.132619
  31 H :    0.122717
  32 H :    0.115108
  33 H :    0.129252
  34 H :    0.133626
  35 H :    0.120651
  36 H :    0.096964
  37 H :    0.116833
  38 H :    0.117844
  39 H :    0.123614
  40 H :    0.126143

  Mayer bond orders larger than 0.100000
B(  0-C ,  1-C ) :   1.1692 B(  0-C , 19-H ) :   0.9427 B(  0-C , 20-H ) :   0.9399
B(  0-C , 21-H ) :   0.9470 B(  1-C ,  2-O ) :   0.8896 B(  1-C , 22-H ) :   0.9106
B(  1-C , 23-H ) :   0.9339 B(  2-O ,  3-P ) :   1.1177 B(  3-P ,  4-S ) :   1.6839
B(  3-P ,  5-O ) :   1.0691 B(  3-P ,  8-S ) :   0.9439 B(  4-S ,  8-S ) :   0.1122
B(  5-O ,  6-C ) :   0.9142 B(  6-C ,  7-C ) :   1.1646 B(  6-C , 24-H ) :   0.9197
B(  6-C , 25-H ) :   0.9338 B(  7-C , 26-H ) :   0.9426 B(  7-C , 27-H ) :   0.9282
B(  7-C , 28-H ) :   0.9342 B(  8-S ,  9-C ) :   0.9912 B(  9-C , 10-S ) :   1.0194
B(  9-C , 29-H ) :   0.8736 B(  9-C , 30-H ) :   0.8957 B( 10-S , 11-P ) :   0.9442
B( 10-S , 12-S ) :   0.1133 B( 11-P , 12-S ) :   1.6416 B( 11-P , 13-O ) :   1.1411
B( 11-P , 16-O ) :   1.0757 B( 13-O , 14-C ) :   0.9014 B( 14-C , 15-C ) :   1.1689
B( 14-C , 31-H ) :   0.9337 B( 14-C , 32-H ) :   0.9264 B( 15-C , 33-H ) :   0.9431
B( 15-C , 34-H ) :   0.9355 B( 15-C , 35-H ) :   0.9316 B( 16-O , 17-C ) :   0.9103
B( 17-C , 18-C ) :   1.1649 B( 17-C , 36-H ) :   0.8910 B( 17-C , 37-H ) :   0.9355
B( 18-C , 38-H ) :   0.9274 B( 18-C , 39-H ) :   0.9350 B( 18-C , 40-H ) :   0.9426

Dispersion correction           -0.066309872
FINAL SINGLE POINT ENERGY     -2929.515814084819

DIPOLE MOMENT
-------------

Method             : SCF
Type of density    : Electron Density
Multiplicity       :   1
Irrep              :   0
Energy             : -2929.6351721196429025 Eh
Relativity type    :
Basis              : AO
                                X                 Y                 Z
Electronic contribution:     -7.545856828       6.673720750     -10.485510837
Nuclear contribution   :      8.436594019      -7.083333122      10.962857095
                        -----------------------------------------
Total Dipole Moment    :      0.890737190      -0.409612372       0.477346258
                        -----------------------------------------
Magnitude (a.u.)       :      1.090437750
Magnitude (Debye)      :      2.771672493

Rotational constants in cm-1:             0.012823             0.004814             0.004637
Rotational constants in MHz :           384.437401           144.330561           139.027346

                             ****ORCA TERMINATED NORMALLY****
TOTAL RUN TIME: 0 days 0 hours 0 minutes 21 seconds 652 msec
