                         Program Version 6.0.0  -   RELEASE  -
|  1> ! pbe def2-sv(p) def2/J RI DEFGRID1 loosescf d4 GCP(DFT/SV(P)) printgap
|  2> %output
|  3>     printlevel normal
|  4> end
|  5> * xyz 0 1
|  6> C 2.6511148187 1.2194018742 -2.8468492934
|  7> C 2.7648533348 -0.1761862201 -2.2688391705
|  8> O 3.1886317508 -0.1424558744 -0.8945706337
|  9> P 2.295193466 0.1330755221 0.3868041102
| 10> S 1.4168187732 1.8658773844 0.6265508793
| 11> O 3.366675764 -0.0321954407 1.5308224198
| 12> C 4.2076597856 -1.2030550711 1.6968367483
| 13> C 3.7612914655 -1.998064153 2.9079379756
| 14> S 1.0463055156 -1.5895110927 0.49941925
| 15> C -0.2120953853 -0.9063411007 1.6267173254
| 16> S -1.9056017441 -1.2013278282 1.072545752
| 17> P -2.0232560857 0.2458311988 -0.4936929251
| 18> S -0.7443604764 0.1367806748 -1.9671647408
| 19> O -1.8964000021 1.6545404508 0.1961687676
| 20> C -2.7358695594 2.1173173796 1.2810629061
| 21> C -3.8491214552 2.9986249763 0.7531957021
| 22> O -3.5632173271 0.1760197867 -0.8765000325
| 23> C -4.2935289276 -1.0328819318 -1.1615298506
| 24> C -3.6083403876 -1.9087397628 -2.1885915359
| 25> H 1.8454715402 1.763016933 -2.3566501844
| 26> H 3.580915115 1.7643662428 -2.7064269023
| 27> H 2.4242952593 1.148472928 -3.9054701838
| 28> H 3.5477540772 -0.7504742471 -2.7678214997
| 29> H 1.8105247308 -0.7030507036 -2.3467578217
| 30> H 4.1704689775 -1.8052288675 0.7870334742
| 31> H 5.21410364 -0.8041258242 1.8315335942
| 32> H 4.4761762167 -2.7939261777 3.0909344992
| 33> H 3.7145321066 -1.3505951801 3.7790889557
| 34> H 2.7809176074 -2.4355793516 2.7368348565
| 35> H -0.0353458426 0.1695537628 1.7166837496
| 36> H -0.1294067919 -1.4064227019 2.5881338065
| 37> H -3.1359701596 1.2525063942 1.8182849098
| 38> H -2.0568421893 2.676894993 1.9282025597
| 39> H -4.4268553507 3.3797348731 1.5894115038
| 40> H -3.4288362286 3.8319173936 0.1966541338
| 41> H -4.4991789955 2.4298181816 0.0935802307
| 42> H -4.4296837553 -1.5742518055 -0.2213079513
| 43> H -5.2566602075 -0.670836391 -1.5256456478
| 44> H -3.4176107043 -1.3474627025 -3.100465155
| 45> H -2.6553250694 -2.2674644109 -1.8012096165
| 46> H -4.2410722033 -2.7608164578 -2.4150101256
| 47> *
| 48>
| 49>                          ****END OF INPUT****

CARTESIAN COORDINATES (ANGSTROEM)
---------------------------------
  C      2.651115    1.219402   -2.846849
  C      2.764853   -0.176186   -2.268839
  O      3.188632   -0.142456   -0.894571
  P      2.295193    0.133076    0.386804
  S      1.416819    1.865877    0.626551
  O      3.366676   -0.032195    1.530822
  C      4.207660   -1.203055    1.696837
  C      3.761291   -1.998064    2.907938
  S      1.046306   -1.589511    0.499419
  C     -0.212095   -0.906341    1.626717
  S     -1.905602   -1.201328    1.072546
  P     -2.023256    0.245831   -0.493693
  S     -0.744360    0.136781   -1.967165
  O     -1.896400    1.654540    0.196169
  C     -2.735870    2.117317    1.281063
  C     -3.849121    2.998625    0.753196
  O     -3.563217    0.176020   -0.876500
  C     -4.293529   -1.032882   -1.161530
  C     -3.608340   -1.908740   -2.188592
  H      1.845472    1.763017   -2.356650
  H      3.580915    1.764366   -2.706427
  H      2.424295    1.148473   -3.905470
  H      3.547754   -0.750474   -2.767821
  H      1.810525   -0.703051   -2.346758
  H      4.170469   -1.805229    0.787033
  H      5.214104   -0.804126    1.831534
  H      4.476176   -2.793926    3.090934
  H      3.714532   -1.350595    3.779089
  H      2.780918   -2.435579    2.736835
  H     -0.035346    0.169554    1.716684
  H     -0.129407   -1.406423    2.588134
  H     -3.135970    1.252506    1.818285
  H     -2.056842    2.676895    1.928203
  H     -4.426855    3.379735    1.589412
  H     -3.428836    3.831917    0.196654
  H     -4.499179    2.429818    0.093580
  H     -4.429684   -1.574252   -0.221308
  H     -5.256660   -0.670836   -1.525646
  H     -3.417611   -1.347463   -3.100465
  H     -2.655325   -2.267464   -1.801210
  H     -4.241072   -2.760816   -2.415010

 Total Charge           Charge          ....    0
 Multiplicity           Mult            ....    1
 Number of Electrons    NEL             ....  202
 Basis Dimension        Dim             ....  334

ORBITAL ENERGIES
----------------

  NO   OCC          E(Eh)            E(eV)
   0   2.0000     -88.046059     -2395.8551
   1   2.0000     -88.037233     -2395.6149
   2   2.0000     -87.976173     -2393.9534
   3   2.0000     -87.976094     -2393.9512
   4   2.0000     -76.424021     -2079.6033
   5   2.0000     -76.419424     -2079.4783
   6   2.0000     -18.793668      -511.4017
   7   2.0000     -18.789046      -511.2759
   8   2.0000     -18.786872      -511.2168
   9   2.0000     -18.780388      -511.0403
  10   2.0000      -9.960822      -271.0477
  11   2.0000      -9.956096      -270.9192
  12   2.0000      -9.951511      -270.7944
  13   2.0000      -9.951429      -270.7921
  14   2.0000      -9.945799      -270.6389
  15   2.0000      -9.884372      -268.9674
  16   2.0000      -9.883737      -268.9502
  17   2.0000      -9.883205      -268.9357
  18   2.0000      -9.869664      -268.5672
  19   2.0000      -7.690922      -209.2806
  20   2.0000      -7.682069      -209.0397
  21   2.0000      -7.621395      -207.3887
  22   2.0000      -7.621258      -207.3850
  23   2.0000      -6.421149      -174.7284
  24   2.0000      -6.416803      -174.6101
  25   2.0000      -5.718576      -155.6104
  26   2.0000      -5.715307      -155.5214
  27   2.0000      -5.709866      -155.3733
  28   2.0000      -5.708279      -155.3302
  29   2.0000      -5.706707      -155.2874
  30   2.0000      -5.699025      -155.0784
  31   2.0000      -5.650522      -153.7585
  32   2.0000      -5.650332      -153.7533
  33   2.0000      -5.642196      -153.5320
  34   2.0000      -5.641651      -153.5171
  35   2.0000      -5.641418      -153.5108
  36   2.0000      -5.641095      -153.5020
  37   2.0000      -4.644122      -126.3730
  38   2.0000      -4.643325      -126.3513
  39   2.0000      -4.640927      -126.2860
  40   2.0000      -4.639564      -126.2490
  41   2.0000      -4.638671      -126.2247
  42   2.0000      -4.637024      -126.1799
  43   2.0000      -0.987022       -26.8582
  44   2.0000      -0.981591       -26.7104
  45   2.0000      -0.944084       -25.6898
  46   2.0000      -0.936714       -25.4893
  47   2.0000      -0.760654       -20.6984
  48   2.0000      -0.718395       -19.5485
  49   2.0000      -0.709959       -19.3190
  50   2.0000      -0.690822       -18.7982
  51   2.0000      -0.683096       -18.5880
  52   2.0000      -0.673513       -18.3272
  53   2.0000      -0.648048       -17.6343
  54   2.0000      -0.632262       -17.2047
  55   2.0000      -0.587748       -15.9934
  56   2.0000      -0.581926       -15.8350
  57   2.0000      -0.573245       -15.5988
  58   2.0000      -0.570181       -15.5154
  59   2.0000      -0.565308       -15.3828
  60   2.0000      -0.503900       -13.7118
  61   2.0000      -0.497430       -13.5358
  62   2.0000      -0.473276       -12.8785
  63   2.0000      -0.470399       -12.8002
  64   2.0000      -0.454722       -12.3736
  65   2.0000      -0.443586       -12.0706
  66   2.0000      -0.438210       -11.9243
  67   2.0000      -0.434656       -11.8276
  68   2.0000      -0.431057       -11.7297
  69   2.0000      -0.414614       -11.2822
  70   2.0000      -0.411530       -11.1983
  71   2.0000      -0.396800       -10.7975
  72   2.0000      -0.394475       -10.7342
  73   2.0000      -0.384679       -10.4676
  74   2.0000      -0.380602       -10.3567
  75   2.0000      -0.359021        -9.7695
  76   2.0000      -0.355004        -9.6602
  77   2.0000      -0.354699        -9.6519
  78   2.0000      -0.351262        -9.5583
  79   2.0000      -0.347752        -9.4628
  80   2.0000      -0.347180        -9.4473
  81   2.0000      -0.341285        -9.2868
  82   2.0000      -0.338511        -9.2114
  83   2.0000      -0.336365        -9.1529
  84   2.0000      -0.324348        -8.8260
  85   2.0000      -0.319707        -8.6997
  86   2.0000      -0.309959        -8.4344
  87   2.0000      -0.296815        -8.0767
  88   2.0000      -0.290903        -7.9159
  89   2.0000      -0.287179        -7.8145
  90   2.0000      -0.284139        -7.7318
  91   2.0000      -0.275967        -7.5094
  92   2.0000      -0.268742        -7.3129
  93   2.0000      -0.260952        -7.1009
  94   2.0000      -0.256265        -6.9733
  95   2.0000      -0.243087        -6.6147
  96   2.0000      -0.219726        -5.9790
  97   2.0000      -0.199939        -5.4406
  98   2.0000      -0.195840        -5.3291
  99   2.0000      -0.184595        -5.0231
 100   2.0000      -0.180199        -4.9035
 101   0.0000      -0.038961        -1.0602
 102   0.0000      -0.028680        -0.7804
 103   0.0000      -0.016234        -0.4417
 104   0.0000       0.001925         0.0524
 105   0.0000       0.024127         0.6565

MULLIKEN ATOMIC CHARGES
-----------------------
   0 C :   -0.306701
   1 C :   -0.016730
   2 O :   -0.380140
   3 P :    0.603214
   4 S :   -0.292609
   5 O :   -0.358958
   6 C :   -0.006386
   7 C :   -0.290147
   8 S :   -0.101197
   9 C :   -0.339418
  10 S :   -0.126441
  11 P :    0.604529
  12 S :   -0.307404
  13 O :   -0.341295
  14 C :   -0.014232
  15 C :   -0.286191
  16 O :   -0.380020
  17 C :   -0.013993
  18 C :   -0.311511
  19 H :    0.146845
  20 H :    0.110567
  21 H :    0.106191
  22 H :    0.098663
  23 H :    0.128985
  24 H :    0.101620
  25 H :    0.109399
  26 H :    0.107522
  27 H :    0.117975
  28 H :    0.115157
  29 H :    0.191599
  30 H :    0.180612
  31 H :    0.094053
  32 H :    0.113200
  33 H :    0.107463
  34 H :    0.122905
  35 H :    0.118560
  36 H :    0.114426
  37 H :    0.110819
  38 H :    0.129268
  39 H :    0.128873
  40 H :    0.110929
Sum of atomic charges:    0.0000000

LOEWDIN ATOMIC CHARGES
----------------------
   0 C :   -0.365592
   1 C :   -0.115601
   2 O :   -0.240337
   3 P :    0.565296
   4 S :   -0.291017
   5 O :   -0.242965
   6 C :   -0.113698
   7 C :   -0.361173
   8 S :    0.063799
   9 C :   -0.480437
  10 S :    0.061161
  11 P :    0.568336
  12 S :   -0.298720
  13 O :   -0.223483
  14 C :   -0.117124
  15 C :   -0.358236
  16 O :   -0.246341
  17 C :   -0.114777
  18 C :   -0.371128
  19 H :    0.127976
  20 H :    0.124327
  21 H :    0.129052
  22 H :    0.115242
  23 H :    0.107558
  24 H :    0.107330
  25 H :    0.121089
  26 H :    0.128574
  27 H :    0.127873
  28 H :    0.117814
  29 H :    0.121133
  30 H :    0.134588
  31 H :    0.100411
  32 H :    0.121784
  33 H :    0.128398
  34 H :    0.130197
  35 H :    0.125204
  36 H :    0.108207
  37 H :    0.121915
  38 H :    0.131143
  39 H :    0.122291
  40 H :    0.129931

  Mayer bond orders larger than 0.100000
B(  0-C ,  1-C ) :   1.1731 B(  0-C , 19-H ) :   0.9288 B(  0-C , 20-H ) :   0.9463
B(  0-C , 21-H ) :   0.9386 B(  1-C ,  2-O ) :   0.8994 B(  1-C , 22-H ) :   0.9346
B(  1-C , 23-H ) :   0.9119 B(  2-O ,  3-P ) :   1.1090 B(  3-P ,  4-S ) :   1.6437
B(  3-P ,  5-O ) :   1.1245 B(  3-P ,  8-S ) :   0.9374 B(  4-S ,  8-S ) :   0.1158
B(  4-S , 29-H ) :   0.1202 B(  5-O ,  6-C ) :   0.8957 B(  6-C ,  7-C ) :   1.1633
B(  6-C , 24-H ) :   0.9181 B(  6-C , 25-H ) :   0.9353 B(  7-C , 26-H ) :   0.9404
B(  7-C , 27-H ) :   0.9467 B(  7-C , 28-H ) :   0.9376 B(  8-S ,  9-C ) :   0.9989
B(  9-C , 10-S ) :   1.0024 B(  9-C , 29-H ) :   0.8468 B(  9-C , 30-H ) :   0.9107
B( 10-S , 11-P ) :   0.9358 B( 10-S , 12-S ) :   0.1142 B( 11-P , 12-S ) :   1.6711
B( 11-P , 13-O ) :   1.1407 B( 11-P , 16-O ) :   1.0769 B( 13-O , 14-C ) :   0.8957
B( 14-C , 15-C ) :   1.1669 B( 14-C , 31-H ) :   0.9103 B( 14-C , 32-H ) :   0.9320
B( 15-C , 33-H ) :   0.9402 B( 15-C , 34-H ) :   0.9472 B( 15-C , 35-H ) :   0.9434
B( 16-O , 17-C ) :   0.9131 B( 17-C , 18-C ) :   1.1678 B( 17-C , 36-H ) :   0.9266
B( 17-C , 37-H ) :   0.9331 B( 18-C , 38-H ) :   0.9412 B( 18-C , 39-H ) :   0.9314
B( 18-C , 40-H ) :   0.9337

Dispersion correction           -0.066155033
FINAL SINGLE POINT ENERGY     -2929.509548104930

DIPOLE MOMENT
-------------

Method             : SCF
Type of density    : Electron Density
Multiplicity       :   1
Irrep              :   0
Energy             : -2929.6279915864611212 Eh
Relativity type    :
Basis              : AO
                                X                 Y                 Z
Electronic contribution:      3.460429099       1.303920389       1.388993653
Nuclear contribution   :     -4.112529542      -2.405810545      -0.840999045
                        -----------------------------------------
Total Dipole Moment    :     -0.652100443      -1.101890155       0.547994609
                        -----------------------------------------
Magnitude (a.u.)       :      1.392729332
Magnitude (Debye)      :      3.540036631

Rotational constants in cm-1:             0.011935             0.005046             0.004894
Rotational constants in MHz :           357.814864           151.286814           146.715288

                             ****ORCA TERMINATED NORMALLY****
TOTAL RUN TIME: 0 days 0 hours 0 minutes 20 seconds 846 msec
