                         Program Version 6.0.0  -   RELEASE  -
|  1> ! pbe def2-sv(p) def2/J RI DEFGRID1 loosescf d4 GCP(DFT/SV(P)) printgap
|  2> %output
|  3>     printlevel normal
|  4> end
|  5> * xyz 0 1
|  6> C -4.1733443357 -0.0002325856 0.0113760867
|  7> C -2.6775103335 0.0001534725 -0.0085083707
|  8> C -1.9671463023 1.1956811564 -0.0063458432
|  9> C -0.5837979919 1.2059677317 -0.0026381163
| 10> C 0.0921178561 9.66982e-05 -0.0007541231
| 11> C -0.5838396077 -1.2057958765 -0.002658382
| 12> C -1.9671276188 -1.1954549495 -0.0063367817
| 13> Br 2.0191630371 -4.61539e-05 0.0016098465
| 14> H -4.5666907887 0.8899195373 -0.4715362647
| 15> H -4.5661778839 -0.8819636615 -0.4872302062
| 16> H -4.5257535223 -0.0097130586 1.0423305853
| 17> H -2.498958234 2.1347987596 -0.0084294098
| 18> H -0.0388387993 2.1369287121 -0.0026457861
| 19> H -0.0388719995 -2.1367530667 -0.0025686703
| 20> H -2.4990789062 -2.1345113115 -0.0084838175
| 21> *
| 22>
| 23>                          ****END OF INPUT****

CARTESIAN COORDINATES (ANGSTROEM)
---------------------------------
  C     -4.173344   -0.000233    0.011376
  C     -2.677510    0.000153   -0.008508
  C     -1.967146    1.195681   -0.006346
  C     -0.583798    1.205968   -0.002638
  C      0.092118    0.000097   -0.000754
  C     -0.583840   -1.205796   -0.002658
  C     -1.967128   -1.195455   -0.006337
  Br     2.019163   -0.000046    0.001610
  H     -4.566691    0.889920   -0.471536
  H     -4.566178   -0.881964   -0.487230
  H     -4.525754   -0.009713    1.042331
  H     -2.498958    2.134799   -0.008429
  H     -0.038839    2.136929   -0.002646
  H     -0.038872   -2.136753   -0.002569
  H     -2.499079   -2.134511   -0.008484

 Total Charge           Charge          ....    0
 Multiplicity           Mult            ....    1
 Number of Electrons    NEL             ....   84
 Basis Dimension        Dim             ....  144

ORBITAL ENERGIES
----------------

  NO   OCC          E(Eh)            E(eV)
   0   2.0000    -480.931144    -13086.8017
   1   2.0000     -61.773335     -1680.9379
   2   2.0000     -55.703799     -1515.7774
   3   2.0000     -55.700914     -1515.6989
   4   2.0000     -55.700875     -1515.6979
   5   2.0000      -9.946502      -270.6581
   6   2.0000      -9.912588      -269.7352
   7   2.0000      -9.903295      -269.4824
   8   2.0000      -9.903286      -269.4821
   9   2.0000      -9.901605      -269.4364
  10   2.0000      -9.901593      -269.4360
  11   2.0000      -9.890200      -269.1260
  12   2.0000      -8.398679      -228.5397
  13   2.0000      -6.280550      -170.9024
  14   2.0000      -6.266452      -170.5188
  15   2.0000      -6.266064      -170.5083
  16   2.0000      -2.481703       -67.5306
  17   2.0000      -2.478259       -67.4368
  18   2.0000      -2.478023       -67.4304
  19   2.0000      -2.467423       -67.1420
  20   2.0000      -2.467391       -67.1411
  21   2.0000      -0.797129       -21.6910
  22   2.0000      -0.736335       -20.0367
  23   2.0000      -0.683313       -18.5939
  24   2.0000      -0.683007       -18.5856
  25   2.0000      -0.609636       -16.5890
  26   2.0000      -0.558645       -15.2015
  27   2.0000      -0.527966       -14.3667
  28   2.0000      -0.457538       -12.4502
  29   2.0000      -0.432064       -11.7571
  30   2.0000      -0.409422       -11.1409
  31   2.0000      -0.388151       -10.5621
  32   2.0000      -0.387489       -10.5441
  33   2.0000      -0.364982        -9.9317
  34   2.0000      -0.352145        -9.5824
  35   2.0000      -0.341827        -9.3016
  36   2.0000      -0.311576        -8.4784
  37   2.0000      -0.311113        -8.4658
  38   2.0000      -0.270045        -7.3483
  39   2.0000      -0.246089        -6.6964
  40   2.0000      -0.240554        -6.5458
  41   2.0000      -0.210952        -5.7403
  42   0.0000      -0.045871        -1.2482
  43   0.0000      -0.042613        -1.1596
  44   0.0000      -0.027445        -0.7468
  45   0.0000       0.048779         1.3274
  46   0.0000       0.069375         1.8878

MULLIKEN ATOMIC CHARGES
-----------------------
   0 C :   -0.225754
   1 C :    0.055412
   2 C :   -0.116056
   3 C :   -0.071359
   4 C :    0.047719
   5 C :   -0.071368
   6 C :   -0.115879
   7 Br:   -0.052142
   8 H :    0.109702
   9 H :    0.110019
  10 H :    0.124578
  11 H :    0.045237
  12 H :    0.057324
  13 H :    0.057354
  14 H :    0.045214
Sum of atomic charges:    0.0000000

LOEWDIN ATOMIC CHARGES
----------------------
   0 C :   -0.322423
   1 C :   -0.048474
   2 C :   -0.116650
   3 C :   -0.131578
   4 C :   -0.120069
   5 C :   -0.131558
   6 C :   -0.116555
   7 Br:    0.078873
   8 H :    0.128373
   9 H :    0.128557
  10 H :    0.136902
  11 H :    0.125691
  12 H :    0.131612
  13 H :    0.131609
  14 H :    0.125688

  Mayer bond orders larger than 0.100000
B(  0-C ,  1-C ) :   1.1004 B(  0-C ,  8-H ) :   0.9422 B(  0-C ,  9-H ) :   0.9420
B(  0-C , 10-H ) :   0.9309 B(  1-C ,  2-C ) :   1.3843 B(  1-C ,  6-C ) :   1.3835
B(  2-C ,  3-C ) :   1.3725 B(  2-C , 11-H ) :   0.9621 B(  3-C ,  4-C ) :   1.3977
B(  3-C , 12-H ) :   0.9616 B(  4-C ,  5-C ) :   1.3973 B(  4-C ,  7-Br) :   0.9662
B(  5-C ,  6-C ) :   1.3730 B(  5-C , 13-H ) :   0.9616 B(  6-C , 14-H ) :   0.9623

Dispersion correction           -0.016715087
FINAL SINGLE POINT ENERGY     -2843.810554747670

DIPOLE MOMENT
-------------

Method             : SCF
Type of density    : Electron Density
Multiplicity       :   1
Irrep              :   0
Energy             : -2843.8506584672750250 Eh
Relativity type    :
Basis              : AO
                                X                 Y                 Z
Electronic contribution:     35.497593820       0.000070594      -0.017005707
Nuclear contribution   :    -36.324262512      -0.000785542       0.042690680
                        -----------------------------------------
Total Dipole Moment    :     -0.826668692      -0.000714948       0.025684973
                        -----------------------------------------
Magnitude (a.u.)       :      0.827067927
Magnitude (Debye)      :      2.102239602

Rotational constants in cm-1:             0.185647             0.021095             0.019009
Rotational constants in MHz :          5565.555199           632.403564           569.877881

                             ****ORCA TERMINATED NORMALLY****
TOTAL RUN TIME: 0 days 0 hours 0 minutes 7 seconds 6 msec
