                         Program Version 6.0.0  -   RELEASE  -
|  1> ! pbe def2-sv(p) def2/J RI DEFGRID1 loosescf d4 GCP(DFT/SV(P)) printgap
|  2> %output
|  3>     printlevel normal
|  4> end
|  5> * xyz 0 1
|  6> C 2.9642166476 2.3509028794 -1.9087867396
|  7> C 3.745605734 2.1198409825 -0.6308330595
|  8> O 3.6540540177 0.75538895 -0.1908577804
|  9> P 2.3208833771 0.1566765502 0.4388861127
| 10> S 1.4358209186 1.3997749534 1.6719768143
| 11> O 2.8558535177 -1.1901705637 1.0710659554
| 12> C 2.9854402984 -1.411974117 2.4942412984
| 13> C 1.9450675659 -2.4097425769 2.9633219258
| 14> S 1.3022091296 -0.6058730194 -1.2608462427
| 15> C 0.3009957553 -1.8781685505 -0.4428497822
| 16> S -0.9110121293 -1.2046675457 0.7197374797
| 17> P -2.1258453945 -0.2223133743 -0.734688303
| 18> S -2.2085520182 -1.1176308188 -2.4703826771
| 19> O -1.6349942415 1.2677069129 -0.8441894453
| 20> C -1.7603062594 2.2306661242 0.2373282205
| 21> C -1.0444127726 3.4923515016 -0.1921356638
| 22> O -3.5087632645 -0.0639152195 0.0301383156
| 23> C -4.362724926 -1.2049889148 0.2627637766
| 24> C -5.734400882 -0.6876814541 0.6445247326
| 25> H 3.1060517103 3.3742331111 -2.2412681716
| 26> H 3.2984117051 1.6676407022 -2.685378716
| 27> H 1.9015139711 2.1782899555 -1.7349631326
| 28> H 3.378197903 2.7682571716 0.172163783
| 29> H 4.8141520705 2.2814826853 -0.7779017465
| 30> H 3.9987007315 -1.7905784797 2.6354631258
| 31> H 2.8714059001 -0.457646049 3.0175406715
| 32> H 2.0774016774 -2.5850979168 4.025987725
| 33> H 0.9431530464 -2.0181517048 2.7914911278
| 34> H 2.054886965 -3.350655451 2.4310479459
| 35> H 0.9444559953 -2.5535421815 0.1146521753
| 36> H -0.2254536371 -2.3965472777 -1.2453744312
| 37> H -2.8230544774 2.4062619739 0.4089436541
| 38> H -1.3090213047 1.8070154548 1.1391506036
| 39> H -1.4333099648 3.8372661261 -1.1458022177
| 40> H -1.1948007715 4.2566989683 0.5630440026
| 41> H 0.0210931687 3.3023854191 -0.2900869564
| 42> H -4.3980855781 -1.8039555164 -0.6530778265
| 43> H -3.9214141275 -1.8012974715 1.0657965247
| 44> H -6.39153742 -1.5302579043 0.8325083678
| 45> H -5.6658466114 -0.0775843394 1.540462861
| 46> H -6.1443961932 -0.0862728641 -0.1619664948
| 47> *
| 48>
| 49>                          ****END OF INPUT****

CARTESIAN COORDINATES (ANGSTROEM)
---------------------------------
  C      2.964217    2.350903   -1.908787
  C      3.745606    2.119841   -0.630833
  O      3.654054    0.755389   -0.190858
  P      2.320883    0.156677    0.438886
  S      1.435821    1.399775    1.671977
  O      2.855854   -1.190171    1.071066
  C      2.985440   -1.411974    2.494241
  C      1.945068   -2.409743    2.963322
  S      1.302209   -0.605873   -1.260846
  C      0.300996   -1.878169   -0.442850
  S     -0.911012   -1.204668    0.719737
  P     -2.125845   -0.222313   -0.734688
  S     -2.208552   -1.117631   -2.470383
  O     -1.634994    1.267707   -0.844189
  C     -1.760306    2.230666    0.237328
  C     -1.044413    3.492352   -0.192136
  O     -3.508763   -0.063915    0.030138
  C     -4.362725   -1.204989    0.262764
  C     -5.734401   -0.687681    0.644525
  H      3.106052    3.374233   -2.241268
  H      3.298412    1.667641   -2.685379
  H      1.901514    2.178290   -1.734963
  H      3.378198    2.768257    0.172164
  H      4.814152    2.281483   -0.777902
  H      3.998701   -1.790578    2.635463
  H      2.871406   -0.457646    3.017541
  H      2.077402   -2.585098    4.025988
  H      0.943153   -2.018152    2.791491
  H      2.054887   -3.350655    2.431048
  H      0.944456   -2.553542    0.114652
  H     -0.225454   -2.396547   -1.245374
  H     -2.823054    2.406262    0.408944
  H     -1.309021    1.807015    1.139151
  H     -1.433310    3.837266   -1.145802
  H     -1.194801    4.256699    0.563044
  H      0.021093    3.302385   -0.290087
  H     -4.398086   -1.803956   -0.653078
  H     -3.921414   -1.801297    1.065797
  H     -6.391537   -1.530258    0.832508
  H     -5.665847   -0.077584    1.540463
  H     -6.144396   -0.086273   -0.161966

 Total Charge           Charge          ....    0
 Multiplicity           Mult            ....    1
 Number of Electrons    NEL             ....  202
 Basis Dimension        Dim             ....  334

ORBITAL ENERGIES
----------------

  NO   OCC          E(Eh)            E(eV)
   0   2.0000     -88.040436     -2395.7021
   1   2.0000     -88.039694     -2395.6819
   2   2.0000     -87.989419     -2394.3138
   3   2.0000     -87.982998     -2394.1391
   4   2.0000     -76.428179     -2079.7165
   5   2.0000     -76.423241     -2079.5821
   6   2.0000     -18.796397      -511.4760
   7   2.0000     -18.794433      -511.4225
   8   2.0000     -18.790473      -511.3148
   9   2.0000     -18.787339      -511.2295
  10   2.0000      -9.956054      -270.9180
  11   2.0000      -9.954410      -270.8733
  12   2.0000      -9.953825      -270.8574
  13   2.0000      -9.951568      -270.7959
  14   2.0000      -9.945039      -270.6183
  15   2.0000      -9.890588      -269.1366
  16   2.0000      -9.889486      -269.1066
  17   2.0000      -9.885218      -268.9905
  18   2.0000      -9.878302      -268.8022
  19   2.0000      -7.685396      -209.1303
  20   2.0000      -7.684476      -209.1052
  21   2.0000      -7.634274      -207.7392
  22   2.0000      -7.628313      -207.5770
  23   2.0000      -6.425847      -174.8562
  24   2.0000      -6.420897      -174.7215
  25   2.0000      -5.713446      -155.4708
  26   2.0000      -5.712199      -155.4368
  27   2.0000      -5.709985      -155.3766
  28   2.0000      -5.709034      -155.3507
  29   2.0000      -5.702144      -155.1632
  30   2.0000      -5.701609      -155.1487
  31   2.0000      -5.662930      -154.0961
  32   2.0000      -5.657287      -153.9426
  33   2.0000      -5.654962      -153.8793
  34   2.0000      -5.654597      -153.8694
  35   2.0000      -5.648823      -153.7123
  36   2.0000      -5.648487      -153.7032
  37   2.0000      -4.648483      -126.4916
  38   2.0000      -4.647716      -126.4708
  39   2.0000      -4.646127      -126.4275
  40   2.0000      -4.643816      -126.3647
  41   2.0000      -4.642593      -126.3314
  42   2.0000      -4.641086      -126.2904
  43   2.0000      -0.988493       -26.8983
  44   2.0000      -0.986874       -26.8542
  45   2.0000      -0.948324       -25.8052
  46   2.0000      -0.941942       -25.6315
  47   2.0000      -0.762631       -20.7523
  48   2.0000      -0.722377       -19.6569
  49   2.0000      -0.711151       -19.3514
  50   2.0000      -0.689206       -18.7542
  51   2.0000      -0.688018       -18.7219
  52   2.0000      -0.672043       -18.2872
  53   2.0000      -0.651524       -17.7289
  54   2.0000      -0.636730       -17.3263
  55   2.0000      -0.600035       -16.3278
  56   2.0000      -0.582646       -15.8546
  57   2.0000      -0.575230       -15.6528
  58   2.0000      -0.565316       -15.3830
  59   2.0000      -0.561533       -15.2801
  60   2.0000      -0.509703       -13.8697
  61   2.0000      -0.501937       -13.6584
  62   2.0000      -0.479730       -13.0541
  63   2.0000      -0.473830       -12.8936
  64   2.0000      -0.461395       -12.5552
  65   2.0000      -0.443508       -12.0685
  66   2.0000      -0.441114       -12.0033
  67   2.0000      -0.434958       -11.8358
  68   2.0000      -0.429118       -11.6769
  69   2.0000      -0.416174       -11.3247
  70   2.0000      -0.405967       -11.0469
  71   2.0000      -0.395610       -10.7651
  72   2.0000      -0.393294       -10.7021
  73   2.0000      -0.387488       -10.5441
  74   2.0000      -0.375740       -10.2244
  75   2.0000      -0.373021       -10.1504
  76   2.0000      -0.365951        -9.9580
  77   2.0000      -0.361982        -9.8500
  78   2.0000      -0.356796        -9.7089
  79   2.0000      -0.352441        -9.5904
  80   2.0000      -0.346757        -9.4357
  81   2.0000      -0.345780        -9.4092
  82   2.0000      -0.342630        -9.3234
  83   2.0000      -0.334658        -9.1065
  84   2.0000      -0.333540        -9.0761
  85   2.0000      -0.318936        -8.6787
  86   2.0000      -0.308345        -8.3905
  87   2.0000      -0.302780        -8.2391
  88   2.0000      -0.298400        -8.1199
  89   2.0000      -0.295627        -8.0444
  90   2.0000      -0.287386        -7.8202
  91   2.0000      -0.276085        -7.5127
  92   2.0000      -0.268315        -7.3012
  93   2.0000      -0.263402        -7.1675
  94   2.0000      -0.256529        -6.9805
  95   2.0000      -0.242451        -6.5974
  96   2.0000      -0.219257        -5.9663
  97   2.0000      -0.207382        -5.6431
  98   2.0000      -0.204477        -5.5641
  99   2.0000      -0.200728        -5.4621
 100   2.0000      -0.192712        -5.2440
 101   0.0000      -0.046632        -1.2689
 102   0.0000      -0.025687        -0.6990
 103   0.0000      -0.013157        -0.3580
 104   0.0000       0.003513         0.0956
 105   0.0000       0.014858         0.4043

MULLIKEN ATOMIC CHARGES
-----------------------
   0 C :   -0.343414
   1 C :   -0.005495
   2 O :   -0.363947
   3 P :    0.607036
   4 S :   -0.329731
   5 O :   -0.372375
   6 C :   -0.005509
   7 C :   -0.313931
   8 S :   -0.069380
   9 C :   -0.370931
  10 S :   -0.113941
  11 P :    0.626020
  12 S :   -0.318506
  13 O :   -0.355992
  14 C :   -0.020545
  15 C :   -0.291890
  16 O :   -0.390046
  17 C :   -0.010449
  18 C :   -0.280588
  19 H :    0.115710
  20 H :    0.123819
  21 H :    0.154350
  22 H :    0.109656
  23 H :    0.106509
  24 H :    0.109190
  25 H :    0.113307
  26 H :    0.115187
  27 H :    0.131672
  28 H :    0.120594
  29 H :    0.191758
  30 H :    0.195833
  31 H :    0.103888
  32 H :    0.120641
  33 H :    0.115344
  34 H :    0.105217
  35 H :    0.131910
  36 H :    0.106124
  37 H :    0.102950
  38 H :    0.112810
  39 H :    0.115405
  40 H :    0.121743
Sum of atomic charges:    0.0000000

LOEWDIN ATOMIC CHARGES
----------------------
   0 C :   -0.370851
   1 C :   -0.121772
   2 O :   -0.243526
   3 P :    0.569523
   4 S :   -0.308236
   5 O :   -0.241782
   6 C :   -0.116318
   7 C :   -0.361105
   8 S :    0.097527
   9 C :   -0.483348
  10 S :    0.062769
  11 P :    0.570892
  12 S :   -0.311976
  13 O :   -0.232433
  14 C :   -0.116167
  15 C :   -0.353532
  16 O :   -0.249978
  17 C :   -0.120055
  18 C :   -0.350383
  19 H :    0.132522
  20 H :    0.128089
  21 H :    0.123515
  22 H :    0.107207
  23 H :    0.119519
  24 H :    0.119579
  25 H :    0.108891
  26 H :    0.133156
  27 H :    0.121449
  28 H :    0.124414
  29 H :    0.131114
  30 H :    0.130281
  31 H :    0.110631
  32 H :    0.106265
  33 H :    0.126681
  34 H :    0.129717
  35 H :    0.122309
  36 H :    0.109909
  37 H :    0.108402
  38 H :    0.131406
  39 H :    0.126183
  40 H :    0.129511

  Mayer bond orders larger than 0.100000
B(  0-C ,  1-C ) :   1.1624 B(  0-C , 19-H ) :   0.9391 B(  0-C , 20-H ) :   0.9429
B(  0-C , 21-H ) :   0.9235 B(  1-C ,  2-O ) :   0.9131 B(  1-C , 22-H ) :   0.9122
B(  1-C , 23-H ) :   0.9322 B(  2-O ,  3-P ) :   1.1168 B(  3-P ,  4-S ) :   1.6001
B(  3-P ,  5-O ) :   1.1172 B(  3-P ,  8-S ) :   0.9689 B(  4-S ,  8-S ) :   0.1077
B(  5-O ,  6-C ) :   0.8961 B(  6-C ,  7-C ) :   1.1698 B(  6-C , 24-H ) :   0.9319
B(  6-C , 25-H ) :   0.9035 B(  7-C , 26-H ) :   0.9381 B(  7-C , 27-H ) :   0.9355
B(  7-C , 28-H ) :   0.9429 B(  8-S ,  9-C ) :   1.0007 B(  9-C , 10-S ) :   1.0135
B(  9-C , 29-H ) :   0.8911 B(  9-C , 30-H ) :   0.8734 B( 10-S , 11-P ) :   0.9390
B( 10-S , 12-S ) :   0.1087 B( 11-P , 12-S ) :   1.6441 B( 11-P , 13-O ) :   1.1551
B( 11-P , 16-O ) :   1.0815 B( 13-O , 14-C ) :   0.8824 B( 14-C , 15-C ) :   1.1701
B( 14-C , 31-H ) :   0.9286 B( 14-C , 32-H ) :   0.9065 B( 15-C , 33-H ) :   0.9491
B( 15-C , 34-H ) :   0.9391 B( 15-C , 35-H ) :   0.9333 B( 16-O , 17-C ) :   0.9037
B( 17-C , 18-C ) :   1.1599 B( 17-C , 36-H ) :   0.9108 B( 17-C , 37-H ) :   0.9273
B( 18-C , 38-H ) :   0.9418 B( 18-C , 39-H ) :   0.9510 B( 18-C , 40-H ) :   0.9508

Dispersion correction           -0.065117254
FINAL SINGLE POINT ENERGY     -2929.523222992451

DIPOLE MOMENT
-------------

Method             : SCF
Type of density    : Electron Density
Multiplicity       :   1
Irrep              :   0
Energy             : -2929.6421992246191621 Eh
Relativity type    :
Basis              : AO
                                X                 Y                 Z
Electronic contribution:      4.132529817      -7.099011113      -8.322776155
Nuclear contribution   :     -3.987144649       7.082966932       9.500422005
                        -----------------------------------------
Total Dipole Moment    :      0.145385168      -0.016044181       1.177645850
                        -----------------------------------------
Magnitude (a.u.)       :      1.186694574
Magnitude (Debye)      :      3.016337894

Rotational constants in cm-1:             0.011434             0.005277             0.004762
Rotational constants in MHz :           342.772593           158.203922           142.775746

                             ****ORCA TERMINATED NORMALLY****
TOTAL RUN TIME: 0 days 0 hours 0 minutes 21 seconds 150 msec
