                         Program Version 6.0.0  -   RELEASE  -
|  1> ! pbe def2-sv(p) def2/J RI DEFGRID1 loosescf d4 GCP(DFT/SV(P)) printgap
|  2> %output
|  3>     printlevel normal
|  4> end
|  5> * xyz 0 1
|  6> C -1.7201968095 -0.3783364386 -2.8469e-06
|  7> C -0.6249236118 0.6651756304 6.5354e-06
|  8> Cl 1.002009679 -0.1165531834 2.769e-07
|  9> H -2.6836882585 0.1246297273 -3.36697e-05
| 10> H -1.651593456 -1.0075841146 -0.8832097923
| 11> H -1.6517292871 -1.0077631472 0.883107262
| 12> H -0.6563534518 1.2860921274 0.892960875
| 13> H -0.6562358153 1.2862160218 -0.8928783655
| 14> *
| 15>
| 16>                          ****END OF INPUT****

CARTESIAN COORDINATES (ANGSTROEM)
---------------------------------
  C     -1.720197   -0.378336   -0.000003
  C     -0.624924    0.665176    0.000007
  Cl     1.002010   -0.116553    0.000000
  H     -2.683688    0.124630   -0.000034
  H     -1.651593   -1.007584   -0.883210
  H     -1.651729   -1.007763    0.883107
  H     -0.656353    1.286092    0.892961
  H     -0.656236    1.286216   -0.892878

 Total Charge           Charge          ....    0
 Multiplicity           Mult            ....    1
 Number of Electrons    NEL             ....   34
 Basis Dimension        Dim             ....   56

ORBITAL ENERGIES
----------------

  NO   OCC          E(Eh)            E(eV)
   0   2.0000    -100.613675     -2737.8373
   1   2.0000      -9.943161      -270.5672
   2   2.0000      -9.890865      -269.1441
   3   2.0000      -9.149505      -248.9707
   4   2.0000      -6.981117      -189.9659
   5   2.0000      -6.969181      -189.6410
   6   2.0000      -6.969071      -189.6381
   7   2.0000      -0.771057       -20.9815
   8   2.0000      -0.665109       -18.0985
   9   2.0000      -0.551008       -14.9937
  10   2.0000      -0.427593       -11.6354
  11   2.0000      -0.404868       -11.0170
  12   2.0000      -0.364241        -9.9115
  13   2.0000      -0.331738        -9.0270
  14   2.0000      -0.328213        -8.9311
  15   2.0000      -0.243847        -6.6354
  16   2.0000      -0.242413        -6.5964
  17   0.0000       0.009639         0.2623
  18   0.0000       0.046600         1.2681
  19   0.0000       0.084902         2.3103
  20   0.0000       0.085506         2.3267
  21   0.0000       0.109689         2.9848

MULLIKEN ATOMIC CHARGES
-----------------------
   0 C :   -0.267318
   1 C :   -0.198763
   2 Cl:   -0.163939
   3 H :    0.111494
   4 H :    0.119304
   5 H :    0.119318
   6 H :    0.139948
   7 H :    0.139956
Sum of atomic charges:   -0.0000000

LOEWDIN ATOMIC CHARGES
----------------------
   0 C :   -0.361723
   1 C :   -0.276200
   2 Cl:    0.007946
   3 H :    0.127791
   4 H :    0.126140
   5 H :    0.126143
   6 H :    0.124950
   7 H :    0.124953

  Mayer bond orders larger than 0.100000
B(  0-C ,  1-C ) :   1.1421 B(  0-C ,  3-H ) :   0.9360 B(  0-C ,  4-H ) :   0.9516
B(  0-C ,  5-H ) :   0.9516 B(  1-C ,  2-Cl) :   1.0299 B(  1-C ,  6-H ) :   0.9338
B(  1-C ,  7-H ) :   0.9338

Dispersion correction           -0.004250177
FINAL SINGLE POINT ENERGY      -538.873834951036

DIPOLE MOMENT
-------------

Method             : SCF
Type of density    : Electron Density
Multiplicity       :   1
Irrep              :   0
Energy             :  -538.9005460063658575 Eh
Relativity type    :
Basis              : AO
                                X                 Y                 Z
Electronic contribution:      7.501983691      -0.523279534       0.000053366
Nuclear contribution   :     -8.193166324       0.795885141      -0.000050743
                        -----------------------------------------
Total Dipole Moment    :     -0.691182633       0.272605607       0.000002623
                        -----------------------------------------
Magnitude (a.u.)       :      0.742998821
Magnitude (Debye)      :      1.888552918

Rotational constants in cm-1:             1.047542             0.181979             0.164676
Rotational constants in MHz :         31404.511904          5455.581650          4936.874225

                             ****ORCA TERMINATED NORMALLY****
TOTAL RUN TIME: 0 days 0 hours 0 minutes 4 seconds 44 msec
