                         Program Version 6.0.1  -  RELEASE   -
|  1> ! pbe def2-sv(p) def2/J RI DEFGRID1 loosescf d4 GCP(DFT/SV(P)) printgap
|  2> %output
|  3>     printlevel normal
|  4> end
|  5> * xyz 0 1
|  6> C 4.0421442222 -1.7857267908 1.3675704408
|  7> C 2.8012228444 -2.4900561725 0.8440317504
|  8> O 2.3870326778 -1.92576699 -0.4146406999
|  9> C 1.5941463201 -0.8873009335 -0.4047432995
| 10> O 1.1811281828 -0.32718731 0.5986015811
| 11> C 1.2528649646 -0.3982792551 -1.7941211751
| 12> C 0.4524064734 0.8908116967 -1.6763871216
| 13> H 0.4396862823 1.4179549875 -2.6350430548
| 14> C 1.1064858531 1.8093132346 -0.6489166702
| 15> O 2.306875886 1.9749716168 -0.6241890962
| 16> O 0.2425955386 2.4253087868 0.1243573919
| 17> C 0.7552414307 3.3794585504 1.076619283
| 18> C 0.9595667202 4.737460097 0.4252102819
| 19> S -1.3215235631 0.6373248776 -1.3415468216
| 20> P -1.5653295988 -0.7920518305 0.2135412768
| 21> S -0.8344766069 -2.6015128596 0.0109532973
| 22> O -1.3173979079 -0.1339750853 1.6283585014
| 23> C -2.0359440497 1.0389443032 2.0571418223
| 24> O -3.1689635533 -0.8109690392 0.2061870293
| 25> C -3.9100506133 -1.449327338 -0.8381829448
| 26> H 4.8460824994 -1.8573678289 0.6404924514
| 27> H 3.825152769 -0.7352249805 1.5510348354
| 28> H 4.3531922876 -2.2507149303 2.297019397
| 29> H 1.9700727825 -2.4065522632 1.5509468501
| 30> H 2.9960027466 -3.538462158 0.6186486497
| 31> H 0.701651854 -1.1737598714 -2.3283973309
| 32> H 2.1898099363 -0.2137499575 -2.3224746306
| 33> H -0.0030932308 3.4223408347 1.8581159436
| 34> H 1.694066429 2.9906521248 1.4804797168
| 35> H 0.0332008315 5.0763757969 -0.0302267784
| 36> H 1.2705294699 5.4509786576 1.1809778413
| 37> H 1.7305331772 4.6742634383 -0.3391941323
| 38> H -1.9659318766 1.8180655807 1.2982842277
| 39> H -1.5462662394 1.3464190505 2.9776204158
| 40> H -3.0785239578 0.7830457287 2.2369033105
| 41> H -4.9173504538 -1.5739155673 -0.4489192599
| 42> H -3.469145929 -2.4202104175 -1.0702338161
| 43> H -3.9142517485 -0.8186382793 -1.7260662232
| 44> *
| 45>
| 46>                          ****END OF INPUT****

CARTESIAN COORDINATES (ANGSTROEM)
---------------------------------
  C      4.042144   -1.785727    1.367570
  C      2.801223   -2.490056    0.844032
  O      2.387033   -1.925767   -0.414641
  C      1.594146   -0.887301   -0.404743
  O      1.181128   -0.327187    0.598602
  C      1.252865   -0.398279   -1.794121
  C      0.452406    0.890812   -1.676387
  H      0.439686    1.417955   -2.635043
  C      1.106486    1.809313   -0.648917
  O      2.306876    1.974972   -0.624189
  O      0.242596    2.425309    0.124357
  C      0.755241    3.379459    1.076619
  C      0.959567    4.737460    0.425210
  S     -1.321524    0.637325   -1.341547
  P     -1.565330   -0.792052    0.213541
  S     -0.834477   -2.601513    0.010953
  O     -1.317398   -0.133975    1.628359
  C     -2.035944    1.038944    2.057142
  O     -3.168964   -0.810969    0.206187
  C     -3.910051   -1.449327   -0.838183
  H      4.846082   -1.857368    0.640492
  H      3.825153   -0.735225    1.551035
  H      4.353192   -2.250715    2.297019
  H      1.970073   -2.406552    1.550947
  H      2.996003   -3.538462    0.618649
  H      0.701652   -1.173760   -2.328397
  H      2.189810   -0.213750   -2.322475
  H     -0.003093    3.422341    1.858116
  H      1.694066    2.990652    1.480480
  H      0.033201    5.076376   -0.030227
  H      1.270529    5.450979    1.180978
  H      1.730533    4.674263   -0.339194
  H     -1.965932    1.818066    1.298284
  H     -1.546266    1.346419    2.977620
  H     -3.078524    0.783046    2.236903
  H     -4.917350   -1.573916   -0.448919
  H     -3.469146   -2.420210   -1.070234
  H     -3.914252   -0.818638   -1.726066

 Total Charge           Charge          ....    0
 Multiplicity           Mult            ....    1
 Number of Electrons    NEL             ....  174
 Basis Dimension        Dim             ....  316

ORBITAL ENERGIES
----------------

  NO   OCC          E(Eh)            E(eV)
   0   2.0000     -88.034970     -2395.5533
   1   2.0000     -87.975188     -2393.9266
   2   2.0000     -76.422168     -2079.5529
   3   2.0000     -18.805912      -511.7349
   4   2.0000     -18.800256      -511.5810
   5   2.0000     -18.787421      -511.2317
   6   2.0000     -18.785375      -511.1760
   7   2.0000     -18.738606      -509.9034
   8   2.0000     -18.733852      -509.7740
   9   2.0000     -10.014940      -272.5204
  10   2.0000     -10.011301      -272.4214
  11   2.0000      -9.949780      -270.7473
  12   2.0000      -9.949394      -270.7368
  13   2.0000      -9.942268      -270.5429
  14   2.0000      -9.940018      -270.4816
  15   2.0000      -9.939849      -270.4770
  16   2.0000      -9.908827      -269.6329
  17   2.0000      -9.888674      -269.0845
  18   2.0000      -9.880399      -268.8593
  19   2.0000      -7.679692      -208.9751
  20   2.0000      -7.620456      -207.3632
  21   2.0000      -6.418677      -174.6611
  22   2.0000      -5.707824      -155.3178
  23   2.0000      -5.703970      -155.2129
  24   2.0000      -5.696647      -155.0136
  25   2.0000      -5.649658      -153.7350
  26   2.0000      -5.640744      -153.4925
  27   2.0000      -5.640558      -153.4874
  28   2.0000      -4.641760      -126.3087
  29   2.0000      -4.640637      -126.2782
  30   2.0000      -4.638735      -126.2264
  31   2.0000      -1.014673       -27.6106
  32   2.0000      -1.008742       -27.4493
  33   2.0000      -0.981367       -26.7044
  34   2.0000      -0.936125       -25.4733
  35   2.0000      -0.920003       -25.0345
  36   2.0000      -0.911940       -24.8151
  37   2.0000      -0.761355       -20.7175
  38   2.0000      -0.709261       -19.3000
  39   2.0000      -0.701200       -19.0806
  40   2.0000      -0.689792       -18.7702
  41   2.0000      -0.654441       -17.8083
  42   2.0000      -0.632981       -17.2243
  43   2.0000      -0.622215       -16.9313
  44   2.0000      -0.610209       -16.6046
  45   2.0000      -0.596718       -16.2375
  46   2.0000      -0.564586       -15.3632
  47   2.0000      -0.512879       -13.9561
  48   2.0000      -0.502858       -13.6835
  49   2.0000      -0.491967       -13.3871
  50   2.0000      -0.481065       -13.0905
  51   2.0000      -0.471314       -12.8251
  52   2.0000      -0.449614       -12.2346
  53   2.0000      -0.436795       -11.8858
  54   2.0000      -0.435492       -11.8503
  55   2.0000      -0.431334       -11.7372
  56   2.0000      -0.428167       -11.6510
  57   2.0000      -0.421480       -11.4691
  58   2.0000      -0.411343       -11.1932
  59   2.0000      -0.408056       -11.1038
  60   2.0000      -0.395870       -10.7722
  61   2.0000      -0.393761       -10.7148
  62   2.0000      -0.391483       -10.6528
  63   2.0000      -0.384188       -10.4543
  64   2.0000      -0.375219       -10.2102
  65   2.0000      -0.371386       -10.1059
  66   2.0000      -0.358171        -9.7463
  67   2.0000      -0.350624        -9.5410
  68   2.0000      -0.339776        -9.2458
  69   2.0000      -0.331842        -9.0299
  70   2.0000      -0.331240        -9.0135
  71   2.0000      -0.325477        -8.8567
  72   2.0000      -0.318166        -8.6577
  73   2.0000      -0.314642        -8.5618
  74   2.0000      -0.298220        -8.1150
  75   2.0000      -0.296336        -8.0637
  76   2.0000      -0.291491        -7.9319
  77   2.0000      -0.288146        -7.8409
  78   2.0000      -0.264543        -7.1986
  79   2.0000      -0.260444        -7.0870
  80   2.0000      -0.256904        -6.9907
  81   2.0000      -0.250399        -6.8137
  82   2.0000      -0.242480        -6.5982
  83   2.0000      -0.227380        -6.1873
  84   2.0000      -0.211854        -5.7648
  85   2.0000      -0.192626        -5.2416
  86   2.0000      -0.188283        -5.1234
  87   0.0000      -0.037783        -1.0281
  88   0.0000      -0.022400        -0.6095
  89   0.0000      -0.016611        -0.4520
  90   0.0000      -0.004535        -0.1234
  91   0.0000       0.029687         0.8078

MULLIKEN ATOMIC CHARGES
-----------------------
   0 C :   -0.302898
   1 C :   -0.012901
   2 O :   -0.209967
   3 C :    0.133267
   4 O :   -0.222370
   5 C :   -0.076740
   6 C :   -0.288175
   7 H :    0.145365
   8 C :    0.207142
   9 O :   -0.212264
  10 O :   -0.214601
  11 C :   -0.010338
  12 C :   -0.305006
  13 S :   -0.102579
  14 P :    0.625314
  15 S :   -0.332015
  16 O :   -0.352138
  17 C :   -0.116126
  18 O :   -0.397710
  19 C :   -0.102358
  20 H :    0.112174
  21 H :    0.128964
  22 H :    0.111358
  23 H :    0.119971
  24 H :    0.103110
  25 H :    0.138134
  26 H :    0.127676
  27 H :    0.097121
  28 H :    0.115481
  29 H :    0.112900
  30 H :    0.113329
  31 H :    0.128060
  32 H :    0.132743
  33 H :    0.127365
  34 H :    0.121813
  35 H :    0.121844
  36 H :    0.118603
  37 H :    0.116455
Sum of atomic charges:    0.0000000

LOEWDIN ATOMIC CHARGES
----------------------
   0 C :   -0.356146
   1 C :   -0.109016
   2 O :   -0.035716
   3 C :    0.027514
   4 O :   -0.169914
   5 C :   -0.252965
   6 C :   -0.262749
   7 H :    0.151873
   8 C :    0.016901
   9 O :   -0.174761
  10 O :   -0.049376
  11 C :   -0.105983
  12 C :   -0.356681
  13 S :    0.094229
  14 P :    0.578151
  15 S :   -0.311182
  16 O :   -0.229007
  17 C :   -0.211475
  18 O :   -0.262688
  19 C :   -0.218109
  20 H :    0.124034
  21 H :    0.131699
  22 H :    0.129887
  23 H :    0.122522
  24 H :    0.118649
  25 H :    0.147180
  26 H :    0.151467
  27 H :    0.113417
  28 H :    0.123750
  29 H :    0.124457
  30 H :    0.130893
  31 H :    0.130693
  32 H :    0.111486
  33 H :    0.122178
  34 H :    0.115000
  35 H :    0.120804
  36 H :    0.110115
  37 H :    0.108869

  Mayer bond orders larger than 0.100000
B(  0-C ,  1-C ) :   1.1701 B(  0-C , 20-H ) :   0.9482 B(  0-C , 21-H ) :   0.9447
B(  0-C , 22-H ) :   0.9447 B(  1-C ,  2-O ) :   0.9059 B(  1-C , 23-H ) :   0.9114
B(  1-C , 24-H ) :   0.9382 B(  2-O ,  3-C ) :   1.2824 B(  3-C ,  4-O ) :   1.8908
B(  3-C ,  5-C ) :   1.0085 B(  5-C ,  6-C ) :   1.0398 B(  5-C , 25-H ) :   0.8855
B(  5-C , 26-H ) :   0.8744 B(  6-C ,  7-H ) :   0.8672 B(  6-C ,  8-C ) :   0.8686
B(  6-C , 13-S ) :   1.0284 B(  8-C ,  9-O ) :   2.0349 B(  8-C , 10-O ) :   1.2670
B( 10-O , 11-C ) :   0.9130 B( 11-C , 12-C ) :   1.1753 B( 11-C , 27-H ) :   0.9322
B( 11-C , 28-H ) :   0.9159 B( 12-C , 29-H ) :   0.9483 B( 12-C , 30-H ) :   0.9443
B( 12-C , 31-H ) :   0.9446 B( 13-S , 14-P ) :   0.9807 B( 13-S , 15-S ) :   0.1154
B( 14-P , 15-S ) :   1.6066 B( 14-P , 16-O ) :   1.1304 B( 14-P , 18-O ) :   1.0404
B( 16-O , 17-C ) :   0.9217 B( 17-C , 32-H ) :   0.9284 B( 17-C , 33-H ) :   0.9562
B( 17-C , 34-H ) :   0.9451 B( 18-O , 19-C ) :   0.9348 B( 19-C , 35-H ) :   0.9585
B( 19-C , 36-H ) :   0.9304 B( 19-C , 37-H ) :   0.9494

Dispersion correction           -0.054949107
FINAL SINGLE POINT ENERGY     -1979.011465965728

DIPOLE MOMENT
-------------

Method             : SCF
Type of density    : Electron Density
Multiplicity       :   1
Irrep              :   0
Energy             : -1979.1411305676820120 Eh
Relativity type    :
Basis              : AO
                                X                 Y                 Z
Electronic contribution:     -8.573343545      -9.192674471      -6.211180566
Nuclear contribution   :      8.198212471      10.156110392       6.240363945
                        -----------------------------------------
Total Dipole Moment    :     -0.375131074       0.963435921       0.029183379
                        -----------------------------------------
Magnitude (a.u.)       :      1.034303518
Magnitude (Debye)      :      2.628990613

Rotational constants in cm-1:             0.010953             0.009801             0.006627
Rotational constants in MHz :           328.376437           293.830298           198.662866

                             ****ORCA TERMINATED NORMALLY****
TOTAL RUN TIME: 0 days 0 hours 0 minutes 49 seconds 940 msec
