                         Program Version 6.0.0  -   RELEASE  -
|  1> ! r2scan-3c def2/J RI DEFGRID2 scfconv6 printgap
|  2> %output
|  3>     printlevel normal
|  4> end
|  5> * xyz 0 1
|  6> C 5.1563883337 -1.5099169075 -1.5575849133
|  7> C 3.70872361 -1.701409595 -1.9664049534
|  8> O 2.8482810844 -1.727546592 -0.8088013104
|  9> P 2.0952797298 -0.4329207261 -0.27088428
| 10> S 3.206493607 1.1542000689 0.0493862115
| 11> O 1.3565524558 -1.0349174574 0.9870127441
| 12> C 1.8574521306 -0.9446504729 2.3398619019
| 13> C 0.8232268606 -0.2715538525 3.2204234849
| 14> S 0.5231754066 -0.2135637294 -1.6650385107
| 15> C 0.0740940254 1.4864505687 -1.2238575973
| 16> S -0.5416303459 1.6224243972 0.4700183709
| 17> P -2.2625789036 0.4080550583 0.2069415402
| 18> S -3.1523103736 0.5601257542 -1.5390585972
| 19> O -3.1111854051 0.7256040272 1.5074919556
| 20> C -3.4284807904 2.0411829209 1.9990053978
| 21> C -4.1230335803 2.9030158535 0.9647047621
| 22> O -1.8260229812 -1.066004175 0.5901113972
| 23> C -2.0747137041 -2.2258960512 -0.232188899
| 24> C -0.9770962073 -3.2417119971 0.0078546341
| 25> H 5.4520865356 -2.2867531651 -0.8581630477
| 26> H 5.7865113299 -1.5607417726 -2.4395844111
| 27> H 5.2892675762 -0.540501851 -1.0824535423
| 28> H 3.5548560978 -2.6701309454 -2.4452991783
| 29> H 3.3820868692 -0.9056877227 -2.6418414164
| 30> H 2.0446066163 -1.9722882063 2.6567074684
| 31> H 2.7975770077 -0.384032195 2.337844038
| 32> H 1.1273264019 -0.358780625 4.2584398717
| 33> H 0.7329624763 0.7807087241 2.9612321638
| 34> H -0.1448630945 -0.7480604315 3.0851431688
| 35> H -0.7026559365 1.791189719 -1.9251351598
| 36> H 0.952026582 2.1285769375 -1.2897380283
| 37> H -4.0769817237 1.8436005455 2.8544062622
| 38> H -2.5023168173 2.513662848 2.3381298279
| 39> H -5.0020618299 2.3943168673 0.575979932
| 40> H -4.4226103471 3.8413450971 1.4202641084
| 41> H -3.4501697148 3.1110560145 0.1340474956
| 42> H -3.0498031887 -2.6251552673 0.0577081318
| 43> H -2.1153289802 -1.91929046 -1.2829323979
| 44> H -0.9336515624 -3.4991402463 1.0621691519
| 45> H -1.1900673832 -4.1326995657 -0.5739279932
| 46> H -0.0124925651 -2.8409070256 -0.2940941865
| 47> *
| 48>
| 49>                          ****END OF INPUT****

CARTESIAN COORDINATES (ANGSTROEM)
---------------------------------
  C      5.156388   -1.509917   -1.557585
  C      3.708724   -1.701410   -1.966405
  O      2.848281   -1.727547   -0.808801
  P      2.095280   -0.432921   -0.270884
  S      3.206494    1.154200    0.049386
  O      1.356552   -1.034917    0.987013
  C      1.857452   -0.944650    2.339862
  C      0.823227   -0.271554    3.220423
  S      0.523175   -0.213564   -1.665039
  C      0.074094    1.486451   -1.223858
  S     -0.541630    1.622424    0.470018
  P     -2.262579    0.408055    0.206942
  S     -3.152310    0.560126   -1.539059
  O     -3.111185    0.725604    1.507492
  C     -3.428481    2.041183    1.999005
  C     -4.123034    2.903016    0.964705
  O     -1.826023   -1.066004    0.590111
  C     -2.074714   -2.225896   -0.232189
  C     -0.977096   -3.241712    0.007855
  H      5.452087   -2.286753   -0.858163
  H      5.786511   -1.560742   -2.439584
  H      5.289268   -0.540502   -1.082454
  H      3.554856   -2.670131   -2.445299
  H      3.382087   -0.905688   -2.641841
  H      2.044607   -1.972288    2.656707
  H      2.797577   -0.384032    2.337844
  H      1.127326   -0.358781    4.258440
  H      0.732962    0.780709    2.961232
  H     -0.144863   -0.748060    3.085143
  H     -0.702656    1.791190   -1.925135
  H      0.952027    2.128577   -1.289738
  H     -4.076982    1.843601    2.854406
  H     -2.502317    2.513663    2.338130
  H     -5.002062    2.394317    0.575980
  H     -4.422610    3.841345    1.420264
  H     -3.450170    3.111056    0.134047
  H     -3.049803   -2.625155    0.057708
  H     -2.115329   -1.919290   -1.282932
  H     -0.933652   -3.499140    1.062169
  H     -1.190067   -4.132700   -0.573928
  H     -0.012493   -2.840907   -0.294094

 Total Charge           Charge          ....    0
 Multiplicity           Mult            ....    1
 Number of Electrons    NEL             ....  202
 Basis Dimension        Dim             ....  539

ORBITAL ENERGIES
----------------

  NO   OCC          E(Eh)            E(eV)
   0   2.0000     -88.579247     -2410.3638
   1   2.0000     -88.576463     -2410.2881
   2   2.0000     -88.523105     -2408.8362
   3   2.0000     -88.517805     -2408.6919
   4   2.0000     -76.916565     -2093.0061
   5   2.0000     -76.913587     -2092.9251
   6   2.0000     -18.993915      -516.8507
   7   2.0000     -18.991673      -516.7897
   8   2.0000     -18.989302      -516.7252
   9   2.0000     -18.984184      -516.5859
  10   2.0000     -10.107318      -275.0341
  11   2.0000     -10.103505      -274.9303
  12   2.0000     -10.102282      -274.8971
  13   2.0000     -10.097669      -274.7715
  14   2.0000     -10.090274      -274.5703
  15   2.0000     -10.027270      -272.8559
  16   2.0000     -10.027154      -272.8527
  17   2.0000     -10.025457      -272.8065
  18   2.0000     -10.022616      -272.7293
  19   2.0000      -7.873527      -214.2496
  20   2.0000      -7.870940      -214.1792
  21   2.0000      -7.817927      -212.7366
  22   2.0000      -7.812658      -212.5932
  23   2.0000      -6.594905      -179.4565
  24   2.0000      -6.591729      -179.3701
  25   2.0000      -5.820388      -158.3808
  26   2.0000      -5.817786      -158.3100
  27   2.0000      -5.817321      -158.2974
  28   2.0000      -5.814707      -158.2262
  29   2.0000      -5.810736      -158.1182
  30   2.0000      -5.808143      -158.0476
  31   2.0000      -5.765481      -156.8867
  32   2.0000      -5.760358      -156.7473
  33   2.0000      -5.758242      -156.6897
  34   2.0000      -5.757986      -156.6828
  35   2.0000      -5.752968      -156.5462
  36   2.0000      -5.752577      -156.5356
  37   2.0000      -4.740355      -128.9916
  38   2.0000      -4.739855      -128.9780
  39   2.0000      -4.738678      -128.9460
  40   2.0000      -4.737180      -128.9052
  41   2.0000      -4.736806      -128.8950
  42   2.0000      -4.735400      -128.8568
  43   2.0000      -1.050553       -28.5870
  44   2.0000      -1.047625       -28.5073
  45   2.0000      -1.010658       -27.5014
  46   2.0000      -1.005856       -27.3707
  47   2.0000      -0.805427       -21.9168
  48   2.0000      -0.759747       -20.6738
  49   2.0000      -0.750208       -20.4142
  50   2.0000      -0.730351       -19.8739
  51   2.0000      -0.727600       -19.7990
  52   2.0000      -0.710271       -19.3275
  53   2.0000      -0.685076       -18.6419
  54   2.0000      -0.670875       -18.2554
  55   2.0000      -0.629915       -17.1409
  56   2.0000      -0.623075       -16.9547
  57   2.0000      -0.607868       -16.5409
  58   2.0000      -0.599735       -16.3196
  59   2.0000      -0.589453       -16.0398
  60   2.0000      -0.532312       -14.4849
  61   2.0000      -0.523317       -14.2402
  62   2.0000      -0.498612       -13.5679
  63   2.0000      -0.489240       -13.3129
  64   2.0000      -0.477268       -12.9871
  65   2.0000      -0.460875       -12.5410
  66   2.0000      -0.455733       -12.4011
  67   2.0000      -0.447835       -12.1862
  68   2.0000      -0.442182       -12.0324
  69   2.0000      -0.435345       -11.8463
  70   2.0000      -0.426009       -11.5923
  71   2.0000      -0.418816       -11.3966
  72   2.0000      -0.410800       -11.1784
  73   2.0000      -0.401883       -10.9358
  74   2.0000      -0.399106       -10.8602
  75   2.0000      -0.391767       -10.6605
  76   2.0000      -0.379133       -10.3167
  77   2.0000      -0.368742       -10.0340
  78   2.0000      -0.364675        -9.9233
  79   2.0000      -0.363025        -9.8784
  80   2.0000      -0.361225        -9.8294
  81   2.0000      -0.358605        -9.7581
  82   2.0000      -0.354986        -9.6597
  83   2.0000      -0.350320        -9.5327
  84   2.0000      -0.344211        -9.3665
  85   2.0000      -0.337279        -9.1778
  86   2.0000      -0.321625        -8.7518
  87   2.0000      -0.314199        -8.5498
  88   2.0000      -0.311356        -8.4724
  89   2.0000      -0.306115        -8.3298
  90   2.0000      -0.298493        -8.1224
  91   2.0000      -0.293270        -7.9803
  92   2.0000      -0.287001        -7.8097
  93   2.0000      -0.281544        -7.6612
  94   2.0000      -0.268246        -7.2993
  95   2.0000      -0.246669        -6.7122
  96   2.0000      -0.232776        -6.3342
  97   2.0000      -0.226447        -6.1619
  98   2.0000      -0.220673        -6.0048
  99   2.0000      -0.212894        -5.7932
 100   2.0000      -0.211513        -5.7556
 101   0.0000      -0.050683        -1.3791
 102   0.0000      -0.026936        -0.7330
 103   0.0000      -0.004336        -0.1180
 104   0.0000      -0.002407        -0.0655
 105   0.0000       0.007841         0.2134

MULLIKEN ATOMIC CHARGES
-----------------------
   0 C :   -0.450688
   1 C :   -0.132561
   2 O :   -0.304722
   3 P :    0.692746
   4 S :   -0.485967
   5 O :   -0.239438
   6 C :   -0.125218
   7 C :   -0.479642
   8 S :   -0.142261
   9 C :   -0.234372
  10 S :   -0.145630
  11 P :    0.683793
  12 S :   -0.468585
  13 O :   -0.302614
  14 C :   -0.151045
  15 C :   -0.425424
  16 O :   -0.272073
  17 C :   -0.107483
  18 C :   -0.464956
  19 H :    0.151379
  20 H :    0.145287
  21 H :    0.180723
  22 H :    0.150543
  23 H :    0.152952
  24 H :    0.148864
  25 H :    0.165210
  26 H :    0.141945
  27 H :    0.167358
  28 H :    0.169790
  29 H :    0.211720
  30 H :    0.213451
  31 H :    0.150585
  32 H :    0.151227
  33 H :    0.164002
  34 H :    0.146674
  35 H :    0.168742
  36 H :    0.146542
  37 H :    0.171660
  38 H :    0.146102
  39 H :    0.143180
  40 H :    0.168202
Sum of atomic charges:   -0.0000000

LOEWDIN ATOMIC CHARGES
----------------------
   0 C :   -0.400533
   1 C :    0.021638
   2 O :   -0.662602
   3 P :    0.372939
   4 S :   -0.131082
   5 O :   -0.669114
   6 C :    0.028212
   7 C :   -0.399075
   8 S :    0.174525
   9 C :   -0.420691
  10 S :    0.157697
  11 P :    0.384925
  12 S :   -0.129789
  13 O :   -0.652673
  14 C :    0.022981
  15 C :   -0.406246
  16 O :   -0.657821
  17 C :    0.014507
  18 C :   -0.392276
  19 H :    0.158426
  20 H :    0.158211
  21 H :    0.168663
  22 H :    0.178539
  23 H :    0.175794
  24 H :    0.174258
  25 H :    0.181037
  26 H :    0.156543
  27 H :    0.163009
  28 H :    0.166543
  29 H :    0.191254
  30 H :    0.190779
  31 H :    0.181736
  32 H :    0.171529
  33 H :    0.165404
  34 H :    0.157955
  35 H :    0.165970
  36 H :    0.171986
  37 H :    0.182522
  38 H :    0.158613
  39 H :    0.157658
  40 H :    0.168051

  Mayer bond orders larger than 0.100000
B(  0-C ,  1-C ) :   0.9586 B(  0-C , 19-H ) :   0.9746 B(  0-C , 20-H ) :   0.9648
B(  0-C , 21-H ) :   0.9568 B(  1-C ,  2-O ) :   0.7772 B(  1-C , 22-H ) :   0.9634
B(  1-C , 23-H ) :   0.9621 B(  2-O ,  3-P ) :   1.0557 B(  3-P ,  4-S ) :   1.7532
B(  3-P ,  5-O ) :   1.1534 B(  3-P ,  8-S ) :   1.0864 B(  5-O ,  6-C ) :   0.7481
B(  6-C ,  7-C ) :   0.9498 B(  6-C , 24-H ) :   0.9563 B(  6-C , 25-H ) :   0.9577
B(  7-C , 26-H ) :   0.9642 B(  7-C , 27-H ) :   0.9670 B(  7-C , 28-H ) :   0.9683
B(  8-S ,  9-C ) :   0.8965 B(  9-C , 10-S ) :   0.9019 B(  9-C , 29-H ) :   0.9078
B(  9-C , 30-H ) :   0.9106 B( 10-S , 11-P ) :   1.0148 B( 11-P , 12-S ) :   1.7815
B( 11-P , 13-O ) :   1.1116 B( 11-P , 16-O ) :   1.1466 B( 13-O , 14-C ) :   0.8055
B( 14-C , 15-C ) :   0.9413 B( 14-C , 31-H ) :   0.9583 B( 14-C , 32-H ) :   0.9624
B( 15-C , 33-H ) :   0.9660 B( 15-C , 34-H ) :   0.9631 B( 15-C , 35-H ) :   0.9547
B( 16-O , 17-C ) :   0.7582 B( 17-C , 18-C ) :   0.9395 B( 17-C , 36-H ) :   0.9451
B( 17-C , 37-H ) :   0.9599 B( 18-C , 38-H ) :   0.9677 B( 18-C , 39-H ) :   0.9672
B( 18-C , 40-H ) :   0.9664

Dispersion correction           -0.022243057
FINAL SINGLE POINT ENERGY     -2932.461105729714

DIPOLE MOMENT
-------------

Method             : SCF
Type of density    : Electron Density
Multiplicity       :   1
Irrep              :   0
Energy             : -2932.4853977825259790 Eh
Relativity type    :
Basis              : AO
                                X                 Y                 Z
Electronic contribution:     -3.154658002       7.082221638      -7.876160926
Nuclear contribution   :      3.436499429      -7.656775767       8.526633715
                        -----------------------------------------
Total Dipole Moment    :      0.281841427      -0.574554129       0.650472789
                        -----------------------------------------
Magnitude (a.u.)       :      0.912503089
Magnitude (Debye)      :      2.319398527

Rotational constants in cm-1:             0.013226             0.005145             0.004953
Rotational constants in MHz :           396.507695           154.230008           148.496854

                             ****ORCA TERMINATED NORMALLY****
TOTAL RUN TIME: 0 days 0 hours 1 minutes 26 seconds 134 msec
