                         Program Version 6.0.0  -   RELEASE  -
|  1> ! r2scan-3c def2/J RI DEFGRID2 scfconv6 printgap
|  2> %output
|  3>     printlevel normal
|  4> end
|  5> %cpcm
|  6>     smd true
|  7>     smdsolvent "water"
|  8> end
|  9> * xyz 0 1
| 10> C 5.1563883337 -1.5099169075 -1.5575849133
| 11> C 3.70872361 -1.701409595 -1.9664049534
| 12> O 2.8482810844 -1.727546592 -0.8088013104
| 13> P 2.0952797298 -0.4329207261 -0.27088428
| 14> S 3.206493607 1.1542000689 0.0493862115
| 15> O 1.3565524558 -1.0349174574 0.9870127441
| 16> C 1.8574521306 -0.9446504729 2.3398619019
| 17> C 0.8232268606 -0.2715538525 3.2204234849
| 18> S 0.5231754066 -0.2135637294 -1.6650385107
| 19> C 0.0740940254 1.4864505687 -1.2238575973
| 20> S -0.5416303459 1.6224243972 0.4700183709
| 21> P -2.2625789036 0.4080550583 0.2069415402
| 22> S -3.1523103736 0.5601257542 -1.5390585972
| 23> O -3.1111854051 0.7256040272 1.5074919556
| 24> C -3.4284807904 2.0411829209 1.9990053978
| 25> C -4.1230335803 2.9030158535 0.9647047621
| 26> O -1.8260229812 -1.066004175 0.5901113972
| 27> C -2.0747137041 -2.2258960512 -0.232188899
| 28> C -0.9770962073 -3.2417119971 0.0078546341
| 29> H 5.4520865356 -2.2867531651 -0.8581630477
| 30> H 5.7865113299 -1.5607417726 -2.4395844111
| 31> H 5.2892675762 -0.540501851 -1.0824535423
| 32> H 3.5548560978 -2.6701309454 -2.4452991783
| 33> H 3.3820868692 -0.9056877227 -2.6418414164
| 34> H 2.0446066163 -1.9722882063 2.6567074684
| 35> H 2.7975770077 -0.384032195 2.337844038
| 36> H 1.1273264019 -0.358780625 4.2584398717
| 37> H 0.7329624763 0.7807087241 2.9612321638
| 38> H -0.1448630945 -0.7480604315 3.0851431688
| 39> H -0.7026559365 1.791189719 -1.9251351598
| 40> H 0.952026582 2.1285769375 -1.2897380283
| 41> H -4.0769817237 1.8436005455 2.8544062622
| 42> H -2.5023168173 2.513662848 2.3381298279
| 43> H -5.0020618299 2.3943168673 0.575979932
| 44> H -4.4226103471 3.8413450971 1.4202641084
| 45> H -3.4501697148 3.1110560145 0.1340474956
| 46> H -3.0498031887 -2.6251552673 0.0577081318
| 47> H -2.1153289802 -1.91929046 -1.2829323979
| 48> H -0.9336515624 -3.4991402463 1.0621691519
| 49> H -1.1900673832 -4.1326995657 -0.5739279932
| 50> H -0.0124925651 -2.8409070256 -0.2940941865
| 51> *
| 52>
| 53>                          ****END OF INPUT****

CARTESIAN COORDINATES (ANGSTROEM)
---------------------------------
  C      5.156388   -1.509917   -1.557585
  C      3.708724   -1.701410   -1.966405
  O      2.848281   -1.727547   -0.808801
  P      2.095280   -0.432921   -0.270884
  S      3.206494    1.154200    0.049386
  O      1.356552   -1.034917    0.987013
  C      1.857452   -0.944650    2.339862
  C      0.823227   -0.271554    3.220423
  S      0.523175   -0.213564   -1.665039
  C      0.074094    1.486451   -1.223858
  S     -0.541630    1.622424    0.470018
  P     -2.262579    0.408055    0.206942
  S     -3.152310    0.560126   -1.539059
  O     -3.111185    0.725604    1.507492
  C     -3.428481    2.041183    1.999005
  C     -4.123034    2.903016    0.964705
  O     -1.826023   -1.066004    0.590111
  C     -2.074714   -2.225896   -0.232189
  C     -0.977096   -3.241712    0.007855
  H      5.452087   -2.286753   -0.858163
  H      5.786511   -1.560742   -2.439584
  H      5.289268   -0.540502   -1.082454
  H      3.554856   -2.670131   -2.445299
  H      3.382087   -0.905688   -2.641841
  H      2.044607   -1.972288    2.656707
  H      2.797577   -0.384032    2.337844
  H      1.127326   -0.358781    4.258440
  H      0.732962    0.780709    2.961232
  H     -0.144863   -0.748060    3.085143
  H     -0.702656    1.791190   -1.925135
  H      0.952027    2.128577   -1.289738
  H     -4.076982    1.843601    2.854406
  H     -2.502317    2.513663    2.338130
  H     -5.002062    2.394317    0.575980
  H     -4.422610    3.841345    1.420264
  H     -3.450170    3.111056    0.134047
  H     -3.049803   -2.625155    0.057708
  H     -2.115329   -1.919290   -1.282932
  H     -0.933652   -3.499140    1.062169
  H     -1.190067   -4.132700   -0.573928
  H     -0.012493   -2.840907   -0.294094

 Total Charge           Charge          ....    0
 Multiplicity           Mult            ....    1
 Number of Electrons    NEL             ....  202
 Basis Dimension        Dim             ....  539

ORBITAL ENERGIES
----------------

  NO   OCC          E(Eh)            E(eV)
   0   2.0000     -88.581698     -2410.4305
   1   2.0000     -88.579606     -2410.3736
   2   2.0000     -88.528733     -2408.9893
   3   2.0000     -88.526433     -2408.9267
   4   2.0000     -76.920470     -2093.1124
   5   2.0000     -76.920197     -2093.1050
   6   2.0000     -18.995566      -516.8956
   7   2.0000     -18.994913      -516.8779
   8   2.0000     -18.992061      -516.8002
   9   2.0000     -18.991416      -516.7827
  10   2.0000     -10.105835      -274.9938
  11   2.0000     -10.093166      -274.6490
  12   2.0000     -10.091326      -274.5990
  13   2.0000     -10.089712      -274.5550
  14   2.0000     -10.087676      -274.4996
  15   2.0000     -10.018560      -272.6189
  16   2.0000     -10.017155      -272.5806
  17   2.0000     -10.016912      -272.5740
  18   2.0000     -10.016723      -272.5689
  19   2.0000      -7.876010      -214.3171
  20   2.0000      -7.874033      -214.2633
  21   2.0000      -7.823820      -212.8970
  22   2.0000      -7.821582      -212.8361
  23   2.0000      -6.598822      -179.5631
  24   2.0000      -6.598421      -179.5522
  25   2.0000      -5.822858      -158.4480
  26   2.0000      -5.820895      -158.3946
  27   2.0000      -5.819793      -158.3646
  28   2.0000      -5.817797      -158.3103
  29   2.0000      -5.813245      -158.1864
  30   2.0000      -5.811234      -158.1317
  31   2.0000      -5.771325      -157.0457
  32   2.0000      -5.769213      -156.9883
  33   2.0000      -5.764130      -156.8500
  34   2.0000      -5.763884      -156.8433
  35   2.0000      -5.761920      -156.7898
  36   2.0000      -5.761480      -156.7779
  37   2.0000      -4.744239      -129.0973
  38   2.0000      -4.743845      -129.0866
  39   2.0000      -4.743779      -129.0848
  40   2.0000      -4.743510      -129.0775
  41   2.0000      -4.742652      -129.0541
  42   2.0000      -4.742127      -129.0398
  43   2.0000      -1.052885       -28.6505
  44   2.0000      -1.051881       -28.6231
  45   2.0000      -1.011749       -27.5311
  46   2.0000      -1.010599       -27.4998
  47   2.0000      -0.806809       -21.9544
  48   2.0000      -0.757697       -20.6180
  49   2.0000      -0.745873       -20.2962
  50   2.0000      -0.722368       -19.6566
  51   2.0000      -0.721673       -19.6377
  52   2.0000      -0.710410       -19.3312
  53   2.0000      -0.688858       -18.7448
  54   2.0000      -0.676096       -18.3975
  55   2.0000      -0.629753       -17.1364
  56   2.0000      -0.620100       -16.8738
  57   2.0000      -0.602541       -16.3960
  58   2.0000      -0.595271       -16.1981
  59   2.0000      -0.587457       -15.9855
  60   2.0000      -0.528684       -14.3862
  61   2.0000      -0.521724       -14.1968
  62   2.0000      -0.495360       -13.4794
  63   2.0000      -0.488422       -13.2906
  64   2.0000      -0.477269       -12.9872
  65   2.0000      -0.457057       -12.4371
  66   2.0000      -0.453338       -12.3359
  67   2.0000      -0.442307       -12.0358
  68   2.0000      -0.439898       -11.9702
  69   2.0000      -0.434463       -11.8223
  70   2.0000      -0.423880       -11.5344
  71   2.0000      -0.417393       -11.3578
  72   2.0000      -0.409504       -11.1432
  73   2.0000      -0.400943       -10.9102
  74   2.0000      -0.398168       -10.8347
  75   2.0000      -0.388105       -10.5609
  76   2.0000      -0.376730       -10.2514
  77   2.0000      -0.365074        -9.9342
  78   2.0000      -0.358508        -9.7555
  79   2.0000      -0.356954        -9.7132
  80   2.0000      -0.355653        -9.6778
  81   2.0000      -0.354276        -9.6403
  82   2.0000      -0.350866        -9.5476
  83   2.0000      -0.344946        -9.3864
  84   2.0000      -0.341331        -9.2881
  85   2.0000      -0.335823        -9.1382
  86   2.0000      -0.320411        -8.7188
  87   2.0000      -0.310205        -8.4411
  88   2.0000      -0.307781        -8.3752
  89   2.0000      -0.305551        -8.3145
  90   2.0000      -0.299835        -8.1589
  91   2.0000      -0.292051        -7.9471
  92   2.0000      -0.287849        -7.8328
  93   2.0000      -0.281585        -7.6623
  94   2.0000      -0.270480        -7.3601
  95   2.0000      -0.249497        -6.7891
  96   2.0000      -0.237681        -6.4676
  97   2.0000      -0.233518        -6.3543
  98   2.0000      -0.226419        -6.1612
  99   2.0000      -0.220575        -6.0022
 100   2.0000      -0.219116        -5.9624
 101   0.0000      -0.054472        -1.4823
 102   0.0000      -0.032188        -0.8759
 103   0.0000      -0.008352        -0.2273
 104   0.0000      -0.005794        -0.1576
 105   0.0000       0.007772         0.2115

MULLIKEN ATOMIC CHARGES
-----------------------
   0 C :   -0.490442
   1 C :   -0.126375
   2 O :   -0.331716
   3 P :    0.718739
   4 S :   -0.526055
   5 O :   -0.267138
   6 C :   -0.122997
   7 C :   -0.508181
   8 S :   -0.152413
   9 C :   -0.243688
  10 S :   -0.146823
  11 P :    0.714862
  12 S :   -0.513691
  13 O :   -0.336110
  14 C :   -0.151218
  15 C :   -0.466228
  16 O :   -0.304835
  17 C :   -0.101868
  18 C :   -0.512593
  19 H :    0.166803
  20 H :    0.169812
  21 H :    0.171067
  22 H :    0.176805
  23 H :    0.163797
  24 H :    0.174591
  25 H :    0.169470
  26 H :    0.167473
  27 H :    0.170144
  28 H :    0.169088
  29 H :    0.231679
  30 H :    0.235218
  31 H :    0.177298
  32 H :    0.171730
  33 H :    0.169971
  34 H :    0.173277
  35 H :    0.166047
  36 H :    0.170135
  37 H :    0.172477
  38 H :    0.166915
  39 H :    0.168936
  40 H :    0.166039
Sum of atomic charges:   -0.0000000

LOEWDIN ATOMIC CHARGES
----------------------
   0 C :   -0.405024
   1 C :    0.027030
   2 O :   -0.674431
   3 P :    0.377684
   4 S :   -0.156888
   5 O :   -0.685046
   6 C :    0.032789
   7 C :   -0.401279
   8 S :    0.170341
   9 C :   -0.414239
  10 S :    0.160732
  11 P :    0.387825
  12 S :   -0.159754
  13 O :   -0.668694
  14 C :    0.029437
  15 C :   -0.409818
  16 O :   -0.676356
  17 C :    0.016836
  18 C :   -0.396261
  19 H :    0.162458
  20 H :    0.167422
  21 H :    0.162606
  22 H :    0.189783
  23 H :    0.179922
  24 H :    0.184896
  25 H :    0.183029
  26 H :    0.166179
  27 H :    0.162005
  28 H :    0.164783
  29 H :    0.197508
  30 H :    0.197657
  31 H :    0.193129
  32 H :    0.179483
  33 H :    0.164333
  34 H :    0.168132
  35 H :    0.161882
  36 H :    0.180884
  37 H :    0.182835
  38 H :    0.163429
  39 H :    0.167895
  40 H :    0.164867

  Mayer bond orders larger than 0.100000
B(  0-C ,  1-C ) :   0.9473 B(  0-C , 19-H ) :   0.9722 B(  0-C , 20-H ) :   0.9595
B(  0-C , 21-H ) :   0.9614 B(  1-C ,  2-O ) :   0.7647 B(  1-C , 22-H ) :   0.9533
B(  1-C , 23-H ) :   0.9554 B(  2-O ,  3-P ) :   1.0607 B(  3-P ,  4-S ) :   1.7231
B(  3-P ,  5-O ) :   1.1589 B(  3-P ,  8-S ) :   1.0948 B(  5-O ,  6-C ) :   0.7398
B(  6-C ,  7-C ) :   0.9402 B(  6-C , 24-H ) :   0.9464 B(  6-C , 25-H ) :   0.9551
B(  7-C , 26-H ) :   0.9594 B(  7-C , 27-H ) :   0.9658 B(  7-C , 28-H ) :   0.9684
B(  8-S ,  9-C ) :   0.8871 B(  9-C , 10-S ) :   0.8897 B(  9-C , 29-H ) :   0.9025
B(  9-C , 30-H ) :   0.9044 B( 10-S , 11-P ) :   1.0337 B( 11-P , 12-S ) :   1.7477
B( 11-P , 13-O ) :   1.1171 B( 11-P , 16-O ) :   1.1422 B( 13-O , 14-C ) :   0.7962
B( 14-C , 15-C ) :   0.9223 B( 14-C , 31-H ) :   0.9485 B( 14-C , 32-H ) :   0.9568
B( 15-C , 33-H ) :   0.9670 B( 15-C , 34-H ) :   0.9568 B( 15-C , 35-H ) :   0.9570
B( 16-O , 17-C ) :   0.7515 B( 17-C , 18-C ) :   0.9289 B( 17-C , 36-H ) :   0.9364
B( 17-C , 37-H ) :   0.9569 B( 18-C , 38-H ) :   0.9657 B( 18-C , 39-H ) :   0.9603
B( 18-C , 40-H ) :   0.9666

Dispersion correction           -0.022243057
FINAL SINGLE POINT ENERGY     -2932.468962093466

DIPOLE MOMENT
-------------

Method             : SCF
Type of density    : Electron Density
Multiplicity       :   1
Irrep              :   0
Energy             : -2932.4932541462771951 Eh
Relativity type    :
Basis              : AO
                                X                 Y                 Z
Electronic contribution:     -3.028999085       6.993306599      -7.750203610
Nuclear contribution   :      3.436499429      -7.656775767       8.526633715
                        -----------------------------------------
Total Dipole Moment    :      0.407500344      -0.663469168       0.776430105
                        -----------------------------------------
Magnitude (a.u.)       :      1.099587002
Magnitude (Debye)      :      2.794928044

Rotational constants in cm-1:             0.013226             0.005145             0.004953
Rotational constants in MHz :           396.507695           154.230008           148.496854

                             ****ORCA TERMINATED NORMALLY****
TOTAL RUN TIME: 0 days 0 hours 1 minutes 53 seconds 118 msec
