                         Program Version 6.0.0  -   RELEASE  -
|  1> ! pbe def2-sv(p) def2/J RI DEFGRID1 loosescf d4 GCP(DFT/SV(P)) printgap
|  2> %output
|  3>     printlevel normal
|  4> end
|  5> * xyz 0 1
|  6> C 5.1301197749 -0.7069662306 -1.7075864692
|  7> C 3.696548396 -0.8915492602 -2.1649038547
|  8> O 2.8818569517 -1.4046174327 -1.0945978213
|  9> P 1.8369316994 -0.5677602933 -0.2391610374
| 10> S 1.2664351982 1.0968024579 -1.1257476045
| 11> O 2.5050063667 -0.3742483657 1.1927695873
| 12> C 2.7304044847 0.8895956573 1.8424334173
| 13> C 4.0485938608 1.5006518965 1.4136588576
| 14> S 0.6000454191 -2.2358635742 0.0734988016
| 15> C -0.4603311726 -1.688640365 1.4662495682
| 16> S -0.5904949799 0.1051130748 1.6517006115
| 17> P -1.9995503696 0.535271724 0.1295184659
| 18> S -2.2660360811 2.4189887235 -0.3209102607
| 19> O -3.3195094047 -0.2303006403 0.5986581861
| 20> C -4.3323714591 0.4073334394 1.3920218672
| 21> C -3.8660810659 0.6648247925 2.8110185721
| 22> O -1.496078984 -0.4492042919 -1.0049874453
| 23> C -1.795118855 -0.2268188347 -2.3964331483
| 24> C -3.2712339121 -0.3894473469 -2.6858243349
| 25> H 5.7386722009 -0.4166382482 -2.5582253038
| 26> H 5.1901600947 0.0665031242 -0.9465895881
| 27> H 5.5084799244 -1.6377506835 -1.2942879553
| 28> H 3.6285670525 -1.6416499228 -2.9555577904
| 29> H 3.2644592704 0.0516398929 -2.5183370008
| 30> H 1.899523538 1.5639355122 1.611821649
| 31> H 2.7209018003 0.6510177733 2.9067074247
| 32> H 4.8595598355 0.7952360415 1.5746014889
| 33> H 4.0050715023 1.7703223793 0.3593784892
| 34> H 4.2310878669 2.3981164704 1.996162375
| 35> H -0.0249461507 -2.0514520175 2.3945068327
| 36> H -1.447700575 -2.1131189823 1.2957350501
| 37> H -4.6097484292 1.3478316612 0.9053061594
| 38> H -5.1703440727 -0.2903388542 1.3612143074
| 39> H -4.6875798905 1.076418884 3.3884326799
| 40> H -3.5253276504 -0.2568924026 3.2751735733
| 41> H -3.0446093922 1.3810590271 2.8058148715
| 42> H -1.4463131679 0.7752465731 -2.6682200575
| 43> H -1.190977094 -0.9754922513 -2.9123832207
| 44> H -3.4375025822 -0.3046869266 -3.7550476342
| 45> H -3.6162807417 -1.3598175171 -2.3386928398
| 46> H -3.8339157927 0.3922504691 -2.1765015196
| 47> *
| 48>
| 49>                          ****END OF INPUT****

CARTESIAN COORDINATES (ANGSTROEM)
---------------------------------
  C      5.130120   -0.706966   -1.707586
  C      3.696548   -0.891549   -2.164904
  O      2.881857   -1.404617   -1.094598
  P      1.836932   -0.567760   -0.239161
  S      1.266435    1.096802   -1.125748
  O      2.505006   -0.374248    1.192770
  C      2.730404    0.889596    1.842433
  C      4.048594    1.500652    1.413659
  S      0.600045   -2.235864    0.073499
  C     -0.460331   -1.688640    1.466250
  S     -0.590495    0.105113    1.651701
  P     -1.999550    0.535272    0.129518
  S     -2.266036    2.418989   -0.320910
  O     -3.319509   -0.230301    0.598658
  C     -4.332371    0.407333    1.392022
  C     -3.866081    0.664825    2.811019
  O     -1.496079   -0.449204   -1.004987
  C     -1.795119   -0.226819   -2.396433
  C     -3.271234   -0.389447   -2.685824
  H      5.738672   -0.416638   -2.558225
  H      5.190160    0.066503   -0.946590
  H      5.508480   -1.637751   -1.294288
  H      3.628567   -1.641650   -2.955558
  H      3.264459    0.051640   -2.518337
  H      1.899524    1.563936    1.611822
  H      2.720902    0.651018    2.906707
  H      4.859560    0.795236    1.574601
  H      4.005072    1.770322    0.359378
  H      4.231088    2.398116    1.996162
  H     -0.024946   -2.051452    2.394507
  H     -1.447701   -2.113119    1.295735
  H     -4.609748    1.347832    0.905306
  H     -5.170344   -0.290339    1.361214
  H     -4.687580    1.076419    3.388433
  H     -3.525328   -0.256892    3.275174
  H     -3.044609    1.381059    2.805815
  H     -1.446313    0.775247   -2.668220
  H     -1.190977   -0.975492   -2.912383
  H     -3.437503   -0.304687   -3.755048
  H     -3.616281   -1.359818   -2.338693
  H     -3.833916    0.392250   -2.176502

 Total Charge           Charge          ....    0
 Multiplicity           Mult            ....    1
 Number of Electrons    NEL             ....  202
 Basis Dimension        Dim             ....  334

ORBITAL ENERGIES
----------------

  NO   OCC          E(Eh)            E(eV)
   0   2.0000     -88.047114     -2395.8838
   1   2.0000     -88.033953     -2395.5256
   2   2.0000     -87.986860     -2394.2442
   3   2.0000     -87.980062     -2394.0592
   4   2.0000     -76.424938     -2079.6283
   5   2.0000     -76.422665     -2079.5664
   6   2.0000     -18.789816      -511.2969
   7   2.0000     -18.786803      -511.2149
   8   2.0000     -18.784752      -511.1591
   9   2.0000     -18.784380      -511.1490
  10   2.0000      -9.959503      -271.0119
  11   2.0000      -9.950748      -270.7736
  12   2.0000      -9.947505      -270.6854
  13   2.0000      -9.947130      -270.6752
  14   2.0000      -9.943613      -270.5795
  15   2.0000      -9.884239      -268.9638
  16   2.0000      -9.884237      -268.9638
  17   2.0000      -9.882356      -268.9126
  18   2.0000      -9.878287      -268.8018
  19   2.0000      -7.691393      -209.2934
  20   2.0000      -7.679427      -208.9678
  21   2.0000      -7.631996      -207.6772
  22   2.0000      -7.624601      -207.4759
  23   2.0000      -6.422284      -174.7592
  24   2.0000      -6.419347      -174.6793
  25   2.0000      -5.719710      -155.6412
  26   2.0000      -5.715659      -155.5310
  27   2.0000      -5.708189      -155.3277
  28   2.0000      -5.707785      -155.3167
  29   2.0000      -5.703974      -155.2130
  30   2.0000      -5.695786      -154.9902
  31   2.0000      -5.660953      -154.0424
  32   2.0000      -5.653539      -153.8406
  33   2.0000      -5.652785      -153.8201
  34   2.0000      -5.651967      -153.7978
  35   2.0000      -5.645264      -153.6154
  36   2.0000      -5.644733      -153.6010
  37   2.0000      -4.644523      -126.3839
  38   2.0000      -4.644256      -126.3766
  39   2.0000      -4.642917      -126.3402
  40   2.0000      -4.642029      -126.3160
  41   2.0000      -4.641062      -126.2897
  42   2.0000      -4.639917      -126.2586
  43   2.0000      -0.983661       -26.7668
  44   2.0000      -0.977402       -26.5965
  45   2.0000      -0.941471       -25.6187
  46   2.0000      -0.940447       -25.5909
  47   2.0000      -0.762744       -20.7553
  48   2.0000      -0.719921       -19.5900
  49   2.0000      -0.705141       -19.1879
  50   2.0000      -0.684534       -18.6271
  51   2.0000      -0.683225       -18.5915
  52   2.0000      -0.669536       -18.2190
  53   2.0000      -0.651489       -17.7279
  54   2.0000      -0.636572       -17.3220
  55   2.0000      -0.599507       -16.3134
  56   2.0000      -0.591408       -16.0930
  57   2.0000      -0.570213       -15.5163
  58   2.0000      -0.567916       -15.4538
  59   2.0000      -0.561704       -15.2847
  60   2.0000      -0.496681       -13.5154
  61   2.0000      -0.488496       -13.2926
  62   2.0000      -0.475934       -12.9508
  63   2.0000      -0.468534       -12.7494
  64   2.0000      -0.454380       -12.3643
  65   2.0000      -0.439657       -11.9637
  66   2.0000      -0.438718       -11.9381
  67   2.0000      -0.429821       -11.6960
  68   2.0000      -0.423744       -11.5307
  69   2.0000      -0.413159       -11.2426
  70   2.0000      -0.402338       -10.9482
  71   2.0000      -0.395864       -10.7720
  72   2.0000      -0.389744       -10.6055
  73   2.0000      -0.387959       -10.5569
  74   2.0000      -0.380562       -10.3556
  75   2.0000      -0.374472       -10.1899
  76   2.0000      -0.368963       -10.0400
  77   2.0000      -0.357916        -9.7394
  78   2.0000      -0.354649        -9.6505
  79   2.0000      -0.349261        -9.5039
  80   2.0000      -0.346487        -9.4284
  81   2.0000      -0.345132        -9.3915
  82   2.0000      -0.337847        -9.1933
  83   2.0000      -0.334369        -9.0986
  84   2.0000      -0.325018        -8.8442
  85   2.0000      -0.320800        -8.7294
  86   2.0000      -0.312678        -8.5084
  87   2.0000      -0.294036        -8.0011
  88   2.0000      -0.289809        -7.8861
  89   2.0000      -0.285065        -7.7570
  90   2.0000      -0.274746        -7.4762
  91   2.0000      -0.272297        -7.4096
  92   2.0000      -0.268248        -7.2994
  93   2.0000      -0.263905        -7.1812
  94   2.0000      -0.255774        -6.9600
  95   2.0000      -0.230430        -6.2703
  96   2.0000      -0.214595        -5.8394
  97   2.0000      -0.208794        -5.6816
  98   2.0000      -0.201929        -5.4948
  99   2.0000      -0.192706        -5.2438
 100   2.0000      -0.188719        -5.1353
 101   0.0000      -0.051151        -1.3919
 102   0.0000      -0.027653        -0.7525
 103   0.0000      -0.005380        -0.1464
 104   0.0000       0.000363         0.0099
 105   0.0000       0.024563         0.6684

MULLIKEN ATOMIC CHARGES
-----------------------
   0 C :   -0.302923
   1 C :   -0.006174
   2 O :   -0.380048
   3 P :    0.626932
   4 S :   -0.321648
   5 O :   -0.380228
   6 C :   -0.012645
   7 C :   -0.302647
   8 S :   -0.087333
   9 C :   -0.315151
  10 S :   -0.101385
  11 P :    0.627272
  12 S :   -0.304997
  13 O :   -0.376742
  14 C :   -0.007268
  15 C :   -0.306040
  16 O :   -0.369670
  17 C :    0.002048
  18 C :   -0.303395
  19 H :    0.109918
  20 H :    0.120297
  21 H :    0.116460
  22 H :    0.100398
  23 H :    0.108653
  24 H :    0.123075
  25 H :    0.097784
  26 H :    0.119011
  27 H :    0.126755
  28 H :    0.110420
  29 H :    0.184544
  30 H :    0.182114
  31 H :    0.110171
  32 H :    0.103211
  33 H :    0.112127
  34 H :    0.110396
  35 H :    0.124036
  36 H :    0.118483
  37 H :    0.101140
  38 H :    0.110402
  39 H :    0.112260
  40 H :    0.120387
Sum of atomic charges:   -0.0000000

LOEWDIN ATOMIC CHARGES
----------------------
   0 C :   -0.357492
   1 C :   -0.119904
   2 O :   -0.252274
   3 P :    0.559298
   4 S :   -0.305963
   5 O :   -0.251669
   6 C :   -0.123884
   7 C :   -0.363048
   8 S :    0.086737
   9 C :   -0.468885
  10 S :    0.111413
  11 P :    0.575220
  12 S :   -0.304183
  13 O :   -0.250029
  14 C :   -0.122501
  15 C :   -0.367144
  16 O :   -0.237294
  17 C :   -0.115923
  18 C :   -0.366045
  19 H :    0.130017
  20 H :    0.124632
  21 H :    0.126825
  22 H :    0.115847
  23 H :    0.104713
  24 H :    0.107933
  25 H :    0.114938
  26 H :    0.123704
  27 H :    0.121777
  28 H :    0.130915
  29 H :    0.136474
  30 H :    0.132952
  31 H :    0.109113
  32 H :    0.117348
  33 H :    0.130270
  34 H :    0.121730
  35 H :    0.120034
  36 H :    0.112168
  37 H :    0.117527
  38 H :    0.129754
  39 H :    0.124355
  40 H :    0.120542

  Mayer bond orders larger than 0.100000
B(  0-C ,  1-C ) :   1.1617 B(  0-C , 19-H ) :   0.9402 B(  0-C , 20-H ) :   0.9408
B(  0-C , 21-H ) :   0.9477 B(  1-C ,  2-O ) :   0.9101 B(  1-C , 22-H ) :   0.9346
B(  1-C , 23-H ) :   0.8994 B(  2-O ,  3-P ) :   1.1108 B(  3-P ,  4-S ) :   1.5773
B(  3-P ,  5-O ) :   1.0980 B(  3-P ,  8-S ) :   0.9897 B(  4-S ,  8-S ) :   0.1096
B(  5-O ,  6-C ) :   0.9034 B(  6-C ,  7-C ) :   1.1689 B(  6-C , 24-H ) :   0.9056
B(  6-C , 25-H ) :   0.9345 B(  7-C , 26-H ) :   0.9412 B(  7-C , 27-H ) :   0.9288
B(  7-C , 28-H ) :   0.9367 B(  8-S ,  9-C ) :   0.9678 B(  9-C , 10-S ) :   1.0064
B(  9-C , 29-H ) :   0.9097 B(  9-C , 30-H ) :   0.9030 B( 10-S , 11-P ) :   0.9387
B( 11-P , 12-S ) :   1.6424 B( 11-P , 13-O ) :   1.0701 B( 11-P , 16-O ) :   1.1246
B( 13-O , 14-C ) :   0.9159 B( 14-C , 15-C ) :   1.1652 B( 14-C , 31-H ) :   0.9130
B( 14-C , 32-H ) :   0.9340 B( 15-C , 33-H ) :   0.9387 B( 15-C , 34-H ) :   0.9462
B( 15-C , 35-H ) :   0.9364 B( 16-O , 17-C ) :   0.8953 B( 17-C , 18-C ) :   1.1610
B( 17-C , 36-H ) :   0.9181 B( 17-C , 37-H ) :   0.9330 B( 18-C , 38-H ) :   0.9393
B( 18-C , 39-H ) :   0.9453 B( 18-C , 40-H ) :   0.9350

Dispersion correction           -0.068349502
FINAL SINGLE POINT ENERGY     -2929.513981510179

DIPOLE MOMENT
-------------

Method             : SCF
Type of density    : Electron Density
Multiplicity       :   1
Irrep              :   0
Energy             : -2929.6302507493019220 Eh
Relativity type    :
Basis              : AO
                                X                 Y                 Z
Electronic contribution:     -4.824912583      -1.897985329       0.647280730
Nuclear contribution   :      4.883822233       1.098728841      -0.148254242
                        -----------------------------------------
Total Dipole Moment    :      0.058909650      -0.799256488       0.499026488
                        -----------------------------------------
Magnitude (a.u.)       :      0.944091477
Magnitude (Debye)      :      2.399689828

Rotational constants in cm-1:             0.013226             0.005315             0.004946
Rotational constants in MHz :           396.515332           159.335442           148.272838

                             ****ORCA TERMINATED NORMALLY****
TOTAL RUN TIME: 0 days 0 hours 0 minutes 21 seconds 681 msec
