                         Program Version 6.0.1  -  RELEASE   -
|  1> ! r2scan-3c def2/J RI DEFGRID2 scfconv6 printgap
|  2> %output
|  3>     printlevel normal
|  4> end
|  5> * xyz 0 1
|  6> C 5.0631712964 -2.4480715039 -0.6190564582
|  7> C 3.7013676427 -2.9582867423 -1.0622252834
|  8> O 2.9485811605 -1.9133952517 -1.7105614541
|  9> C 2.2109925804 -1.1150053032 -0.9760361568
| 10> O 2.0787271175 -1.2021788757 0.2295182579
| 11> C 1.5292031225 -0.0466857396 -1.8046146948
| 12> C 0.3308583618 0.4928720639 -1.038493064
| 13> H -0.0669889226 1.3978437424 -1.5071368289
| 14> C 0.687845027 0.824745345 0.3986632348
| 15> O -0.014487316 0.4961912264 1.3371108377
| 16> O 1.7463083634 1.5824219075 0.4863532458
| 17> C 2.1515534504 2.0075933245 1.8046368496
| 18> C 3.2557983159 3.0331111871 1.6465529219
| 19> S -1.0099144119 -0.7456081252 -0.9898906476
| 20> P -2.354722894 0.2660589795 0.302546491
| 21> S -2.3088965329 2.2230019356 0.300640707
| 22> O -3.7440459907 -0.2903788283 -0.3000959282
| 23> C -4.2148975585 0.1114913259 -1.5887267067
| 24> O -2.4663632725 -0.4071656868 1.7291624105
| 25> C -2.2853401209 -1.8185821538 1.9372879379
| 26> H 4.9463484005 -1.6789770428 0.1411034648
| 27> H 5.635388486 -3.2698943265 -0.2014909529
| 28> H 5.6002181311 -2.0313428685 -1.4664363219
| 29> H 3.125620386 -3.3255426971 -0.2080527269
| 30> H 3.7950917948 -3.7353791011 -1.8206350975
| 31> H 1.229922233 -0.4608691984 -2.7664003524
| 32> H 2.2451252149 0.7608961987 -1.9721471177
| 33> H 1.2750403672 2.4201623048 2.3146869975
| 34> H 2.4860622829 1.1205966687 2.3516354025
| 35> H 4.102578591 2.5935457345 1.1287397466
| 36> H 2.8938479234 3.8832755723 1.0761985628
| 37> H 3.5709468676 3.369404935 2.6285707157
| 38> H -4.1550115212 1.1970919862 -1.6851044473
| 39> H -5.2495322323 -0.2176742468 -1.6385417475
| 40> H -3.6190718997 -0.3659679834 -2.3666260512
| 41> H -1.2288435867 -2.0660073321 1.8268768116
| 42> H -2.8868545774 -2.3868617855 1.2289288013
| 43> H -2.6133243619 -1.9985675967 2.9577329544
| 44> *
| 45>
| 46>                          ****END OF INPUT****

CARTESIAN COORDINATES (ANGSTROEM)
---------------------------------
  C      5.063171   -2.448072   -0.619056
  C      3.701368   -2.958287   -1.062225
  O      2.948581   -1.913395   -1.710561
  C      2.210993   -1.115005   -0.976036
  O      2.078727   -1.202179    0.229518
  C      1.529203   -0.046686   -1.804615
  C      0.330858    0.492872   -1.038493
  H     -0.066989    1.397844   -1.507137
  C      0.687845    0.824745    0.398663
  O     -0.014487    0.496191    1.337111
  O      1.746308    1.582422    0.486353
  C      2.151553    2.007593    1.804637
  C      3.255798    3.033111    1.646553
  S     -1.009914   -0.745608   -0.989891
  P     -2.354723    0.266059    0.302546
  S     -2.308897    2.223002    0.300641
  O     -3.744046   -0.290379   -0.300096
  C     -4.214898    0.111491   -1.588727
  O     -2.466363   -0.407166    1.729162
  C     -2.285340   -1.818582    1.937288
  H      4.946348   -1.678977    0.141103
  H      5.635388   -3.269894   -0.201491
  H      5.600218   -2.031343   -1.466436
  H      3.125620   -3.325543   -0.208053
  H      3.795092   -3.735379   -1.820635
  H      1.229922   -0.460869   -2.766400
  H      2.245125    0.760896   -1.972147
  H      1.275040    2.420162    2.314687
  H      2.486062    1.120597    2.351635
  H      4.102579    2.593546    1.128740
  H      2.893848    3.883276    1.076199
  H      3.570947    3.369405    2.628571
  H     -4.155012    1.197092   -1.685104
  H     -5.249532   -0.217674   -1.638542
  H     -3.619072   -0.365968   -2.366626
  H     -1.228844   -2.066007    1.826877
  H     -2.886855   -2.386862    1.228929
  H     -2.613324   -1.998568    2.957733

 Total Charge           Charge          ....    0
 Multiplicity           Mult            ....    1
 Number of Electrons    NEL             ....  174
 Basis Dimension        Dim             ....  510

ORBITAL ENERGIES
----------------

  NO   OCC          E(Eh)            E(eV)
   0   2.0000     -88.566906     -2410.0280
   1   2.0000     -88.499359     -2408.1900
   2   2.0000     -76.900536     -2092.5700
   3   2.0000     -19.016552      -517.4667
   4   2.0000     -19.003470      -517.1107
   5   2.0000     -18.973320      -516.2903
   6   2.0000     -18.969599      -516.1890
   7   2.0000     -18.948063      -515.6030
   8   2.0000     -18.927983      -515.0566
   9   2.0000     -10.173312      -276.8299
  10   2.0000     -10.159863      -276.4639
  11   2.0000     -10.105877      -274.9949
  12   2.0000     -10.094257      -274.6787
  13   2.0000     -10.092194      -274.6226
  14   2.0000     -10.081565      -274.3333
  15   2.0000     -10.074738      -274.1476
  16   2.0000     -10.071631      -274.0630
  17   2.0000     -10.041364      -273.2394
  18   2.0000     -10.032732      -273.0045
  19   2.0000      -7.861302      -213.9169
  20   2.0000      -7.794408      -212.0966
  21   2.0000      -6.577914      -178.9941
  22   2.0000      -5.808188      -158.0488
  23   2.0000      -5.805232      -157.9684
  24   2.0000      -5.798331      -157.7806
  25   2.0000      -5.742337      -156.2569
  26   2.0000      -5.734907      -156.0548
  27   2.0000      -5.733853      -156.0261
  28   2.0000      -4.723499      -128.5329
  29   2.0000      -4.723295      -128.5274
  30   2.0000      -4.721355      -128.4746
  31   2.0000      -1.094160       -29.7736
  32   2.0000      -1.081556       -29.4306
  33   2.0000      -1.030637       -28.0451
  34   2.0000      -0.997357       -27.1395
  35   2.0000      -0.988108       -26.8878
  36   2.0000      -0.980211       -26.6729
  37   2.0000      -0.812359       -22.1054
  38   2.0000      -0.763054       -20.7638
  39   2.0000      -0.748360       -20.3639
  40   2.0000      -0.724555       -19.7161
  41   2.0000      -0.695385       -18.9224
  42   2.0000      -0.659390       -17.9429
  43   2.0000      -0.654923       -17.8214
  44   2.0000      -0.639396       -17.3988
  45   2.0000      -0.633747       -17.2451
  46   2.0000      -0.592837       -16.1319
  47   2.0000      -0.542014       -14.7490
  48   2.0000      -0.537082       -14.6147
  49   2.0000      -0.521406       -14.1882
  50   2.0000      -0.509072       -13.8526
  51   2.0000      -0.484059       -13.1719
  52   2.0000      -0.475807       -12.9474
  53   2.0000      -0.470504       -12.8031
  54   2.0000      -0.466786       -12.7019
  55   2.0000      -0.451454       -12.2847
  56   2.0000      -0.450040       -12.2462
  57   2.0000      -0.435467       -11.8497
  58   2.0000      -0.429187       -11.6788
  59   2.0000      -0.423447       -11.5226
  60   2.0000      -0.416393       -11.3306
  61   2.0000      -0.413366       -11.2483
  62   2.0000      -0.408191       -11.1074
  63   2.0000      -0.402614       -10.9557
  64   2.0000      -0.390629       -10.6296
  65   2.0000      -0.381649       -10.3852
  66   2.0000      -0.378580       -10.3017
  67   2.0000      -0.371765       -10.1162
  68   2.0000      -0.368757       -10.0344
  69   2.0000      -0.360103        -9.7989
  70   2.0000      -0.352817        -9.6006
  71   2.0000      -0.342004        -9.3064
  72   2.0000      -0.330915        -9.0047
  73   2.0000      -0.324910        -8.8412
  74   2.0000      -0.322484        -8.7752
  75   2.0000      -0.319187        -8.6855
  76   2.0000      -0.300779        -8.1846
  77   2.0000      -0.297961        -8.1079
  78   2.0000      -0.291045        -7.9197
  79   2.0000      -0.277058        -7.5391
  80   2.0000      -0.271041        -7.3754
  81   2.0000      -0.259858        -7.0711
  82   2.0000      -0.256090        -6.9686
  83   2.0000      -0.241423        -6.5695
  84   2.0000      -0.228166        -6.2087
  85   2.0000      -0.202128        -5.5002
  86   2.0000      -0.192865        -5.2481
  87   0.0000      -0.040212        -1.0942
  88   0.0000      -0.027171        -0.7394
  89   0.0000      -0.014138        -0.3847
  90   0.0000       0.012267         0.3338
  91   0.0000       0.035429         0.9641

MULLIKEN ATOMIC CHARGES
-----------------------
   0 C :   -0.465500
   1 C :   -0.140682
   2 O :   -0.159243
   3 C :    0.390540
   4 O :   -0.385773
   5 C :   -0.419018
   6 C :   -0.027385
   7 H :    0.236269
   8 C :    0.292907
   9 O :   -0.388336
  10 O :   -0.114826
  11 C :   -0.166254
  12 C :   -0.451014
  13 S :   -0.209609
  14 P :    0.803481
  15 S :   -0.469818
  16 O :   -0.367721
  17 C :   -0.302768
  18 O :   -0.296099
  19 C :   -0.300266
  20 H :    0.168707
  21 H :    0.151435
  22 H :    0.154759
  23 H :    0.171755
  24 H :    0.152823
  25 H :    0.188644
  26 H :    0.196678
  27 H :    0.176636
  28 H :    0.162471
  29 H :    0.149212
  30 H :    0.157085
  31 H :    0.150104
  32 H :    0.175069
  33 H :    0.147581
  34 H :    0.151124
  35 H :    0.179073
  36 H :    0.156016
  37 H :    0.151942
Sum of atomic charges:   -0.0000000

LOEWDIN ATOMIC CHARGES
----------------------
   0 C :   -0.387336
   1 C :    0.032754
   2 O :   -0.572779
   3 C :    0.368482
   4 O :   -0.424507
   5 C :   -0.206716
   6 C :   -0.199155
   7 H :    0.204930
   8 C :    0.348084
   9 O :   -0.448702
  10 O :   -0.571917
  11 C :    0.040724
  12 C :   -0.385735
  13 S :    0.208541
  14 P :    0.410247
  15 S :   -0.096600
  16 O :   -0.695256
  17 C :   -0.070032
  18 O :   -0.638681
  19 C :   -0.052762
  20 H :    0.163933
  21 H :    0.161444
  22 H :    0.158602
  23 H :    0.190088
  24 H :    0.180467
  25 H :    0.190246
  26 H :    0.200592
  27 H :    0.189611
  28 H :    0.182281
  29 H :    0.157414
  30 H :    0.161038
  31 H :    0.161113
  32 H :    0.175710
  33 H :    0.174290
  34 H :    0.164917
  35 H :    0.177519
  36 H :    0.167779
  37 H :    0.179371

  Mayer bond orders larger than 0.100000
B(  0-C ,  1-C ) :   0.9407 B(  0-C , 20-H ) :   0.9710 B(  0-C , 21-H ) :   0.9635
B(  0-C , 22-H ) :   0.9730 B(  1-C ,  2-O ) :   0.7970 B(  1-C , 23-H ) :   0.9660
B(  1-C , 24-H ) :   0.9615 B(  2-O ,  3-C ) :   1.1395 B(  3-C ,  4-O ) :   1.7649
B(  3-C ,  5-C ) :   0.9701 B(  4-O ,  8-C ) :   0.1415 B(  5-C ,  6-C ) :   0.8904
B(  5-C , 10-O ) :   0.1164 B(  5-C , 25-H ) :   0.9704 B(  5-C , 26-H ) :   0.9242
B(  6-C ,  7-H ) :   0.9110 B(  6-C ,  8-C ) :   0.8845 B(  6-C , 13-S ) :   0.9390
B(  8-C ,  9-O ) :   1.7354 B(  8-C , 10-O ) :   1.2079 B(  9-O , 14-P ) :   0.1149
B( 10-O , 11-C ) :   0.7727 B( 11-C , 12-C ) :   0.9407 B( 11-C , 27-H ) :   0.9547
B( 11-C , 28-H ) :   0.9495 B( 12-C , 29-H ) :   0.9735 B( 12-C , 30-H ) :   0.9738
B( 12-C , 31-H ) :   0.9672 B( 13-S , 14-P ) :   0.9691 B( 14-P , 15-S ) :   1.7775
B( 14-P , 16-O ) :   1.0020 B( 14-P , 18-O ) :   1.2055 B( 16-O , 17-C ) :   0.8414
B( 17-C , 32-H ) :   0.9588 B( 17-C , 33-H ) :   0.9700 B( 17-C , 34-H ) :   0.9577
B( 18-O , 19-C ) :   0.7965 B( 19-C , 35-H ) :   0.9562 B( 19-C , 36-H ) :   0.9652
B( 19-C , 37-H ) :   0.9656

Dispersion correction           -0.016941963
FINAL SINGLE POINT ENERGY     -1981.445556993993

DIPOLE MOMENT
-------------

Method             : SCF
Type of density    : Electron Density
Multiplicity       :   1
Irrep              :   0
Energy             : -1981.4665292692779985 Eh
Relativity type    :
Basis              : AO
                                X                 Y                 Z
Electronic contribution:    -19.978593265       3.603020635      -0.708073738
Nuclear contribution   :     21.990971422      -4.804026199      -0.203590790
                        -----------------------------------------
Total Dipole Moment    :      2.012378157      -1.201005564      -0.911664528
                        -----------------------------------------
Magnitude (a.u.)       :      2.514599853
Magnitude (Debye)      :      6.391604878

Rotational constants in cm-1:             0.014122             0.006417             0.005323
Rotational constants in MHz :           423.359590           192.383108           159.566925

                             ****ORCA TERMINATED NORMALLY****
TOTAL RUN TIME: 0 days 0 hours 1 minutes 23 seconds 224 msec
