                         Program Version 6.0.1  -  RELEASE   -
|  1> ! r2scan-3c def2/J RI DEFGRID2 scfconv6 printgap
|  2> %output
|  3>     printlevel normal
|  4> end
|  5> %cpcm
|  6>     smd true
|  7>     smdsolvent "water"
|  8> end
|  9> * xyz 0 1
| 10> C 5.0631712964 -2.4480715039 -0.6190564582
| 11> C 3.7013676427 -2.9582867423 -1.0622252834
| 12> O 2.9485811605 -1.9133952517 -1.7105614541
| 13> C 2.2109925804 -1.1150053032 -0.9760361568
| 14> O 2.0787271175 -1.2021788757 0.2295182579
| 15> C 1.5292031225 -0.0466857396 -1.8046146948
| 16> C 0.3308583618 0.4928720639 -1.038493064
| 17> H -0.0669889226 1.3978437424 -1.5071368289
| 18> C 0.687845027 0.824745345 0.3986632348
| 19> O -0.014487316 0.4961912264 1.3371108377
| 20> O 1.7463083634 1.5824219075 0.4863532458
| 21> C 2.1515534504 2.0075933245 1.8046368496
| 22> C 3.2557983159 3.0331111871 1.6465529219
| 23> S -1.0099144119 -0.7456081252 -0.9898906476
| 24> P -2.354722894 0.2660589795 0.302546491
| 25> S -2.3088965329 2.2230019356 0.300640707
| 26> O -3.7440459907 -0.2903788283 -0.3000959282
| 27> C -4.2148975585 0.1114913259 -1.5887267067
| 28> O -2.4663632725 -0.4071656868 1.7291624105
| 29> C -2.2853401209 -1.8185821538 1.9372879379
| 30> H 4.9463484005 -1.6789770428 0.1411034648
| 31> H 5.635388486 -3.2698943265 -0.2014909529
| 32> H 5.6002181311 -2.0313428685 -1.4664363219
| 33> H 3.125620386 -3.3255426971 -0.2080527269
| 34> H 3.7950917948 -3.7353791011 -1.8206350975
| 35> H 1.229922233 -0.4608691984 -2.7664003524
| 36> H 2.2451252149 0.7608961987 -1.9721471177
| 37> H 1.2750403672 2.4201623048 2.3146869975
| 38> H 2.4860622829 1.1205966687 2.3516354025
| 39> H 4.102578591 2.5935457345 1.1287397466
| 40> H 2.8938479234 3.8832755723 1.0761985628
| 41> H 3.5709468676 3.369404935 2.6285707157
| 42> H -4.1550115212 1.1970919862 -1.6851044473
| 43> H -5.2495322323 -0.2176742468 -1.6385417475
| 44> H -3.6190718997 -0.3659679834 -2.3666260512
| 45> H -1.2288435867 -2.0660073321 1.8268768116
| 46> H -2.8868545774 -2.3868617855 1.2289288013
| 47> H -2.6133243619 -1.9985675967 2.9577329544
| 48> *
| 49>
| 50>                          ****END OF INPUT****

CARTESIAN COORDINATES (ANGSTROEM)
---------------------------------
  C      5.063171   -2.448072   -0.619056
  C      3.701368   -2.958287   -1.062225
  O      2.948581   -1.913395   -1.710561
  C      2.210993   -1.115005   -0.976036
  O      2.078727   -1.202179    0.229518
  C      1.529203   -0.046686   -1.804615
  C      0.330858    0.492872   -1.038493
  H     -0.066989    1.397844   -1.507137
  C      0.687845    0.824745    0.398663
  O     -0.014487    0.496191    1.337111
  O      1.746308    1.582422    0.486353
  C      2.151553    2.007593    1.804637
  C      3.255798    3.033111    1.646553
  S     -1.009914   -0.745608   -0.989891
  P     -2.354723    0.266059    0.302546
  S     -2.308897    2.223002    0.300641
  O     -3.744046   -0.290379   -0.300096
  C     -4.214898    0.111491   -1.588727
  O     -2.466363   -0.407166    1.729162
  C     -2.285340   -1.818582    1.937288
  H      4.946348   -1.678977    0.141103
  H      5.635388   -3.269894   -0.201491
  H      5.600218   -2.031343   -1.466436
  H      3.125620   -3.325543   -0.208053
  H      3.795092   -3.735379   -1.820635
  H      1.229922   -0.460869   -2.766400
  H      2.245125    0.760896   -1.972147
  H      1.275040    2.420162    2.314687
  H      2.486062    1.120597    2.351635
  H      4.102579    2.593546    1.128740
  H      2.893848    3.883276    1.076199
  H      3.570947    3.369405    2.628571
  H     -4.155012    1.197092   -1.685104
  H     -5.249532   -0.217674   -1.638542
  H     -3.619072   -0.365968   -2.366626
  H     -1.228844   -2.066007    1.826877
  H     -2.886855   -2.386862    1.228929
  H     -2.613324   -1.998568    2.957733

 Total Charge           Charge          ....    0
 Multiplicity           Mult            ....    1
 Number of Electrons    NEL             ....  174
 Basis Dimension        Dim             ....  510

ORBITAL ENERGIES
----------------

  NO   OCC          E(Eh)            E(eV)
   0   2.0000     -88.577111     -2410.3057
   1   2.0000     -88.521598     -2408.7952
   2   2.0000     -76.918494     -2093.0586
   3   2.0000     -19.011568      -517.3311
   4   2.0000     -19.011321      -517.3244
   5   2.0000     -18.992192      -516.8038
   6   2.0000     -18.984879      -516.6048
   7   2.0000     -18.953020      -515.7379
   8   2.0000     -18.946999      -515.5741
   9   2.0000     -10.174314      -276.8572
  10   2.0000     -10.174273      -276.8560
  11   2.0000     -10.096742      -274.7463
  12   2.0000     -10.088336      -274.5176
  13   2.0000     -10.087497      -274.4948
  14   2.0000     -10.083847      -274.3954
  15   2.0000     -10.076740      -274.2020
  16   2.0000     -10.061744      -273.7940
  17   2.0000     -10.020158      -272.6624
  18   2.0000     -10.019986      -272.6577
  19   2.0000      -7.871419      -214.1922
  20   2.0000      -7.817002      -212.7114
  21   2.0000      -6.596053      -179.4877
  22   2.0000      -5.818308      -158.3242
  23   2.0000      -5.815367      -158.2442
  24   2.0000      -5.808443      -158.0558
  25   2.0000      -5.764792      -156.8680
  26   2.0000      -5.757512      -156.6699
  27   2.0000      -5.756504      -156.6424
  28   2.0000      -4.741651      -129.0269
  29   2.0000      -4.741309      -129.0176
  30   2.0000      -4.739611      -128.9714
  31   2.0000      -1.094342       -29.7785
  32   2.0000      -1.088444       -29.6181
  33   2.0000      -1.047980       -28.5170
  34   2.0000      -1.004151       -27.3243
  35   2.0000      -1.000364       -27.2213
  36   2.0000      -0.997057       -27.1313
  37   2.0000      -0.813271       -22.1302
  38   2.0000      -0.751621       -20.4526
  39   2.0000      -0.746761       -20.3204
  40   2.0000      -0.728683       -19.8285
  41   2.0000      -0.696733       -18.9591
  42   2.0000      -0.663481       -18.0542
  43   2.0000      -0.659092       -17.9348
  44   2.0000      -0.651250       -17.7214
  45   2.0000      -0.623317       -16.9613
  46   2.0000      -0.590486       -16.0680
  47   2.0000      -0.541821       -14.7437
  48   2.0000      -0.532305       -14.4847
  49   2.0000      -0.526693       -14.3320
  50   2.0000      -0.509089       -13.8530
  51   2.0000      -0.487773       -13.2730
  52   2.0000      -0.486362       -13.2346
  53   2.0000      -0.471091       -12.8190
  54   2.0000      -0.468406       -12.7460
  55   2.0000      -0.461136       -12.5482
  56   2.0000      -0.446518       -12.1504
  57   2.0000      -0.443335       -12.0638
  58   2.0000      -0.438272       -11.9260
  59   2.0000      -0.426545       -11.6069
  60   2.0000      -0.422013       -11.4836
  61   2.0000      -0.409128       -11.1329
  62   2.0000      -0.405077       -11.0227
  63   2.0000      -0.402763       -10.9597
  64   2.0000      -0.392597       -10.6831
  65   2.0000      -0.375486       -10.2175
  66   2.0000      -0.370955       -10.0942
  67   2.0000      -0.368450       -10.0260
  68   2.0000      -0.362626        -9.8675
  69   2.0000      -0.357500        -9.7281
  70   2.0000      -0.346851        -9.4383
  71   2.0000      -0.339992        -9.2517
  72   2.0000      -0.332260        -9.0413
  73   2.0000      -0.328509        -8.9392
  74   2.0000      -0.323379        -8.7996
  75   2.0000      -0.312307        -8.4983
  76   2.0000      -0.310361        -8.4454
  77   2.0000      -0.308712        -8.4005
  78   2.0000      -0.290690        -7.9101
  79   2.0000      -0.287866        -7.8332
  80   2.0000      -0.280348        -7.6287
  81   2.0000      -0.273514        -7.4427
  82   2.0000      -0.263555        -7.1717
  83   2.0000      -0.257455        -7.0057
  84   2.0000      -0.241181        -6.5629
  85   2.0000      -0.224085        -6.0977
  86   2.0000      -0.216550        -5.8926
  87   0.0000      -0.048570        -1.3216
  88   0.0000      -0.032203        -0.8763
  89   0.0000      -0.025121        -0.6836
  90   0.0000       0.003228         0.0878
  91   0.0000       0.020784         0.5656

MULLIKEN ATOMIC CHARGES
-----------------------
   0 C :   -0.493237
   1 C :   -0.144186
   2 O :   -0.169454
   3 C :    0.420979
   4 O :   -0.450954
   5 C :   -0.446961
   6 C :   -0.008192
   7 H :    0.264581
   8 C :    0.282729
   9 O :   -0.445577
  10 O :   -0.125277
  11 C :   -0.156916
  12 C :   -0.492418
  13 S :   -0.202361
  14 P :    0.802692
  15 S :   -0.518476
  16 O :   -0.403139
  17 C :   -0.308886
  18 O :   -0.348405
  19 C :   -0.304181
  20 H :    0.169478
  21 H :    0.172409
  22 H :    0.167205
  23 H :    0.176097
  24 H :    0.177670
  25 H :    0.220856
  26 H :    0.238144
  27 H :    0.178123
  28 H :    0.178767
  29 H :    0.166639
  30 H :    0.167351
  31 H :    0.171815
  32 H :    0.174777
  33 H :    0.175732
  34 H :    0.171025
  35 H :    0.180488
  36 H :    0.180110
  37 H :    0.180954
Sum of atomic charges:    0.0000000

LOEWDIN ATOMIC CHARGES
----------------------
   0 C :   -0.390189
   1 C :    0.038196
   2 O :   -0.570984
   3 C :    0.378032
   4 O :   -0.471022
   5 C :   -0.195319
   6 C :   -0.189727
   7 H :    0.215602
   8 C :    0.349024
   9 O :   -0.500341
  10 O :   -0.570574
  11 C :    0.043556
  12 C :   -0.386962
  13 S :    0.220842
  14 P :    0.405489
  15 S :   -0.137210
  16 O :   -0.712569
  17 C :   -0.064386
  18 O :   -0.672770
  19 C :   -0.046196
  20 H :    0.162878
  21 H :    0.168998
  22 H :    0.162951
  23 H :    0.191553
  24 H :    0.191231
  25 H :    0.203532
  26 H :    0.216682
  27 H :    0.189532
  28 H :    0.187533
  29 H :    0.163535
  30 H :    0.163939
  31 H :    0.169728
  32 H :    0.175902
  33 H :    0.186252
  34 H :    0.173695
  35 H :    0.179501
  36 H :    0.178641
  37 H :    0.191422

  Mayer bond orders larger than 0.100000
B(  0-C ,  1-C ) :   0.9390 B(  0-C , 20-H ) :   0.9682 B(  0-C , 21-H ) :   0.9589
B(  0-C , 22-H ) :   0.9694 B(  1-C ,  2-O ) :   0.7806 B(  1-C , 23-H ) :   0.9619
B(  1-C , 24-H ) :   0.9522 B(  2-O ,  3-C ) :   1.1570 B(  3-C ,  4-O ) :   1.7131
B(  3-C ,  5-C ) :   0.9541 B(  4-O ,  8-C ) :   0.1411 B(  5-C ,  6-C ) :   0.8816
B(  5-C , 10-O ) :   0.1030 B(  5-C , 25-H ) :   0.9666 B(  5-C , 26-H ) :   0.9183
B(  6-C ,  7-H ) :   0.8925 B(  6-C ,  8-C ) :   0.8832 B(  6-C , 13-S ) :   0.9222
B(  8-C ,  9-O ) :   1.6994 B(  8-C , 10-O ) :   1.2132 B(  9-O , 14-P ) :   0.1164
B( 10-O , 11-C ) :   0.7599 B( 11-C , 12-C ) :   0.9443 B( 11-C , 27-H ) :   0.9493
B( 11-C , 28-H ) :   0.9388 B( 12-C , 29-H ) :   0.9685 B( 12-C , 30-H ) :   0.9717
B( 12-C , 31-H ) :   0.9607 B( 13-S , 14-P ) :   0.9999 B( 14-P , 15-S ) :   1.7754
B( 14-P , 16-O ) :   1.0000 B( 14-P , 18-O ) :   1.1913 B( 16-O , 17-C ) :   0.8337
B( 17-C , 32-H ) :   0.9554 B( 17-C , 33-H ) :   0.9595 B( 17-C , 34-H ) :   0.9507
B( 18-O , 19-C ) :   0.7906 B( 19-C , 35-H ) :   0.9494 B( 19-C , 36-H ) :   0.9544
B( 19-C , 37-H ) :   0.9543

Dispersion correction           -0.016941963
FINAL SINGLE POINT ENERGY     -1981.462743260789

DIPOLE MOMENT
-------------

Method             : SCF
Type of density    : Electron Density
Multiplicity       :   1
Irrep              :   0
Energy             : -1981.4837155360748966 Eh
Relativity type    :
Basis              : AO
                                X                 Y                 Z
Electronic contribution:    -19.371190245       3.258066718      -1.585943751
Nuclear contribution   :     21.990971422      -4.804026199      -0.203590790
                        -----------------------------------------
Total Dipole Moment    :      2.619781177      -1.545959481      -1.789534541
                        -----------------------------------------
Magnitude (a.u.)       :      3.529260263
Magnitude (Debye)      :      8.970666678

Rotational constants in cm-1:             0.014122             0.006417             0.005323
Rotational constants in MHz :           423.359590           192.383108           159.566925

                             ****ORCA TERMINATED NORMALLY****
TOTAL RUN TIME: 0 days 0 hours 1 minutes 50 seconds 778 msec
