                         Program Version 6.0.0  -   RELEASE  -
|  1> ! pbe def2-sv(p) def2/J RI DEFGRID1 loosescf d4 GCP(DFT/SV(P)) printgap
|  2> %output
|  3>     printlevel normal
|  4> end
|  5> * xyz 0 1
|  6> C 2.2970333026 -3.0063929495 -0.2749806854
|  7> C 2.9528740526 -2.0090448568 0.658624971
|  8> O 2.2127039939 -0.7696760567 0.6900174647
|  9> P 2.6278678039 0.4846021749 -0.2143935545
| 10> S 3.4161232892 0.0800127772 -1.9556789965
| 11> O 3.6381187699 1.3406229191 0.658116659
| 12> C 3.3811965206 1.7255394645 2.0320672661
| 13> C 2.8443932488 3.1407297331 2.1059085019
| 14> S 0.8063905256 1.5458934096 -0.2005904114
| 15> C 0.0232496823 0.6098157464 -1.5400184098
| 16> S -0.6046844863 -1.0086895612 -1.01415597
| 17> P -2.4561282103 -0.3779095412 -0.2048879053
| 18> S -2.7819846243 1.5474648131 0.0170469645
| 19> O -2.6608604254 -1.2512700618 1.108939165
| 20> C -2.2621268262 -0.7937244692 2.4116676353
| 21> C -0.7554756369 -0.7683150104 2.5696843908
| 22> O -3.4030511964 -1.1154758008 -1.2390049385
| 23> C -4.7959103597 -0.7734601794 -1.3921883853
| 24> C -5.6143610922 -1.1576220939 -0.1771610955
| 25> H 2.3308690403 -2.6392270973 -1.2983228397
| 26> H 2.8280353853 -3.951099229 -0.2190923139
| 27> H 1.2571933819 -3.1557224268 0.0013384399
| 28> H 3.9822909001 -1.806686907 0.3476786226
| 29> H 2.9427836724 -2.362748373 1.6910410515
| 30> H 2.6836662369 1.0121291323 2.4775319168
| 31> H 4.3548230553 1.64736927 2.5189807212
| 32> H 1.866203138 3.2056123929 1.6334183547
| 33> H 2.7553380041 3.4320508157 3.1477548136
| 34> H 3.5222763437 3.8220477791 1.5993167374
| 35> H 0.7635871647 0.4267279431 -2.3194419506
| 36> H -0.7973941355 1.2237864746 -1.9054873492
| 37> H -2.6811789764 0.2050876189 2.5723804587
| 38> H -2.7259826904 -1.5068973117 3.0946489068
| 39> H -0.3247184346 -0.0061903107 1.9212669333
| 40> H -0.5057968469 -0.533995135 3.5996314712
| 41> H -0.3308359155 -1.7333058358 2.3042913021
| 42> H -4.8684250122 0.3023390835 -1.5820270501
| 43> H -5.1031379137 -1.3287612808 -2.2793855526
| 44> H -6.6668268226 -0.994210581 -0.387067044
| 45> H -5.4514936549 -2.2035783974 0.0688810497
| 46> H -5.3244425048 -0.5451530906 0.6752216697
| 47> *
| 48>
| 49>                          ****END OF INPUT****

CARTESIAN COORDINATES (ANGSTROEM)
---------------------------------
  C      2.297033   -3.006393   -0.274981
  C      2.952874   -2.009045    0.658625
  O      2.212704   -0.769676    0.690017
  P      2.627868    0.484602   -0.214394
  S      3.416123    0.080013   -1.955679
  O      3.638119    1.340623    0.658117
  C      3.381197    1.725539    2.032067
  C      2.844393    3.140730    2.105909
  S      0.806391    1.545893   -0.200590
  C      0.023250    0.609816   -1.540018
  S     -0.604684   -1.008690   -1.014156
  P     -2.456128   -0.377910   -0.204888
  S     -2.781985    1.547465    0.017047
  O     -2.660860   -1.251270    1.108939
  C     -2.262127   -0.793724    2.411668
  C     -0.755476   -0.768315    2.569684
  O     -3.403051   -1.115476   -1.239005
  C     -4.795910   -0.773460   -1.392188
  C     -5.614361   -1.157622   -0.177161
  H      2.330869   -2.639227   -1.298323
  H      2.828035   -3.951099   -0.219092
  H      1.257193   -3.155722    0.001338
  H      3.982291   -1.806687    0.347679
  H      2.942784   -2.362748    1.691041
  H      2.683666    1.012129    2.477532
  H      4.354823    1.647369    2.518981
  H      1.866203    3.205612    1.633418
  H      2.755338    3.432051    3.147755
  H      3.522276    3.822048    1.599317
  H      0.763587    0.426728   -2.319442
  H     -0.797394    1.223786   -1.905487
  H     -2.681179    0.205088    2.572380
  H     -2.725983   -1.506897    3.094649
  H     -0.324718   -0.006190    1.921267
  H     -0.505797   -0.533995    3.599631
  H     -0.330836   -1.733306    2.304291
  H     -4.868425    0.302339   -1.582027
  H     -5.103138   -1.328761   -2.279386
  H     -6.666827   -0.994211   -0.387067
  H     -5.451494   -2.203578    0.068881
  H     -5.324443   -0.545153    0.675222

 Total Charge           Charge          ....    0
 Multiplicity           Mult            ....    1
 Number of Electrons    NEL             ....  202
 Basis Dimension        Dim             ....  334

ORBITAL ENERGIES
----------------

  NO   OCC          E(Eh)            E(eV)
   0   2.0000     -88.044173     -2395.8038
   1   2.0000     -88.041616     -2395.7342
   2   2.0000     -87.994995     -2394.4656
   3   2.0000     -87.985058     -2394.1951
   4   2.0000     -76.428687     -2079.7303
   5   2.0000     -76.425045     -2079.6312
   6   2.0000     -18.795109      -511.4409
   7   2.0000     -18.794635      -511.4280
   8   2.0000     -18.791216      -511.3350
   9   2.0000     -18.790154      -511.3061
  10   2.0000      -9.960844      -271.0484
  11   2.0000      -9.954612      -270.8788
  12   2.0000      -9.953496      -270.8484
  13   2.0000      -9.953109      -270.8379
  14   2.0000      -9.952930      -270.8330
  15   2.0000      -9.891020      -269.1483
  16   2.0000      -9.885651      -269.0022
  17   2.0000      -9.881845      -268.8987
  18   2.0000      -9.878601      -268.8104
  19   2.0000      -7.688735      -209.2211
  20   2.0000      -7.686840      -209.1696
  21   2.0000      -7.639790      -207.8893
  22   2.0000      -7.630387      -207.6334
  23   2.0000      -6.426499      -174.8739
  24   2.0000      -6.423225      -174.7848
  25   2.0000      -5.716498      -155.5538
  26   2.0000      -5.714732      -155.5058
  27   2.0000      -5.713408      -155.4697
  28   2.0000      -5.711488      -155.4175
  29   2.0000      -5.705686      -155.2596
  30   2.0000      -5.703564      -155.2019
  31   2.0000      -5.668575      -154.2498
  32   2.0000      -5.660509      -154.0303
  33   2.0000      -5.660048      -154.0177
  34   2.0000      -5.659436      -154.0011
  35   2.0000      -5.651078      -153.7736
  36   2.0000      -5.650271      -153.7517
  37   2.0000      -4.648762      -126.4993
  38   2.0000      -4.648222      -126.4846
  39   2.0000      -4.647247      -126.4580
  40   2.0000      -4.646277      -126.4316
  41   2.0000      -4.644551      -126.3847
  42   2.0000      -4.643603      -126.3589
  43   2.0000      -0.988105       -26.8877
  44   2.0000      -0.985970       -26.8296
  45   2.0000      -0.947097       -25.7718
  46   2.0000      -0.944386       -25.6981
  47   2.0000      -0.765139       -20.8205
  48   2.0000      -0.724204       -19.7066
  49   2.0000      -0.710686       -19.3388
  50   2.0000      -0.691948       -18.8289
  51   2.0000      -0.687847       -18.7173
  52   2.0000      -0.674698       -18.3595
  53   2.0000      -0.653334       -17.7781
  54   2.0000      -0.640459       -17.4278
  55   2.0000      -0.604476       -16.4486
  56   2.0000      -0.587440       -15.9851
  57   2.0000      -0.579822       -15.7777
  58   2.0000      -0.573321       -15.6008
  59   2.0000      -0.556736       -15.1496
  60   2.0000      -0.508870       -13.8471
  61   2.0000      -0.494962       -13.4686
  62   2.0000      -0.476821       -12.9749
  63   2.0000      -0.474647       -12.9158
  64   2.0000      -0.460973       -12.5437
  65   2.0000      -0.448305       -12.1990
  66   2.0000      -0.440825       -11.9954
  67   2.0000      -0.438881       -11.9426
  68   2.0000      -0.432039       -11.7564
  69   2.0000      -0.416960       -11.3461
  70   2.0000      -0.407445       -11.0871
  71   2.0000      -0.394912       -10.7461
  72   2.0000      -0.390859       -10.6358
  73   2.0000      -0.388985       -10.5848
  74   2.0000      -0.383142       -10.4258
  75   2.0000      -0.372308       -10.1310
  76   2.0000      -0.370352       -10.0778
  77   2.0000      -0.359815        -9.7911
  78   2.0000      -0.356252        -9.6941
  79   2.0000      -0.354532        -9.6473
  80   2.0000      -0.351910        -9.5760
  81   2.0000      -0.348015        -9.4700
  82   2.0000      -0.342133        -9.3099
  83   2.0000      -0.340150        -9.2560
  84   2.0000      -0.335633        -9.1330
  85   2.0000      -0.317653        -8.6438
  86   2.0000      -0.310608        -8.4521
  87   2.0000      -0.305450        -8.3117
  88   2.0000      -0.296496        -8.0681
  89   2.0000      -0.286302        -7.7907
  90   2.0000      -0.283624        -7.7178
  91   2.0000      -0.276214        -7.5162
  92   2.0000      -0.274160        -7.4603
  93   2.0000      -0.272263        -7.4086
  94   2.0000      -0.262549        -7.1443
  95   2.0000      -0.231239        -6.2923
  96   2.0000      -0.219149        -5.9633
  97   2.0000      -0.214466        -5.8359
  98   2.0000      -0.209670        -5.7054
  99   2.0000      -0.203955        -5.5499
 100   2.0000      -0.198595        -5.4040
 101   0.0000      -0.044434        -1.2091
 102   0.0000      -0.029253        -0.7960
 103   0.0000      -0.006767        -0.1841
 104   0.0000       0.005071         0.1380
 105   0.0000       0.007950         0.2163

MULLIKEN ATOMIC CHARGES
-----------------------
   0 C :   -0.298822
   1 C :   -0.008829
   2 O :   -0.382115
   3 P :    0.614135
   4 S :   -0.311890
   5 O :   -0.365714
   6 C :   -0.030952
   7 C :   -0.301369
   8 S :   -0.086489
   9 C :   -0.350962
  10 S :   -0.069030
  11 P :    0.611766
  12 S :   -0.335552
  13 O :   -0.371814
  14 C :   -0.002977
  15 C :   -0.341008
  16 O :   -0.364846
  17 C :   -0.004271
  18 C :   -0.306787
  19 H :    0.123151
  20 H :    0.107117
  21 H :    0.125517
  22 H :    0.106269
  23 H :    0.100645
  24 H :    0.112148
  25 H :    0.111537
  26 H :    0.137640
  27 H :    0.112439
  28 H :    0.125737
  29 H :    0.191384
  30 H :    0.192697
  31 H :    0.108990
  32 H :    0.103277
  33 H :    0.153953
  34 H :    0.105207
  35 H :    0.118872
  36 H :    0.111044
  37 H :    0.107635
  38 H :    0.112319
  39 H :    0.118441
  40 H :    0.121505
Sum of atomic charges:   -0.0000000

LOEWDIN ATOMIC CHARGES
----------------------
   0 C :   -0.365362
   1 C :   -0.116789
   2 O :   -0.254447
   3 P :    0.568434
   4 S :   -0.310195
   5 O :   -0.244134
   6 C :   -0.117845
   7 C :   -0.360696
   8 S :    0.102808
   9 C :   -0.480777
  10 S :    0.104764
  11 P :    0.572827
  12 S :   -0.318740
  13 O :   -0.243239
  14 C :   -0.119176
  15 C :   -0.373485
  16 O :   -0.244150
  17 C :   -0.116326
  18 C :   -0.364303
  19 H :    0.122974
  20 H :    0.128222
  21 H :    0.121622
  22 H :    0.109637
  23 H :    0.115110
  24 H :    0.110842
  25 H :    0.121838
  26 H :    0.120772
  27 H :    0.131530
  28 H :    0.131811
  29 H :    0.129856
  30 H :    0.132275
  31 H :    0.109118
  32 H :    0.117489
  33 H :    0.115179
  34 H :    0.127541
  35 H :    0.123845
  36 H :    0.110742
  37 H :    0.120177
  38 H :    0.130419
  39 H :    0.127253
  40 H :    0.122574

  Mayer bond orders larger than 0.100000
B(  0-C ,  1-C ) :   1.1726 B(  0-C , 19-H ) :   0.9354 B(  0-C , 20-H ) :   0.9385
B(  0-C , 21-H ) :   0.9423 B(  1-C ,  2-O ) :   0.8955 B(  1-C , 22-H ) :   0.9140
B(  1-C , 23-H ) :   0.9323 B(  2-O ,  3-P ) :   1.0767 B(  3-P ,  4-S ) :   1.6272
B(  3-P ,  5-O ) :   1.1261 B(  3-P ,  8-S ) :   0.9663 B(  5-O ,  6-C ) :   0.9017
B(  6-C ,  7-C ) :   1.1679 B(  6-C , 24-H ) :   0.9154 B(  6-C , 25-H ) :   0.9337
B(  7-C , 26-H ) :   0.9343 B(  7-C , 27-H ) :   0.9381 B(  7-C , 28-H ) :   0.9458
B(  8-S ,  9-C ) :   1.0059 B(  9-C , 10-S ) :   1.0074 B(  9-C , 29-H ) :   0.8676
B(  9-C , 30-H ) :   0.8847 B( 10-S , 11-P ) :   0.9657 B( 10-S , 12-S ) :   0.1136
B( 11-P , 12-S ) :   1.5879 B( 11-P , 13-O ) :   1.1061 B( 11-P , 16-O ) :   1.1350
B( 13-O , 14-C ) :   0.9101 B( 14-C , 15-C ) :   1.1624 B( 14-C , 31-H ) :   0.9148
B( 14-C , 32-H ) :   0.9335 B( 15-C , 33-H ) :   0.9202 B( 15-C , 34-H ) :   0.9374
B( 15-C , 35-H ) :   0.9429 B( 16-O , 17-C ) :   0.9116 B( 17-C , 18-C ) :   1.1629
B( 17-C , 36-H ) :   0.9181 B( 17-C , 37-H ) :   0.9352 B( 18-C , 38-H ) :   0.9385
B( 18-C , 39-H ) :   0.9461 B( 18-C , 40-H ) :   0.9388

Dispersion correction           -0.065179854
FINAL SINGLE POINT ENERGY     -2929.521557714851

DIPOLE MOMENT
-------------

Method             : SCF
Type of density    : Electron Density
Multiplicity       :   1
Irrep              :   0
Energy             : -2929.6413995767948109 Eh
Relativity type    :
Basis              : AO
                                X                 Y                 Z
Electronic contribution:      4.790264103       6.579834551     -15.449677081
Nuclear contribution   :     -5.334335462      -7.211894024      17.054465851
                        -----------------------------------------
Total Dipole Moment    :     -0.544071359      -0.632059473       1.604788770
                        -----------------------------------------
Magnitude (a.u.)       :      1.808551857
Magnitude (Debye)      :      4.596973492

Rotational constants in cm-1:             0.013104             0.004640             0.004391
Rotational constants in MHz :           392.839146           139.098449           131.624147

                             ****ORCA TERMINATED NORMALLY****
TOTAL RUN TIME: 0 days 0 hours 0 minutes 21 seconds 271 msec
