                         Program Version 6.0.0  -   RELEASE  -
|  1> ! r2scan-3c def2/J RI DEFGRID2 scfconv6 printgap
|  2> %output
|  3>     printlevel normal
|  4> end
|  5> * xyz 0 1
|  6> C 4.220427341 -0.7862780331 -2.5911248039
|  7> C 4.4620203751 -1.3803993027 -1.2186574437
|  8> O 3.2323536033 -1.6143874272 -0.5103421915
|  9> P 2.3235906624 -0.4262024728 0.031152566
| 10> S 3.3391634372 1.0976597867 0.7411183408
| 11> O 1.3778855408 -1.2030162218 1.0374947861
| 12> C 1.7987661908 -1.5261397753 2.3857672178
| 13> C 1.323511551 -0.4723420319 3.3664218057
| 14> S 0.9411996341 -0.0258224724 -1.5108262721
| 15> C 0.3137051327 1.5229136741 -0.8010239391
| 16> S -0.7313404708 1.2658922868 0.6492750331
| 17> P -2.3347013293 0.3172522781 -0.3970078969
| 18> S -2.712598553 1.0018007712 -2.1870274071
| 19> O -3.538656444 0.3702895319 0.6404264628
| 20> C -4.4525005893 1.480881201 0.7106806312
| 21> C -3.7807202525 2.7552375251 1.1784984226
| 22> O -1.9689346174 -1.2170043183 -0.4202861515
| 23> C -1.742520577 -2.0090484751 0.7697737656
| 24> C -2.9881758532 -2.785374206 1.1429910496
| 25> H 3.517677129 -1.3990111275 -3.1504963017
| 26> H 3.8078822382 0.2174983517 -2.4948099185
| 27> H 5.1604427914 -0.7303744082 -3.1306619789
| 28> H 5.086911473 -0.7134729618 -0.6157408132
| 29> H 4.9217149163 -2.3676147454 -1.2805322487
| 30> H 1.3431382502 -2.4967057959 2.5883688201
| 31> H 2.8877002473 -1.6200371758 2.4091993792
| 32> H 0.2463556236 -0.3486482402 3.2980686982
| 33> H 1.5885856303 -0.7774281552 4.3735172443
| 34> H 1.7932479298 0.4844965375 3.1497733269
| 35> H -0.26857531 2.0069018909 -1.5851334866
| 36> H 1.1518370683 2.1431345416 -0.48252524
| 37> H -4.8974525313 1.6216826018 -0.2789362269
| 38> H -5.2138369222 1.1454224434 1.416392597
| 39> H -4.5362414376 3.516600895 1.343824362
| 40> H -3.2351302503 2.5807473235 2.102483788
| 41> H -3.0841401174 3.1102335273 0.4207390388
| 42> H -0.9185636958 -2.6738848946 0.502089013
| 43> H -1.4284670849 -1.3467488659 1.5810974963
| 44> H -3.3101808259 -3.395149768 0.3033900546
| 45> H -2.766200986 -3.4278324522 1.9893793462
| 46> H -3.7907293736 -2.1031312099 1.4095054275
| 47> *
| 48>
| 49>                          ****END OF INPUT****

CARTESIAN COORDINATES (ANGSTROEM)
---------------------------------
  C      4.220427   -0.786278   -2.591125
  C      4.462020   -1.380399   -1.218657
  O      3.232354   -1.614387   -0.510342
  P      2.323591   -0.426202    0.031153
  S      3.339163    1.097660    0.741118
  O      1.377886   -1.203016    1.037495
  C      1.798766   -1.526140    2.385767
  C      1.323512   -0.472342    3.366422
  S      0.941200   -0.025822   -1.510826
  C      0.313705    1.522914   -0.801024
  S     -0.731340    1.265892    0.649275
  P     -2.334701    0.317252   -0.397008
  S     -2.712599    1.001801   -2.187027
  O     -3.538656    0.370290    0.640426
  C     -4.452501    1.480881    0.710681
  C     -3.780720    2.755238    1.178498
  O     -1.968935   -1.217004   -0.420286
  C     -1.742521   -2.009048    0.769774
  C     -2.988176   -2.785374    1.142991
  H      3.517677   -1.399011   -3.150496
  H      3.807882    0.217498   -2.494810
  H      5.160443   -0.730374   -3.130662
  H      5.086911   -0.713473   -0.615741
  H      4.921715   -2.367615   -1.280532
  H      1.343138   -2.496706    2.588369
  H      2.887700   -1.620037    2.409199
  H      0.246356   -0.348648    3.298069
  H      1.588586   -0.777428    4.373517
  H      1.793248    0.484497    3.149773
  H     -0.268575    2.006902   -1.585133
  H      1.151837    2.143135   -0.482525
  H     -4.897453    1.621683   -0.278936
  H     -5.213837    1.145422    1.416393
  H     -4.536241    3.516601    1.343824
  H     -3.235130    2.580747    2.102484
  H     -3.084140    3.110234    0.420739
  H     -0.918564   -2.673885    0.502089
  H     -1.428467   -1.346749    1.581097
  H     -3.310181   -3.395150    0.303390
  H     -2.766201   -3.427832    1.989379
  H     -3.790729   -2.103131    1.409505

 Total Charge           Charge          ....    0
 Multiplicity           Mult            ....    1
 Number of Electrons    NEL             ....  202
 Basis Dimension        Dim             ....  539

ORBITAL ENERGIES
----------------

  NO   OCC          E(Eh)            E(eV)
   0   2.0000     -88.574803     -2410.2429
   1   2.0000     -88.572023     -2410.1673
   2   2.0000     -88.522607     -2408.8226
   3   2.0000     -88.519913     -2408.7493
   4   2.0000     -76.915235     -2092.9700
   5   2.0000     -76.913535     -2092.9237
   6   2.0000     -18.995888      -516.9044
   7   2.0000     -18.994789      -516.8745
   8   2.0000     -18.991295      -516.7794
   9   2.0000     -18.987867      -516.6861
  10   2.0000     -10.103749      -274.9370
  11   2.0000     -10.102690      -274.9082
  12   2.0000     -10.101633      -274.8794
  13   2.0000     -10.099090      -274.8102
  14   2.0000     -10.098906      -274.8052
  15   2.0000     -10.030166      -272.9347
  16   2.0000     -10.029906      -272.9276
  17   2.0000     -10.028606      -272.8922
  18   2.0000     -10.028262      -272.8829
  19   2.0000      -7.869005      -214.1265
  20   2.0000      -7.866510      -214.0586
  21   2.0000      -7.817486      -212.7246
  22   2.0000      -7.814707      -212.6490
  23   2.0000      -6.593832      -179.4273
  24   2.0000      -6.591970      -179.3766
  25   2.0000      -5.815918      -158.2592
  26   2.0000      -5.813325      -158.1886
  27   2.0000      -5.812967      -158.1789
  28   2.0000      -5.810407      -158.1092
  29   2.0000      -5.805989      -157.9890
  30   2.0000      -5.803615      -157.9244
  31   2.0000      -5.765034      -156.8746
  32   2.0000      -5.762388      -156.8025
  33   2.0000      -5.757884      -156.6800
  34   2.0000      -5.757449      -156.6682
  35   2.0000      -5.754913      -156.5991
  36   2.0000      -5.754742      -156.5945
  37   2.0000      -4.739399      -128.9656
  38   2.0000      -4.738641      -128.9450
  39   2.0000      -4.737841      -128.9232
  40   2.0000      -4.737600      -128.9166
  41   2.0000      -4.736827      -128.8956
  42   2.0000      -4.735451      -128.8582
  43   2.0000      -1.051779       -28.6204
  44   2.0000      -1.051192       -28.6044
  45   2.0000      -1.011999       -27.5379
  46   2.0000      -1.010234       -27.4899
  47   2.0000      -0.801551       -21.8113
  48   2.0000      -0.758826       -20.6487
  49   2.0000      -0.750121       -20.4118
  50   2.0000      -0.735268       -20.0076
  51   2.0000      -0.731910       -19.9163
  52   2.0000      -0.712278       -19.3821
  53   2.0000      -0.686767       -18.6879
  54   2.0000      -0.669123       -18.2078
  55   2.0000      -0.632180       -17.2025
  56   2.0000      -0.623629       -16.9698
  57   2.0000      -0.609791       -16.5933
  58   2.0000      -0.607360       -16.5271
  59   2.0000      -0.588678       -16.0187
  60   2.0000      -0.530643       -14.4395
  61   2.0000      -0.522176       -14.2091
  62   2.0000      -0.495086       -13.4720
  63   2.0000      -0.490590       -13.3496
  64   2.0000      -0.478756       -13.0276
  65   2.0000      -0.467802       -12.7295
  66   2.0000      -0.459005       -12.4902
  67   2.0000      -0.452610       -12.3161
  68   2.0000      -0.445665       -12.1272
  69   2.0000      -0.438486       -11.9318
  70   2.0000      -0.427067       -11.6211
  71   2.0000      -0.416877       -11.3438
  72   2.0000      -0.409941       -11.1551
  73   2.0000      -0.398180       -10.8350
  74   2.0000      -0.394574       -10.7369
  75   2.0000      -0.390514       -10.6264
  76   2.0000      -0.382571       -10.4103
  77   2.0000      -0.377990       -10.2856
  78   2.0000      -0.370790       -10.0897
  79   2.0000      -0.368678       -10.0322
  80   2.0000      -0.365565        -9.9475
  81   2.0000      -0.360559        -9.8113
  82   2.0000      -0.357884        -9.7385
  83   2.0000      -0.356709        -9.7065
  84   2.0000      -0.349544        -9.5116
  85   2.0000      -0.332871        -9.0579
  86   2.0000      -0.324179        -8.8214
  87   2.0000      -0.312580        -8.5057
  88   2.0000      -0.310878        -8.4594
  89   2.0000      -0.307570        -8.3694
  90   2.0000      -0.304687        -8.2909
  91   2.0000      -0.295962        -8.0535
  92   2.0000      -0.283497        -7.7143
  93   2.0000      -0.280009        -7.6194
  94   2.0000      -0.274385        -7.4664
  95   2.0000      -0.245409        -6.6779
  96   2.0000      -0.230413        -6.2698
  97   2.0000      -0.226753        -6.1703
  98   2.0000      -0.218387        -5.9426
  99   2.0000      -0.215249        -5.8572
 100   2.0000      -0.213146        -5.8000
 101   0.0000      -0.045737        -1.2446
 102   0.0000      -0.024916        -0.6780
 103   0.0000      -0.003634        -0.0989
 104   0.0000      -0.000700        -0.0190
 105   0.0000       0.013029         0.3545

MULLIKEN ATOMIC CHARGES
-----------------------
   0 C :   -0.454827
   1 C :   -0.148325
   2 O :   -0.308662
   3 P :    0.667552
   4 S :   -0.485593
   5 O :   -0.250744
   6 C :   -0.139054
   7 C :   -0.446035
   8 S :   -0.094967
   9 C :   -0.251328
  10 S :   -0.156942
  11 P :    0.643785
  12 S :   -0.443296
  13 O :   -0.291679
  14 C :   -0.167832
  15 C :   -0.442641
  16 O :   -0.253729
  17 C :   -0.101936
  18 C :   -0.483419
  19 H :    0.157821
  20 H :    0.177172
  21 H :    0.147938
  22 H :    0.171736
  23 H :    0.147593
  24 H :    0.149872
  25 H :    0.153207
  26 H :    0.147248
  27 H :    0.145738
  28 H :    0.184431
  29 H :    0.220502
  30 H :    0.212872
  31 H :    0.175427
  32 H :    0.147492
  33 H :    0.148090
  34 H :    0.152864
  35 H :    0.180229
  36 H :    0.166076
  37 H :    0.154058
  38 H :    0.160147
  39 H :    0.144024
  40 H :    0.165136
Sum of atomic charges:    0.0000000

LOEWDIN ATOMIC CHARGES
----------------------
   0 C :   -0.405727
   1 C :    0.019042
   2 O :   -0.660079
   3 P :    0.376674
   4 S :   -0.138183
   5 O :   -0.682198
   6 C :    0.023178
   7 C :   -0.405150
   8 S :    0.190881
   9 C :   -0.423560
  10 S :    0.145687
  11 P :    0.381839
  12 S :   -0.101582
  13 O :   -0.672757
  14 C :    0.022049
  15 C :   -0.408675
  16 O :   -0.650985
  17 C :    0.019871
  18 C :   -0.393261
  19 H :    0.160825
  20 H :    0.166011
  21 H :    0.159750
  22 H :    0.179805
  23 H :    0.179241
  24 H :    0.177501
  25 H :    0.177097
  26 H :    0.156504
  27 H :    0.157550
  28 H :    0.170100
  29 H :    0.192247
  30 H :    0.192138
  31 H :    0.180970
  32 H :    0.178967
  33 H :    0.159537
  34 H :    0.159881
  35 H :    0.166760
  36 H :    0.186182
  37 H :    0.175767
  38 H :    0.162831
  39 H :    0.157687
  40 H :    0.165589

  Mayer bond orders larger than 0.100000
B(  0-C ,  1-C ) :   0.9232 B(  0-C , 19-H ) :   0.9690 B(  0-C , 20-H ) :   0.9611
B(  0-C , 21-H ) :   0.9589 B(  1-C ,  2-O ) :   0.8160 B(  1-C , 22-H ) :   0.9648
B(  1-C , 23-H ) :   0.9582 B(  2-O ,  3-P ) :   1.0748 B(  3-P ,  4-S ) :   1.7431
B(  3-P ,  5-O ) :   1.1331 B(  3-P ,  8-S ) :   1.1152 B(  5-O ,  6-C ) :   0.7403
B(  6-C ,  7-C ) :   0.9347 B(  6-C , 24-H ) :   0.9665 B(  6-C , 25-H ) :   0.9596
B(  7-C , 26-H ) :   0.9720 B(  7-C , 27-H ) :   0.9661 B(  7-C , 28-H ) :   0.9583
B(  8-S ,  9-C ) :   0.9078 B(  9-C , 10-S ) :   0.9098 B(  9-C , 29-H ) :   0.9061
B(  9-C , 30-H ) :   0.9046 B( 10-S , 11-P ) :   1.0120 B( 11-P , 12-S ) :   1.8375
B( 11-P , 13-O ) :   1.0317 B( 11-P , 16-O ) :   1.1432 B( 13-O , 14-C ) :   0.8181
B( 14-C , 15-C ) :   0.9175 B( 14-C , 31-H ) :   0.9683 B( 14-C , 32-H ) :   0.9615
B( 15-C , 33-H ) :   0.9562 B( 15-C , 34-H ) :   0.9673 B( 15-C , 35-H ) :   0.9636
B( 16-O , 17-C ) :   0.7408 B( 17-C , 18-C ) :   0.9275 B( 17-C , 36-H ) :   0.9557
B( 17-C , 37-H ) :   0.9684 B( 18-C , 38-H ) :   0.9741 B( 18-C , 39-H ) :   0.9663
B( 18-C , 40-H ) :   0.9698

Dispersion correction           -0.021786757
FINAL SINGLE POINT ENERGY     -2932.462545774092

DIPOLE MOMENT
-------------

Method             : SCF
Type of density    : Electron Density
Multiplicity       :   1
Irrep              :   0
Energy             : -2932.4872487132201968 Eh
Relativity type    :
Basis              : AO
                                X                 Y                 Z
Electronic contribution:      1.854543682       5.388572399     -12.135300439
Nuclear contribution   :     -1.851404297      -6.220493980      13.416253374
                        -----------------------------------------
Total Dipole Moment    :      0.003139385      -0.831921581       1.280952935
                        -----------------------------------------
Magnitude (a.u.)       :      1.527397720
Magnitude (Debye)      :      3.882336469

Rotational constants in cm-1:             0.012579             0.004973             0.004668
Rotational constants in MHz :           377.097692           149.075137           139.948350

                             ****ORCA TERMINATED NORMALLY****
TOTAL RUN TIME: 0 days 0 hours 1 minutes 21 seconds 179 msec
