                         Program Version 6.0.0  -   RELEASE  -
|  1> ! r2scan-3c def2/J RI DEFGRID2 scfconv6 printgap
|  2> %output
|  3>     printlevel normal
|  4> end
|  5> %cpcm
|  6>     smd true
|  7>     smdsolvent "water"
|  8> end
|  9> * xyz 0 1
| 10> C 4.220427341 -0.7862780331 -2.5911248039
| 11> C 4.4620203751 -1.3803993027 -1.2186574437
| 12> O 3.2323536033 -1.6143874272 -0.5103421915
| 13> P 2.3235906624 -0.4262024728 0.031152566
| 14> S 3.3391634372 1.0976597867 0.7411183408
| 15> O 1.3778855408 -1.2030162218 1.0374947861
| 16> C 1.7987661908 -1.5261397753 2.3857672178
| 17> C 1.323511551 -0.4723420319 3.3664218057
| 18> S 0.9411996341 -0.0258224724 -1.5108262721
| 19> C 0.3137051327 1.5229136741 -0.8010239391
| 20> S -0.7313404708 1.2658922868 0.6492750331
| 21> P -2.3347013293 0.3172522781 -0.3970078969
| 22> S -2.712598553 1.0018007712 -2.1870274071
| 23> O -3.538656444 0.3702895319 0.6404264628
| 24> C -4.4525005893 1.480881201 0.7106806312
| 25> C -3.7807202525 2.7552375251 1.1784984226
| 26> O -1.9689346174 -1.2170043183 -0.4202861515
| 27> C -1.742520577 -2.0090484751 0.7697737656
| 28> C -2.9881758532 -2.785374206 1.1429910496
| 29> H 3.517677129 -1.3990111275 -3.1504963017
| 30> H 3.8078822382 0.2174983517 -2.4948099185
| 31> H 5.1604427914 -0.7303744082 -3.1306619789
| 32> H 5.086911473 -0.7134729618 -0.6157408132
| 33> H 4.9217149163 -2.3676147454 -1.2805322487
| 34> H 1.3431382502 -2.4967057959 2.5883688201
| 35> H 2.8877002473 -1.6200371758 2.4091993792
| 36> H 0.2463556236 -0.3486482402 3.2980686982
| 37> H 1.5885856303 -0.7774281552 4.3735172443
| 38> H 1.7932479298 0.4844965375 3.1497733269
| 39> H -0.26857531 2.0069018909 -1.5851334866
| 40> H 1.1518370683 2.1431345416 -0.48252524
| 41> H -4.8974525313 1.6216826018 -0.2789362269
| 42> H -5.2138369222 1.1454224434 1.416392597
| 43> H -4.5362414376 3.516600895 1.343824362
| 44> H -3.2351302503 2.5807473235 2.102483788
| 45> H -3.0841401174 3.1102335273 0.4207390388
| 46> H -0.9185636958 -2.6738848946 0.502089013
| 47> H -1.4284670849 -1.3467488659 1.5810974963
| 48> H -3.3101808259 -3.395149768 0.3033900546
| 49> H -2.766200986 -3.4278324522 1.9893793462
| 50> H -3.7907293736 -2.1031312099 1.4095054275
| 51> *
| 52>
| 53>                          ****END OF INPUT****

CARTESIAN COORDINATES (ANGSTROEM)
---------------------------------
  C      4.220427   -0.786278   -2.591125
  C      4.462020   -1.380399   -1.218657
  O      3.232354   -1.614387   -0.510342
  P      2.323591   -0.426202    0.031153
  S      3.339163    1.097660    0.741118
  O      1.377886   -1.203016    1.037495
  C      1.798766   -1.526140    2.385767
  C      1.323512   -0.472342    3.366422
  S      0.941200   -0.025822   -1.510826
  C      0.313705    1.522914   -0.801024
  S     -0.731340    1.265892    0.649275
  P     -2.334701    0.317252   -0.397008
  S     -2.712599    1.001801   -2.187027
  O     -3.538656    0.370290    0.640426
  C     -4.452501    1.480881    0.710681
  C     -3.780720    2.755238    1.178498
  O     -1.968935   -1.217004   -0.420286
  C     -1.742521   -2.009048    0.769774
  C     -2.988176   -2.785374    1.142991
  H      3.517677   -1.399011   -3.150496
  H      3.807882    0.217498   -2.494810
  H      5.160443   -0.730374   -3.130662
  H      5.086911   -0.713473   -0.615741
  H      4.921715   -2.367615   -1.280532
  H      1.343138   -2.496706    2.588369
  H      2.887700   -1.620037    2.409199
  H      0.246356   -0.348648    3.298069
  H      1.588586   -0.777428    4.373517
  H      1.793248    0.484497    3.149773
  H     -0.268575    2.006902   -1.585133
  H      1.151837    2.143135   -0.482525
  H     -4.897453    1.621683   -0.278936
  H     -5.213837    1.145422    1.416393
  H     -4.536241    3.516601    1.343824
  H     -3.235130    2.580747    2.102484
  H     -3.084140    3.110234    0.420739
  H     -0.918564   -2.673885    0.502089
  H     -1.428467   -1.346749    1.581097
  H     -3.310181   -3.395150    0.303390
  H     -2.766201   -3.427832    1.989379
  H     -3.790729   -2.103131    1.409505

 Total Charge           Charge          ....    0
 Multiplicity           Mult            ....    1
 Number of Electrons    NEL             ....  202
 Basis Dimension        Dim             ....  539

ORBITAL ENERGIES
----------------

  NO   OCC          E(Eh)            E(eV)
   0   2.0000     -88.579216     -2410.3630
   1   2.0000     -88.574959     -2410.2472
   2   2.0000     -88.530400     -2409.0347
   3   2.0000     -88.527669     -2408.9603
   4   2.0000     -76.919824     -2093.0948
   5   2.0000     -76.918448     -2093.0574
   6   2.0000     -18.996376      -516.9177
   7   2.0000     -18.995769      -516.9011
   8   2.0000     -18.992851      -516.8218
   9   2.0000     -18.989987      -516.7438
  10   2.0000     -10.103314      -274.9251
  11   2.0000     -10.090814      -274.5850
  12   2.0000     -10.090499      -274.5764
  13   2.0000     -10.090037      -274.5639
  14   2.0000     -10.089047      -274.5369
  15   2.0000     -10.018583      -272.6195
  16   2.0000     -10.018461      -272.6162
  17   2.0000     -10.017836      -272.5992
  18   2.0000     -10.015481      -272.5351
  19   2.0000      -7.873543      -214.2500
  20   2.0000      -7.869399      -214.1372
  21   2.0000      -7.825563      -212.9444
  22   2.0000      -7.822822      -212.8698
  23   2.0000      -6.598297      -179.5488
  24   2.0000      -6.597053      -179.5149
  25   2.0000      -5.820410      -158.3814
  26   2.0000      -5.817480      -158.3017
  27   2.0000      -5.816244      -158.2680
  28   2.0000      -5.813325      -158.1886
  29   2.0000      -5.810598      -158.1144
  30   2.0000      -5.806449      -158.0015
  31   2.0000      -5.773123      -157.0947
  32   2.0000      -5.770328      -157.0186
  33   2.0000      -5.765741      -156.8938
  34   2.0000      -5.765675      -156.8920
  35   2.0000      -5.763225      -156.8253
  36   2.0000      -5.762772      -156.8130
  37   2.0000      -4.744103      -129.0936
  38   2.0000      -4.743119      -129.0668
  39   2.0000      -4.742539      -129.0511
  40   2.0000      -4.741914      -129.0340
  41   2.0000      -4.741868      -129.0328
  42   2.0000      -4.740928      -129.0072
  43   2.0000      -1.053532       -28.6681
  44   2.0000      -1.051224       -28.6053
  45   2.0000      -1.012344       -27.5473
  46   2.0000      -1.010522       -27.4977
  47   2.0000      -0.803937       -21.8762
  48   2.0000      -0.755208       -20.5503
  49   2.0000      -0.743558       -20.2332
  50   2.0000      -0.725986       -19.7551
  51   2.0000      -0.722060       -19.6483
  52   2.0000      -0.710442       -19.3321
  53   2.0000      -0.689604       -18.7651
  54   2.0000      -0.674614       -18.3572
  55   2.0000      -0.630269       -17.1505
  56   2.0000      -0.619129       -16.8474
  57   2.0000      -0.602283       -16.3889
  58   2.0000      -0.600552       -16.3419
  59   2.0000      -0.586644       -15.9634
  60   2.0000      -0.525193       -14.2912
  61   2.0000      -0.517197       -14.0737
  62   2.0000      -0.490928       -13.3588
  63   2.0000      -0.484877       -13.1942
  64   2.0000      -0.478830       -13.0296
  65   2.0000      -0.463276       -12.6064
  66   2.0000      -0.453216       -12.3326
  67   2.0000      -0.447724       -12.1832
  68   2.0000      -0.438982       -11.9453
  69   2.0000      -0.432830       -11.7779
  70   2.0000      -0.423610       -11.5270
  71   2.0000      -0.412045       -11.2123
  72   2.0000      -0.405963       -11.0468
  73   2.0000      -0.394471       -10.7341
  74   2.0000      -0.392344       -10.6762
  75   2.0000      -0.388977       -10.5846
  76   2.0000      -0.379454       -10.3255
  77   2.0000      -0.372278       -10.1302
  78   2.0000      -0.363403        -9.8887
  79   2.0000      -0.362172        -9.8552
  80   2.0000      -0.358486        -9.7549
  81   2.0000      -0.352069        -9.5803
  82   2.0000      -0.349128        -9.5003
  83   2.0000      -0.348158        -9.4739
  84   2.0000      -0.344936        -9.3862
  85   2.0000      -0.330335        -8.9889
  86   2.0000      -0.319624        -8.6974
  87   2.0000      -0.307439        -8.3658
  88   2.0000      -0.304899        -8.2967
  89   2.0000      -0.302872        -8.2416
  90   2.0000      -0.300378        -8.1737
  91   2.0000      -0.291831        -7.9411
  92   2.0000      -0.282018        -7.6741
  93   2.0000      -0.279338        -7.6012
  94   2.0000      -0.276260        -7.5174
  95   2.0000      -0.249443        -6.7877
  96   2.0000      -0.237628        -6.4662
  97   2.0000      -0.234873        -6.3912
  98   2.0000      -0.226750        -6.1702
  99   2.0000      -0.222857        -6.0643
 100   2.0000      -0.219086        -5.9616
 101   0.0000      -0.050913        -1.3854
 102   0.0000      -0.031076        -0.8456
 103   0.0000      -0.006796        -0.1849
 104   0.0000      -0.004825        -0.1313
 105   0.0000       0.013177         0.3586

MULLIKEN ATOMIC CHARGES
-----------------------
   0 C :   -0.490711
   1 C :   -0.147899
   2 O :   -0.332381
   3 P :    0.705387
   4 S :   -0.528963
   5 O :   -0.271805
   6 C :   -0.135826
   7 C :   -0.489223
   8 S :   -0.124391
   9 C :   -0.259527
  10 S :   -0.150613
  11 P :    0.659353
  12 S :   -0.500120
  13 O :   -0.308487
  14 C :   -0.160413
  15 C :   -0.480601
  16 O :   -0.286909
  17 C :   -0.092274
  18 C :   -0.529687
  19 H :    0.170503
  20 H :    0.171719
  21 H :    0.172607
  22 H :    0.176916
  23 H :    0.174623
  24 H :    0.178266
  25 H :    0.168883
  26 H :    0.165943
  27 H :    0.169290
  28 H :    0.172824
  29 H :    0.236896
  30 H :    0.231516
  31 H :    0.179668
  32 H :    0.176073
  33 H :    0.172606
  34 H :    0.168147
  35 H :    0.173996
  36 H :    0.179417
  37 H :    0.175411
  38 H :    0.168609
  39 H :    0.171058
  40 H :    0.170119
Sum of atomic charges:    0.0000000

LOEWDIN ATOMIC CHARGES
----------------------
   0 C :   -0.409478
   1 C :    0.024233
   2 O :   -0.670979
   3 P :    0.382582
   4 S :   -0.164337
   5 O :   -0.689002
   6 C :    0.029604
   7 C :   -0.408971
   8 S :    0.172452
   9 C :   -0.419018
  10 S :    0.153142
  11 P :    0.384421
  12 S :   -0.144480
  13 O :   -0.675770
  14 C :    0.028078
  15 C :   -0.411430
  16 O :   -0.675414
  17 C :    0.025804
  18 C :   -0.395457
  19 H :    0.163641
  20 H :    0.161512
  21 H :    0.168608
  22 H :    0.181470
  23 H :    0.190570
  24 H :    0.190050
  25 H :    0.181799
  26 H :    0.161449
  27 H :    0.166140
  28 H :    0.162848
  29 H :    0.196912
  30 H :    0.197478
  31 H :    0.181852
  32 H :    0.191301
  33 H :    0.168454
  34 H :    0.163723
  35 H :    0.161749
  36 H :    0.191538
  37 H :    0.184342
  38 H :    0.164149
  39 H :    0.168761
  40 H :    0.165671

  Mayer bond orders larger than 0.100000
B(  0-C ,  1-C ) :   0.9102 B(  0-C , 19-H ) :   0.9665 B(  0-C , 20-H ) :   0.9627
B(  0-C , 21-H ) :   0.9536 B(  1-C ,  2-O ) :   0.8048 B(  1-C , 22-H ) :   0.9635
B(  1-C , 23-H ) :   0.9489 B(  2-O ,  3-P ) :   1.0820 B(  3-P ,  4-S ) :   1.7068
B(  3-P ,  5-O ) :   1.1472 B(  3-P ,  8-S ) :   1.1171 B(  5-O ,  6-C ) :   0.7286
B(  6-C ,  7-C ) :   0.9193 B(  6-C , 24-H ) :   0.9547 B(  6-C , 25-H ) :   0.9556
B(  7-C , 26-H ) :   0.9699 B(  7-C , 27-H ) :   0.9611 B(  7-C , 28-H ) :   0.9639
B(  8-S ,  9-C ) :   0.8956 B(  9-C , 10-S ) :   0.9001 B(  9-C , 29-H ) :   0.9014
B(  9-C , 30-H ) :   0.9020 B( 10-S , 11-P ) :   1.0241 B( 11-P , 12-S ) :   1.8123
B( 11-P , 13-O ) :   1.0456 B( 11-P , 16-O ) :   1.1496 B( 13-O , 14-C ) :   0.8058
B( 14-C , 15-C ) :   0.9054 B( 14-C , 31-H ) :   0.9673 B( 14-C , 32-H ) :   0.9505
B( 15-C , 33-H ) :   0.9511 B( 15-C , 34-H ) :   0.9645 B( 15-C , 35-H ) :   0.9655
B( 16-O , 17-C ) :   0.7270 B( 17-C , 18-C ) :   0.9235 B( 17-C , 36-H ) :   0.9472
B( 17-C , 37-H ) :   0.9561 B( 18-C , 38-H ) :   0.9729 B( 18-C , 39-H ) :   0.9590
B( 18-C , 40-H ) :   0.9691

Dispersion correction           -0.021786757
FINAL SINGLE POINT ENERGY     -2932.471499243197

DIPOLE MOMENT
-------------

Method             : SCF
Type of density    : Electron Density
Multiplicity       :   1
Irrep              :   0
Energy             : -2932.4962021823257601 Eh
Relativity type    :
Basis              : AO
                                X                 Y                 Z
Electronic contribution:      1.908325927       5.158590859     -11.450776566
Nuclear contribution   :     -1.851404297      -6.220493980      13.416253374
                        -----------------------------------------
Total Dipole Moment    :      0.056921630      -1.061903121       1.965476807
                        -----------------------------------------
Magnitude (a.u.)       :      2.234720875
Magnitude (Debye)      :      5.680209051

Rotational constants in cm-1:             0.012579             0.004973             0.004668
Rotational constants in MHz :           377.097692           149.075137           139.948350

                             ****ORCA TERMINATED NORMALLY****
TOTAL RUN TIME: 0 days 0 hours 1 minutes 49 seconds 501 msec
