                         Program Version 6.0.0  -   RELEASE  -
|  1> ! pbe def2-sv(p) def2/J RI DEFGRID1 loosescf d4 GCP(DFT/SV(P)) printgap
|  2> %output
|  3>     printlevel normal
|  4> end
|  5> * xyz 0 1
|  6> C 4.9482116475 -1.6057069391 -0.747010901
|  7> C 4.440544263 -0.5073974052 -1.6574283985
|  8> O 3.0440810067 -0.2221275738 -1.4337706609
|  9> P 2.5351817246 0.4400638477 -0.0820992884
| 10> S 3.7434706749 1.7316687693 0.7577432196
| 11> O 2.1989783979 -0.8486890603 0.7978738696
| 12> C 2.1349631335 -0.8009275033 2.2311383104
| 13> C 0.9838386751 0.049195631 2.7286402526
| 14> S 0.6802848378 1.1709852967 -0.7770442977
| 15> C 0.0163756743 -0.3735300058 -1.4789456799
| 16> S -0.7941154901 -1.4418728497 -0.2631839597
| 17> P -2.5055493177 -0.2435954971 -0.0126010325
| 18> S -3.251925929 0.6125380266 -1.6178341411
| 19> O -1.9920765789 0.7096234832 1.1441646594
| 20> C -2.6895646884 1.9192582491 1.5162589201
| 21> C -2.0615733509 3.1238760724 0.8438400599
| 22> O -3.5460602857 -1.1474407873 0.7828546566
| 23> C -4.507177051 -1.9859209032 0.1180853553
| 24> C -3.8471872363 -3.1460026001 -0.5988011464
| 25> H 5.9648594377 -1.86261813 -1.02764771
| 26> H 4.9439218692 -1.2610607878 0.2861781241
| 27> H 4.3158732473 -2.4859918221 -0.8277561544
| 28> H 4.481182751 -0.7983704328 -2.707946681
| 29> H 5.0096184667 0.4148389573 -1.5041550136
| 30> H 2.0220983361 -1.8452720115 2.5245368628
| 31> H 3.0843758437 -0.4036467048 2.6047677228
| 32> H 0.9612274001 0.0261035394 3.8134457723
| 33> H 1.1201886348 1.0802327789 2.4004661475
| 34> H 0.0363044236 -0.3183599286 2.342482307
| 35> H 0.8240372741 -0.9435424876 -1.9270941273
| 36> H -0.717767416 -0.0669252108 -2.224880044
| 37> H -3.7450694146 1.8260255515 1.2461427259
| 38> H -2.5916071488 1.9714648328 2.6016453573
| 39> H -2.5510781272 4.0267981481 1.1940859404
| 40> H -1.0009862751 3.1739427603 1.0752347247
| 41> H -2.1728604937 3.0542935917 -0.2362000402
| 42> H -5.1594717614 -2.3261664253 0.9233894636
| 43> H -5.0745950758 -1.3699683479 -0.5870331223
| 44> H -3.1963043927 -3.6889908529 0.0817477156
| 45> H -4.611909934 -3.815367841 -0.9795473983
| 46> H -3.2527372451 -2.7774152852 -1.4337661858
| 47> *
| 48>
| 49>                          ****END OF INPUT****

CARTESIAN COORDINATES (ANGSTROEM)
---------------------------------
  C      4.948212   -1.605707   -0.747011
  C      4.440544   -0.507397   -1.657428
  O      3.044081   -0.222128   -1.433771
  P      2.535182    0.440064   -0.082099
  S      3.743471    1.731669    0.757743
  O      2.198978   -0.848689    0.797874
  C      2.134963   -0.800928    2.231138
  C      0.983839    0.049196    2.728640
  S      0.680285    1.170985   -0.777044
  C      0.016376   -0.373530   -1.478946
  S     -0.794115   -1.441873   -0.263184
  P     -2.505549   -0.243595   -0.012601
  S     -3.251926    0.612538   -1.617834
  O     -1.992077    0.709623    1.144165
  C     -2.689565    1.919258    1.516259
  C     -2.061573    3.123876    0.843840
  O     -3.546060   -1.147441    0.782855
  C     -4.507177   -1.985921    0.118085
  C     -3.847187   -3.146003   -0.598801
  H      5.964859   -1.862618   -1.027648
  H      4.943922   -1.261061    0.286178
  H      4.315873   -2.485992   -0.827756
  H      4.481183   -0.798370   -2.707947
  H      5.009618    0.414839   -1.504155
  H      2.022098   -1.845272    2.524537
  H      3.084376   -0.403647    2.604768
  H      0.961227    0.026104    3.813446
  H      1.120189    1.080233    2.400466
  H      0.036304   -0.318360    2.342482
  H      0.824037   -0.943542   -1.927094
  H     -0.717767   -0.066925   -2.224880
  H     -3.745069    1.826026    1.246143
  H     -2.591607    1.971465    2.601645
  H     -2.551078    4.026798    1.194086
  H     -1.000986    3.173943    1.075235
  H     -2.172860    3.054294   -0.236200
  H     -5.159472   -2.326166    0.923389
  H     -5.074595   -1.369968   -0.587033
  H     -3.196304   -3.688991    0.081748
  H     -4.611910   -3.815368   -0.979547
  H     -3.252737   -2.777415   -1.433766

 Total Charge           Charge          ....    0
 Multiplicity           Mult            ....    1
 Number of Electrons    NEL             ....  202
 Basis Dimension        Dim             ....  334

ORBITAL ENERGIES
----------------

  NO   OCC          E(Eh)            E(eV)
   0   2.0000     -88.047173     -2395.8854
   1   2.0000     -88.039995     -2395.6900
   2   2.0000     -87.993732     -2394.4312
   3   2.0000     -87.988721     -2394.2948
   4   2.0000     -76.430756     -2079.7866
   5   2.0000     -76.426137     -2079.6609
   6   2.0000     -18.797720      -511.5120
   7   2.0000     -18.792739      -511.3764
   8   2.0000     -18.792587      -511.3723
   9   2.0000     -18.790248      -511.3086
  10   2.0000      -9.956970      -270.9429
  11   2.0000      -9.955751      -270.9098
  12   2.0000      -9.953925      -270.8601
  13   2.0000      -9.953845      -270.8579
  14   2.0000      -9.947934      -270.6971
  15   2.0000      -9.887728      -269.0588
  16   2.0000      -9.885788      -269.0060
  17   2.0000      -9.877875      -268.7907
  18   2.0000      -9.873979      -268.6846
  19   2.0000      -7.692457      -209.3224
  20   2.0000      -7.685274      -209.1269
  21   2.0000      -7.638562      -207.8558
  22   2.0000      -7.633838      -207.7273
  23   2.0000      -6.428469      -174.9275
  24   2.0000      -6.423883      -174.8027
  25   2.0000      -5.720218      -155.6551
  26   2.0000      -5.717104      -155.5703
  27   2.0000      -5.713512      -155.4726
  28   2.0000      -5.709677      -155.3682
  29   2.0000      -5.709297      -155.3579
  30   2.0000      -5.701929      -155.1574
  31   2.0000      -5.667334      -154.2160
  32   2.0000      -5.662770      -154.0918
  33   2.0000      -5.659344      -153.9986
  34   2.0000      -5.658745      -153.9823
  35   2.0000      -5.654523      -153.8674
  36   2.0000      -5.653939      -153.8515
  37   2.0000      -4.650974      -126.5594
  38   2.0000      -4.650114      -126.5360
  39   2.0000      -4.649070      -126.5076
  40   2.0000      -4.646254      -126.4310
  41   2.0000      -4.645810      -126.4189
  42   2.0000      -4.644384      -126.3801
  43   2.0000      -0.990391       -26.9499
  44   2.0000      -0.986180       -26.8353
  45   2.0000      -0.948419       -25.8078
  46   2.0000      -0.945166       -25.7193
  47   2.0000      -0.766330       -20.8529
  48   2.0000      -0.724011       -19.7013
  49   2.0000      -0.707946       -19.2642
  50   2.0000      -0.687657       -18.7121
  51   2.0000      -0.683846       -18.6084
  52   2.0000      -0.674950       -18.3663
  53   2.0000      -0.656775       -17.8718
  54   2.0000      -0.641227       -17.4487
  55   2.0000      -0.602160       -16.3856
  56   2.0000      -0.594659       -16.1815
  57   2.0000      -0.576305       -15.6821
  58   2.0000      -0.570900       -15.5350
  59   2.0000      -0.559796       -15.2328
  60   2.0000      -0.503125       -13.6907
  61   2.0000      -0.493142       -13.4191
  62   2.0000      -0.472971       -12.8702
  63   2.0000      -0.470423       -12.8009
  64   2.0000      -0.462889       -12.5959
  65   2.0000      -0.445355       -12.1187
  66   2.0000      -0.442085       -12.0298
  67   2.0000      -0.437378       -11.9016
  68   2.0000      -0.429603       -11.6901
  69   2.0000      -0.415094       -11.2953
  70   2.0000      -0.411055       -11.1854
  71   2.0000      -0.398388       -10.8407
  72   2.0000      -0.395372       -10.7586
  73   2.0000      -0.392825       -10.6893
  74   2.0000      -0.381128       -10.3710
  75   2.0000      -0.379960       -10.3392
  76   2.0000      -0.365762        -9.9529
  77   2.0000      -0.357526        -9.7288
  78   2.0000      -0.353239        -9.6121
  79   2.0000      -0.351341        -9.5605
  80   2.0000      -0.347148        -9.4464
  81   2.0000      -0.343672        -9.3518
  82   2.0000      -0.341458        -9.2915
  83   2.0000      -0.337895        -9.1946
  84   2.0000      -0.329206        -8.9582
  85   2.0000      -0.319643        -8.6979
  86   2.0000      -0.310153        -8.4397
  87   2.0000      -0.299944        -8.1619
  88   2.0000      -0.295281        -8.0350
  89   2.0000      -0.290231        -7.8976
  90   2.0000      -0.286354        -7.7921
  91   2.0000      -0.279937        -7.6175
  92   2.0000      -0.274288        -7.4638
  93   2.0000      -0.268487        -7.3059
  94   2.0000      -0.258217        -7.0264
  95   2.0000      -0.232723        -6.3327
  96   2.0000      -0.217885        -5.9290
  97   2.0000      -0.213098        -5.7987
  98   2.0000      -0.209633        -5.7044
  99   2.0000      -0.207130        -5.6363
 100   2.0000      -0.203544        -5.5387
 101   0.0000      -0.042977        -1.1695
 102   0.0000      -0.023704        -0.6450
 103   0.0000      -0.016258        -0.4424
 104   0.0000       0.001739         0.0473
 105   0.0000       0.009600         0.2612

MULLIKEN ATOMIC CHARGES
-----------------------
   0 C :   -0.308291
   1 C :   -0.003306
   2 O :   -0.384315
   3 P :    0.607173
   4 S :   -0.320153
   5 O :   -0.379204
   6 C :    0.000501
   7 C :   -0.334736
   8 S :   -0.053480
   9 C :   -0.375470
  10 S :   -0.065302
  11 P :    0.609276
  12 S :   -0.334081
  13 O :   -0.356575
  14 C :   -0.000838
  15 C :   -0.298597
  16 O :   -0.372679
  17 C :   -0.005594
  18 C :   -0.317068
  19 H :    0.113093
  20 H :    0.124887
  21 H :    0.115543
  22 H :    0.105713
  23 H :    0.114878
  24 H :    0.101628
  25 H :    0.107345
  26 H :    0.104671
  27 H :    0.122583
  28 H :    0.141873
  29 H :    0.194451
  30 H :    0.195948
  31 H :    0.101928
  32 H :    0.107979
  33 H :    0.107230
  34 H :    0.128337
  35 H :    0.125642
  36 H :    0.106561
  37 H :    0.112884
  38 H :    0.117959
  39 H :    0.114933
  40 H :    0.126676
Sum of atomic charges:   -0.0000000

LOEWDIN ATOMIC CHARGES
----------------------
   0 C :   -0.365352
   1 C :   -0.115526
   2 O :   -0.249653
   3 P :    0.571639
   4 S :   -0.318993
   5 O :   -0.248102
   6 C :   -0.119916
   7 C :   -0.375374
   8 S :    0.102529
   9 C :   -0.482668
  10 S :    0.107566
  11 P :    0.571975
  12 S :   -0.321179
  13 O :   -0.235196
  14 C :   -0.111036
  15 C :   -0.363122
  16 O :   -0.245706
  17 C :   -0.119700
  18 C :   -0.369473
  19 H :    0.130935
  20 H :    0.123347
  21 H :    0.125848
  22 H :    0.118916
  23 H :    0.112932
  24 H :    0.117760
  25 H :    0.107461
  26 H :    0.127844
  27 H :    0.118889
  28 H :    0.120579
  29 H :    0.136276
  30 H :    0.131007
  31 H :    0.109265
  32 H :    0.119774
  33 H :    0.128191
  34 H :    0.126595
  35 H :    0.123709
  36 H :    0.119363
  37 H :    0.110991
  38 H :    0.124536
  39 H :    0.131982
  40 H :    0.121087

  Mayer bond orders larger than 0.100000
B(  0-C ,  1-C ) :   1.1625 B(  0-C , 19-H ) :   0.9380 B(  0-C , 20-H ) :   0.9359
B(  0-C , 21-H ) :   0.9462 B(  1-C ,  2-O ) :   0.9066 B(  1-C , 22-H ) :   0.9357
B(  1-C , 23-H ) :   0.9178 B(  2-O ,  3-P ) :   1.0912 B(  3-P ,  4-S ) :   1.6311
B(  3-P ,  5-O ) :   1.0853 B(  3-P ,  8-S ) :   0.9868 B(  5-O ,  6-C ) :   0.9039
B(  6-C ,  7-C ) :   1.1643 B(  6-C , 24-H ) :   0.9330 B(  6-C , 25-H ) :   0.9175
B(  7-C , 26-H ) :   0.9371 B(  7-C , 27-H ) :   0.9339 B(  7-C , 28-H ) :   0.9280
B(  8-S ,  9-C ) :   0.9859 B(  9-C , 10-S ) :   0.9998 B(  9-C , 29-H ) :   0.8891
B(  9-C , 30-H ) :   0.8720 B( 10-S , 11-P ) :   0.9693 B( 10-S , 12-S ) :   0.1101
B( 11-P , 12-S ) :   1.5847 B( 11-P , 13-O ) :   1.1318 B( 11-P , 16-O ) :   1.1131
B( 13-O , 14-C ) :   0.8883 B( 14-C , 15-C ) :   1.1711 B( 14-C , 31-H ) :   0.9163
B( 14-C , 32-H ) :   0.9333 B( 15-C , 33-H ) :   0.9391 B( 15-C , 34-H ) :   0.9427
B( 15-C , 35-H ) :   0.9365 B( 16-O , 17-C ) :   0.9084 B( 17-C , 18-C ) :   1.1649
B( 17-C , 36-H ) :   0.9336 B( 17-C , 37-H ) :   0.9154 B( 18-C , 38-H ) :   0.9451
B( 18-C , 39-H ) :   0.9380 B( 18-C , 40-H ) :   0.9352

Dispersion correction           -0.065690473
FINAL SINGLE POINT ENERGY     -2929.523551606280

DIPOLE MOMENT
-------------

Method             : SCF
Type of density    : Electron Density
Multiplicity       :   1
Irrep              :   0
Energy             : -2929.6440272040986201 Eh
Relativity type    :
Basis              : AO
                                X                 Y                 Z
Electronic contribution:      0.870013441       6.852997424      -6.907325437
Nuclear contribution   :     -1.271442071      -8.129163238       7.324592706
                        -----------------------------------------
Total Dipole Moment    :     -0.401428630      -1.276165814       0.417267268
                        -----------------------------------------
Magnitude (a.u.)       :      1.401376503
Magnitude (Debye)      :      3.562015993

Rotational constants in cm-1:             0.013470             0.004634             0.004295
Rotational constants in MHz :           403.830965           138.937107           128.760332

                             ****ORCA TERMINATED NORMALLY****
TOTAL RUN TIME: 0 days 0 hours 0 minutes 21 seconds 519 msec
