                         Program Version 6.0.0  -   RELEASE  -
|  1> ! r2scan-3c def2/J RI DEFGRID2 scfconv6 printgap
|  2> %output
|  3>     printlevel normal
|  4> end
|  5> * xyz 0 1
|  6> C 1.8755324311 0.0763484874 0.1901665847
|  7> C 0.6877879823 0.2109492246 -0.367416573
|  8> C -0.528872639 -0.5664956503 0.0328408416
|  9> O -1.6393126487 0.3129760749 0.0901701346
| 10> H 2.7247195385 0.6458259734 -0.1439465417
| 11> H 2.0478379742 -0.6178446488 0.9959090721
| 12> H 0.516225269 0.9167657866 -1.1676357608
| 13> H -0.36700202 -1.0494582919 1.0050532896
| 14> H -0.7115196829 -1.3473768016 -0.7218934417
| 15> H -2.4315732577 -0.1889392815 0.3220062197
| 16> *
| 17>
| 18>                          ****END OF INPUT****

CARTESIAN COORDINATES (ANGSTROEM)
---------------------------------
  C      1.875532    0.076348    0.190167
  C      0.687788    0.210949   -0.367417
  C     -0.528873   -0.566496    0.032841
  O     -1.639313    0.312976    0.090170
  H      2.724720    0.645826   -0.143947
  H      2.047838   -0.617845    0.995909
  H      0.516225    0.916766   -1.167636
  H     -0.367002   -1.049458    1.005053
  H     -0.711520   -1.347377   -0.721893
  H     -2.431573   -0.188939    0.322006

 Total Charge           Charge          ....    0
 Multiplicity           Mult            ....    1
 Number of Electrons    NEL             ....   32
 Basis Dimension        Dim             ....  111

ORBITAL ENERGIES
----------------

  NO   OCC          E(Eh)            E(eV)
   0   2.0000     -18.951671      -515.7012
   1   2.0000     -10.083630      -274.3895
   2   2.0000     -10.036331      -273.1025
   3   2.0000     -10.026225      -272.8275
   4   2.0000      -0.987773       -26.8787
   5   2.0000      -0.754673       -20.5357
   6   2.0000      -0.644990       -17.5511
   7   2.0000      -0.530674       -14.4404
   8   2.0000      -0.484440       -13.1823
   9   2.0000      -0.442595       -12.0436
  10   2.0000      -0.413518       -11.2524
  11   2.0000      -0.376191       -10.2367
  12   2.0000      -0.340177        -9.2567
  13   2.0000      -0.299775        -8.1573
  14   2.0000      -0.257604        -7.0098
  15   2.0000      -0.233371        -6.3503
  16   0.0000      -0.022060        -0.6003
  17   0.0000       0.065912         1.7936
  18   0.0000       0.105810         2.8792
  19   0.0000       0.139614         3.7991
  20   0.0000       0.144858         3.9418

MULLIKEN ATOMIC CHARGES
-----------------------
   0 C :   -0.346654
   1 C :   -0.079111
   2 C :   -0.140710
   3 O :   -0.430210
   4 H :    0.143259
   5 H :    0.139351
   6 H :    0.163738
   7 H :    0.128692
   8 H :    0.127006
   9 H :    0.294638
Sum of atomic charges:   -0.0000000

LOEWDIN ATOMIC CHARGES
----------------------
   0 C :   -0.303396
   1 C :   -0.163533
   2 C :    0.013318
   3 O :   -0.621027
   4 H :    0.158673
   5 H :    0.156011
   6 H :    0.170252
   7 H :    0.159856
   8 H :    0.163293
   9 H :    0.266553

  Mayer bond orders larger than 0.100000
B(  0-C ,  1-C ) :   1.9128 B(  0-C ,  4-H ) :   0.9556 B(  0-C ,  5-H ) :   0.9813
B(  1-C ,  2-C ) :   0.9823 B(  1-C ,  6-H ) :   0.9280 B(  2-C ,  3-O ) :   0.9051
B(  2-C ,  7-H ) :   0.9927 B(  2-C ,  8-H ) :   0.9428 B(  3-O ,  9-H ) :   0.8993

Dispersion correction           -0.001692545
FINAL SINGLE POINT ENERGY      -193.065676755901

DIPOLE MOMENT
-------------

Method             : SCF
Type of density    : Electron Density
Multiplicity       :   1
Irrep              :   0
Energy             :  -193.0688409759641218 Eh
Relativity type    :
Basis              : AO
                                X                 Y                 Z
Electronic contribution:     -1.760738306       0.937350164      -0.194854754
Nuclear contribution   :      1.644351728      -1.534915453       0.272934493
                        -----------------------------------------
Total Dipole Moment    :     -0.116386579      -0.597565288       0.078079738
                        -----------------------------------------
Magnitude (a.u.)       :      0.613780543
Magnitude (Debye)      :      1.560106157

Rotational constants in cm-1:             0.999775             0.142806             0.135263
Rotational constants in MHz :         29972.487991          4281.208703          4055.078480

                             ****ORCA TERMINATED NORMALLY****
TOTAL RUN TIME: 0 days 0 hours 0 minutes 7 seconds 236 msec
