                         Program Version 6.0.0  -   RELEASE  -
|  1> ! pbe def2-sv(p) def2/J RI DEFGRID1 loosescf d4 GCP(DFT/SV(P)) printgap
|  2> %output
|  3>     printlevel normal
|  4> end
|  5> * xyz 0 1
|  6> C 3.8871541057 -1.2937974564 -2.5296686127
|  7> C 4.1719278798 -1.6056538757 -1.0745834911
|  8> O 2.9719801994 -1.6444250332 -0.2823597298
|  9> P 2.1130201812 -0.3446417963 0.0320315023
| 10> S 3.1525884961 1.2817438573 0.3921568039
| 11> O 1.1875601455 -0.8676362334 1.205951375
| 12> C 1.479581693 -0.6102889998 2.5919551516
| 13> C 2.6715879326 -1.4138171211 3.0680577902
| 14> S 0.7078592095 -0.2622254584 -1.5408836993
| 15> C 0.1633968609 1.4422245017 -1.255441402
| 16> S -0.6209655355 1.6908886432 0.3640387063
| 17> P -2.2515742518 0.3913739345 0.058797573
| 18> S -2.9828634527 0.2341616903 -1.7563054039
| 19> O -3.3261708962 0.8269529624 1.1502394441
| 20> C -4.3516496385 1.7985851793 0.8786880132
| 21> C -3.783901103 3.1925452244 0.7059740082
| 22> O -1.6765902087 -0.9240198523 0.7262871375
| 23> C -2.2524292075 -2.2304584328 0.4989662175
| 24> C -1.4017029508 -3.0144872752 -0.4806791742
| 25> H 3.1322517375 -1.9711700798 -2.9210886489
| 26> H 3.5241130479 -0.271674191 -2.6284254458
| 27> H 4.8011878401 -1.3996599774 -3.1051915536
| 28> H 4.8442762521 -0.8555912809 -0.6458042247
| 29> H 4.5986529698 -2.6020036268 -0.9516867919
| 30> H 1.6587406264 0.4630697986 2.7163053694
| 31> H 0.561364705 -0.8906906343 3.1102727372
| 32> H 2.8070904902 -1.2612630329 4.1341759503
| 33> H 2.5173529635 -2.4708723872 2.8682137866
| 34> H 3.5691326683 -1.0839567147 2.5458664679
| 35> H -0.548501578 1.6712366391 -2.0474207581
| 36> H 1.0210764916 2.1135040195 -1.2824478773
| 37> H -4.8901267726 1.488288133 -0.0225976691
| 38> H -5.0094385629 1.7345512436 1.7464138696
| 39> H -3.1592189162 3.4547584731 1.5562271822
| 40> H -3.1799030246 3.2390184841 -0.199305405
| 41> H -4.5986199888 3.9045955044 0.6224148907
| 42> H -2.2709440584 -2.7038583346 1.4819519296
| 43> H -3.2744784717 -2.1160949546 0.1263352262
| 44> H -1.4319203175 -2.5473156784 -1.4630576522
| 45> H -0.3692747 -3.0370521755 -0.13967928
| 46> H -1.7813725922 -4.0283647886 -0.5554783628
| 47> *
| 48>
| 49>                          ****END OF INPUT****

CARTESIAN COORDINATES (ANGSTROEM)
---------------------------------
  C      3.887154   -1.293797   -2.529669
  C      4.171928   -1.605654   -1.074583
  O      2.971980   -1.644425   -0.282360
  P      2.113020   -0.344642    0.032032
  S      3.152588    1.281744    0.392157
  O      1.187560   -0.867636    1.205951
  C      1.479582   -0.610289    2.591955
  C      2.671588   -1.413817    3.068058
  S      0.707859   -0.262225   -1.540884
  C      0.163397    1.442225   -1.255441
  S     -0.620966    1.690889    0.364039
  P     -2.251574    0.391374    0.058798
  S     -2.982863    0.234162   -1.756305
  O     -3.326171    0.826953    1.150239
  C     -4.351650    1.798585    0.878688
  C     -3.783901    3.192545    0.705974
  O     -1.676590   -0.924020    0.726287
  C     -2.252429   -2.230458    0.498966
  C     -1.401703   -3.014487   -0.480679
  H      3.132252   -1.971170   -2.921089
  H      3.524113   -0.271674   -2.628425
  H      4.801188   -1.399660   -3.105192
  H      4.844276   -0.855591   -0.645804
  H      4.598653   -2.602004   -0.951687
  H      1.658741    0.463070    2.716305
  H      0.561365   -0.890691    3.110273
  H      2.807090   -1.261263    4.134176
  H      2.517353   -2.470872    2.868214
  H      3.569133   -1.083957    2.545866
  H     -0.548502    1.671237   -2.047421
  H      1.021076    2.113504   -1.282448
  H     -4.890127    1.488288   -0.022598
  H     -5.009439    1.734551    1.746414
  H     -3.159219    3.454758    1.556227
  H     -3.179903    3.239018   -0.199305
  H     -4.598620    3.904596    0.622415
  H     -2.270944   -2.703858    1.481952
  H     -3.274478   -2.116095    0.126335
  H     -1.431920   -2.547316   -1.463058
  H     -0.369275   -3.037052   -0.139679
  H     -1.781373   -4.028365   -0.555478

 Total Charge           Charge          ....    0
 Multiplicity           Mult            ....    1
 Number of Electrons    NEL             ....  202
 Basis Dimension        Dim             ....  334

ORBITAL ENERGIES
----------------

  NO   OCC          E(Eh)            E(eV)
   0   2.0000     -88.042857     -2395.7679
   1   2.0000     -88.042234     -2395.7510
   2   2.0000     -87.990281     -2394.3373
   3   2.0000     -87.988795     -2394.2968
   4   2.0000     -76.426355     -2079.6668
   5   2.0000     -76.425096     -2079.6326
   6   2.0000     -18.795722      -511.4576
   7   2.0000     -18.791633      -511.3463
   8   2.0000     -18.786372      -511.2032
   9   2.0000     -18.784313      -511.1471
  10   2.0000      -9.955185      -270.8944
  11   2.0000      -9.953846      -270.8579
  12   2.0000      -9.950746      -270.7736
  13   2.0000      -9.949152      -270.7302
  14   2.0000      -9.947267      -270.6789
  15   2.0000      -9.884830      -268.9799
  16   2.0000      -9.883149      -268.9342
  17   2.0000      -9.882053      -268.9043
  18   2.0000      -9.874933      -268.7106
  19   2.0000      -7.687902      -209.1985
  20   2.0000      -7.687095      -209.1765
  21   2.0000      -7.635151      -207.7630
  22   2.0000      -7.633739      -207.7246
  23   2.0000      -6.423894      -174.8030
  24   2.0000      -6.422704      -174.7707
  25   2.0000      -5.715751      -155.5335
  26   2.0000      -5.714959      -155.5120
  27   2.0000      -5.712575      -155.4471
  28   2.0000      -5.711731      -155.4241
  29   2.0000      -5.704689      -155.2325
  30   2.0000      -5.703909      -155.2113
  31   2.0000      -5.663947      -154.1238
  32   2.0000      -5.662512      -154.0848
  33   2.0000      -5.655775      -153.9015
  34   2.0000      -5.655475      -153.8933
  35   2.0000      -5.654541      -153.8679
  36   2.0000      -5.653895      -153.8503
  37   2.0000      -4.646233      -126.4304
  38   2.0000      -4.645645      -126.4144
  39   2.0000      -4.645101      -126.3996
  40   2.0000      -4.644570      -126.3852
  41   2.0000      -4.644414      -126.3809
  42   2.0000      -4.643381      -126.3528
  43   2.0000      -0.986850       -26.8535
  44   2.0000      -0.983393       -26.7595
  45   2.0000      -0.945364       -25.7247
  46   2.0000      -0.941136       -25.6096
  47   2.0000      -0.765757       -20.8373
  48   2.0000      -0.720343       -19.6015
  49   2.0000      -0.706307       -19.2196
  50   2.0000      -0.686373       -18.6772
  51   2.0000      -0.682983       -18.5849
  52   2.0000      -0.672878       -18.3099
  53   2.0000      -0.651787       -17.7360
  54   2.0000      -0.639900       -17.4126
  55   2.0000      -0.603812       -16.4305
  56   2.0000      -0.592681       -16.1277
  57   2.0000      -0.571552       -15.5527
  58   2.0000      -0.570414       -15.5218
  59   2.0000      -0.556977       -15.1561
  60   2.0000      -0.498616       -13.5680
  61   2.0000      -0.492519       -13.4021
  62   2.0000      -0.473235       -12.8774
  63   2.0000      -0.467726       -12.7275
  64   2.0000      -0.456824       -12.4308
  65   2.0000      -0.440003       -11.9731
  66   2.0000      -0.439149       -11.9499
  67   2.0000      -0.436726       -11.8839
  68   2.0000      -0.426315       -11.6006
  69   2.0000      -0.415466       -11.3054
  70   2.0000      -0.408301       -11.1104
  71   2.0000      -0.393302       -10.7023
  72   2.0000      -0.391223       -10.6457
  73   2.0000      -0.386807       -10.5256
  74   2.0000      -0.378292       -10.2938
  75   2.0000      -0.377354       -10.2683
  76   2.0000      -0.369994       -10.0681
  77   2.0000      -0.357301        -9.7227
  78   2.0000      -0.352043        -9.5796
  79   2.0000      -0.348457        -9.4820
  80   2.0000      -0.347689        -9.4611
  81   2.0000      -0.344890        -9.3849
  82   2.0000      -0.341175        -9.2838
  83   2.0000      -0.337082        -9.1725
  84   2.0000      -0.332669        -9.0524
  85   2.0000      -0.319304        -8.6887
  86   2.0000      -0.303467        -8.2578
  87   2.0000      -0.296354        -8.0642
  88   2.0000      -0.295180        -8.0323
  89   2.0000      -0.287692        -7.8285
  90   2.0000      -0.279427        -7.6036
  91   2.0000      -0.276645        -7.5279
  92   2.0000      -0.265593        -7.2271
  93   2.0000      -0.263165        -7.1611
  94   2.0000      -0.261723        -7.1218
  95   2.0000      -0.231380        -6.2962
  96   2.0000      -0.217219        -5.9108
  97   2.0000      -0.215744        -5.8707
  98   2.0000      -0.208649        -5.6776
  99   2.0000      -0.203046        -5.5252
 100   2.0000      -0.200462        -5.4548
 101   0.0000      -0.045242        -1.2311
 102   0.0000      -0.024437        -0.6650
 103   0.0000      -0.000639        -0.0174
 104   0.0000       0.002204         0.0600
 105   0.0000       0.008946         0.2434

MULLIKEN ATOMIC CHARGES
-----------------------
   0 C :   -0.315066
   1 C :   -0.005465
   2 O :   -0.374239
   3 P :    0.619922
   4 S :   -0.338564
   5 O :   -0.352798
   6 C :   -0.001445
   7 C :   -0.304240
   8 S :   -0.067786
   9 C :   -0.360307
  10 S :   -0.071938
  11 P :    0.611817
  12 S :   -0.341767
  13 O :   -0.372813
  14 C :   -0.004072
  15 C :   -0.313955
  16 O :   -0.354901
  17 C :   -0.001671
  18 C :   -0.292273
  19 H :    0.119350
  20 H :    0.126706
  21 H :    0.113766
  22 H :    0.111297
  23 H :    0.106063
  24 H :    0.111553
  25 H :    0.104380
  26 H :    0.110956
  27 H :    0.114146
  28 H :    0.119826
  29 H :    0.190855
  30 H :    0.190035
  31 H :    0.111000
  32 H :    0.104360
  33 H :    0.118016
  34 H :    0.124407
  35 H :    0.112656
  36 H :    0.102638
  37 H :    0.101385
  38 H :    0.127040
  39 H :    0.118334
  40 H :    0.102789
Sum of atomic charges:   -0.0000000

LOEWDIN ATOMIC CHARGES
----------------------
   0 C :   -0.369362
   1 C :   -0.118969
   2 O :   -0.244314
   3 P :    0.572577
   4 S :   -0.326713
   5 O :   -0.229542
   6 C :   -0.117707
   7 C :   -0.364305
   8 S :    0.109462
   9 C :   -0.480538
  10 S :    0.100661
  11 P :    0.571304
  12 S :   -0.328479
  13 O :   -0.248705
  14 C :   -0.120308
  15 C :   -0.368890
  16 O :   -0.235874
  17 C :   -0.110646
  18 C :   -0.362545
  19 H :    0.125029
  20 H :    0.121211
  21 H :    0.131405
  22 H :    0.110705
  23 H :    0.119110
  24 H :    0.109534
  25 H :    0.118231
  26 H :    0.129673
  27 H :    0.125065
  28 H :    0.121478
  29 H :    0.131047
  30 H :    0.130568
  31 H :    0.109787
  32 H :    0.118285
  33 H :    0.124640
  34 H :    0.120256
  35 H :    0.130764
  36 H :    0.116642
  37 H :    0.107767
  38 H :    0.123303
  39 H :    0.123109
  40 H :    0.125282

  Mayer bond orders larger than 0.100000
B(  0-C ,  1-C ) :   1.1661 B(  0-C , 19-H ) :   0.9445 B(  0-C , 20-H ) :   0.9356
B(  0-C , 21-H ) :   0.9377 B(  1-C ,  2-O ) :   0.9087 B(  1-C , 22-H ) :   0.9165
B(  1-C , 23-H ) :   0.9340 B(  2-O ,  3-P ) :   1.1061 B(  3-P ,  4-S ) :   1.5816
B(  3-P ,  5-O ) :   1.1250 B(  3-P ,  8-S ) :   0.9599 B(  4-S ,  8-S ) :   0.1071
B(  5-O ,  6-C ) :   0.9058 B(  6-C ,  7-C ) :   1.1618 B(  6-C , 24-H ) :   0.9158
B(  6-C , 25-H ) :   0.9332 B(  7-C , 26-H ) :   0.9402 B(  7-C , 27-H ) :   0.9467
B(  7-C , 28-H ) :   0.9371 B(  8-S ,  9-C ) :   1.0076 B(  9-C , 10-S ) :   1.0024
B(  9-C , 29-H ) :   0.8862 B(  9-C , 30-H ) :   0.8845 B( 10-S , 11-P ) :   0.9598
B( 10-S , 12-S ) :   0.1096 B( 11-P , 12-S ) :   1.5799 B( 11-P , 13-O ) :   1.1109
B( 11-P , 16-O ) :   1.1425 B( 13-O , 14-C ) :   0.9112 B( 14-C , 15-C ) :   1.1645
B( 14-C , 31-H ) :   0.9149 B( 14-C , 32-H ) :   0.9339 B( 15-C , 33-H ) :   0.9451
B( 15-C , 34-H ) :   0.9359 B( 15-C , 35-H ) :   0.9382 B( 16-O , 17-C ) :   0.8944
B( 17-C , 18-C ) :   1.1720 B( 17-C , 36-H ) :   0.9340 B( 17-C , 37-H ) :   0.9140
B( 18-C , 38-H ) :   0.9382 B( 18-C , 39-H ) :   0.9428 B( 18-C , 40-H ) :   0.9394

Dispersion correction           -0.067689023
FINAL SINGLE POINT ENERGY     -2929.527884772760

DIPOLE MOMENT
-------------

Method             : SCF
Type of density    : Electron Density
Multiplicity       :   1
Irrep              :   0
Energy             : -2929.6449511654632261 Eh
Relativity type    :
Basis              : AO
                                X                 Y                 Z
Electronic contribution:     -2.513142657       8.158027492      -4.110335785
Nuclear contribution   :      2.469426756      -8.769181457       4.674060651
                        -----------------------------------------
Total Dipole Moment    :     -0.043715901      -0.611153966       0.563724866
                        -----------------------------------------
Magnitude (a.u.)       :      0.832589920
Magnitude (Debye)      :      2.116275393

Rotational constants in cm-1:             0.012825             0.005134             0.005015
Rotational constants in MHz :           384.478605           153.915242           150.343002

                             ****ORCA TERMINATED NORMALLY****
TOTAL RUN TIME: 0 days 0 hours 0 minutes 23 seconds 299 msec
