                         Program Version 6.0.0  -   RELEASE  -
|  1> ! r2scan-3c def2/J RI DEFGRID2 scfconv6 printgap
|  2> %output
|  3>     printlevel normal
|  4> end
|  5> * xyz 0 1
|  6> C 5.5606358662 0.3766319342 -0.9344687573
|  7> C 4.788371662 -0.9202134919 -1.0536965918
|  8> O 3.6380122541 -0.944223931 -0.1842246479
|  9> P 2.3725718389 -0.0247662089 -0.425131416
| 10> S 1.9243063695 0.2854679393 -2.3128513007
| 11> O 2.7606409606 1.2659676716 0.4165402654
| 12> C 1.9906621454 2.4803727223 0.4404477181
| 13> C 1.1433048931 2.556018252 1.6950494059
| 14> S 0.9947988589 -1.0847850535 0.7667145535
| 15> C -0.0226182759 -1.8276330041 -0.561671828
| 16> S -1.7481474796 -1.9802815479 -0.0710810887
| 17> P -2.1455463874 0.0894520572 0.2801135141
| 18> S -1.2883371446 1.3790872044 -0.914496361
| 19> O -1.7441450323 0.3363847274 1.7842664268
| 20> C -2.2328120744 -0.4547755098 2.8962481384
| 21> C -3.4217732133 0.2170548326 3.5516226553
| 22> O -3.7334029437 0.1497037374 0.329020726
| 23> C -4.5445740322 0.3457834032 -0.842938736
| 24> C -4.4490423548 -0.8125518903 -1.814465374
| 25> H 4.9566149659 1.2017030329 -1.3099617657
| 26> H 5.8117121831 0.5699699746 0.1050923763
| 27> H 6.4708557508 0.3094868009 -1.5221171028
| 28> H 5.378847873 -1.7765075424 -0.7255617062
| 29> H 4.4457731978 -1.0723233896 -2.0822317108
| 30> H 2.7323344064 3.2813525587 0.4184746371
| 31> H 1.3697957624 2.535821461 -0.4602792118
| 32> H 1.7651644154 2.4033597478 2.5725793156
| 33> H 0.6740784831 3.5333559458 1.7459486212
| 34> H 0.3634514025 1.7969718866 1.6773553938
| 35> H 0.3273482891 -2.836387172 -0.7659133956
| 36> H 0.0577945952 -1.1918746645 -1.4483013794
| 37> H -2.4903050576 -1.4537734687 2.5341166023
| 38> H -1.3814348118 -0.5187500384 3.5763872717
| 39> H -4.2564849803 0.2666948199 2.8578423629
| 40> H -3.714738601 -0.3573288364 4.4248400065
| 41> H -3.1584122757 1.225874097 3.8572206282
| 42> H -5.5543484159 0.4531142081 -0.4441669273
| 43> H -4.2340103617 1.2783406498 -1.3241375716
| 44> H -4.6355872326 -1.7533513376 -1.3027753714
| 45> H -5.1816891222 -0.6782041542 -2.6038511794
| 46> H -3.4560259347 -0.8456939301 -2.2603565804
| 47> *
| 48>
| 49>                          ****END OF INPUT****

CARTESIAN COORDINATES (ANGSTROEM)
---------------------------------
  C      5.560636    0.376632   -0.934469
  C      4.788372   -0.920213   -1.053697
  O      3.638012   -0.944224   -0.184225
  P      2.372572   -0.024766   -0.425131
  S      1.924306    0.285468   -2.312851
  O      2.760641    1.265968    0.416540
  C      1.990662    2.480373    0.440448
  C      1.143305    2.556018    1.695049
  S      0.994799   -1.084785    0.766715
  C     -0.022618   -1.827633   -0.561672
  S     -1.748147   -1.980282   -0.071081
  P     -2.145546    0.089452    0.280114
  S     -1.288337    1.379087   -0.914496
  O     -1.744145    0.336385    1.784266
  C     -2.232812   -0.454776    2.896248
  C     -3.421773    0.217055    3.551623
  O     -3.733403    0.149704    0.329021
  C     -4.544574    0.345783   -0.842939
  C     -4.449042   -0.812552   -1.814465
  H      4.956615    1.201703   -1.309962
  H      5.811712    0.569970    0.105092
  H      6.470856    0.309487   -1.522117
  H      5.378848   -1.776508   -0.725562
  H      4.445773   -1.072323   -2.082232
  H      2.732334    3.281353    0.418475
  H      1.369796    2.535821   -0.460279
  H      1.765164    2.403360    2.572579
  H      0.674078    3.533356    1.745949
  H      0.363451    1.796972    1.677355
  H      0.327348   -2.836387   -0.765913
  H      0.057795   -1.191875   -1.448301
  H     -2.490305   -1.453773    2.534117
  H     -1.381435   -0.518750    3.576387
  H     -4.256485    0.266695    2.857842
  H     -3.714739   -0.357329    4.424840
  H     -3.158412    1.225874    3.857221
  H     -5.554348    0.453114   -0.444167
  H     -4.234010    1.278341   -1.324138
  H     -4.635587   -1.753351   -1.302775
  H     -5.181689   -0.678204   -2.603851
  H     -3.456026   -0.845694   -2.260357

 Total Charge           Charge          ....    0
 Multiplicity           Mult            ....    1
 Number of Electrons    NEL             ....  202
 Basis Dimension        Dim             ....  539

ORBITAL ENERGIES
----------------

  NO   OCC          E(Eh)            E(eV)
   0   2.0000     -88.578126     -2410.3333
   1   2.0000     -88.569579     -2410.1008
   2   2.0000     -88.517597     -2408.6863
   3   2.0000     -88.514543     -2408.6032
   4   2.0000     -76.914960     -2092.9625
   5   2.0000     -76.907421     -2092.7573
   6   2.0000     -18.995894      -516.9046
   7   2.0000     -18.991842      -516.7943
   8   2.0000     -18.984971      -516.6073
   9   2.0000     -18.981036      -516.5002
  10   2.0000     -10.102968      -274.9157
  11   2.0000     -10.102819      -274.9117
  12   2.0000     -10.101618      -274.8790
  13   2.0000     -10.091110      -274.5931
  14   2.0000     -10.087103      -274.4840
  15   2.0000     -10.032570      -273.0001
  16   2.0000     -10.030331      -272.9392
  17   2.0000     -10.023158      -272.7440
  18   2.0000     -10.014263      -272.5019
  19   2.0000      -7.872506      -214.2218
  20   2.0000      -7.863969      -213.9895
  21   2.0000      -7.812300      -212.5835
  22   2.0000      -7.809251      -212.5005
  23   2.0000      -6.593271      -179.4120
  24   2.0000      -6.585862      -179.2104
  25   2.0000      -5.819440      -158.3550
  26   2.0000      -5.816200      -158.2669
  27   2.0000      -5.810790      -158.1196
  28   2.0000      -5.809715      -158.0904
  29   2.0000      -5.808029      -158.0445
  30   2.0000      -5.800904      -157.8506
  31   2.0000      -5.760093      -156.7401
  32   2.0000      -5.756841      -156.6516
  33   2.0000      -5.752395      -156.5306
  34   2.0000      -5.752352      -156.5294
  35   2.0000      -5.749652      -156.4560
  36   2.0000      -5.749195      -156.4436
  37   2.0000      -4.739094      -128.9573
  38   2.0000      -4.738262      -128.9347
  39   2.0000      -4.736659      -128.8910
  40   2.0000      -4.731152      -128.7412
  41   2.0000      -4.730776      -128.7310
  42   2.0000      -4.729799      -128.7044
  43   2.0000      -1.053085       -28.6559
  44   2.0000      -1.042111       -28.3573
  45   2.0000      -1.012876       -27.5618
  46   2.0000      -1.002735       -27.2858
  47   2.0000      -0.798361       -21.7245
  48   2.0000      -0.757392       -20.6097
  49   2.0000      -0.746257       -20.3067
  50   2.0000      -0.736457       -20.0400
  51   2.0000      -0.722858       -19.6700
  52   2.0000      -0.707750       -19.2589
  53   2.0000      -0.684865       -18.6361
  54   2.0000      -0.662490       -18.0273
  55   2.0000      -0.629601       -17.1323
  56   2.0000      -0.621891       -16.9225
  57   2.0000      -0.610222       -16.6050
  58   2.0000      -0.594313       -16.1721
  59   2.0000      -0.589411       -16.0387
  60   2.0000      -0.526771       -14.3342
  61   2.0000      -0.513998       -13.9866
  62   2.0000      -0.495962       -13.4958
  63   2.0000      -0.487665       -13.2700
  64   2.0000      -0.469931       -12.7875
  65   2.0000      -0.464685       -12.6447
  66   2.0000      -0.458951       -12.4887
  67   2.0000      -0.448254       -12.1976
  68   2.0000      -0.445808       -12.1310
  69   2.0000      -0.431666       -11.7462
  70   2.0000      -0.421716       -11.4755
  71   2.0000      -0.410684       -11.1753
  72   2.0000      -0.407144       -11.0789
  73   2.0000      -0.401630       -10.9289
  74   2.0000      -0.395708       -10.7678
  75   2.0000      -0.387595       -10.5470
  76   2.0000      -0.382548       -10.4097
  77   2.0000      -0.371245       -10.1021
  78   2.0000      -0.369866       -10.0646
  79   2.0000      -0.366182        -9.9643
  80   2.0000      -0.362818        -9.8728
  81   2.0000      -0.355583        -9.6759
  82   2.0000      -0.352163        -9.5828
  83   2.0000      -0.348734        -9.4895
  84   2.0000      -0.339600        -9.2410
  85   2.0000      -0.330205        -8.9853
  86   2.0000      -0.319831        -8.7030
  87   2.0000      -0.313614        -8.5339
  88   2.0000      -0.308916        -8.4060
  89   2.0000      -0.297277        -8.0893
  90   2.0000      -0.293703        -7.9921
  91   2.0000      -0.288836        -7.8596
  92   2.0000      -0.282443        -7.6857
  93   2.0000      -0.279561        -7.6072
  94   2.0000      -0.271075        -7.3763
  95   2.0000      -0.244087        -6.6420
  96   2.0000      -0.234655        -6.3853
  97   2.0000      -0.223003        -6.0682
  98   2.0000      -0.213420        -5.8075
  99   2.0000      -0.209493        -5.7006
 100   2.0000      -0.201208        -5.4751
 101   0.0000      -0.045077        -1.2266
 102   0.0000      -0.032197        -0.8761
 103   0.0000      -0.008409        -0.2288
 104   0.0000       0.013065         0.3555
 105   0.0000       0.016391         0.4460

MULLIKEN ATOMIC CHARGES
-----------------------
   0 C :   -0.439349
   1 C :   -0.156004
   2 O :   -0.287757
   3 P :    0.678155
   4 S :   -0.467872
   5 O :   -0.276101
   6 C :   -0.153412
   7 C :   -0.441033
   8 S :   -0.136974
   9 C :   -0.229311
  10 S :   -0.161792
  11 P :    0.644039
  12 S :   -0.411897
  13 O :   -0.271551
  14 C :   -0.109344
  15 C :   -0.458150
  16 O :   -0.291902
  17 C :   -0.163338
  18 C :   -0.448460
  19 H :    0.167875
  20 H :    0.154850
  21 H :    0.145387
  22 H :    0.146601
  23 H :    0.170705
  24 H :    0.144956
  25 H :    0.172993
  26 H :    0.144641
  27 H :    0.143579
  28 H :    0.183079
  29 H :    0.189441
  30 H :    0.222029
  31 H :    0.161163
  32 H :    0.159267
  33 H :    0.164932
  34 H :    0.146666
  35 H :    0.156547
  36 H :    0.147329
  37 H :    0.176026
  38 H :    0.152958
  39 H :    0.149009
  40 H :    0.182022
Sum of atomic charges:   -0.0000000

LOEWDIN ATOMIC CHARGES
----------------------
   0 C :   -0.400534
   1 C :    0.020132
   2 O :   -0.670244
   3 P :    0.379155
   4 S :   -0.126659
   5 O :   -0.659882
   6 C :    0.020423
   7 C :   -0.405467
   8 S :    0.170833
   9 C :   -0.411803
  10 S :    0.127968
  11 P :    0.381155
  12 S :   -0.080032
  13 O :   -0.673553
  14 C :    0.019593
  15 C :   -0.393028
  16 O :   -0.672944
  17 C :    0.021802
  18 C :   -0.408433
  19 H :    0.165321
  20 H :    0.160848
  21 H :    0.158269
  22 H :    0.178685
  23 H :    0.179292
  24 H :    0.175147
  25 H :    0.183716
  26 H :    0.155601
  27 H :    0.160736
  28 H :    0.175368
  29 H :    0.178422
  30 H :    0.199113
  31 H :    0.176599
  32 H :    0.181609
  33 H :    0.165802
  34 H :    0.158666
  35 H :    0.161464
  36 H :    0.179092
  37 H :    0.181274
  38 H :    0.159588
  39 H :    0.159914
  40 H :    0.166990

  Mayer bond orders larger than 0.100000
B(  0-C ,  1-C ) :   0.9295 B(  0-C , 19-H ) :   0.9602 B(  0-C , 20-H ) :   0.9708
B(  0-C , 21-H ) :   0.9627 B(  1-C ,  2-O ) :   0.8133 B(  1-C , 22-H ) :   0.9613
B(  1-C , 23-H ) :   0.9650 B(  2-O ,  3-P ) :   1.1793 B(  3-P ,  4-S ) :   1.7495
B(  3-P ,  5-O ) :   1.0939 B(  3-P ,  8-S ) :   1.0796 B(  5-O ,  6-C ) :   0.7665
B(  6-C ,  7-C ) :   0.9492 B(  6-C , 24-H ) :   0.9664 B(  6-C , 25-H ) :   0.9546
B(  7-C , 26-H ) :   0.9753 B(  7-C , 27-H ) :   0.9639 B(  7-C , 28-H ) :   0.9497
B(  8-S ,  9-C ) :   0.9003 B(  9-C , 10-S ) :   0.9234 B(  9-C , 29-H ) :   0.9144
B(  9-C , 30-H ) :   0.9038 B( 10-S , 11-P ) :   1.0121 B( 11-P , 12-S ) :   1.8443
B( 11-P , 13-O ) :   1.1179 B( 11-P , 16-O ) :   1.0474 B( 13-O , 14-C ) :   0.7429
B( 14-C , 15-C ) :   0.9393 B( 14-C , 31-H ) :   0.9634 B( 14-C , 32-H ) :   0.9613
B( 15-C , 33-H ) :   0.9673 B( 15-C , 34-H ) :   0.9657 B( 15-C , 35-H ) :   0.9718
B( 16-O , 17-C ) :   0.8203 B( 17-C , 18-C ) :   0.9152 B( 17-C , 36-H ) :   0.9613
B( 17-C , 37-H ) :   0.9681 B( 18-C , 38-H ) :   0.9671 B( 18-C , 39-H ) :   0.9566
B( 18-C , 40-H ) :   0.9628

Dispersion correction           -0.021754230
FINAL SINGLE POINT ENERGY     -2932.458346998781

DIPOLE MOMENT
-------------

Method             : SCF
Type of density    : Electron Density
Multiplicity       :   1
Irrep              :   0
Energy             : -2932.4831449226667246 Eh
Relativity type    :
Basis              : AO
                                X                 Y                 Z
Electronic contribution:      3.008901031      -6.411056281      -6.371224224
Nuclear contribution   :     -3.665737200       5.972598533       7.292841885
                        -----------------------------------------
Total Dipole Moment    :     -0.656836169      -0.438457748       0.921617662
                        -----------------------------------------
Magnitude (a.u.)       :      1.213696035
Magnitude (Debye)      :      3.084970153

Rotational constants in cm-1:             0.013766             0.004776             0.004515
Rotational constants in MHz :           412.689162           143.169081           135.367912

                             ****ORCA TERMINATED NORMALLY****
TOTAL RUN TIME: 0 days 0 hours 1 minutes 22 seconds 973 msec
