                         Program Version 6.0.0  -   RELEASE  -
|  1> ! r2scan-3c def2/J RI DEFGRID2 scfconv6 printgap
|  2> %output
|  3>     printlevel normal
|  4> end
|  5> %cpcm
|  6>     smd true
|  7>     smdsolvent "water"
|  8> end
|  9> * xyz 0 1
| 10> C 5.5606358662 0.3766319342 -0.9344687573
| 11> C 4.788371662 -0.9202134919 -1.0536965918
| 12> O 3.6380122541 -0.944223931 -0.1842246479
| 13> P 2.3725718389 -0.0247662089 -0.425131416
| 14> S 1.9243063695 0.2854679393 -2.3128513007
| 15> O 2.7606409606 1.2659676716 0.4165402654
| 16> C 1.9906621454 2.4803727223 0.4404477181
| 17> C 1.1433048931 2.556018252 1.6950494059
| 18> S 0.9947988589 -1.0847850535 0.7667145535
| 19> C -0.0226182759 -1.8276330041 -0.561671828
| 20> S -1.7481474796 -1.9802815479 -0.0710810887
| 21> P -2.1455463874 0.0894520572 0.2801135141
| 22> S -1.2883371446 1.3790872044 -0.914496361
| 23> O -1.7441450323 0.3363847274 1.7842664268
| 24> C -2.2328120744 -0.4547755098 2.8962481384
| 25> C -3.4217732133 0.2170548326 3.5516226553
| 26> O -3.7334029437 0.1497037374 0.329020726
| 27> C -4.5445740322 0.3457834032 -0.842938736
| 28> C -4.4490423548 -0.8125518903 -1.814465374
| 29> H 4.9566149659 1.2017030329 -1.3099617657
| 30> H 5.8117121831 0.5699699746 0.1050923763
| 31> H 6.4708557508 0.3094868009 -1.5221171028
| 32> H 5.378847873 -1.7765075424 -0.7255617062
| 33> H 4.4457731978 -1.0723233896 -2.0822317108
| 34> H 2.7323344064 3.2813525587 0.4184746371
| 35> H 1.3697957624 2.535821461 -0.4602792118
| 36> H 1.7651644154 2.4033597478 2.5725793156
| 37> H 0.6740784831 3.5333559458 1.7459486212
| 38> H 0.3634514025 1.7969718866 1.6773553938
| 39> H 0.3273482891 -2.836387172 -0.7659133956
| 40> H 0.0577945952 -1.1918746645 -1.4483013794
| 41> H -2.4903050576 -1.4537734687 2.5341166023
| 42> H -1.3814348118 -0.5187500384 3.5763872717
| 43> H -4.2564849803 0.2666948199 2.8578423629
| 44> H -3.714738601 -0.3573288364 4.4248400065
| 45> H -3.1584122757 1.225874097 3.8572206282
| 46> H -5.5543484159 0.4531142081 -0.4441669273
| 47> H -4.2340103617 1.2783406498 -1.3241375716
| 48> H -4.6355872326 -1.7533513376 -1.3027753714
| 49> H -5.1816891222 -0.6782041542 -2.6038511794
| 50> H -3.4560259347 -0.8456939301 -2.2603565804
| 51> *
| 52>
| 53>                          ****END OF INPUT****

CARTESIAN COORDINATES (ANGSTROEM)
---------------------------------
  C      5.560636    0.376632   -0.934469
  C      4.788372   -0.920213   -1.053697
  O      3.638012   -0.944224   -0.184225
  P      2.372572   -0.024766   -0.425131
  S      1.924306    0.285468   -2.312851
  O      2.760641    1.265968    0.416540
  C      1.990662    2.480373    0.440448
  C      1.143305    2.556018    1.695049
  S      0.994799   -1.084785    0.766715
  C     -0.022618   -1.827633   -0.561672
  S     -1.748147   -1.980282   -0.071081
  P     -2.145546    0.089452    0.280114
  S     -1.288337    1.379087   -0.914496
  O     -1.744145    0.336385    1.784266
  C     -2.232812   -0.454776    2.896248
  C     -3.421773    0.217055    3.551623
  O     -3.733403    0.149704    0.329021
  C     -4.544574    0.345783   -0.842939
  C     -4.449042   -0.812552   -1.814465
  H      4.956615    1.201703   -1.309962
  H      5.811712    0.569970    0.105092
  H      6.470856    0.309487   -1.522117
  H      5.378848   -1.776508   -0.725562
  H      4.445773   -1.072323   -2.082232
  H      2.732334    3.281353    0.418475
  H      1.369796    2.535821   -0.460279
  H      1.765164    2.403360    2.572579
  H      0.674078    3.533356    1.745949
  H      0.363451    1.796972    1.677355
  H      0.327348   -2.836387   -0.765913
  H      0.057795   -1.191875   -1.448301
  H     -2.490305   -1.453773    2.534117
  H     -1.381435   -0.518750    3.576387
  H     -4.256485    0.266695    2.857842
  H     -3.714739   -0.357329    4.424840
  H     -3.158412    1.225874    3.857221
  H     -5.554348    0.453114   -0.444167
  H     -4.234010    1.278341   -1.324138
  H     -4.635587   -1.753351   -1.302775
  H     -5.181689   -0.678204   -2.603851
  H     -3.456026   -0.845694   -2.260357

 Total Charge           Charge          ....    0
 Multiplicity           Mult            ....    1
 Number of Electrons    NEL             ....  202
 Basis Dimension        Dim             ....  539

ORBITAL ENERGIES
----------------

  NO   OCC          E(Eh)            E(eV)
   0   2.0000     -88.579784     -2410.3785
   1   2.0000     -88.576650     -2410.2932
   2   2.0000     -88.526581     -2408.9307
   3   2.0000     -88.525208     -2408.8934
   4   2.0000     -76.918522     -2093.0594
   5   2.0000     -76.917583     -2093.0338
   6   2.0000     -18.994885      -516.8771
   7   2.0000     -18.994107      -516.8559
   8   2.0000     -18.992692      -516.8174
   9   2.0000     -18.990071      -516.7461
  10   2.0000     -10.103032      -274.9175
  11   2.0000     -10.091278      -274.5976
  12   2.0000     -10.090304      -274.5711
  13   2.0000     -10.087819      -274.5035
  14   2.0000     -10.087714      -274.5007
  15   2.0000     -10.018593      -272.6198
  16   2.0000     -10.018188      -272.6088
  17   2.0000     -10.017929      -272.6017
  18   2.0000     -10.014409      -272.5059
  19   2.0000      -7.874092      -214.2649
  20   2.0000      -7.871040      -214.1819
  21   2.0000      -7.821586      -212.8362
  22   2.0000      -7.820253      -212.7999
  23   2.0000      -6.596878      -179.5102
  24   2.0000      -6.596098      -179.4889
  25   2.0000      -5.821057      -158.3990
  26   2.0000      -5.817837      -158.3114
  27   2.0000      -5.817822      -158.3110
  28   2.0000      -5.815068      -158.2360
  29   2.0000      -5.811246      -158.1320
  30   2.0000      -5.808044      -158.0449
  31   2.0000      -5.769118      -156.9857
  32   2.0000      -5.767935      -156.9535
  33   2.0000      -5.761968      -156.7911
  34   2.0000      -5.761553      -156.7798
  35   2.0000      -5.760447      -156.7497
  36   2.0000      -5.760251      -156.7444
  37   2.0000      -4.742638      -129.0538
  38   2.0000      -4.741850      -129.0323
  39   2.0000      -4.741385      -129.0196
  40   2.0000      -4.740994      -129.0090
  41   2.0000      -4.740387      -128.9925
  42   2.0000      -4.740076      -128.9840
  43   2.0000      -1.052719       -28.6459
  44   2.0000      -1.050968       -28.5983
  45   2.0000      -1.011924       -27.5358
  46   2.0000      -1.011052       -27.5121
  47   2.0000      -0.800896       -21.7935
  48   2.0000      -0.755432       -20.5563
  49   2.0000      -0.743960       -20.2442
  50   2.0000      -0.725793       -19.7498
  51   2.0000      -0.722574       -19.6622
  52   2.0000      -0.709025       -19.2935
  53   2.0000      -0.688614       -18.7381
  54   2.0000      -0.670717       -18.2511
  55   2.0000      -0.631029       -17.1712
  56   2.0000      -0.620060       -16.8727
  57   2.0000      -0.602183       -16.3862
  58   2.0000      -0.595172       -16.1955
  59   2.0000      -0.588880       -16.0242
  60   2.0000      -0.522708       -14.2236
  61   2.0000      -0.515750       -14.0343
  62   2.0000      -0.492274       -13.3955
  63   2.0000      -0.489027       -13.3071
  64   2.0000      -0.468683       -12.7535
  65   2.0000      -0.465190       -12.6585
  66   2.0000      -0.457092       -12.4381
  67   2.0000      -0.448744       -12.2109
  68   2.0000      -0.438074       -11.9206
  69   2.0000      -0.430175       -11.7057
  70   2.0000      -0.421040       -11.4571
  71   2.0000      -0.412158       -11.2154
  72   2.0000      -0.404427       -11.0050
  73   2.0000      -0.403387       -10.9767
  74   2.0000      -0.393920       -10.7191
  75   2.0000      -0.388076       -10.5601
  76   2.0000      -0.379176       -10.3179
  77   2.0000      -0.369759       -10.0616
  78   2.0000      -0.362716        -9.8700
  79   2.0000      -0.361938        -9.8488
  80   2.0000      -0.353869        -9.6293
  81   2.0000      -0.351675        -9.5696
  82   2.0000      -0.349310        -9.5052
  83   2.0000      -0.347425        -9.4539
  84   2.0000      -0.341252        -9.2860
  85   2.0000      -0.325918        -8.8687
  86   2.0000      -0.323104        -8.7921
  87   2.0000      -0.307569        -8.3694
  88   2.0000      -0.304285        -8.2800
  89   2.0000      -0.298862        -8.1325
  90   2.0000      -0.297605        -8.0982
  91   2.0000      -0.288593        -7.8530
  92   2.0000      -0.285351        -7.7648
  93   2.0000      -0.280153        -7.6233
  94   2.0000      -0.275738        -7.5032
  95   2.0000      -0.248337        -6.7576
  96   2.0000      -0.242412        -6.5964
  97   2.0000      -0.233451        -6.3525
  98   2.0000      -0.221834        -6.0364
  99   2.0000      -0.219861        -5.9827
 100   2.0000      -0.211282        -5.7493
 101   0.0000      -0.049476        -1.3463
 102   0.0000      -0.040087        -1.0908
 103   0.0000      -0.012434        -0.3383
 104   0.0000       0.011393         0.3100
 105   0.0000       0.013432         0.3655

MULLIKEN ATOMIC CHARGES
-----------------------
   0 C :   -0.479702
   1 C :   -0.149564
   2 O :   -0.322541
   3 P :    0.711447
   4 S :   -0.516409
   5 O :   -0.299884
   6 C :   -0.139755
   7 C :   -0.487241
   8 S :   -0.152789
   9 C :   -0.231070
  10 S :   -0.157462
  11 P :    0.664793
  12 S :   -0.466087
  13 O :   -0.300033
  14 C :   -0.094385
  15 C :   -0.501650
  16 O :   -0.310095
  17 C :   -0.159026
  18 C :   -0.485511
  19 H :    0.167357
  20 H :    0.168289
  21 H :    0.171660
  22 H :    0.173434
  23 H :    0.174903
  24 H :    0.173501
  25 H :    0.166931
  26 H :    0.163130
  27 H :    0.168407
  28 H :    0.172062
  29 H :    0.230289
  30 H :    0.217170
  31 H :    0.172385
  32 H :    0.179471
  33 H :    0.169270
  34 H :    0.170545
  35 H :    0.166837
  36 H :    0.175494
  37 H :    0.179292
  38 H :    0.168395
  39 H :    0.173220
  40 H :    0.174926
Sum of atomic charges:   -0.0000000

LOEWDIN ATOMIC CHARGES
----------------------
   0 C :   -0.403756
   1 C :    0.024745
   2 O :   -0.687668
   3 P :    0.383145
   4 S :   -0.158107
   5 O :   -0.671871
   6 C :    0.023755
   7 C :   -0.410304
   8 S :    0.165261
   9 C :   -0.406601
  10 S :    0.138545
  11 P :    0.384488
  12 S :   -0.119149
  13 O :   -0.689447
  14 C :    0.026358
  15 C :   -0.396191
  16 O :   -0.677933
  17 C :    0.026614
  18 C :   -0.411510
  19 H :    0.162569
  20 H :    0.163806
  21 H :    0.168291
  22 H :    0.189846
  23 H :    0.181091
  24 H :    0.186713
  25 H :    0.182005
  26 H :    0.161840
  27 H :    0.168357
  28 H :    0.169168
  29 H :    0.193648
  30 H :    0.196950
  31 H :    0.182018
  32 H :    0.189847
  33 H :    0.165291
  34 H :    0.168374
  35 H :    0.163382
  36 H :    0.191034
  37 H :    0.181538
  38 H :    0.163647
  39 H :    0.168528
  40 H :    0.161683

  Mayer bond orders larger than 0.100000
B(  0-C ,  1-C ) :   0.9160 B(  0-C , 19-H ) :   0.9596 B(  0-C , 20-H ) :   0.9702
B(  0-C , 21-H ) :   0.9563 B(  1-C ,  2-O ) :   0.8024 B(  1-C , 22-H ) :   0.9517
B(  1-C , 23-H ) :   0.9606 B(  2-O ,  3-P ) :   1.1785 B(  3-P ,  4-S ) :   1.7119
B(  3-P ,  5-O ) :   1.0957 B(  3-P ,  8-S ) :   1.0950 B(  5-O ,  6-C ) :   0.7580
B(  6-C ,  7-C ) :   0.9352 B(  6-C , 24-H ) :   0.9567 B(  6-C , 25-H ) :   0.9531
B(  7-C , 26-H ) :   0.9713 B(  7-C , 27-H ) :   0.9613 B(  7-C , 28-H ) :   0.9557
B(  8-S ,  9-C ) :   0.8904 B(  9-C , 10-S ) :   0.9192 B(  9-C , 29-H ) :   0.9007
B(  9-C , 30-H ) :   0.9073 B( 10-S , 11-P ) :   1.0218 B( 11-P , 12-S ) :   1.8147
B( 11-P , 13-O ) :   1.1262 B( 11-P , 16-O ) :   1.0573 B( 13-O , 14-C ) :   0.7335
B( 14-C , 15-C ) :   0.9298 B( 14-C , 31-H ) :   0.9549 B( 14-C , 32-H ) :   0.9522
B( 15-C , 33-H ) :   0.9672 B( 15-C , 34-H ) :   0.9592 B( 15-C , 35-H ) :   0.9706
B( 16-O , 17-C ) :   0.8094 B( 17-C , 18-C ) :   0.9029 B( 17-C , 36-H ) :   0.9509
B( 17-C , 37-H ) :   0.9675 B( 18-C , 38-H ) :   0.9643 B( 18-C , 39-H ) :   0.9515
B( 18-C , 40-H ) :   0.9653

Dispersion correction           -0.021754230
FINAL SINGLE POINT ENERGY     -2932.466091826287

DIPOLE MOMENT
-------------

Method             : SCF
Type of density    : Electron Density
Multiplicity       :   1
Irrep              :   0
Energy             : -2932.4908897501732099 Eh
Relativity type    :
Basis              : AO
                                X                 Y                 Z
Electronic contribution:      2.819409552      -6.779360535      -6.063014254
Nuclear contribution   :     -3.665737200       5.972598533       7.292841885
                        -----------------------------------------
Total Dipole Moment    :     -0.846327648      -0.806762002       1.229827631
                        -----------------------------------------
Magnitude (a.u.)       :      1.696941784
Magnitude (Debye)      :      4.313283232

Rotational constants in cm-1:             0.013766             0.004776             0.004515
Rotational constants in MHz :           412.689162           143.169081           135.367912

                             ****ORCA TERMINATED NORMALLY****
TOTAL RUN TIME: 0 days 0 hours 1 minutes 48 seconds 974 msec
