                         Program Version 6.0.0  -   RELEASE  -
|  1> ! pbe def2-sv(p) def2/J RI DEFGRID1 loosescf d4 GCP(DFT/SV(P)) printgap
|  2> %output
|  3>     printlevel normal
|  4> end
|  5> * xyz 0 1
|  6> C 3.2578133987 2.1435139863 -0.7967473197
|  7> C 2.7475840599 2.3673147049 0.6111964697
|  8> O 1.6095034835 1.5303716742 0.9368696254
|  9> P 1.6438846813 -0.044241849 1.0330178044
| 10> S 0.2647611655 -0.693330051 2.264982581
| 11> O 3.1551732676 -0.2699852976 1.4915416249
| 12> C 3.8699550304 -1.5144947205 1.4269899251
| 13> C 3.2305425079 -2.6076404269 2.2583606178
| 14> S 1.6068153304 -0.8810430421 -0.935819116
| 15> C 0.1636316893 -1.9643837485 -0.8181094862
| 16> S -1.190459671 -1.5300052666 -1.9599767812
| 17> P -2.1163287522 0.0180791097 -0.8812090688
| 18> S -3.6772190464 0.8689979306 -1.7003020258
| 19> O -0.924401704 1.02210733 -0.498687191
| 20> C -0.6970371984 2.2027365878 -1.2895245302
| 21> C -0.2213095738 1.8694873127 -2.6901939872
| 22> O -2.3842318785 -0.7503863576 0.4781576437
| 23> C -3.3683181087 -0.3052720927 1.4328967305
| 24> C -3.0371525734 1.0555426057 2.0067993312
| 25> H 3.5924446363 1.1146392585 -0.9193331884
| 26> H 2.4799876845 2.3473590773 -1.5268046874
| 27> H 4.095915125 2.8099412229 -0.976371779
| 28> H 2.3617841623 3.3794695897 0.7446930362
| 29> H 3.531697246 2.17395851 1.3451921539
| 30> H 3.9417635348 -1.817313855 0.3782844435
| 31> H 4.861177039 -1.2592674643 1.8061782688
| 32> H 3.8672779516 -3.486400598 2.2473083925
| 33> H 3.0953649533 -2.2739137464 3.2843971044
| 34> H 2.2542928001 -2.8716981959 1.8550954693
| 35> H -0.2079607664 -1.9456319316 0.2099126835
| 36> H 0.4700039369 -2.9628881592 -1.1178461465
| 37> H -1.6321916212 2.7701260701 -1.3330929069
| 38> H 0.0469842554 2.7595222213 -0.7192627912
| 39> H -1.0114680634 1.3480743536 -3.2311524198
| 40> H 0.015015995 2.7887365742 -3.2168947945
| 41> H 0.6578467359 1.229544889 -2.6608087666
| 42> H -4.3427693587 -0.2887834069 0.9347616761
| 43> H -3.3486336042 -1.0804398988 2.2000474792
| 44> H -3.7520239506 1.3012745426 2.785497123
| 45> H -2.0336457766 1.0483670623 2.4263455585
| 46> H -3.0894292105 1.8115351137 1.2237455944
| 47> *
| 48>
| 49>                          ****END OF INPUT****

CARTESIAN COORDINATES (ANGSTROEM)
---------------------------------
  C      3.257813    2.143514   -0.796747
  C      2.747584    2.367315    0.611196
  O      1.609503    1.530372    0.936870
  P      1.643885   -0.044242    1.033018
  S      0.264761   -0.693330    2.264983
  O      3.155173   -0.269985    1.491542
  C      3.869955   -1.514495    1.426990
  C      3.230543   -2.607640    2.258361
  S      1.606815   -0.881043   -0.935819
  C      0.163632   -1.964384   -0.818109
  S     -1.190460   -1.530005   -1.959977
  P     -2.116329    0.018079   -0.881209
  S     -3.677219    0.868998   -1.700302
  O     -0.924402    1.022107   -0.498687
  C     -0.697037    2.202737   -1.289525
  C     -0.221310    1.869487   -2.690194
  O     -2.384232   -0.750386    0.478158
  C     -3.368318   -0.305272    1.432897
  C     -3.037153    1.055543    2.006799
  H      3.592445    1.114639   -0.919333
  H      2.479988    2.347359   -1.526805
  H      4.095915    2.809941   -0.976372
  H      2.361784    3.379470    0.744693
  H      3.531697    2.173959    1.345192
  H      3.941764   -1.817314    0.378284
  H      4.861177   -1.259267    1.806178
  H      3.867278   -3.486401    2.247308
  H      3.095365   -2.273914    3.284397
  H      2.254293   -2.871698    1.855095
  H     -0.207961   -1.945632    0.209913
  H      0.470004   -2.962888   -1.117846
  H     -1.632192    2.770126   -1.333093
  H      0.046984    2.759522   -0.719263
  H     -1.011468    1.348074   -3.231152
  H      0.015016    2.788737   -3.216895
  H      0.657847    1.229545   -2.660809
  H     -4.342769   -0.288783    0.934762
  H     -3.348634   -1.080440    2.200047
  H     -3.752024    1.301275    2.785497
  H     -2.033646    1.048367    2.426346
  H     -3.089429    1.811535    1.223746

 Total Charge           Charge          ....    0
 Multiplicity           Mult            ....    1
 Number of Electrons    NEL             ....  202
 Basis Dimension        Dim             ....  334

ORBITAL ENERGIES
----------------

  NO   OCC          E(Eh)            E(eV)
   0   2.0000     -88.049870     -2395.9588
   1   2.0000     -88.039082     -2395.6652
   2   2.0000     -87.988424     -2394.2868
   3   2.0000     -87.983356     -2394.1488
   4   2.0000     -76.432647     -2079.8380
   5   2.0000     -76.420128     -2079.4974
   6   2.0000     -18.799793      -511.5684
   7   2.0000     -18.796941      -511.4908
   8   2.0000     -18.783197      -511.1168
   9   2.0000     -18.781627      -511.0741
  10   2.0000      -9.964189      -271.1394
  11   2.0000      -9.961743      -271.0728
  12   2.0000      -9.956421      -270.9280
  13   2.0000      -9.943736      -270.5828
  14   2.0000      -9.942192      -270.5408
  15   2.0000      -9.899427      -269.3771
  16   2.0000      -9.887956      -269.0649
  17   2.0000      -9.876245      -268.7463
  18   2.0000      -9.869127      -268.5526
  19   2.0000      -7.694128      -209.3679
  20   2.0000      -7.684705      -209.1114
  21   2.0000      -7.633415      -207.7158
  22   2.0000      -7.628506      -207.5822
  23   2.0000      -6.429495      -174.9554
  24   2.0000      -6.417912      -174.6403
  25   2.0000      -5.721986      -155.7032
  26   2.0000      -5.718501      -155.6083
  27   2.0000      -5.712929      -155.4567
  28   2.0000      -5.711375      -155.4144
  29   2.0000      -5.708940      -155.3482
  30   2.0000      -5.701505      -155.1458
  31   2.0000      -5.662472      -154.0837
  32   2.0000      -5.657499      -153.9484
  33   2.0000      -5.654014      -153.8535
  34   2.0000      -5.653356      -153.8356
  35   2.0000      -5.649146      -153.7211
  36   2.0000      -5.648566      -153.7053
  37   2.0000      -4.652428      -126.5990
  38   2.0000      -4.651304      -126.5684
  39   2.0000      -4.649671      -126.5240
  40   2.0000      -4.640197      -126.2662
  41   2.0000      -4.639826      -126.2561
  42   2.0000      -4.638505      -126.2201
  43   2.0000      -0.994772       -27.0691
  44   2.0000      -0.976565       -26.5737
  45   2.0000      -0.949044       -25.8248
  46   2.0000      -0.937039       -25.4981
  47   2.0000      -0.762358       -20.7448
  48   2.0000      -0.724671       -19.7193
  49   2.0000      -0.707443       -19.2505
  50   2.0000      -0.697933       -18.9917
  51   2.0000      -0.679278       -18.4841
  52   2.0000      -0.673627       -18.3303
  53   2.0000      -0.654460       -17.8088
  54   2.0000      -0.639172       -17.3928
  55   2.0000      -0.598534       -16.2869
  56   2.0000      -0.590239       -16.0612
  57   2.0000      -0.588264       -16.0075
  58   2.0000      -0.563980       -15.3467
  59   2.0000      -0.562996       -15.3199
  60   2.0000      -0.504824       -13.7369
  61   2.0000      -0.484242       -13.1769
  62   2.0000      -0.479137       -13.0380
  63   2.0000      -0.465514       -12.6673
  64   2.0000      -0.458948       -12.4886
  65   2.0000      -0.450122       -12.2485
  66   2.0000      -0.440611       -11.9896
  67   2.0000      -0.437235       -11.8978
  68   2.0000      -0.428502       -11.6601
  69   2.0000      -0.417112       -11.3502
  70   2.0000      -0.412488       -11.2244
  71   2.0000      -0.408101       -11.1050
  72   2.0000      -0.398261       -10.8372
  73   2.0000      -0.387997       -10.5579
  74   2.0000      -0.385887       -10.5005
  75   2.0000      -0.368939       -10.0394
  76   2.0000      -0.362372        -9.8607
  77   2.0000      -0.360370        -9.8062
  78   2.0000      -0.357842        -9.7374
  79   2.0000      -0.351290        -9.5591
  80   2.0000      -0.344831        -9.3833
  81   2.0000      -0.344567        -9.3761
  82   2.0000      -0.337753        -9.1907
  83   2.0000      -0.333658        -9.0793
  84   2.0000      -0.325960        -8.8698
  85   2.0000      -0.320165        -8.7121
  86   2.0000      -0.314037        -8.5454
  87   2.0000      -0.302570        -8.2334
  88   2.0000      -0.299163        -8.1406
  89   2.0000      -0.290523        -7.9055
  90   2.0000      -0.281845        -7.6694
  91   2.0000      -0.279174        -7.5967
  92   2.0000      -0.266291        -7.2461
  93   2.0000      -0.264569        -7.1993
  94   2.0000      -0.258800        -7.0423
  95   2.0000      -0.229565        -6.2468
  96   2.0000      -0.217898        -5.9293
  97   2.0000      -0.207325        -5.6416
  98   2.0000      -0.205379        -5.5887
  99   2.0000      -0.198847        -5.4109
 100   2.0000      -0.198317        -5.3965
 101   0.0000      -0.044388        -1.2079
 102   0.0000      -0.029077        -0.7912
 103   0.0000      -0.017330        -0.4716
 104   0.0000       0.001466         0.0399
 105   0.0000       0.003773         0.1027

MULLIKEN ATOMIC CHARGES
-----------------------
   0 C :   -0.338538
   1 C :    0.000660
   2 O :   -0.364546
   3 P :    0.625472
   4 S :   -0.291439
   5 O :   -0.386068
   6 C :   -0.005623
   7 C :   -0.306248
   8 S :   -0.119448
   9 C :   -0.358084
  10 S :   -0.071970
  11 P :    0.616998
  12 S :   -0.322996
  13 O :   -0.377969
  14 C :   -0.017495
  15 C :   -0.331220
  16 O :   -0.370720
  17 C :    0.006994
  18 C :   -0.322186
  19 H :    0.127002
  20 H :    0.135171
  21 H :    0.118413
  22 H :    0.114246
  23 H :    0.116331
  24 H :    0.106249
  25 H :    0.105672
  26 H :    0.111173
  27 H :    0.125813
  28 H :    0.121487
  29 H :    0.214245
  30 H :    0.181815
  31 H :    0.111296
  32 H :    0.108380
  33 H :    0.123768
  34 H :    0.105511
  35 H :    0.138025
  36 H :    0.109224
  37 H :    0.102826
  38 H :    0.105587
  39 H :    0.134975
  40 H :    0.117219
Sum of atomic charges:   -0.0000000

LOEWDIN ATOMIC CHARGES
----------------------
   0 C :   -0.367452
   1 C :   -0.111859
   2 O :   -0.230376
   3 P :    0.576910
   4 S :   -0.274503
   5 O :   -0.248054
   6 C :   -0.119645
   7 C :   -0.367566
   8 S :    0.081319
   9 C :   -0.484143
  10 S :    0.088388
  11 P :    0.575504
  12 S :   -0.318562
  13 O :   -0.246442
  14 C :   -0.126293
  15 C :   -0.377675
  16 O :   -0.239776
  17 C :   -0.113373
  18 C :   -0.372695
  19 H :    0.118150
  20 H :    0.129973
  21 H :    0.135025
  22 H :    0.121922
  23 H :    0.116942
  24 H :    0.103248
  25 H :    0.119266
  26 H :    0.129915
  27 H :    0.130681
  28 H :    0.119586
  29 H :    0.127197
  30 H :    0.137926
  31 H :    0.108692
  32 H :    0.112555
  33 H :    0.121175
  34 H :    0.127394
  35 H :    0.115751
  36 H :    0.110414
  37 H :    0.118990
  38 H :    0.127748
  39 H :    0.124678
  40 H :    0.119067

  Mayer bond orders larger than 0.100000
B(  0-C ,  1-C ) :   1.1705 B(  0-C , 19-H ) :   0.9332 B(  0-C , 20-H ) :   0.9379
B(  0-C , 21-H ) :   0.9346 B(  1-C ,  2-O ) :   0.8950 B(  1-C , 22-H ) :   0.9293
B(  1-C , 23-H ) :   0.9249 B(  2-O ,  3-P ) :   1.1239 B(  3-P ,  4-S ) :   1.6464
B(  3-P ,  5-O ) :   1.0613 B(  3-P ,  8-S ) :   0.9318 B(  4-S ,  8-S ) :   0.1199
B(  4-S , 29-H ) :   0.1070 B(  5-O ,  6-C ) :   0.9161 B(  6-C ,  7-C ) :   1.1676
B(  6-C , 24-H ) :   0.9180 B(  6-C , 25-H ) :   0.9329 B(  7-C , 26-H ) :   0.9357
B(  7-C , 27-H ) :   0.9442 B(  7-C , 28-H ) :   0.9355 B(  8-S ,  9-C ) :   0.9965
B(  9-C , 10-S ) :   0.9901 B(  9-C , 29-H ) :   0.8406 B(  9-C , 30-H ) :   0.9101
B( 10-S , 11-P ) :   0.9784 B( 11-P , 12-S ) :   1.6242 B( 11-P , 13-O ) :   1.0681
B( 11-P , 16-O ) :   1.1232 B( 13-O , 14-C ) :   0.9084 B( 14-C , 15-C ) :   1.1656
B( 14-C , 31-H ) :   0.9132 B( 14-C , 32-H ) :   0.9218 B( 15-C , 33-H ) :   0.9278
B( 15-C , 34-H ) :   0.9379 B( 15-C , 35-H ) :   0.9240 B( 16-O , 17-C ) :   0.8983
B( 17-C , 18-C ) :   1.1656 B( 17-C , 36-H ) :   0.9226 B( 17-C , 37-H ) :   0.9336
B( 18-C , 38-H ) :   0.9372 B( 18-C , 39-H ) :   0.9331 B( 18-C , 40-H ) :   0.9330

Dispersion correction           -0.070392761
FINAL SINGLE POINT ENERGY     -2929.514506812673

DIPOLE MOMENT
-------------

Method             : SCF
Type of density    : Electron Density
Multiplicity       :   1
Irrep              :   0
Energy             : -2929.6342754910610893 Eh
Relativity type    :
Basis              : AO
                                X                 Y                 Z
Electronic contribution:    -13.202311903      -8.260933863      -5.014125520
Nuclear contribution   :     15.403668815       8.456950002       5.352502866
                        -----------------------------------------
Total Dipole Moment    :      2.201356912       0.196016138       0.338377346
                        -----------------------------------------
Magnitude (a.u.)       :      2.235820612
Magnitude (Debye)      :      5.683004360

Rotational constants in cm-1:             0.012007             0.005944             0.005505
Rotational constants in MHz :           359.949903           178.195515           165.030888

                             ****ORCA TERMINATED NORMALLY****
TOTAL RUN TIME: 0 days 0 hours 0 minutes 23 seconds 661 msec
