                         Program Version 6.0.0  -   RELEASE  -
|  1> ! pbe def2-sv(p) def2/J RI DEFGRID1 loosescf d4 GCP(DFT/SV(P)) printgap
|  2> %output
|  3>     printlevel normal
|  4> end
|  5> * xyz 0 1
|  6> C 3.6696606935 1.6656634254 -0.7321392484
|  7> C 2.2694878728 1.82469935 -0.1777006438
|  8> O 1.5429696642 0.5836554188 -0.2168348533
|  9> P 1.9229837849 -0.6467960473 0.731039059
| 10> S 2.7013855833 -0.1649373021 2.4535088571
| 11> O 2.8529337173 -1.6140520533 -0.1085611009
| 12> C 2.4852454461 -2.0753101791 -1.4356206556
| 13> C 3.758934415 -2.2874542197 -2.2266367159
| 14> S 0.0795494201 -1.6704618555 0.7708996337
| 15> C -0.7298427953 -0.6199940518 2.0028669444
| 16> S -1.0759910739 1.0656240056 1.4188667884
| 17> P -2.0184375823 0.6129745948 -0.4293602056
| 18> S -0.9876185616 0.2560966052 -2.0628845916
| 19> O -3.0321562882 1.8284057748 -0.6127475864
| 20> C -2.6696929158 3.0350068498 -1.3014167993
| 21> C -1.6941715653 3.8655925154 -0.4922163383
| 22> O -2.9880550234 -0.53480709 0.0574014425
| 23> C -3.4845804705 -1.5895057919 -0.7980758621
| 24> C -3.3338136487 -2.9149624651 -0.079193625
| 25> H 3.6292878837 1.3002257128 -1.7554063991
| 26> H 4.1764467281 2.6252712898 -0.7118058892
| 27> H 4.2273869834 0.9561016774 -0.1203814894
| 28> H 1.6679813509 2.5011498932 -0.787716047
| 29> H 2.2956868144 2.1782782701 0.8580240845
| 30> H 1.9317282652 -3.0089476201 -1.3113986267
| 31> H 1.8342058694 -1.3333956752 -1.9077812966
| 32> H 4.2955568299 -1.3495166535 -2.3399299054
| 33> H 4.3999222757 -2.9966530028 -1.7108146918
| 34> H 3.5050876602 -2.6759717703 -3.2075904514
| 35> H -0.0753651811 -0.5095369877 2.8686269382
| 36> H -1.6629284071 -1.1102298195 2.2691737996
| 37> H -2.2381121247 2.7638916525 -2.2712028424
| 38> H -3.6176696583 3.5536869493 -1.4492214581
| 39> H -1.4808254923 4.7915497933 -1.0163927941
| 40> H -2.1088990336 4.0888158308 0.487294458
| 41> H -0.7656042541 3.3106925837 -0.3544733014
| 42> H -4.532279619 -1.3602238014 -1.0021486179
| 43> H -2.9196432018 -1.579684267 -1.736485268
| 44> H -3.7286988443 -3.7054305692 -0.7088203215
| 45> H -2.2835956284 -3.1122150168 0.1266744269
| 46> H -3.8813924658 -2.8967932858 0.8587953017
| 47> *
| 48>
| 49>                          ****END OF INPUT****

CARTESIAN COORDINATES (ANGSTROEM)
---------------------------------
  C      3.669661    1.665663   -0.732139
  C      2.269488    1.824699   -0.177701
  O      1.542970    0.583655   -0.216835
  P      1.922984   -0.646796    0.731039
  S      2.701386   -0.164937    2.453509
  O      2.852934   -1.614052   -0.108561
  C      2.485245   -2.075310   -1.435621
  C      3.758934   -2.287454   -2.226637
  S      0.079549   -1.670462    0.770900
  C     -0.729843   -0.619994    2.002867
  S     -1.075991    1.065624    1.418867
  P     -2.018438    0.612975   -0.429360
  S     -0.987619    0.256097   -2.062885
  O     -3.032156    1.828406   -0.612748
  C     -2.669693    3.035007   -1.301417
  C     -1.694172    3.865593   -0.492216
  O     -2.988055   -0.534807    0.057401
  C     -3.484580   -1.589506   -0.798076
  C     -3.333814   -2.914962   -0.079194
  H      3.629288    1.300226   -1.755406
  H      4.176447    2.625271   -0.711806
  H      4.227387    0.956102   -0.120381
  H      1.667981    2.501150   -0.787716
  H      2.295687    2.178278    0.858024
  H      1.931728   -3.008948   -1.311399
  H      1.834206   -1.333396   -1.907781
  H      4.295557   -1.349517   -2.339930
  H      4.399922   -2.996653   -1.710815
  H      3.505088   -2.675972   -3.207590
  H     -0.075365   -0.509537    2.868627
  H     -1.662928   -1.110230    2.269174
  H     -2.238112    2.763892   -2.271203
  H     -3.617670    3.553687   -1.449221
  H     -1.480825    4.791550   -1.016393
  H     -2.108899    4.088816    0.487294
  H     -0.765604    3.310693   -0.354473
  H     -4.532280   -1.360224   -1.002149
  H     -2.919643   -1.579684   -1.736485
  H     -3.728699   -3.705431   -0.708820
  H     -2.283596   -3.112215    0.126674
  H     -3.881392   -2.896793    0.858795

 Total Charge           Charge          ....    0
 Multiplicity           Mult            ....    1
 Number of Electrons    NEL             ....  202
 Basis Dimension        Dim             ....  334

ORBITAL ENERGIES
----------------

  NO   OCC          E(Eh)            E(eV)
   0   2.0000     -88.042370     -2395.7547
   1   2.0000     -88.039813     -2395.6851
   2   2.0000     -87.984474     -2394.1793
   3   2.0000     -87.983466     -2394.1518
   4   2.0000     -76.426592     -2079.6733
   5   2.0000     -76.422701     -2079.5674
   6   2.0000     -18.794565      -511.4261
   7   2.0000     -18.792875      -511.3801
   8   2.0000     -18.788513      -511.2614
   9   2.0000     -18.784191      -511.1438
  10   2.0000      -9.957427      -270.9554
  11   2.0000      -9.955023      -270.8899
  12   2.0000      -9.953747      -270.8552
  13   2.0000      -9.951648      -270.7981
  14   2.0000      -9.945658      -270.6351
  15   2.0000      -9.889978      -269.1200
  16   2.0000      -9.889311      -269.1018
  17   2.0000      -9.888329      -269.0751
  18   2.0000      -9.882334      -268.9120
  19   2.0000      -7.687337      -209.1831
  20   2.0000      -7.684889      -209.1165
  21   2.0000      -7.629364      -207.6055
  22   2.0000      -7.628804      -207.5903
  23   2.0000      -6.423893      -174.8030
  24   2.0000      -6.420596      -174.7133
  25   2.0000      -5.715188      -155.5182
  26   2.0000      -5.713071      -155.4606
  27   2.0000      -5.711972      -155.4307
  28   2.0000      -5.709424      -155.3613
  29   2.0000      -5.704171      -155.2184
  30   2.0000      -5.701516      -155.1461
  31   2.0000      -5.658194      -153.9673
  32   2.0000      -5.657783      -153.9561
  33   2.0000      -5.650204      -153.7499
  34   2.0000      -5.649600      -153.7334
  35   2.0000      -5.649387      -153.7276
  36   2.0000      -5.648656      -153.7078
  37   2.0000      -4.646583      -126.4400
  38   2.0000      -4.645676      -126.4153
  39   2.0000      -4.644243      -126.3763
  40   2.0000      -4.643543      -126.3572
  41   2.0000      -4.641979      -126.3147
  42   2.0000      -4.641075      -126.2901
  43   2.0000      -0.986736       -26.8505
  44   2.0000      -0.982496       -26.7351
  45   2.0000      -0.946516       -25.7560
  46   2.0000      -0.940966       -25.6050
  47   2.0000      -0.764490       -20.8028
  48   2.0000      -0.722711       -19.6660
  49   2.0000      -0.710639       -19.3375
  50   2.0000      -0.689271       -18.7560
  51   2.0000      -0.688028       -18.7222
  52   2.0000      -0.671897       -18.2832
  53   2.0000      -0.650207       -17.6930
  54   2.0000      -0.639244       -17.3947
  55   2.0000      -0.599026       -16.3003
  56   2.0000      -0.586391       -15.9565
  57   2.0000      -0.573675       -15.6105
  58   2.0000      -0.572423       -15.5764
  59   2.0000      -0.561406       -15.2766
  60   2.0000      -0.505564       -13.7571
  61   2.0000      -0.501051       -13.6343
  62   2.0000      -0.475997       -12.9525
  63   2.0000      -0.474103       -12.9010
  64   2.0000      -0.456683       -12.4270
  65   2.0000      -0.442452       -12.0397
  66   2.0000      -0.440171       -11.9777
  67   2.0000      -0.436006       -11.8643
  68   2.0000      -0.428884       -11.6705
  69   2.0000      -0.415903       -11.3173
  70   2.0000      -0.404380       -11.0037
  71   2.0000      -0.395452       -10.7608
  72   2.0000      -0.393274       -10.7015
  73   2.0000      -0.390125       -10.6159
  74   2.0000      -0.383874       -10.4458
  75   2.0000      -0.375442       -10.2163
  76   2.0000      -0.364055        -9.9064
  77   2.0000      -0.359133        -9.7725
  78   2.0000      -0.358105        -9.7445
  79   2.0000      -0.355934        -9.6854
  80   2.0000      -0.346586        -9.4311
  81   2.0000      -0.344982        -9.3874
  82   2.0000      -0.343634        -9.3508
  83   2.0000      -0.342314        -9.3148
  84   2.0000      -0.333833        -9.0840
  85   2.0000      -0.321727        -8.7546
  86   2.0000      -0.310002        -8.4356
  87   2.0000      -0.308598        -8.3974
  88   2.0000      -0.297248        -8.0885
  89   2.0000      -0.286575        -7.7981
  90   2.0000      -0.278365        -7.5747
  91   2.0000      -0.273939        -7.4543
  92   2.0000      -0.267243        -7.2721
  93   2.0000      -0.266937        -7.2637
  94   2.0000      -0.261287        -7.1100
  95   2.0000      -0.234203        -6.3730
  96   2.0000      -0.219319        -5.9680
  97   2.0000      -0.207322        -5.6415
  98   2.0000      -0.203080        -5.5261
  99   2.0000      -0.195368        -5.3162
 100   2.0000      -0.191301        -5.2056
 101   0.0000      -0.050208        -1.3662
 102   0.0000      -0.024366        -0.6630
 103   0.0000      -0.017326        -0.4715
 104   0.0000       0.006516         0.1773
 105   0.0000       0.018213         0.4956

MULLIKEN ATOMIC CHARGES
-----------------------
   0 C :   -0.316958
   1 C :   -0.019652
   2 O :   -0.365399
   3 P :    0.627437
   4 S :   -0.317034
   5 O :   -0.372907
   6 C :   -0.044695
   7 C :   -0.280640
   8 S :   -0.110849
   9 C :   -0.331236
  10 S :   -0.097750
  11 P :    0.617733
  12 S :   -0.324664
  13 O :   -0.366239
  14 C :   -0.000945
  15 C :   -0.344959
  16 O :   -0.375992
  17 C :   -0.003457
  18 C :   -0.305819
  19 H :    0.117345
  20 H :    0.111165
  21 H :    0.130581
  22 H :    0.115442
  23 H :    0.110761
  24 H :    0.111215
  25 H :    0.130462
  26 H :    0.120162
  27 H :    0.122045
  28 H :    0.112817
  29 H :    0.188869
  30 H :    0.187651
  31 H :    0.107883
  32 H :    0.105818
  33 H :    0.115251
  34 H :    0.123727
  35 H :    0.145307
  36 H :    0.106586
  37 H :    0.110163
  38 H :    0.113116
  39 H :    0.130629
  40 H :    0.117033
Sum of atomic charges:    0.0000000

LOEWDIN ATOMIC CHARGES
----------------------
   0 C :   -0.366649
   1 C :   -0.122973
   2 O :   -0.242510
   3 P :    0.571312
   4 S :   -0.313019
   5 O :   -0.244800
   6 C :   -0.122018
   7 C :   -0.349537
   8 S :    0.086827
   9 C :   -0.473002
  10 S :    0.084059
  11 P :    0.570483
  12 S :   -0.315827
  13 O :   -0.245920
  14 C :   -0.121844
  15 C :   -0.370781
  16 O :   -0.242799
  17 C :   -0.116019
  18 C :   -0.357858
  19 H :    0.122477
  20 H :    0.130652
  21 H :    0.124497
  22 H :    0.115470
  23 H :    0.109065
  24 H :    0.114187
  25 H :    0.114211
  26 H :    0.126937
  27 H :    0.130215
  28 H :    0.131614
  29 H :    0.131817
  30 H :    0.133750
  31 H :    0.107271
  32 H :    0.119105
  33 H :    0.132012
  34 H :    0.127676
  35 H :    0.119879
  36 H :    0.116896
  37 H :    0.107547
  38 H :    0.131995
  39 H :    0.120246
  40 H :    0.125357

  Mayer bond orders larger than 0.100000
B(  0-C ,  1-C ) :   1.1614 B(  0-C , 19-H ) :   0.9420 B(  0-C , 20-H ) :   0.9388
B(  0-C , 21-H ) :   0.9326 B(  1-C ,  2-O ) :   0.9079 B(  1-C , 22-H ) :   0.9208
B(  1-C , 23-H ) :   0.9154 B(  2-O ,  3-P ) :   1.0883 B(  3-P ,  4-S ) :   1.6383
B(  3-P ,  5-O ) :   1.1278 B(  3-P ,  8-S ) :   0.9515 B(  5-O ,  6-C ) :   0.8915
B(  6-C ,  7-C ) :   1.1682 B(  6-C , 24-H ) :   0.9293 B(  6-C , 25-H ) :   0.9072
B(  7-C , 26-H ) :   0.9482 B(  7-C , 27-H ) :   0.9481 B(  7-C , 28-H ) :   0.9401
B(  8-S ,  9-C ) :   1.0210 B(  9-C , 10-S ) :   0.9971 B(  9-C , 29-H ) :   0.8809
B(  9-C , 30-H ) :   0.9032 B( 10-S , 11-P ) :   0.9567 B( 10-S , 12-S ) :   0.1094
B( 11-P , 12-S ) :   1.6139 B( 11-P , 13-O ) :   1.1092 B( 11-P , 16-O ) :   1.1187
B( 13-O , 14-C ) :   0.9166 B( 14-C , 15-C ) :   1.1600 B( 14-C , 31-H ) :   0.9106
B( 14-C , 32-H ) :   0.9325 B( 15-C , 33-H ) :   0.9389 B( 15-C , 34-H ) :   0.9430
B( 15-C , 35-H ) :   0.9260 B( 16-O , 17-C ) :   0.8949 B( 17-C , 18-C ) :   1.1641
B( 17-C , 36-H ) :   0.9334 B( 17-C , 37-H ) :   0.9006 B( 18-C , 38-H ) :   0.9400
B( 18-C , 39-H ) :   0.9391 B( 18-C , 40-H ) :   0.9486

Dispersion correction           -0.067441014
FINAL SINGLE POINT ENERGY     -2929.517643470406

DIPOLE MOMENT
-------------

Method             : SCF
Type of density    : Electron Density
Multiplicity       :   1
Irrep              :   0
Energy             : -2929.6351613994884246 Eh
Relativity type    :
Basis              : AO
                                X                 Y                 Z
Electronic contribution:     -3.295558844      -2.237999426      13.286691047
Nuclear contribution   :      2.543769596       2.329744129     -14.357610240
                        -----------------------------------------
Total Dipole Moment    :     -0.751789248       0.091744703      -1.070919193
                        -----------------------------------------
Magnitude (a.u.)       :      1.311667672
Magnitude (Debye)      :      3.333994266

Rotational constants in cm-1:             0.010515             0.005964             0.005373
Rotational constants in MHz :           315.217116           178.781468           161.090834

                             ****ORCA TERMINATED NORMALLY****
TOTAL RUN TIME: 0 days 0 hours 0 minutes 21 seconds 947 msec
