                         Program Version 6.0.0  -   RELEASE  -
|  1> ! pbe def2-sv(p) def2/J RI DEFGRID1 loosescf d4 GCP(DFT/SV(P)) printgap
|  2> %output
|  3>     printlevel normal
|  4> end
|  5> * xyz 0 1
|  6> C 3.1424017137 -2.9992984185 -0.6269306635
|  7> C 4.2894454839 -2.0430466441 -0.3830083674
|  8> O 3.9835988836 -0.6895838445 -0.806252785
|  9> P 2.8158382894 0.2019406862 -0.2479733189
| 10> S 3.1375366859 2.1103725998 -0.5531174999
| 11> O 2.7749775124 -0.2401844759 1.2809043474
| 12> C 1.9719718781 0.4215326221 2.2767923956
| 13> C 0.8081190757 -0.4607689862 2.6845955507
| 14> S 1.0341187949 -0.5433488649 -1.1802328187
| 15> C 0.1896583799 1.0245517417 -1.4634410332
| 16> S -0.7469741028 1.6056407059 -0.0240577972
| 17> P -2.3823700799 0.2911649 -0.2989419028
| 18> S -3.0664261837 0.0896938812 -2.1175771536
| 19> O -3.4826160122 0.8401564508 0.6965029487
| 20> C -3.2134802415 1.0298984919 2.1105261671
| 21> C -4.5462444256 1.160876102 2.8176327304
| 22> O -1.7741953041 -1.0363042613 0.3564926469
| 23> C -2.2161598869 -2.3492777492 -0.0375678322
| 24> C -3.5978247171 -2.6468281833 0.5080852097
| 25> H 2.2864779674 -2.7234677371 -0.0138357799
| 26> H 2.8430204312 -2.9769889658 -1.6717443255
| 27> H 3.4564758924 -4.0050326958 -0.365446092
| 28> H 5.1629166825 -2.2977191005 -0.9849462787
| 29> H 4.5595600596 -2.0146756698 0.6740277594
| 30> H 2.6469903413 0.596257045 3.117165845
| 31> H 1.6290394376 1.3855023777 1.8867685998
| 32> H 0.1428173113 -0.6301138879 1.8414830167
| 33> H 1.1755496752 -1.4185215977 3.0419791795
| 34> H 0.2555944121 0.0315485674 3.4784593013
| 35> H -0.4983065584 0.8764397768 -2.2965057993
| 36> H 0.9300314927 1.7943689532 -1.6871927437
| 37> H -2.6450901518 0.1715611757 2.4766630225
| 38> H -2.6103603538 1.9349413205 2.2166640648
| 39> H -5.1320753113 0.2551105159 2.689117312
| 40> H -4.372710355 1.3306963285 3.8752911177
| 41> H -5.1040451807 1.9970062283 2.4060102271
| 42> H -2.2095038926 -2.4062340748 -1.1301598716
| 43> H -1.459824474 -3.0201169703 0.3712490205
| 44> H -4.313922725 -1.9358382538 0.0956299464
| 45> H -3.8922580309 -3.6504929472 0.2183412701
| 46> H -3.6043164624 -2.5687031424 1.5921620829
| 47> *
| 48>
| 49>                          ****END OF INPUT****

CARTESIAN COORDINATES (ANGSTROEM)
---------------------------------
  C      3.142402   -2.999298   -0.626931
  C      4.289445   -2.043047   -0.383008
  O      3.983599   -0.689584   -0.806253
  P      2.815838    0.201941   -0.247973
  S      3.137537    2.110373   -0.553117
  O      2.774978   -0.240184    1.280904
  C      1.971972    0.421533    2.276792
  C      0.808119   -0.460769    2.684596
  S      1.034119   -0.543349   -1.180233
  C      0.189658    1.024552   -1.463441
  S     -0.746974    1.605641   -0.024058
  P     -2.382370    0.291165   -0.298942
  S     -3.066426    0.089694   -2.117577
  O     -3.482616    0.840156    0.696503
  C     -3.213480    1.029898    2.110526
  C     -4.546244    1.160876    2.817633
  O     -1.774195   -1.036304    0.356493
  C     -2.216160   -2.349278   -0.037568
  C     -3.597825   -2.646828    0.508085
  H      2.286478   -2.723468   -0.013836
  H      2.843020   -2.976989   -1.671744
  H      3.456476   -4.005033   -0.365446
  H      5.162917   -2.297719   -0.984946
  H      4.559560   -2.014676    0.674028
  H      2.646990    0.596257    3.117166
  H      1.629039    1.385502    1.886769
  H      0.142817   -0.630114    1.841483
  H      1.175550   -1.418522    3.041979
  H      0.255594    0.031549    3.478459
  H     -0.498307    0.876440   -2.296506
  H      0.930031    1.794369   -1.687193
  H     -2.645090    0.171561    2.476663
  H     -2.610360    1.934941    2.216664
  H     -5.132075    0.255111    2.689117
  H     -4.372710    1.330696    3.875291
  H     -5.104045    1.997006    2.406010
  H     -2.209504   -2.406234   -1.130160
  H     -1.459824   -3.020117    0.371249
  H     -4.313923   -1.935838    0.095630
  H     -3.892258   -3.650493    0.218341
  H     -3.604316   -2.568703    1.592162

 Total Charge           Charge          ....    0
 Multiplicity           Mult            ....    1
 Number of Electrons    NEL             ....  202
 Basis Dimension        Dim             ....  334

ORBITAL ENERGIES
----------------

  NO   OCC          E(Eh)            E(eV)
   0   2.0000     -88.043253     -2395.7787
   1   2.0000     -88.040661     -2395.7082
   2   2.0000     -87.990567     -2394.3450
   3   2.0000     -87.985480     -2394.2066
   4   2.0000     -76.428982     -2079.7383
   5   2.0000     -76.427775     -2079.7055
   6   2.0000     -18.800761      -511.5947
   7   2.0000     -18.797077      -511.4945
   8   2.0000     -18.794540      -511.4254
   9   2.0000     -18.793327      -511.3924
  10   2.0000      -9.966075      -271.1907
  11   2.0000      -9.961524      -271.0668
  12   2.0000      -9.955493      -270.9027
  13   2.0000      -9.953111      -270.8379
  14   2.0000      -9.949146      -270.7300
  15   2.0000      -9.897741      -269.3312
  16   2.0000      -9.895014      -269.2570
  17   2.0000      -9.891160      -269.1522
  18   2.0000      -9.883785      -268.9515
  19   2.0000      -7.688376      -209.2114
  20   2.0000      -7.685298      -209.1276
  21   2.0000      -7.635768      -207.7798
  22   2.0000      -7.630698      -207.6419
  23   2.0000      -6.427097      -174.8902
  24   2.0000      -6.425182      -174.8381
  25   2.0000      -5.716063      -155.5420
  26   2.0000      -5.713203      -155.4642
  27   2.0000      -5.713094      -155.4612
  28   2.0000      -5.709782      -155.3711
  29   2.0000      -5.705327      -155.2498
  30   2.0000      -5.702373      -155.1694
  31   2.0000      -5.664820      -154.1476
  32   2.0000      -5.659707      -154.0084
  33   2.0000      -5.656465      -153.9202
  34   2.0000      -5.655670      -153.8986
  35   2.0000      -5.651163      -153.7760
  36   2.0000      -5.650881      -153.7683
  37   2.0000      -4.650065      -126.5347
  38   2.0000      -4.648468      -126.4912
  39   2.0000      -4.648139      -126.4823
  40   2.0000      -4.647512      -126.4652
  41   2.0000      -4.646703      -126.4432
  42   2.0000      -4.645528      -126.4113
  43   2.0000      -0.992098       -26.9964
  44   2.0000      -0.990478       -26.9523
  45   2.0000      -0.951523       -25.8923
  46   2.0000      -0.945702       -25.7339
  47   2.0000      -0.763664       -20.7803
  48   2.0000      -0.727082       -19.7849
  49   2.0000      -0.716433       -19.4951
  50   2.0000      -0.698227       -18.9997
  51   2.0000      -0.693785       -18.8788
  52   2.0000      -0.677595       -18.4383
  53   2.0000      -0.652913       -17.7667
  54   2.0000      -0.638417       -17.3722
  55   2.0000      -0.601133       -16.3577
  56   2.0000      -0.593184       -16.1414
  57   2.0000      -0.580657       -15.8005
  58   2.0000      -0.578829       -15.7508
  59   2.0000      -0.560322       -15.2471
  60   2.0000      -0.512191       -13.9374
  61   2.0000      -0.501442       -13.6449
  62   2.0000      -0.486785       -13.2461
  63   2.0000      -0.478009       -13.0073
  64   2.0000      -0.461477       -12.5574
  65   2.0000      -0.450964       -12.2714
  66   2.0000      -0.449552       -12.2329
  67   2.0000      -0.441599       -12.0165
  68   2.0000      -0.429497       -11.6872
  69   2.0000      -0.424235       -11.5440
  70   2.0000      -0.409861       -11.1529
  71   2.0000      -0.401080       -10.9139
  72   2.0000      -0.396870       -10.7994
  73   2.0000      -0.390741       -10.6326
  74   2.0000      -0.384011       -10.4495
  75   2.0000      -0.375009       -10.2045
  76   2.0000      -0.367957       -10.0126
  77   2.0000      -0.364768        -9.9258
  78   2.0000      -0.362353        -9.8601
  79   2.0000      -0.354667        -9.6510
  80   2.0000      -0.352723        -9.5981
  81   2.0000      -0.349895        -9.5211
  82   2.0000      -0.347965        -9.4686
  83   2.0000      -0.345227        -9.3941
  84   2.0000      -0.335408        -9.1269
  85   2.0000      -0.326339        -8.8801
  86   2.0000      -0.319061        -8.6821
  87   2.0000      -0.315520        -8.5857
  88   2.0000      -0.300874        -8.1872
  89   2.0000      -0.294077        -8.0022
  90   2.0000      -0.286219        -7.7884
  91   2.0000      -0.278533        -7.5793
  92   2.0000      -0.275831        -7.5058
  93   2.0000      -0.275471        -7.4959
  94   2.0000      -0.256946        -6.9918
  95   2.0000      -0.233930        -6.3656
  96   2.0000      -0.219806        -5.9812
  97   2.0000      -0.213269        -5.8033
  98   2.0000      -0.203540        -5.5386
  99   2.0000      -0.202668        -5.5149
 100   2.0000      -0.200512        -5.4562
 101   0.0000      -0.044571        -1.2129
 102   0.0000      -0.027649        -0.7524
 103   0.0000      -0.008208        -0.2234
 104   0.0000       0.001673         0.0455
 105   0.0000       0.008110         0.2207

MULLIKEN ATOMIC CHARGES
-----------------------
   0 C :   -0.340961
   1 C :    0.008550
   2 O :   -0.361892
   3 P :    0.609752
   4 S :   -0.308148
   5 O :   -0.385677
   6 C :   -0.001370
   7 C :   -0.332283
   8 S :   -0.112715
   9 C :   -0.349055
  10 S :   -0.098629
  11 P :    0.614744
  12 S :   -0.303516
  13 O :   -0.370043
  14 C :   -0.044973
  15 C :   -0.275338
  16 O :   -0.378587
  17 C :   -0.002858
  18 C :   -0.317804
  19 H :    0.132194
  20 H :    0.133174
  21 H :    0.118882
  22 H :    0.113905
  23 H :    0.112272
  24 H :    0.105109
  25 H :    0.105781
  26 H :    0.159963
  27 H :    0.105260
  28 H :    0.102692
  29 H :    0.189780
  30 H :    0.199236
  31 H :    0.116137
  32 H :    0.118594
  33 H :    0.120399
  34 H :    0.113055
  35 H :    0.127116
  36 H :    0.114428
  37 H :    0.103835
  38 H :    0.131442
  39 H :    0.115939
  40 H :    0.111608
Sum of atomic charges:    0.0000000

LOEWDIN ATOMIC CHARGES
----------------------
   0 C :   -0.373822
   1 C :   -0.106521
   2 O :   -0.235660
   3 P :    0.571818
   4 S :   -0.302237
   5 O :   -0.250952
   6 C :   -0.116054
   7 C :   -0.371431
   8 S :    0.073703
   9 C :   -0.489702
  10 S :    0.083431
  11 P :    0.570616
  12 S :   -0.301880
  13 O :   -0.243379
  14 C :   -0.119830
  15 C :   -0.348452
  16 O :   -0.247548
  17 C :   -0.121645
  18 C :   -0.365653
  19 H :    0.118299
  20 H :    0.129807
  21 H :    0.134367
  22 H :    0.124376
  23 H :    0.116071
  24 H :    0.117777
  25 H :    0.102973
  26 H :    0.121464
  27 H :    0.121282
  28 H :    0.125284
  29 H :    0.128961
  30 H :    0.129026
  31 H :    0.110922
  32 H :    0.113566
  33 H :    0.128765
  34 H :    0.131704
  35 H :    0.132848
  36 H :    0.110754
  37 H :    0.116836
  38 H :    0.125927
  39 H :    0.132602
  40 H :    0.121590

  Mayer bond orders larger than 0.100000
B(  0-C ,  1-C ) :   1.1703 B(  0-C , 19-H ) :   0.9308 B(  0-C , 20-H ) :   0.9405
B(  0-C , 21-H ) :   0.9349 B(  1-C ,  2-O ) :   0.8971 B(  1-C , 22-H ) :   0.9336
B(  1-C , 23-H ) :   0.9276 B(  2-O ,  3-P ) :   1.1487 B(  3-P ,  4-S ) :   1.6488
B(  3-P ,  5-O ) :   1.0703 B(  3-P ,  8-S ) :   0.9359 B(  4-S ,  8-S ) :   0.1164
B(  4-S , 30-H ) :   0.1047 B(  5-O ,  6-C ) :   0.9034 B(  6-C ,  7-C ) :   1.1642
B(  6-C , 24-H ) :   0.9354 B(  6-C , 25-H ) :   0.9018 B(  7-C , 26-H ) :   0.9166
B(  7-C , 27-H ) :   0.9443 B(  7-C , 28-H ) :   0.9391 B(  8-S ,  9-C ) :   1.0179
B(  9-C , 10-S ) :   1.0018 B(  9-C , 29-H ) :   0.8667 B(  9-C , 30-H ) :   0.8568
B( 10-S , 11-P ) :   0.9682 B( 10-S , 12-S ) :   0.1008 B( 11-P , 12-S ) :   1.6396
B( 11-P , 13-O ) :   1.1237 B( 11-P , 16-O ) :   1.0620 B( 13-O , 14-C ) :   0.8970
B( 14-C , 15-C ) :   1.1664 B( 14-C , 31-H ) :   0.9147 B( 14-C , 32-H ) :   0.9255
B( 15-C , 33-H ) :   0.9505 B( 15-C , 34-H ) :   0.9400 B( 15-C , 35-H ) :   0.9486
B( 16-O , 17-C ) :   0.9019 B( 17-C , 18-C ) :   1.1612 B( 17-C , 36-H ) :   0.9122
B( 17-C , 37-H ) :   0.9328 B( 18-C , 38-H ) :   0.9345 B( 18-C , 39-H ) :   0.9397
B( 18-C , 40-H ) :   0.9466

Dispersion correction           -0.064723579
FINAL SINGLE POINT ENERGY     -2929.518567664924

DIPOLE MOMENT
-------------

Method             : SCF
Type of density    : Electron Density
Multiplicity       :   1
Irrep              :   0
Energy             : -2929.6401730856259746 Eh
Relativity type    :
Basis              : AO
                                X                 Y                 Z
Electronic contribution:     10.172975076      16.914151299     -19.155061871
Nuclear contribution   :    -10.464478193     -18.634470539      21.104864787
                        -----------------------------------------
Total Dipole Moment    :     -0.291503117      -1.720319241       1.949802916
                        -----------------------------------------
Magnitude (a.u.)       :      2.616525133
Magnitude (Debye)      :      6.650678349

Rotational constants in cm-1:             0.012181             0.004711             0.004568
Rotational constants in MHz :           365.179806           141.240836           136.949015

                             ****ORCA TERMINATED NORMALLY****
TOTAL RUN TIME: 0 days 0 hours 0 minutes 21 seconds 455 msec
