                         Program Version 6.0.0  -   RELEASE  -
|  1> ! pbe def2-sv(p) def2/J RI DEFGRID1 loosescf d4 GCP(DFT/SV(P)) printgap
|  2> %output
|  3>     printlevel normal
|  4> end
|  5> * xyz 0 1
|  6> C 0.317303116 -2.6997345887 1.1514336501
|  7> C 1.6055568716 -2.1969003407 1.7695480667
|  8> O 2.0064358759 -0.9263819694 1.232894148
|  9> P 2.4197464078 -0.7416067345 -0.3000542999
| 10> S 3.3044783799 -2.3000687745 -1.090838001
| 11> O 3.2856687919 0.5867000723 -0.2221780412
| 12> C 4.6358786561 0.5594953503 0.2967724443
| 13> C 5.3875566274 1.7356356806 -0.2911730124
| 14> S 0.7466047424 0.0450062888 -1.3061688222
| 15> C 0.3644853806 1.4286590389 -0.1835949443
| 16> S -0.6569038337 0.9617195408 1.2358346605
| 17> P -2.4380841992 0.6846988557 0.150817795
| 18> S -2.8023098417 1.9300241222 -1.3264421116
| 19> O -3.5912889003 0.5995631556 1.243680878
| 20> C -4.3174086272 1.7573663469 1.6931686973
| 21> C -3.4358021885 2.7169920898 2.4658493856
| 22> O -2.2773042746 -0.8388785256 -0.2474171276
| 23> C -3.0427205483 -1.4577203237 -1.3043316043
| 24> C -2.1732523316 -2.4991318458 -1.9785857137
| 25> H 0.4629342134 -2.8539747514 0.081724845
| 26> H 0.0429870047 -3.6447317277 1.6093212955
| 27> H -0.4879920594 -1.9836634071 1.2964842332
| 28> H 2.4136505667 -2.9136604893 1.5921055124
| 29> H 1.4964950865 -2.0080797321 2.838127413
| 30> H 4.5776725651 0.6206092892 1.3859754993
| 31> H 5.0983244251 -0.3922599474 0.0135350649
| 32> H 4.8996659806 2.666810851 -0.0181955625
| 33> H 6.4026080929 1.735649057 0.0925396532
| 34> H 5.4141789816 1.6569278727 -1.3745539479
| 35> H -0.1794899039 2.1558163056 -0.7873707438
| 36> H 1.2891032384 1.8452737764 0.2030325654
| 37> H -4.7515578918 2.2524330117 0.8188104054
| 38> H -5.1096715539 1.3429872884 2.3178888107
| 39> H -4.0477889684 3.5095981768 2.8843206197
| 40> H -2.9208904864 2.1947686204 3.2682269462
| 41> H -2.6943072094 3.1575934004 1.8005870036
| 42> H -3.9280049991 -1.907401307 -0.8494353348
| 43> H -3.3533841524 -0.6824919414 -2.0133002449
| 44> H -2.7369263267 -2.9698366747 -2.7774488745
| 45> H -1.2845939474 -2.0308398164 -2.3956994936
| 46> H -1.8688078119 -3.2541242046 -1.2596172224
| 47> *
| 48>
| 49>                          ****END OF INPUT****

CARTESIAN COORDINATES (ANGSTROEM)
---------------------------------
  C      0.317303   -2.699735    1.151434
  C      1.605557   -2.196900    1.769548
  O      2.006436   -0.926382    1.232894
  P      2.419746   -0.741607   -0.300054
  S      3.304478   -2.300069   -1.090838
  O      3.285669    0.586700   -0.222178
  C      4.635879    0.559495    0.296772
  C      5.387557    1.735636   -0.291173
  S      0.746605    0.045006   -1.306169
  C      0.364485    1.428659   -0.183595
  S     -0.656904    0.961720    1.235835
  P     -2.438084    0.684699    0.150818
  S     -2.802310    1.930024   -1.326442
  O     -3.591289    0.599563    1.243681
  C     -4.317409    1.757366    1.693169
  C     -3.435802    2.716992    2.465849
  O     -2.277304   -0.838879   -0.247417
  C     -3.042721   -1.457720   -1.304332
  C     -2.173252   -2.499132   -1.978586
  H      0.462934   -2.853975    0.081725
  H      0.042987   -3.644732    1.609321
  H     -0.487992   -1.983663    1.296484
  H      2.413651   -2.913660    1.592106
  H      1.496495   -2.008080    2.838127
  H      4.577673    0.620609    1.385975
  H      5.098324   -0.392260    0.013535
  H      4.899666    2.666811   -0.018196
  H      6.402608    1.735649    0.092540
  H      5.414179    1.656928   -1.374554
  H     -0.179490    2.155816   -0.787371
  H      1.289103    1.845274    0.203033
  H     -4.751558    2.252433    0.818810
  H     -5.109672    1.342987    2.317889
  H     -4.047789    3.509598    2.884321
  H     -2.920890    2.194769    3.268227
  H     -2.694307    3.157593    1.800587
  H     -3.928005   -1.907401   -0.849435
  H     -3.353384   -0.682492   -2.013300
  H     -2.736926   -2.969837   -2.777449
  H     -1.284594   -2.030840   -2.395699
  H     -1.868808   -3.254124   -1.259617

 Total Charge           Charge          ....    0
 Multiplicity           Mult            ....    1
 Number of Electrons    NEL             ....  202
 Basis Dimension        Dim             ....  334

ORBITAL ENERGIES
----------------

  NO   OCC          E(Eh)            E(eV)
   0   2.0000     -88.048058     -2395.9095
   1   2.0000     -88.042682     -2395.7632
   2   2.0000     -87.993408     -2394.4224
   3   2.0000     -87.986356     -2394.2305
   4   2.0000     -76.430578     -2079.7818
   5   2.0000     -76.425138     -2079.6337
   6   2.0000     -18.797553      -511.5074
   7   2.0000     -18.792844      -511.3793
   8   2.0000     -18.792844      -511.3793
   9   2.0000     -18.789274      -511.2821
  10   2.0000      -9.958041      -270.9721
  11   2.0000      -9.956194      -270.9218
  12   2.0000      -9.953424      -270.8464
  13   2.0000      -9.951088      -270.7829
  14   2.0000      -9.946762      -270.6652
  15   2.0000      -9.888713      -269.0856
  16   2.0000      -9.888017      -269.0666
  17   2.0000      -9.882065      -268.9047
  18   2.0000      -9.873675      -268.6763
  19   2.0000      -7.693347      -209.3466
  20   2.0000      -7.687951      -209.1998
  21   2.0000      -7.638303      -207.8488
  22   2.0000      -7.631520      -207.6642
  23   2.0000      -6.428349      -174.9243
  24   2.0000      -6.423023      -174.7793
  25   2.0000      -5.721128      -155.6798
  26   2.0000      -5.717927      -155.5927
  27   2.0000      -5.716161      -155.5447
  28   2.0000      -5.712347      -155.4409
  29   2.0000      -5.710235      -155.3834
  30   2.0000      -5.704645      -155.2313
  31   2.0000      -5.666999      -154.2069
  32   2.0000      -5.660514      -154.0304
  33   2.0000      -5.658983      -153.9888
  34   2.0000      -5.658648      -153.9796
  35   2.0000      -5.652240      -153.8053
  36   2.0000      -5.651510      -153.7854
  37   2.0000      -4.650800      -126.5547
  38   2.0000      -4.650025      -126.5336
  39   2.0000      -4.648940      -126.5041
  40   2.0000      -4.645494      -126.4103
  41   2.0000      -4.644943      -126.3953
  42   2.0000      -4.643415      -126.3537
  43   2.0000      -0.990051       -26.9407
  44   2.0000      -0.985801       -26.8250
  45   2.0000      -0.948601       -25.8127
  46   2.0000      -0.943227       -25.6665
  47   2.0000      -0.767589       -20.8872
  48   2.0000      -0.725737       -19.7483
  49   2.0000      -0.710088       -19.3225
  50   2.0000      -0.688907       -18.7461
  51   2.0000      -0.682992       -18.5852
  52   2.0000      -0.676089       -18.3973
  53   2.0000      -0.654796       -17.8179
  54   2.0000      -0.640657       -17.4332
  55   2.0000      -0.602796       -16.4029
  56   2.0000      -0.588978       -16.0269
  57   2.0000      -0.573603       -15.6085
  58   2.0000      -0.570652       -15.5282
  59   2.0000      -0.558819       -15.2062
  60   2.0000      -0.505230       -13.7480
  61   2.0000      -0.504392       -13.7252
  62   2.0000      -0.476307       -12.9610
  63   2.0000      -0.468597       -12.7512
  64   2.0000      -0.460901       -12.5417
  65   2.0000      -0.444359       -12.0916
  66   2.0000      -0.442518       -12.0415
  67   2.0000      -0.434787       -11.8312
  68   2.0000      -0.430078       -11.7030
  69   2.0000      -0.422202       -11.4887
  70   2.0000      -0.411445       -11.1960
  71   2.0000      -0.395942       -10.7741
  72   2.0000      -0.393792       -10.7156
  73   2.0000      -0.392153       -10.6710
  74   2.0000      -0.384927       -10.4744
  75   2.0000      -0.375609       -10.2208
  76   2.0000      -0.363838        -9.9005
  77   2.0000      -0.357270        -9.7218
  78   2.0000      -0.354447        -9.6450
  79   2.0000      -0.353380        -9.6160
  80   2.0000      -0.346250        -9.4219
  81   2.0000      -0.344077        -9.3628
  82   2.0000      -0.338236        -9.2039
  83   2.0000      -0.335157        -9.1201
  84   2.0000      -0.332237        -9.0406
  85   2.0000      -0.322091        -8.7645
  86   2.0000      -0.311434        -8.4745
  87   2.0000      -0.300527        -8.1778
  88   2.0000      -0.297060        -8.0834
  89   2.0000      -0.291908        -7.9432
  90   2.0000      -0.288463        -7.8495
  91   2.0000      -0.278394        -7.5755
  92   2.0000      -0.273415        -7.4400
  93   2.0000      -0.268209        -7.2983
  94   2.0000      -0.258492        -7.0339
  95   2.0000      -0.233850        -6.3634
  96   2.0000      -0.219427        -5.9709
  97   2.0000      -0.212963        -5.7950
  98   2.0000      -0.208583        -5.6758
  99   2.0000      -0.207908        -5.6575
 100   2.0000      -0.201898        -5.4939
 101   0.0000      -0.043273        -1.1775
 102   0.0000      -0.024294        -0.6611
 103   0.0000      -0.016881        -0.4593
 104   0.0000       0.002344         0.0638
 105   0.0000       0.009057         0.2465

MULLIKEN ATOMIC CHARGES
-----------------------
   0 C :   -0.346205
   1 C :    0.009466
   2 O :   -0.386801
   3 P :    0.605247
   4 S :   -0.318753
   5 O :   -0.384871
   6 C :   -0.010445
   7 C :   -0.277665
   8 S :   -0.051883
   9 C :   -0.374341
  10 S :   -0.064993
  11 P :    0.611098
  12 S :   -0.334491
  13 O :   -0.374640
  14 C :   -0.002313
  15 C :   -0.318893
  16 O :   -0.356967
  17 C :   -0.012505
  18 C :   -0.293473
  19 H :    0.126345
  20 H :    0.105439
  21 H :    0.139238
  22 H :    0.106259
  23 H :    0.100121
  24 H :    0.102083
  25 H :    0.106587
  26 H :    0.114003
  27 H :    0.111939
  28 H :    0.123565
  29 H :    0.197254
  30 H :    0.192739
  31 H :    0.112836
  32 H :    0.106771
  33 H :    0.115101
  34 H :    0.118302
  35 H :    0.126673
  36 H :    0.102827
  37 H :    0.108066
  38 H :    0.109294
  39 H :    0.133273
  40 H :    0.124713
Sum of atomic charges:   -0.0000000

LOEWDIN ATOMIC CHARGES
----------------------
   0 C :   -0.376823
   1 C :   -0.119689
   2 O :   -0.252764
   3 P :    0.567397
   4 S :   -0.319960
   5 O :   -0.251949
   6 C :   -0.117800
   7 C :   -0.350112
   8 S :    0.104915
   9 C :   -0.482245
  10 S :    0.107328
  11 P :    0.571089
  12 S :   -0.320435
  13 O :   -0.246409
  14 C :   -0.118363
  15 C :   -0.369773
  16 O :   -0.235953
  17 C :   -0.116513
  18 C :   -0.353217
  19 H :    0.119171
  20 H :    0.127932
  21 H :    0.119498
  22 H :    0.108197
  23 H :    0.117167
  24 H :    0.112164
  25 H :    0.108859
  26 H :    0.125291
  27 H :    0.131053
  28 H :    0.130829
  29 H :    0.131436
  30 H :    0.135687
  31 H :    0.111657
  32 H :    0.119527
  33 H :    0.132085
  34 H :    0.124389
  35 H :    0.120988
  36 H :    0.113580
  37 H :    0.107355
  38 H :    0.129747
  39 H :    0.127543
  40 H :    0.127121

  Mayer bond orders larger than 0.100000
B(  0-C ,  1-C ) :   1.1624 B(  0-C , 19-H ) :   0.9289 B(  0-C , 20-H ) :   0.9374
B(  0-C , 21-H ) :   0.9294 B(  1-C ,  2-O ) :   0.9049 B(  1-C , 22-H ) :   0.9173
B(  1-C , 23-H ) :   0.9322 B(  2-O ,  3-P ) :   1.0807 B(  3-P ,  4-S ) :   1.6476
B(  3-P ,  5-O ) :   1.0929 B(  3-P ,  8-S ) :   0.9912 B(  5-O ,  6-C ) :   0.8947
B(  6-C ,  7-C ) :   1.1632 B(  6-C , 24-H ) :   0.9317 B(  6-C , 25-H ) :   0.9073
B(  7-C , 26-H ) :   0.9516 B(  7-C , 27-H ) :   0.9414 B(  7-C , 28-H ) :   0.9498
B(  8-S ,  9-C ) :   0.9833 B(  9-C , 10-S ) :   1.0016 B(  9-C , 29-H ) :   0.8717
B(  9-C , 30-H ) :   0.8893 B( 10-S , 11-P ) :   0.9693 B( 10-S , 12-S ) :   0.1090
B( 11-P , 12-S ) :   1.5957 B( 11-P , 13-O ) :   1.1144 B( 11-P , 16-O ) :   1.1338
B( 13-O , 14-C ) :   0.9081 B( 14-C , 15-C ) :   1.1646 B( 14-C , 31-H ) :   0.9168
B( 14-C , 32-H ) :   0.9338 B( 15-C , 33-H ) :   0.9377 B( 15-C , 34-H ) :   0.9449
B( 15-C , 35-H ) :   0.9350 B( 16-O , 17-C ) :   0.8938 B( 17-C , 18-C ) :   1.1662
B( 17-C , 36-H ) :   0.9326 B( 17-C , 37-H ) :   0.9054 B( 18-C , 38-H ) :   0.9396
B( 18-C , 39-H ) :   0.9439 B( 18-C , 40-H ) :   0.9455

Dispersion correction           -0.064131234
FINAL SINGLE POINT ENERGY     -2929.524422132455

DIPOLE MOMENT
-------------

Method             : SCF
Type of density    : Electron Density
Multiplicity       :   1
Irrep              :   0
Energy             : -2929.6455538486497971 Eh
Relativity type    :
Basis              : AO
                                X                 Y                 Z
Electronic contribution:      0.784893292       1.709056391      -7.079668389
Nuclear contribution   :     -1.196819374      -1.385851341       8.422557074
                        -----------------------------------------
Total Dipole Moment    :     -0.411926082       0.323205049       1.342888684
                        -----------------------------------------
Magnitude (a.u.)       :      1.441351664
Magnitude (Debye)      :      3.663624777

Rotational constants in cm-1:             0.012514             0.004672             0.004232
Rotational constants in MHz :           375.145855           140.059380           126.858355

                             ****ORCA TERMINATED NORMALLY****
TOTAL RUN TIME: 0 days 0 hours 0 minutes 20 seconds 990 msec
