                         Program Version 6.0.0  -   RELEASE  -
|  1> ! pbe def2-sv(p) def2/J RI DEFGRID1 loosescf d4 GCP(DFT/SV(P)) printgap
|  2> %output
|  3>     printlevel normal
|  4> end
|  5> * xyz 0 1
|  6> C 1.1344594228 -2.8680218408 1.1268879932
|  7> C 2.1643598228 -1.832101216 1.5314504506
|  8> O 1.7995636479 -0.5245454081 1.0460514477
|  9> P 2.4372457283 0.138997379 -0.2614865545
| 10> S 3.1226661468 -1.1182751286 -1.5899715524
| 11> O 3.6146651265 1.0846247149 0.2275060716
| 12> C 3.4722920701 2.3600627039 0.8942903017
| 13> C 2.7407137714 2.2495958965 2.2156003912
| 14> S 0.9031133195 1.4786368166 -0.8233497717
| 15> C 0.1222957649 0.4250522296 -2.0717861441
| 16> S -0.6033941817 -1.0841244318 -1.383822866
| 17> P -1.9828684684 -0.1372627689 -0.0859884459
| 18> S -2.7898690346 1.5188548728 -0.7688305925
| 19> O -1.1568935439 -0.0079787687 1.2554119672
| 20> C -1.3993481922 1.046067411 2.2071756633
| 21> C -2.7176833381 0.8450600739 2.9238333567
| 22> O -2.9596668765 -1.3299840638 0.2972529397
| 23> C -3.8864980091 -1.9169117231 -0.6373033473
| 24> C -5.2295017488 -1.213460758 -0.5922835081
| 25> H 1.15542402 -3.0194030566 0.0496411813
| 26> H 1.3588436332 -3.8073431425 1.6219033079
| 27> H 0.1393614383 -2.5356165032 1.4134467299
| 28> H 3.1534981829 -2.0971410826 1.1458597959
| 29> H 2.2091539174 -1.7210143309 2.6164294824
| 30> H 4.504266853 2.6880861547 1.0291845717
| 31> H 2.9516947869 3.0431133354 0.2179202799
| 32> H 1.7186269766 1.9155073972 2.0478402556
| 33> H 3.2437977609 1.5407841172 2.8683948911
| 34> H 2.7202491883 3.2247150426 2.6920204873
| 35> H 0.8673783665 0.1040620654 -2.7990392628
| 36> H -0.6561520697 1.0316449582 -2.534162197
| 37> H -0.5512290762 0.984741205 2.8907218745
| 38> H -1.3852624445 2.0054180677 1.6791312123
| 39> H -2.8413273741 1.6150613573 3.6787135805
| 40> H -3.5358047709 0.9146044035 2.2076207284
| 41> H -2.7453639456 -0.1344405284 3.3935803716
| 42> H -3.456213408 -1.8816389106 -1.64246758
| 43> H -3.9720869056 -2.956909765 -0.3166568641
| 44> H -5.631814026 -1.2400211678 0.4165933619
| 45> H -5.1239539816 -0.1757307336 -0.9007737521
| 46> H -5.9175558065 -1.7138509139 -1.2659934269
| 47> *
| 48>
| 49>                          ****END OF INPUT****

CARTESIAN COORDINATES (ANGSTROEM)
---------------------------------
  C      1.134459   -2.868022    1.126888
  C      2.164360   -1.832101    1.531450
  O      1.799564   -0.524545    1.046051
  P      2.437246    0.138997   -0.261487
  S      3.122666   -1.118275   -1.589972
  O      3.614665    1.084625    0.227506
  C      3.472292    2.360063    0.894290
  C      2.740714    2.249596    2.215600
  S      0.903113    1.478637   -0.823350
  C      0.122296    0.425052   -2.071786
  S     -0.603394   -1.084124   -1.383823
  P     -1.982868   -0.137263   -0.085988
  S     -2.789869    1.518855   -0.768831
  O     -1.156894   -0.007979    1.255412
  C     -1.399348    1.046067    2.207176
  C     -2.717683    0.845060    2.923833
  O     -2.959667   -1.329984    0.297253
  C     -3.886498   -1.916912   -0.637303
  C     -5.229502   -1.213461   -0.592284
  H      1.155424   -3.019403    0.049641
  H      1.358844   -3.807343    1.621903
  H      0.139361   -2.535617    1.413447
  H      3.153498   -2.097141    1.145860
  H      2.209154   -1.721014    2.616429
  H      4.504267    2.688086    1.029185
  H      2.951695    3.043113    0.217920
  H      1.718627    1.915507    2.047840
  H      3.243798    1.540784    2.868395
  H      2.720249    3.224715    2.692020
  H      0.867378    0.104062   -2.799039
  H     -0.656152    1.031645   -2.534162
  H     -0.551229    0.984741    2.890722
  H     -1.385262    2.005418    1.679131
  H     -2.841327    1.615061    3.678714
  H     -3.535805    0.914604    2.207621
  H     -2.745364   -0.134441    3.393580
  H     -3.456213   -1.881639   -1.642468
  H     -3.972087   -2.956910   -0.316657
  H     -5.631814   -1.240021    0.416593
  H     -5.123954   -0.175731   -0.900774
  H     -5.917556   -1.713851   -1.265993

 Total Charge           Charge          ....    0
 Multiplicity           Mult            ....    1
 Number of Electrons    NEL             ....  202
 Basis Dimension        Dim             ....  334

ORBITAL ENERGIES
----------------

  NO   OCC          E(Eh)            E(eV)
   0   2.0000     -88.045057     -2395.8278
   1   2.0000     -88.043910     -2395.7966
   2   2.0000     -87.991686     -2394.3755
   3   2.0000     -87.982469     -2394.1247
   4   2.0000     -76.429464     -2079.7515
   5   2.0000     -76.423722     -2079.5952
   6   2.0000     -18.797159      -511.4967
   7   2.0000     -18.791151      -511.3332
   8   2.0000     -18.791058      -511.3307
   9   2.0000     -18.783949      -511.1372
  10   2.0000      -9.959913      -271.0230
  11   2.0000      -9.957851      -270.9669
  12   2.0000      -9.956775      -270.9376
  13   2.0000      -9.952635      -270.8250
  14   2.0000      -9.947251      -270.6784
  15   2.0000      -9.892885      -269.1991
  16   2.0000      -9.884859      -268.9807
  17   2.0000      -9.883636      -268.9474
  18   2.0000      -9.872639      -268.6482
  19   2.0000      -7.689972      -209.2548
  20   2.0000      -7.688705      -209.2203
  21   2.0000      -7.636529      -207.8005
  22   2.0000      -7.627791      -207.5628
  23   2.0000      -6.426820      -174.8827
  24   2.0000      -6.421447      -174.7365
  25   2.0000      -5.717807      -155.5894
  26   2.0000      -5.716570      -155.5558
  27   2.0000      -5.714586      -155.5018
  28   2.0000      -5.713220      -155.4646
  29   2.0000      -5.706868      -155.2918
  30   2.0000      -5.705670      -155.2592
  31   2.0000      -5.665313      -154.1610
  32   2.0000      -5.657095      -153.9374
  33   2.0000      -5.656907      -153.9323
  34   2.0000      -5.656900      -153.9321
  35   2.0000      -5.648699      -153.7089
  36   2.0000      -5.647405      -153.6737
  37   2.0000      -4.649229      -126.5119
  38   2.0000      -4.648640      -126.4959
  39   2.0000      -4.647401      -126.4622
  40   2.0000      -4.644256      -126.3766
  41   2.0000      -4.642983      -126.3420
  42   2.0000      -4.641937      -126.3135
  43   2.0000      -0.990241       -26.9458
  44   2.0000      -0.979493       -26.6534
  45   2.0000      -0.948492       -25.8098
  46   2.0000      -0.940068       -25.5805
  47   2.0000      -0.767525       -20.8854
  48   2.0000      -0.722405       -19.6576
  49   2.0000      -0.710850       -19.3432
  50   2.0000      -0.690163       -18.7803
  51   2.0000      -0.687728       -18.7140
  52   2.0000      -0.672930       -18.3114
  53   2.0000      -0.651810       -17.7367
  54   2.0000      -0.640789       -17.4368
  55   2.0000      -0.600467       -16.3395
  56   2.0000      -0.591446       -16.0941
  57   2.0000      -0.579484       -15.7686
  58   2.0000      -0.570654       -15.5283
  59   2.0000      -0.559751       -15.2316
  60   2.0000      -0.504088       -13.7169
  61   2.0000      -0.495274       -13.4771
  62   2.0000      -0.477928       -13.0051
  63   2.0000      -0.474816       -12.9204
  64   2.0000      -0.457912       -12.4604
  65   2.0000      -0.446499       -12.1499
  66   2.0000      -0.441989       -12.0271
  67   2.0000      -0.436170       -11.8688
  68   2.0000      -0.428997       -11.6736
  69   2.0000      -0.407372       -11.0851
  70   2.0000      -0.407013       -11.0754
  71   2.0000      -0.401293       -10.9197
  72   2.0000      -0.394456       -10.7337
  73   2.0000      -0.392374       -10.6770
  74   2.0000      -0.382504       -10.4085
  75   2.0000      -0.373622       -10.1668
  76   2.0000      -0.366154        -9.9635
  77   2.0000      -0.356314        -9.6958
  78   2.0000      -0.354308        -9.6412
  79   2.0000      -0.352621        -9.5953
  80   2.0000      -0.349195        -9.5021
  81   2.0000      -0.345703        -9.4070
  82   2.0000      -0.342281        -9.3139
  83   2.0000      -0.337688        -9.1889
  84   2.0000      -0.335469        -9.1286
  85   2.0000      -0.322738        -8.7822
  86   2.0000      -0.308713        -8.4005
  87   2.0000      -0.301733        -8.2106
  88   2.0000      -0.299967        -8.1625
  89   2.0000      -0.288438        -7.8488
  90   2.0000      -0.278523        -7.5790
  91   2.0000      -0.277986        -7.5644
  92   2.0000      -0.273835        -7.4514
  93   2.0000      -0.267920        -7.2905
  94   2.0000      -0.256822        -6.9885
  95   2.0000      -0.231874        -6.3096
  96   2.0000      -0.218840        -5.9549
  97   2.0000      -0.214453        -5.8356
  98   2.0000      -0.207369        -5.6428
  99   2.0000      -0.200189        -5.4474
 100   2.0000      -0.194715        -5.2985
 101   0.0000      -0.047192        -1.2842
 102   0.0000      -0.025961        -0.7064
 103   0.0000      -0.003647        -0.0992
 104   0.0000       0.002183         0.0594
 105   0.0000       0.009191         0.2501

MULLIKEN ATOMIC CHARGES
-----------------------
   0 C :   -0.296223
   1 C :   -0.007420
   2 O :   -0.377317
   3 P :    0.620276
   4 S :   -0.319054
   5 O :   -0.370023
   6 C :   -0.016044
   7 C :   -0.334488
   8 S :   -0.106232
   9 C :   -0.344761
  10 S :   -0.072027
  11 P :    0.618864
  12 S :   -0.335124
  13 O :   -0.354741
  14 C :   -0.027805
  15 C :   -0.291942
  16 O :   -0.372931
  17 C :   -0.012840
  18 C :   -0.297116
  19 H :    0.130030
  20 H :    0.101267
  21 H :    0.117516
  22 H :    0.105125
  23 H :    0.095722
  24 H :    0.114909
  25 H :    0.118795
  26 H :    0.148032
  27 H :    0.118734
  28 H :    0.114604
  29 H :    0.193594
  30 H :    0.191803
  31 H :    0.116481
  32 H :    0.114412
  33 H :    0.110473
  34 H :    0.123321
  35 H :    0.114103
  36 H :    0.104381
  37 H :    0.109419
  38 H :    0.114159
  39 H :    0.130973
  40 H :    0.109096
Sum of atomic charges:   -0.0000000

LOEWDIN ATOMIC CHARGES
----------------------
   0 C :   -0.365846
   1 C :   -0.114517
   2 O :   -0.250527
   3 P :    0.570175
   4 S :   -0.315246
   5 O :   -0.247594
   6 C :   -0.116062
   7 C :   -0.368952
   8 S :    0.087841
   9 C :   -0.477458
  10 S :    0.104619
  11 P :    0.569893
  12 S :   -0.321542
  13 O :   -0.227289
  14 C :   -0.120292
  15 C :   -0.364508
  16 O :   -0.243943
  17 C :   -0.116317
  18 C :   -0.364590
  19 H :    0.121562
  20 H :    0.124931
  21 H :    0.121173
  22 H :    0.108487
  23 H :    0.113029
  24 H :    0.124336
  25 H :    0.109806
  26 H :    0.123001
  27 H :    0.127830
  28 H :    0.131805
  29 H :    0.133175
  30 H :    0.131270
  31 H :    0.117464
  32 H :    0.109418
  33 H :    0.130023
  34 H :    0.122435
  35 H :    0.125678
  36 H :    0.107202
  37 H :    0.119922
  38 H :    0.125605
  39 H :    0.124451
  40 H :    0.129553

  Mayer bond orders larger than 0.100000
B(  0-C ,  1-C ) :   1.1737 B(  0-C , 19-H ) :   0.9358 B(  0-C , 20-H ) :   0.9383
B(  0-C , 21-H ) :   0.9413 B(  1-C ,  2-O ) :   0.9030 B(  1-C , 22-H ) :   0.9132
B(  1-C , 23-H ) :   0.9335 B(  2-O ,  3-P ) :   1.0897 B(  3-P ,  4-S ) :   1.6241
B(  3-P ,  5-O ) :   1.1202 B(  3-P ,  8-S ) :   0.9494 B(  4-S ,  8-S ) :   0.1005
B(  5-O ,  6-C ) :   0.9138 B(  6-C ,  7-C ) :   1.1624 B(  6-C , 24-H ) :   0.9347
B(  6-C , 25-H ) :   0.9185 B(  7-C , 26-H ) :   0.9300 B(  7-C , 27-H ) :   0.9452
B(  7-C , 28-H ) :   0.9357 B(  8-S ,  9-C ) :   1.0112 B(  9-C , 10-S ) :   1.0076
B(  9-C , 29-H ) :   0.8839 B(  9-C , 30-H ) :   0.8842 B( 10-S , 11-P ) :   0.9614
B( 10-S , 12-S ) :   0.1090 B( 11-P , 12-S ) :   1.5865 B( 11-P , 13-O ) :   1.1212
B( 11-P , 16-O ) :   1.1094 B( 13-O , 14-C ) :   0.9036 B( 14-C , 15-C ) :   1.1612
B( 14-C , 31-H ) :   0.9239 B( 14-C , 32-H ) :   0.9145 B( 15-C , 33-H ) :   0.9394
B( 15-C , 34-H ) :   0.9324 B( 15-C , 35-H ) :   0.9457 B( 16-O , 17-C ) :   0.9056
B( 17-C , 18-C ) :   1.1672 B( 17-C , 36-H ) :   0.9158 B( 17-C , 37-H ) :   0.9358
B( 18-C , 38-H ) :   0.9469 B( 18-C , 39-H ) :   0.9314 B( 18-C , 40-H ) :   0.9392

Dispersion correction           -0.067856985
FINAL SINGLE POINT ENERGY     -2929.522234481563

DIPOLE MOMENT
-------------

Method             : SCF
Type of density    : Electron Density
Multiplicity       :   1
Irrep              :   0
Energy             : -2929.6400564756931999 Eh
Relativity type    :
Basis              : AO
                                X                 Y                 Z
Electronic contribution:     10.919534171       2.199125614     -18.335700350
Nuclear contribution   :    -11.470317220      -2.114485741      19.726318259
                        -----------------------------------------
Total Dipole Moment    :     -0.550783049       0.084639874       1.390617908
                        -----------------------------------------
Magnitude (a.u.)       :      1.498113494
Magnitude (Debye)      :      3.807901883

Rotational constants in cm-1:             0.012383             0.005503             0.005107
Rotational constants in MHz :           371.235858           164.964015           153.103631

                             ****ORCA TERMINATED NORMALLY****
TOTAL RUN TIME: 0 days 0 hours 0 minutes 22 seconds 124 msec
