                         Program Version 6.0.0  -   RELEASE  -
|  1> ! pbe def2-sv(p) def2/J RI DEFGRID1 loosescf d4 GCP(DFT/SV(P)) printgap
|  2> %output
|  3>     printlevel normal
|  4> end
|  5> * xyz 0 1
|  6> C 2.5427718697 -3.1104866442 -0.2908779169
|  7> C 3.3562901619 -2.1411601239 -1.1206777303
|  8> O 3.4850534079 -0.8483156946 -0.4846292045
|  9> P 2.3132650815 0.1466088776 -0.1291872816
| 10> S 2.9695137069 1.9662977054 0.1433543465
| 11> O 1.5896245073 -0.5066468335 1.1328205775
| 12> C 1.2548228062 0.2032822476 2.3361203443
| 13> C 2.3140898337 -0.0362944396 3.393233804
| 14> S 0.9338101373 -0.1364355497 -1.7348003743
| 15> C 0.1374321127 1.4795793644 -1.6088937039
| 16> S -0.751595368 1.7247319574 -0.0511812586
| 17> P -2.1863645758 0.1937683907 -0.3456615791
| 18> S -2.8247627154 -0.0646774934 -2.1725923162
| 19> O -3.3778149387 0.5481964414 0.6359774813
| 20> C -3.2614035918 0.5967818059 2.0791560816
| 21> C -2.9782449466 2.0048533227 2.5619888729
| 22> O -1.4101538899 -1.0390291163 0.3194942666
| 23> C -1.6215077317 -2.3941951892 -0.1203370433
| 24> C -2.9955848008 -2.8984190408 0.2708364397
| 25> H 1.5257683673 -2.7387314312 -0.1857966826
| 26> H 2.5200437793 -4.0748466329 -0.7885972329
| 27> H 2.9822494789 -3.2227845735 0.6965670722
| 28> H 2.9044859119 -1.995918559 -2.1057912167
| 29> H 4.3907441691 -2.4695784278 -1.2327181828
| 30> H 1.1652886902 1.2716687061 2.1162431391
| 31> H 0.2831678757 -0.1918641088 2.6383527731
| 32> H 3.2678392993 0.3618663343 3.05172348
| 33> H 2.0266774163 0.4689469688 4.3095970132
| 34> H 2.4239950086 -1.099849784 3.5849845072
| 35> H -0.5636017187 1.5443283589 -2.4407970679
| 36> H 0.8917146834 2.2649290578 -1.6567115232
| 37> H -4.2325622044 0.2469294096 2.4336897201
| 38> H -2.4783800104 -0.0963080707 2.3953283191
| 39> H -2.00462216 2.3438035176 2.2133125404
| 40> H -3.7372896465 2.686016137 2.1875536229
| 41> H -2.9905186881 2.0165811273 3.6473715631
| 42> H -1.4884096181 -2.4320406892 -1.2059449634
| 43> H -0.8285896494 -2.9596561245 0.3718810292
| 44> H -3.7603985034 -2.2892607727 -0.2108764078
| 45> H -3.1074878981 -3.926897073 -0.0574613538
| 46> H -3.1294987936 -2.8478372552 1.3483701928
| 47> *
| 48>
| 49>                          ****END OF INPUT****

CARTESIAN COORDINATES (ANGSTROEM)
---------------------------------
  C      2.542772   -3.110487   -0.290878
  C      3.356290   -2.141160   -1.120678
  O      3.485053   -0.848316   -0.484629
  P      2.313265    0.146609   -0.129187
  S      2.969514    1.966298    0.143354
  O      1.589625   -0.506647    1.132821
  C      1.254823    0.203282    2.336120
  C      2.314090   -0.036294    3.393234
  S      0.933810   -0.136436   -1.734800
  C      0.137432    1.479579   -1.608894
  S     -0.751595    1.724732   -0.051181
  P     -2.186365    0.193768   -0.345662
  S     -2.824763   -0.064677   -2.172592
  O     -3.377815    0.548196    0.635977
  C     -3.261404    0.596782    2.079156
  C     -2.978245    2.004853    2.561989
  O     -1.410154   -1.039029    0.319494
  C     -1.621508   -2.394195   -0.120337
  C     -2.995585   -2.898419    0.270836
  H      1.525768   -2.738731   -0.185797
  H      2.520044   -4.074847   -0.788597
  H      2.982249   -3.222785    0.696567
  H      2.904486   -1.995919   -2.105791
  H      4.390744   -2.469578   -1.232718
  H      1.165289    1.271669    2.116243
  H      0.283168   -0.191864    2.638353
  H      3.267839    0.361866    3.051723
  H      2.026677    0.468947    4.309597
  H      2.423995   -1.099850    3.584985
  H     -0.563602    1.544328   -2.440797
  H      0.891715    2.264929   -1.656712
  H     -4.232562    0.246929    2.433690
  H     -2.478380   -0.096308    2.395328
  H     -2.004622    2.343804    2.213313
  H     -3.737290    2.686016    2.187554
  H     -2.990519    2.016581    3.647372
  H     -1.488410   -2.432041   -1.205945
  H     -0.828590   -2.959656    0.371881
  H     -3.760399   -2.289261   -0.210876
  H     -3.107488   -3.926897   -0.057461
  H     -3.129499   -2.847837    1.348370

 Total Charge           Charge          ....    0
 Multiplicity           Mult            ....    1
 Number of Electrons    NEL             ....  202
 Basis Dimension        Dim             ....  334

ORBITAL ENERGIES
----------------

  NO   OCC          E(Eh)            E(eV)
   0   2.0000     -88.044528     -2395.8134
   1   2.0000     -88.041782     -2395.7387
   2   2.0000     -87.988973     -2394.3017
   3   2.0000     -87.985831     -2394.2162
   4   2.0000     -76.428580     -2079.7274
   5   2.0000     -76.426860     -2079.6806
   6   2.0000     -18.798759      -511.5402
   7   2.0000     -18.794690      -511.4295
   8   2.0000     -18.792855      -511.3796
   9   2.0000     -18.787846      -511.2433
  10   2.0000      -9.964789      -271.1557
  11   2.0000      -9.962745      -271.1001
  12   2.0000      -9.954867      -270.8857
  13   2.0000      -9.954128      -270.8656
  14   2.0000      -9.948489      -270.7121
  15   2.0000      -9.894992      -269.2564
  16   2.0000      -9.893682      -269.2208
  17   2.0000      -9.888587      -269.0821
  18   2.0000      -9.882697      -268.9219
  19   2.0000      -7.689176      -209.2331
  20   2.0000      -7.686542      -209.1614
  21   2.0000      -7.634228      -207.7379
  22   2.0000      -7.631053      -207.6515
  23   2.0000      -6.426318      -174.8690
  24   2.0000      -6.424240      -174.8125
  25   2.0000      -5.717022      -155.5681
  26   2.0000      -5.714379      -155.4962
  27   2.0000      -5.713838      -155.4814
  28   2.0000      -5.711160      -155.4086
  29   2.0000      -5.706062      -155.2698
  30   2.0000      -5.703493      -155.1999
  31   2.0000      -5.663257      -154.1051
  32   2.0000      -5.660055      -154.0179
  33   2.0000      -5.654812      -153.8752
  34   2.0000      -5.654262      -153.8603
  35   2.0000      -5.651742      -153.7917
  36   2.0000      -5.651000      -153.7715
  37   2.0000      -4.649292      -126.5137
  38   2.0000      -4.647641      -126.4687
  39   2.0000      -4.646950      -126.4499
  40   2.0000      -4.646843      -126.4470
  41   2.0000      -4.645876      -126.4207
  42   2.0000      -4.644749      -126.3900
  43   2.0000      -0.989139       -26.9158
  44   2.0000      -0.985175       -26.8080
  45   2.0000      -0.947610       -25.7858
  46   2.0000      -0.944755       -25.7081
  47   2.0000      -0.766528       -20.8583
  48   2.0000      -0.724905       -19.7257
  49   2.0000      -0.715063       -19.4579
  50   2.0000      -0.696995       -18.9662
  51   2.0000      -0.692172       -18.8350
  52   2.0000      -0.675378       -18.3780
  53   2.0000      -0.652964       -17.7680
  54   2.0000      -0.640799       -17.4370
  55   2.0000      -0.599018       -16.3001
  56   2.0000      -0.594856       -16.1869
  57   2.0000      -0.584781       -15.9127
  58   2.0000      -0.574352       -15.6289
  59   2.0000      -0.564079       -15.3494
  60   2.0000      -0.506057       -13.7705
  61   2.0000      -0.497081       -13.5263
  62   2.0000      -0.481498       -13.1022
  63   2.0000      -0.480371       -13.0716
  64   2.0000      -0.458824       -12.4852
  65   2.0000      -0.453082       -12.3290
  66   2.0000      -0.445601       -12.1254
  67   2.0000      -0.436868       -11.8878
  68   2.0000      -0.431974       -11.7546
  69   2.0000      -0.415019       -11.2932
  70   2.0000      -0.409868       -11.1531
  71   2.0000      -0.403743       -10.9864
  72   2.0000      -0.394431       -10.7330
  73   2.0000      -0.384470       -10.4620
  74   2.0000      -0.381354       -10.3772
  75   2.0000      -0.378486       -10.2991
  76   2.0000      -0.371963       -10.1216
  77   2.0000      -0.362836        -9.8733
  78   2.0000      -0.361702        -9.8424
  79   2.0000      -0.358192        -9.7469
  80   2.0000      -0.353865        -9.6291
  81   2.0000      -0.350001        -9.5240
  82   2.0000      -0.348253        -9.4764
  83   2.0000      -0.346200        -9.4206
  84   2.0000      -0.335834        -9.1385
  85   2.0000      -0.321671        -8.7531
  86   2.0000      -0.317879        -8.6499
  87   2.0000      -0.306875        -8.3505
  88   2.0000      -0.300667        -8.1816
  89   2.0000      -0.285754        -7.7758
  90   2.0000      -0.284082        -7.7303
  91   2.0000      -0.277077        -7.5397
  92   2.0000      -0.275081        -7.4853
  93   2.0000      -0.273872        -7.4524
  94   2.0000      -0.256098        -6.9688
  95   2.0000      -0.232120        -6.3163
  96   2.0000      -0.215996        -5.8775
  97   2.0000      -0.215010        -5.8507
  98   2.0000      -0.207273        -5.6402
  99   2.0000      -0.200296        -5.4503
 100   2.0000      -0.199143        -5.4189
 101   0.0000      -0.047735        -1.2989
 102   0.0000      -0.025150        -0.6844
 103   0.0000      -0.001945        -0.0529
 104   0.0000      -0.001283        -0.0349
 105   0.0000       0.004730         0.1287

MULLIKEN ATOMIC CHARGES
-----------------------
   0 C :   -0.334752
   1 C :   -0.018908
   2 O :   -0.362753
   3 P :    0.619381
   4 S :   -0.316938
   5 O :   -0.378048
   6 C :   -0.024121
   7 C :   -0.280971
   8 S :   -0.113830
   9 C :   -0.335203
  10 S :   -0.108330
  11 P :    0.628917
  12 S :   -0.313263
  13 O :   -0.366150
  14 C :   -0.039304
  15 C :   -0.304287
  16 O :   -0.383129
  17 C :   -0.030346
  18 C :   -0.301537
  19 H :    0.152225
  20 H :    0.114371
  21 H :    0.120791
  22 H :    0.122379
  23 H :    0.116232
  24 H :    0.117708
  25 H :    0.100757
  26 H :    0.120505
  27 H :    0.105657
  28 H :    0.107328
  29 H :    0.193204
  30 H :    0.195087
  31 H :    0.113102
  32 H :    0.118821
  33 H :    0.138156
  34 H :    0.127488
  35 H :    0.113136
  36 H :    0.114551
  37 H :    0.119306
  38 H :    0.131238
  39 H :    0.113141
  40 H :    0.108389
Sum of atomic charges:    0.0000000

LOEWDIN ATOMIC CHARGES
----------------------
   0 C :   -0.368293
   1 C :   -0.113604
   2 O :   -0.238574
   3 P :    0.574112
   4 S :   -0.310147
   5 O :   -0.244440
   6 C :   -0.126765
   7 C :   -0.358453
   8 S :    0.073704
   9 C :   -0.479191
  10 S :    0.094191
  11 P :    0.572790
  12 S :   -0.307098
  13 O :   -0.241922
  14 C :   -0.117329
  15 C :   -0.361861
  16 O :   -0.249554
  17 C :   -0.123134
  18 C :   -0.366413
  19 H :    0.123748
  20 H :    0.131573
  21 H :    0.128922
  22 H :    0.110261
  23 H :    0.125107
  24 H :    0.102835
  25 H :    0.108800
  26 H :    0.126726
  27 H :    0.127868
  28 H :    0.121438
  29 H :    0.132125
  30 H :    0.132102
  31 H :    0.122733
  32 H :    0.108499
  33 H :    0.119089
  34 H :    0.132885
  35 H :    0.131941
  36 H :    0.110315
  37 H :    0.116508
  38 H :    0.125678
  39 H :    0.131730
  40 H :    0.121096

  Mayer bond orders larger than 0.100000
B(  0-C ,  1-C ) :   1.1649 B(  0-C , 19-H ) :   0.9252 B(  0-C , 20-H ) :   0.9357
B(  0-C , 21-H ) :   0.9437 B(  1-C ,  2-O ) :   0.9064 B(  1-C , 22-H ) :   0.9171
B(  1-C , 23-H ) :   0.9340 B(  2-O ,  3-P ) :   1.1446 B(  3-P ,  4-S ) :   1.6221
B(  3-P ,  5-O ) :   1.0846 B(  3-P ,  8-S ) :   0.9326 B(  4-S ,  8-S ) :   0.1009
B(  5-O ,  6-C ) :   0.9017 B(  6-C ,  7-C ) :   1.1600 B(  6-C , 24-H ) :   0.9001
B(  6-C , 25-H ) :   0.9273 B(  7-C , 26-H ) :   0.9426 B(  7-C , 27-H ) :   0.9414
B(  7-C , 28-H ) :   0.9484 B(  8-S ,  9-C ) :   1.0185 B(  9-C , 10-S ) :   1.0005
B(  9-C , 29-H ) :   0.8814 B(  9-C , 30-H ) :   0.8798 B( 10-S , 11-P ) :   0.9510
B( 10-S , 12-S ) :   0.1016 B( 11-P , 12-S ) :   1.6327 B( 11-P , 13-O ) :   1.1236
B( 11-P , 16-O ) :   1.0683 B( 13-O , 14-C ) :   0.9025 B( 14-C , 15-C ) :   1.1698
B( 14-C , 31-H ) :   0.9329 B( 14-C , 32-H ) :   0.9107 B( 15-C , 33-H ) :   0.9314
B( 15-C , 34-H ) :   0.9455 B( 15-C , 35-H ) :   0.9379 B( 16-O , 17-C ) :   0.9054
B( 17-C , 18-C ) :   1.1602 B( 17-C , 36-H ) :   0.9154 B( 17-C , 37-H ) :   0.9205
B( 18-C , 38-H ) :   0.9310 B( 18-C , 39-H ) :   0.9397 B( 18-C , 40-H ) :   0.9461

Dispersion correction           -0.067702602
FINAL SINGLE POINT ENERGY     -2929.518183863579

DIPOLE MOMENT
-------------

Method             : SCF
Type of density    : Electron Density
Multiplicity       :   1
Irrep              :   0
Energy             : -2929.6371014338924397 Eh
Relativity type    :
Basis              : AO
                                X                 Y                 Z
Electronic contribution:      3.507703895      15.009008406     -18.962654352
Nuclear contribution   :     -3.814423998     -16.513226330      20.363540273
                        -----------------------------------------
Total Dipole Moment    :     -0.306720103      -1.504217924       1.400885921
                        -----------------------------------------
Magnitude (a.u.)       :      2.078275763
Magnitude (Debye)      :      5.282557179

Rotational constants in cm-1:             0.010750             0.005931             0.005470
Rotational constants in MHz :           322.274569           177.805919           163.977659

                             ****ORCA TERMINATED NORMALLY****
TOTAL RUN TIME: 0 days 0 hours 0 minutes 22 seconds 225 msec
