                         Program Version 6.0.0  -   RELEASE  -
|  1> ! pbe def2-sv(p) def2/J RI DEFGRID1 loosescf d4 GCP(DFT/SV(P)) printgap
|  2> %output
|  3>     printlevel normal
|  4> end
|  5> * xyz 0 1
|  6> C 5.5430415422 0.9047432528 -0.2066766212
|  7> C 4.2506589337 1.3961935531 -0.8295224698
|  8> O 3.3063726263 0.3164941491 -0.9885048919
|  9> P 2.2289938758 -0.050666264 0.1171254573
| 10> S 2.8881526842 -0.47094606 1.9182258673
| 11> O 1.4244284598 -1.2025168972 -0.6043543009
| 12> C 1.6745096739 -2.5981444365 -0.3523489214
| 13> C 3.0191884396 -3.02409399 -0.9004091314
| 14> S 0.8741984972 1.5640374034 -0.0003900982
| 15> C 0.0070946885 1.2211199685 1.5529236461
| 16> S -0.9127562888 -0.3478943237 1.5358412318
| 17> P -2.0773679621 -0.0808459731 -0.2224596586
| 18> S -1.3951656947 -0.5409373479 -1.9926604652
| 19> O -2.4946431537 1.4461866918 -0.0023895812
| 20> C -2.8172651384 2.3079226438 -1.1114276485
| 21> C -4.199755105 2.004507859 -1.6509888444
| 22> O -3.3461016637 -0.9777592508 0.0910649692
| 23> C -4.1787512919 -0.7887137572 1.2638732427
| 24> C -5.6058332446 -1.1289882912 0.8853923555
| 25> H 5.967419706 0.1054824645 -0.8079592391
| 26> H 6.248530025 1.7276239199 -0.1541989366
| 27> H 5.360377653 0.5298382308 0.7979811043
| 28> H 4.4125761118 1.7646106079 -1.844251451
| 29> H 3.7965443942 2.1857153419 -0.2235909821
| 30> H 1.6179613035 -2.7714080504 0.7279256637
| 31> H 0.8470449437 -3.1044384991 -0.8525959326
| 32> H 3.8126930908 -2.500313141 -0.3678389392
| 33> H 3.143759642 -4.093509303 -0.7629363254
| 34> H 3.0844852021 -2.7811960977 -1.9578202541
| 35> H -0.6775916742 2.0470357346 1.7237215003
| 36> H 0.7319833459 1.1272130472 2.3627471294
| 37> H -2.7501364513 3.3147618887 -0.6973546531
| 38> H -2.0594195451 2.17476034 -1.889656884
| 39> H -4.427317936 2.6869097448 -2.4636666888
| 40> H -4.2269306555 0.9826469459 -2.0290080696
| 41> H -4.9454740009 2.1157101904 -0.8680095042
| 42> H -3.8006302133 -1.4558907212 2.0415447943
| 43> H -4.0890392577 0.247096752 1.6000792336
| 44> H -5.6560597134 -2.1471453912 0.5103987464
| 45> H -6.2379888849 -1.0368890419 1.7627121283
| 46> H -5.9631599057 -0.4555173307 0.1111924277
| 47> *
| 48>
| 49>                          ****END OF INPUT****

CARTESIAN COORDINATES (ANGSTROEM)
---------------------------------
  C      5.543042    0.904743   -0.206677
  C      4.250659    1.396194   -0.829522
  O      3.306373    0.316494   -0.988505
  P      2.228994   -0.050666    0.117125
  S      2.888153   -0.470946    1.918226
  O      1.424428   -1.202517   -0.604354
  C      1.674510   -2.598144   -0.352349
  C      3.019188   -3.024094   -0.900409
  S      0.874198    1.564037   -0.000390
  C      0.007095    1.221120    1.552924
  S     -0.912756   -0.347894    1.535841
  P     -2.077368   -0.080846   -0.222460
  S     -1.395166   -0.540937   -1.992660
  O     -2.494643    1.446187   -0.002390
  C     -2.817265    2.307923   -1.111428
  C     -4.199755    2.004508   -1.650989
  O     -3.346102   -0.977759    0.091065
  C     -4.178751   -0.788714    1.263873
  C     -5.605833   -1.128988    0.885392
  H      5.967420    0.105482   -0.807959
  H      6.248530    1.727624   -0.154199
  H      5.360378    0.529838    0.797981
  H      4.412576    1.764611   -1.844251
  H      3.796544    2.185715   -0.223591
  H      1.617961   -2.771408    0.727926
  H      0.847045   -3.104438   -0.852596
  H      3.812693   -2.500313   -0.367839
  H      3.143760   -4.093509   -0.762936
  H      3.084485   -2.781196   -1.957820
  H     -0.677592    2.047036    1.723722
  H      0.731983    1.127213    2.362747
  H     -2.750136    3.314762   -0.697355
  H     -2.059420    2.174760   -1.889657
  H     -4.427318    2.686910   -2.463667
  H     -4.226931    0.982647   -2.029008
  H     -4.945474    2.115710   -0.868010
  H     -3.800630   -1.455891    2.041545
  H     -4.089039    0.247097    1.600079
  H     -5.656060   -2.147145    0.510399
  H     -6.237989   -1.036889    1.762712
  H     -5.963160   -0.455517    0.111192

 Total Charge           Charge          ....    0
 Multiplicity           Mult            ....    1
 Number of Electrons    NEL             ....  202
 Basis Dimension        Dim             ....  334

ORBITAL ENERGIES
----------------

  NO   OCC          E(Eh)            E(eV)
   0   2.0000     -88.041589     -2395.7334
   1   2.0000     -88.038324     -2395.6446
   2   2.0000     -87.985772     -2394.2146
   3   2.0000     -87.976690     -2393.9674
   4   2.0000     -76.423834     -2079.5983
   5   2.0000     -76.421413     -2079.5324
   6   2.0000     -18.795417      -511.4493
   7   2.0000     -18.791493      -511.3425
   8   2.0000     -18.790293      -511.3099
   9   2.0000     -18.780759      -511.0504
  10   2.0000      -9.955504      -270.9030
  11   2.0000      -9.955494      -270.9028
  12   2.0000      -9.954485      -270.8753
  13   2.0000      -9.952425      -270.8193
  14   2.0000      -9.940542      -270.4959
  15   2.0000      -9.890867      -269.1442
  16   2.0000      -9.886946      -269.0375
  17   2.0000      -9.880433      -268.8603
  18   2.0000      -9.875734      -268.7324
  19   2.0000      -7.686761      -209.1674
  20   2.0000      -7.683301      -209.0732
  21   2.0000      -7.630720      -207.6424
  22   2.0000      -7.622069      -207.4070
  23   2.0000      -6.421341      -174.7336
  24   2.0000      -6.419005      -174.6700
  25   2.0000      -5.714553      -155.5009
  26   2.0000      -5.711413      -155.4154
  27   2.0000      -5.711315      -155.4128
  28   2.0000      -5.707698      -155.3144
  29   2.0000      -5.703709      -155.2058
  30   2.0000      -5.700159      -155.1092
  31   2.0000      -5.659441      -154.0012
  32   2.0000      -5.651415      -153.7828
  33   2.0000      -5.651194      -153.7768
  34   2.0000      -5.651010      -153.7718
  35   2.0000      -5.642525      -153.5409
  36   2.0000      -5.642125      -153.5300
  37   2.0000      -4.643721      -126.3621
  38   2.0000      -4.643117      -126.3456
  39   2.0000      -4.642169      -126.3198
  40   2.0000      -4.641994      -126.3151
  41   2.0000      -4.640529      -126.2752
  42   2.0000      -4.639157      -126.2379
  43   2.0000      -0.984771       -26.7970
  44   2.0000      -0.982910       -26.7463
  45   2.0000      -0.945243       -25.7214
  46   2.0000      -0.940861       -25.6021
  47   2.0000      -0.762669       -20.7533
  48   2.0000      -0.720173       -19.5969
  49   2.0000      -0.706882       -19.2352
  50   2.0000      -0.692646       -18.8479
  51   2.0000      -0.681625       -18.5480
  52   2.0000      -0.668835       -18.1999
  53   2.0000      -0.648124       -17.6363
  54   2.0000      -0.637778       -17.3548
  55   2.0000      -0.594430       -16.1753
  56   2.0000      -0.587655       -15.9909
  57   2.0000      -0.572158       -15.5692
  58   2.0000      -0.568365       -15.4660
  59   2.0000      -0.560159       -15.2427
  60   2.0000      -0.505562       -13.7570
  61   2.0000      -0.495430       -13.4813
  62   2.0000      -0.481852       -13.1119
  63   2.0000      -0.469233       -12.7685
  64   2.0000      -0.455627       -12.3982
  65   2.0000      -0.442748       -12.0478
  66   2.0000      -0.438183       -11.9236
  67   2.0000      -0.435141       -11.8408
  68   2.0000      -0.423145       -11.5144
  69   2.0000      -0.403296       -10.9742
  70   2.0000      -0.401810       -10.9338
  71   2.0000      -0.397474       -10.8158
  72   2.0000      -0.393682       -10.7126
  73   2.0000      -0.390342       -10.6217
  74   2.0000      -0.383448       -10.4341
  75   2.0000      -0.372058       -10.1242
  76   2.0000      -0.364717        -9.9245
  77   2.0000      -0.358208        -9.7473
  78   2.0000      -0.351682        -9.5698
  79   2.0000      -0.348676        -9.4879
  80   2.0000      -0.347182        -9.4473
  81   2.0000      -0.343658        -9.3514
  82   2.0000      -0.342741        -9.3265
  83   2.0000      -0.332688        -9.0529
  84   2.0000      -0.330396        -8.9905
  85   2.0000      -0.320183        -8.7126
  86   2.0000      -0.310529        -8.4499
  87   2.0000      -0.307570        -8.3694
  88   2.0000      -0.295823        -8.0498
  89   2.0000      -0.281873        -7.6702
  90   2.0000      -0.279778        -7.6132
  91   2.0000      -0.268995        -7.3197
  92   2.0000      -0.267432        -7.2772
  93   2.0000      -0.266297        -7.2463
  94   2.0000      -0.261997        -7.1293
  95   2.0000      -0.234730        -6.3873
  96   2.0000      -0.217147        -5.9089
  97   2.0000      -0.206148        -5.6096
  98   2.0000      -0.201779        -5.4907
  99   2.0000      -0.192862        -5.2480
 100   2.0000      -0.187617        -5.1053
 101   0.0000      -0.045784        -1.2458
 102   0.0000      -0.019107        -0.5199
 103   0.0000      -0.009110        -0.2479
 104   0.0000       0.003925         0.1068
 105   0.0000       0.023336         0.6350

MULLIKEN ATOMIC CHARGES
-----------------------
   0 C :   -0.295697
   1 C :   -0.011694
   2 O :   -0.367023
   3 P :    0.621778
   4 S :   -0.342665
   5 O :   -0.341148
   6 C :    0.000753
   7 C :   -0.309911
   8 S :   -0.087736
   9 C :   -0.346233
  10 S :   -0.099627
  11 P :    0.613368
  12 S :   -0.290176
  13 O :   -0.395911
  14 C :   -0.009995
  15 C :   -0.315122
  16 O :   -0.369945
  17 C :   -0.022721
  18 C :   -0.282614
  19 H :    0.115374
  20 H :    0.107085
  21 H :    0.130489
  22 H :    0.109544
  23 H :    0.101266
  24 H :    0.109834
  25 H :    0.107824
  26 H :    0.120231
  27 H :    0.109547
  28 H :    0.118350
  29 H :    0.183331
  30 H :    0.191890
  31 H :    0.100354
  32 H :    0.118457
  33 H :    0.114192
  34 H :    0.132581
  35 H :    0.112836
  36 H :    0.112037
  37 H :    0.105333
  38 H :    0.123299
  39 H :    0.110862
  40 H :    0.117603
Sum of atomic charges:   -0.0000000

LOEWDIN ATOMIC CHARGES
----------------------
   0 C :   -0.364330
   1 C :   -0.115382
   2 O :   -0.241364
   3 P :    0.573640
   4 S :   -0.324377
   5 O :   -0.223265
   6 C :   -0.116631
   7 C :   -0.365269
   8 S :    0.087595
   9 C :   -0.477324
  10 S :    0.075387
  11 P :    0.561274
  12 S :   -0.294862
  13 O :   -0.255450
  14 C :   -0.122501
  15 C :   -0.365390
  16 O :   -0.247331
  17 C :   -0.121237
  18 C :   -0.350974
  19 H :    0.126050
  20 H :    0.128582
  21 H :    0.124507
  22 H :    0.119960
  23 H :    0.106148
  24 H :    0.108719
  25 H :    0.119898
  26 H :    0.120173
  27 H :    0.129186
  28 H :    0.127002
  29 H :    0.131774
  30 H :    0.129172
  31 H :    0.115292
  32 H :    0.112066
  33 H :    0.132052
  34 H :    0.126558
  35 H :    0.121224
  36 H :    0.114812
  37 H :    0.107534
  38 H :    0.130906
  39 H :    0.130050
  40 H :    0.126126

  Mayer bond orders larger than 0.100000
B(  0-C ,  1-C ) :   1.1672 B(  0-C , 19-H ) :   0.9465 B(  0-C , 20-H ) :   0.9393
B(  0-C , 21-H ) :   0.9311 B(  1-C ,  2-O ) :   0.9057 B(  1-C , 22-H ) :   0.9358
B(  1-C , 23-H ) :   0.9158 B(  2-O ,  3-P ) :   1.1163 B(  3-P ,  4-S ) :   1.5888
B(  3-P ,  5-O ) :   1.1544 B(  3-P ,  8-S ) :   0.9505 B(  4-S ,  8-S ) :   0.1103
B(  5-O ,  6-C ) :   0.9025 B(  6-C ,  7-C ) :   1.1636 B(  6-C , 24-H ) :   0.9171
B(  6-C , 25-H ) :   0.9293 B(  7-C , 26-H ) :   0.9354 B(  7-C , 27-H ) :   0.9398
B(  7-C , 28-H ) :   0.9460 B(  8-S ,  9-C ) :   1.0144 B(  9-C , 10-S ) :   0.9976
B(  9-C , 29-H ) :   0.9033 B(  9-C , 30-H ) :   0.8781 B( 10-S , 11-P ) :   0.9550
B( 10-S , 12-S ) :   0.1047 B( 11-P , 12-S ) :   1.6715 B( 11-P , 13-O ) :   1.0505
B( 11-P , 16-O ) :   1.1187 B( 13-O , 14-C ) :   0.9023 B( 14-C , 15-C ) :   1.1635
B( 14-C , 31-H ) :   0.9335 B( 14-C , 32-H ) :   0.9095 B( 15-C , 33-H ) :   0.9390
B( 15-C , 34-H ) :   0.9334 B( 15-C , 35-H ) :   0.9443 B( 16-O , 17-C ) :   0.8957
B( 17-C , 18-C ) :   1.1623 B( 17-C , 36-H ) :   0.9314 B( 17-C , 37-H ) :   0.9165
B( 18-C , 38-H ) :   0.9486 B( 18-C , 39-H ) :   0.9409 B( 18-C , 40-H ) :   0.9482

Dispersion correction           -0.065835534
FINAL SINGLE POINT ENERGY     -2929.520516201700

DIPOLE MOMENT
-------------

Method             : SCF
Type of density    : Electron Density
Multiplicity       :   1
Irrep              :   0
Energy             : -2929.6386265966334577 Eh
Relativity type    :
Basis              : AO
                                X                 Y                 Z
Electronic contribution:      4.934935062       0.167390432       3.276295405
Nuclear contribution   :     -5.645146593       0.727508963      -3.048205458
                        -----------------------------------------
Total Dipole Moment    :     -0.710211532       0.894899395       0.228089947
                        -----------------------------------------
Magnitude (a.u.)       :      1.165019472
Magnitude (Debye)      :      2.961244165

Rotational constants in cm-1:             0.014522             0.004600             0.004387
Rotational constants in MHz :           435.364715           137.904730           131.520516

                             ****ORCA TERMINATED NORMALLY****
TOTAL RUN TIME: 0 days 0 hours 0 minutes 20 seconds 836 msec
