                         Program Version 6.0.0  -   RELEASE  -
|  1> ! pbe def2-sv(p) def2/J RI DEFGRID1 loosescf d4 GCP(DFT/SV(P)) printgap
|  2> %output
|  3>     printlevel normal
|  4> end
|  5> * xyz 0 1
|  6> C 3.4797977069 -1.4965719346 -2.7566072011
|  7> C 3.9674477793 -0.2489689112 -2.04903172
|  8> O 3.6308730224 -0.256747997 -0.6510248632
|  9> P 2.1321055591 -0.1550897499 -0.1342055464
| 10> S 1.0256395612 1.096230439 -1.1714075951
| 11> O 2.3172186283 0.1764553647 1.4028733722
| 12> C 2.428794229 1.5216629909 1.9041283527
| 13> C 3.7139431285 2.1861966705 1.4598578758
| 14> S 1.5703322556 -2.1750107325 0.0313423838
| 15> C -0.0892742484 -2.0141983331 0.742990086
| 16> S -1.3621992117 -1.5085737412 -0.4557264451
| 17> P -2.0140433823 0.3297181692 0.4149836379
| 18> S -1.0560165864 0.9109585957 2.0177853223
| 19> O -3.5682971894 0.0576579275 0.6572406515
| 20> C -4.022777156 -0.87235499 1.6586136762
| 21> C -5.5250533313 -0.7207264612 1.7850789721
| 22> O -2.0823819826 1.4140614959 -0.712340988
| 23> C -2.7228586987 1.1806539647 -1.996215406
| 24> C -2.1512176511 2.1776853244 -2.9808050285
| 25> H 2.3903842462 -1.5096911182 -2.7758353477
| 26> H 3.8502575586 -1.5006614294 -3.7766526067
| 27> H 3.829981821 -2.3859861748 -2.2388117663
| 28> H 3.5310191386 0.6460912349 -2.5044056336
| 29> H 5.055839795 -0.1783824623 -2.0555709038
| 30> H 1.5553914877 2.0918316793 1.5701038103
| 31> H 2.3814452398 1.3989404684 2.9870979798
| 32> H 4.5652906422 1.5600241982 1.7134747914
| 33> H 3.6979462688 2.3420734036 0.381816556
| 34> H 3.8085077728 3.1478624186 1.9543815757
| 35> H -0.0711228821 -1.2894574749 1.5619383939
| 36> H -0.3489922345 -3.0087660916 1.0955467615
| 37> H -3.7492762275 -1.8819508903 1.3376087115
| 38> H -3.5142426105 -0.6440501553 2.6012186394
| 39> H -5.7728870788 0.2945291187 2.0816130907
| 40> H -6.0010152026 -0.935939012 0.8329748451
| 41> H -5.8906729222 -1.413417142 2.5357886909
| 42> H -2.5165589056 0.1518614485 -2.3057431298
| 43> H -3.7973546783 1.3123123206 -1.8562950992
| 44> H -2.3620245909 3.1909645838 -2.6517166601
| 45> H -1.0727425608 2.0523309914 -3.0452434034
| 46> H -2.5948677119 2.0113683861 -3.9568186658
| 47> *
| 48>
| 49>                          ****END OF INPUT****

CARTESIAN COORDINATES (ANGSTROEM)
---------------------------------
  C      3.479798   -1.496572   -2.756607
  C      3.967448   -0.248969   -2.049032
  O      3.630873   -0.256748   -0.651025
  P      2.132106   -0.155090   -0.134206
  S      1.025640    1.096230   -1.171408
  O      2.317219    0.176455    1.402873
  C      2.428794    1.521663    1.904128
  C      3.713943    2.186197    1.459858
  S      1.570332   -2.175011    0.031342
  C     -0.089274   -2.014198    0.742990
  S     -1.362199   -1.508574   -0.455726
  P     -2.014043    0.329718    0.414984
  S     -1.056017    0.910959    2.017785
  O     -3.568297    0.057658    0.657241
  C     -4.022777   -0.872355    1.658614
  C     -5.525053   -0.720726    1.785079
  O     -2.082382    1.414061   -0.712341
  C     -2.722859    1.180654   -1.996215
  C     -2.151218    2.177685   -2.980805
  H      2.390384   -1.509691   -2.775835
  H      3.850258   -1.500661   -3.776653
  H      3.829982   -2.385986   -2.238812
  H      3.531019    0.646091   -2.504406
  H      5.055840   -0.178382   -2.055571
  H      1.555391    2.091832    1.570104
  H      2.381445    1.398940    2.987098
  H      4.565291    1.560024    1.713475
  H      3.697946    2.342073    0.381817
  H      3.808508    3.147862    1.954382
  H     -0.071123   -1.289457    1.561938
  H     -0.348992   -3.008766    1.095547
  H     -3.749276   -1.881951    1.337609
  H     -3.514243   -0.644050    2.601219
  H     -5.772887    0.294529    2.081613
  H     -6.001015   -0.935939    0.832975
  H     -5.890673   -1.413417    2.535789
  H     -2.516559    0.151861   -2.305743
  H     -3.797355    1.312312   -1.856295
  H     -2.362025    3.190965   -2.651717
  H     -1.072743    2.052331   -3.045243
  H     -2.594868    2.011368   -3.956819

 Total Charge           Charge          ....    0
 Multiplicity           Mult            ....    1
 Number of Electrons    NEL             ....  202
 Basis Dimension        Dim             ....  334

ORBITAL ENERGIES
----------------

  NO   OCC          E(Eh)            E(eV)
   0   2.0000     -88.039440     -2395.6750
   1   2.0000     -88.038865     -2395.6593
   2   2.0000     -87.984215     -2394.1722
   3   2.0000     -87.980587     -2394.0735
   4   2.0000     -76.422754     -2079.5689
   5   2.0000     -76.420359     -2079.5037
   6   2.0000     -18.790198      -511.3073
   7   2.0000     -18.787729      -511.2401
   8   2.0000     -18.785105      -511.1687
   9   2.0000     -18.781786      -511.0784
  10   2.0000      -9.955829      -270.9119
  11   2.0000      -9.953876      -270.8587
  12   2.0000      -9.949608      -270.7426
  13   2.0000      -9.949404      -270.7370
  14   2.0000      -9.938933      -270.4521
  15   2.0000      -9.887064      -269.0407
  16   2.0000      -9.883716      -268.9496
  17   2.0000      -9.882418      -268.9143
  18   2.0000      -9.875786      -268.7338
  19   2.0000      -7.684529      -209.1067
  20   2.0000      -7.684286      -209.1000
  21   2.0000      -7.629230      -207.6019
  22   2.0000      -7.625128      -207.4903
  23   2.0000      -6.420227      -174.7033
  24   2.0000      -6.417975      -174.6420
  25   2.0000      -5.712372      -155.4415
  26   2.0000      -5.712132      -155.4350
  27   2.0000      -5.709028      -155.3506
  28   2.0000      -5.708789      -155.3440
  29   2.0000      -5.701415      -155.1434
  30   2.0000      -5.701366      -155.1421
  31   2.0000      -5.658093      -153.9645
  32   2.0000      -5.653903      -153.8505
  33   2.0000      -5.650053      -153.7457
  34   2.0000      -5.649160      -153.7215
  35   2.0000      -5.645742      -153.6284
  36   2.0000      -5.645498      -153.6218
  37   2.0000      -4.642876      -126.3391
  38   2.0000      -4.641961      -126.3142
  39   2.0000      -4.640649      -126.2785
  40   2.0000      -4.640448      -126.2730
  41   2.0000      -4.639751      -126.2540
  42   2.0000      -4.638509      -126.2202
  43   2.0000      -0.985462       -26.8158
  44   2.0000      -0.980778       -26.6883
  45   2.0000      -0.940142       -25.5826
  46   2.0000      -0.939999       -25.5787
  47   2.0000      -0.758456       -20.6386
  48   2.0000      -0.719708       -19.5842
  49   2.0000      -0.706401       -19.2221
  50   2.0000      -0.688964       -18.7477
  51   2.0000      -0.682986       -18.5850
  52   2.0000      -0.670033       -18.2325
  53   2.0000      -0.648440       -17.6450
  54   2.0000      -0.633097       -17.2275
  55   2.0000      -0.595830       -16.2133
  56   2.0000      -0.580828       -15.8051
  57   2.0000      -0.568170       -15.4607
  58   2.0000      -0.567087       -15.4312
  59   2.0000      -0.561014       -15.2660
  60   2.0000      -0.509296       -13.8587
  61   2.0000      -0.486890       -13.2489
  62   2.0000      -0.480424       -13.0730
  63   2.0000      -0.467167       -12.7123
  64   2.0000      -0.451764       -12.2931
  65   2.0000      -0.444959       -12.1080
  66   2.0000      -0.436210       -11.8699
  67   2.0000      -0.433846       -11.8055
  68   2.0000      -0.426297       -11.6001
  69   2.0000      -0.413029       -11.2391
  70   2.0000      -0.408127       -11.1057
  71   2.0000      -0.398492       -10.8435
  72   2.0000      -0.385864       -10.4999
  73   2.0000      -0.381787       -10.3890
  74   2.0000      -0.374029       -10.1778
  75   2.0000      -0.373007       -10.1500
  76   2.0000      -0.362975        -9.8770
  77   2.0000      -0.353517        -9.6197
  78   2.0000      -0.351488        -9.5645
  79   2.0000      -0.348856        -9.4928
  80   2.0000      -0.343366        -9.3435
  81   2.0000      -0.340385        -9.2624
  82   2.0000      -0.338026        -9.1981
  83   2.0000      -0.335707        -9.1350
  84   2.0000      -0.328813        -8.9475
  85   2.0000      -0.314241        -8.5509
  86   2.0000      -0.309495        -8.4218
  87   2.0000      -0.299426        -8.1478
  88   2.0000      -0.294326        -8.0090
  89   2.0000      -0.291140        -7.9223
  90   2.0000      -0.276906        -7.5350
  91   2.0000      -0.268978        -7.3193
  92   2.0000      -0.265988        -7.2379
  93   2.0000      -0.259300        -7.0559
  94   2.0000      -0.254711        -6.9310
  95   2.0000      -0.237960        -6.4752
  96   2.0000      -0.220718        -6.0061
  97   2.0000      -0.205614        -5.5950
  98   2.0000      -0.202119        -5.5000
  99   2.0000      -0.192812        -5.2467
 100   2.0000      -0.187717        -5.1080
 101   0.0000      -0.036580        -0.9954
 102   0.0000      -0.029274        -0.7966
 103   0.0000      -0.009912        -0.2697
 104   0.0000       0.004000         0.1089
 105   0.0000       0.020350         0.5538

MULLIKEN ATOMIC CHARGES
-----------------------
   0 C :   -0.322135
   1 C :   -0.002606
   2 O :   -0.372820
   3 P :    0.617796
   4 S :   -0.331937
   5 O :   -0.365977
   6 C :   -0.011049
   7 C :   -0.302115
   8 S :   -0.086642
   9 C :   -0.344293
  10 S :   -0.112686
  11 P :    0.610504
  12 S :   -0.304078
  13 O :   -0.386537
  14 C :   -0.005100
  15 C :   -0.279640
  16 O :   -0.348994
  17 C :   -0.016761
  18 C :   -0.286629
  19 H :    0.129665
  20 H :    0.112974
  21 H :    0.119901
  22 H :    0.109017
  23 H :    0.104739
  24 H :    0.128938
  25 H :    0.102021
  26 H :    0.113573
  27 H :    0.119008
  28 H :    0.109925
  29 H :    0.197923
  30 H :    0.179880
  31 H :    0.092415
  32 H :    0.100500
  33 H :    0.120809
  34 H :    0.113362
  35 H :    0.110358
  36 H :    0.111018
  37 H :    0.109711
  38 H :    0.120290
  39 H :    0.137476
  40 H :    0.108195
Sum of atomic charges:   -0.0000000

LOEWDIN ATOMIC CHARGES
----------------------
   0 C :   -0.371705
   1 C :   -0.120537
   2 O :   -0.243483
   3 P :    0.568714
   4 S :   -0.317589
   5 O :   -0.236973
   6 C :   -0.121244
   7 C :   -0.365069
   8 S :    0.090038
   9 C :   -0.481432
  10 S :    0.060682
  11 P :    0.572273
  12 S :   -0.290763
  13 O :   -0.257219
  14 C :   -0.123946
  15 C :   -0.350333
  16 O :   -0.224658
  17 C :   -0.109990
  18 C :   -0.351769
  19 H :    0.122352
  20 H :    0.131157
  21 H :    0.124418
  22 H :    0.109186
  23 H :    0.118463
  24 H :    0.110841
  25 H :    0.118155
  26 H :    0.124696
  27 H :    0.121221
  28 H :    0.129522
  29 H :    0.123090
  30 H :    0.136593
  31 H :    0.102212
  32 H :    0.106949
  33 H :    0.128885
  34 H :    0.125368
  35 H :    0.129928
  36 H :    0.107241
  37 H :    0.115706
  38 H :    0.129672
  39 H :    0.130020
  40 H :    0.129328

  Mayer bond orders larger than 0.100000
B(  0-C ,  1-C ) :   1.1661 B(  0-C , 19-H ) :   0.9335 B(  0-C , 20-H ) :   0.9379
B(  0-C , 21-H ) :   0.9437 B(  1-C ,  2-O ) :   0.9087 B(  1-C , 22-H ) :   0.9134
B(  1-C , 23-H ) :   0.9332 B(  2-O ,  3-P ) :   1.0982 B(  3-P ,  4-S ) :   1.6080
B(  3-P ,  5-O ) :   1.1325 B(  3-P ,  8-S ) :   0.9670 B(  4-S ,  8-S ) :   0.1151
B(  5-O ,  6-C ) :   0.8996 B(  6-C ,  7-C ) :   1.1603 B(  6-C , 24-H ) :   0.9085
B(  6-C , 25-H ) :   0.9365 B(  7-C , 26-H ) :   0.9451 B(  7-C , 27-H ) :   0.9381
B(  7-C , 28-H ) :   0.9396 B(  8-S ,  9-C ) :   0.9985 B(  9-C , 10-S ) :   0.9996
B(  9-C , 29-H ) :   0.8460 B(  9-C , 30-H ) :   0.9121 B( 10-S , 11-P ) :   0.9462
B( 10-S , 12-S ) :   0.1163 B( 11-P , 12-S ) :   1.6259 B( 11-P , 13-O ) :   1.0678
B( 11-P , 16-O ) :   1.1581 B( 12-S , 29-H ) :   0.1159 B( 13-O , 14-C ) :   0.9157
B( 14-C , 15-C ) :   1.1607 B( 14-C , 31-H ) :   0.9199 B( 14-C , 32-H ) :   0.9134
B( 15-C , 33-H ) :   0.9515 B( 15-C , 34-H ) :   0.9513 B( 15-C , 35-H ) :   0.9424
B( 16-O , 17-C ) :   0.8848 B( 17-C , 18-C ) :   1.1651 B( 17-C , 36-H ) :   0.9155
B( 17-C , 37-H ) :   0.9302 B( 18-C , 38-H ) :   0.9494 B( 18-C , 39-H ) :   0.9423
B( 18-C , 40-H ) :   0.9400

Dispersion correction           -0.065856164
FINAL SINGLE POINT ENERGY     -2929.520638829395

DIPOLE MOMENT
-------------

Method             : SCF
Type of density    : Electron Density
Multiplicity       :   1
Irrep              :   0
Energy             : -2929.6389993849388702 Eh
Relativity type    :
Basis              : AO
                                X                 Y                 Z
Electronic contribution:      2.579291014      -5.558017621       5.863268563
Nuclear contribution   :     -2.944850402       5.027910755      -6.363582956
                        -----------------------------------------
Total Dipole Moment    :     -0.365559388      -0.530106865      -0.500314393
                        -----------------------------------------
Magnitude (a.u.)       :      0.815451682
Magnitude (Debye)      :      2.072713455

Rotational constants in cm-1:             0.011997             0.005078             0.004922
Rotational constants in MHz :           359.667255           152.248378           147.544800

                             ****ORCA TERMINATED NORMALLY****
TOTAL RUN TIME: 0 days 0 hours 0 minutes 21 seconds 184 msec
