                         Program Version 6.0.0  -   RELEASE  -
|  1> ! pbe def2-sv(p) def2/J RI DEFGRID1 loosescf d4 GCP(DFT/SV(P)) printgap
|  2> %output
|  3>     printlevel normal
|  4> end
|  5> * xyz 0 1
|  6> C 4.4050085984 -1.5965844724 -1.5564609557
|  7> C 4.7122185226 -0.3669360294 -0.726380085
|  8> O 3.6844365832 -0.097492832 0.2419065213
|  9> P 2.2109121065 0.3472404587 -0.1732904041
| 10> S 2.173770962 1.5817030462 -1.7026504741
| 11> O 1.6811004813 0.8801845643 1.222326084
| 12> C 2.0726198435 2.1766918554 1.7230734225
| 13> C 1.1821962386 2.5058173023 2.9026187537
| 14> S 1.1293108204 -1.4430779853 -0.3043122309
| 15> C -0.0495851655 -1.0283594973 -1.6464996229
| 16> S -1.7480280563 -1.4576978936 -1.2342430463
| 17> P -2.2745820759 0.1930151822 0.0129078185
| 18> S -1.114789677 1.7666864951 -0.1347909136
| 19> O -2.4503085341 -0.3530897767 1.4975201869
| 20> C -1.3615812644 -0.7108115176 2.3658363346
| 21> C -1.1721884168 -2.2156637521 2.3951335337
| 22> O -3.7537609534 0.5428549364 -0.3771505709
| 23> C -4.7907578745 -0.3944276787 -0.766249746
| 24> C -4.9674823094 -1.5250555784 0.2227281011
| 25> H 4.184400153 -2.4434424509 -0.9115939844
| 26> H 3.543920671 -1.4038447767 -2.1953721959
| 27> H 5.2605232456 -1.8301459298 -2.1819404708
| 28> H 4.8184233083 0.5131553348 -1.3687419944
| 29> H 5.6111130348 -0.4996826113 -0.1229494878
| 30> H 3.1259499189 2.1268355993 2.0109067613
| 31> H 1.9514158265 2.9081218632 0.9164098633
| 32> H 0.1462577453 2.5568402141 2.5761623481
| 33> H 1.2788623802 1.7399078353 3.6665562759
| 34> H 1.4743945073 3.4673292411 3.311571696
| 35> H 0.2039665557 -1.6242152243 -2.5192957174
| 36> H 0.0294121661 0.041324139 -1.8570202018
| 37> H -0.4504352444 -0.1972721484 2.0419541259
| 38> H -1.6526865417 -0.3312654361 3.3475200586
| 39> H -2.0984490984 -2.6994176576 2.6913839712
| 40> H -0.873171448 -2.5873378929 1.4176723119
| 41> H -0.39397842 -2.459096465 3.111126627
| 42> H -5.6798132196 0.2352772544 -0.8247775686
| 43> H -4.5411520857 -0.7790166906 -1.757993814
| 44> H -4.0825978096 -2.1583541506 0.2304139441
| 45> H -5.1313839831 -1.1296530225 1.2216623417
| 46> H -5.8245494119 -2.1218167735 -0.0738489765
| 47> *
| 48>
| 49>                          ****END OF INPUT****

CARTESIAN COORDINATES (ANGSTROEM)
---------------------------------
  C      4.405009   -1.596584   -1.556461
  C      4.712219   -0.366936   -0.726380
  O      3.684437   -0.097493    0.241907
  P      2.210912    0.347240   -0.173290
  S      2.173771    1.581703   -1.702650
  O      1.681100    0.880185    1.222326
  C      2.072620    2.176692    1.723073
  C      1.182196    2.505817    2.902619
  S      1.129311   -1.443078   -0.304312
  C     -0.049585   -1.028359   -1.646500
  S     -1.748028   -1.457698   -1.234243
  P     -2.274582    0.193015    0.012908
  S     -1.114790    1.766686   -0.134791
  O     -2.450309   -0.353090    1.497520
  C     -1.361581   -0.710812    2.365836
  C     -1.172188   -2.215664    2.395134
  O     -3.753761    0.542855   -0.377151
  C     -4.790758   -0.394428   -0.766250
  C     -4.967482   -1.525056    0.222728
  H      4.184400   -2.443442   -0.911594
  H      3.543921   -1.403845   -2.195372
  H      5.260523   -1.830146   -2.181940
  H      4.818423    0.513155   -1.368742
  H      5.611113   -0.499683   -0.122949
  H      3.125950    2.126836    2.010907
  H      1.951416    2.908122    0.916410
  H      0.146258    2.556840    2.576162
  H      1.278862    1.739908    3.666556
  H      1.474395    3.467329    3.311572
  H      0.203967   -1.624215   -2.519296
  H      0.029412    0.041324   -1.857020
  H     -0.450435   -0.197272    2.041954
  H     -1.652687   -0.331265    3.347520
  H     -2.098449   -2.699418    2.691384
  H     -0.873171   -2.587338    1.417672
  H     -0.393978   -2.459096    3.111127
  H     -5.679813    0.235277   -0.824778
  H     -4.541152   -0.779017   -1.757994
  H     -4.082598   -2.158354    0.230414
  H     -5.131384   -1.129653    1.221662
  H     -5.824549   -2.121817   -0.073849

 Total Charge           Charge          ....    0
 Multiplicity           Mult            ....    1
 Number of Electrons    NEL             ....  202
 Basis Dimension        Dim             ....  334

ORBITAL ENERGIES
----------------

  NO   OCC          E(Eh)            E(eV)
   0   2.0000     -88.048635     -2395.9252
   1   2.0000     -88.045233     -2395.8326
   2   2.0000     -87.984785     -2394.1877
   3   2.0000     -87.978603     -2394.0195
   4   2.0000     -76.424091     -2079.6052
   5   2.0000     -76.423874     -2079.5993
   6   2.0000     -18.792368      -511.3663
   7   2.0000     -18.788662      -511.2655
   8   2.0000     -18.785496      -511.1793
   9   2.0000     -18.785406      -511.1769
  10   2.0000      -9.960373      -271.0355
  11   2.0000      -9.957534      -270.9583
  12   2.0000      -9.949785      -270.7474
  13   2.0000      -9.945754      -270.6377
  14   2.0000      -9.945129      -270.6207
  15   2.0000      -9.891790      -269.1693
  16   2.0000      -9.883347      -268.9396
  17   2.0000      -9.878967      -268.8204
  18   2.0000      -9.878928      -268.8193
  19   2.0000      -7.693421      -209.3486
  20   2.0000      -7.690261      -209.2627
  21   2.0000      -7.629677      -207.6141
  22   2.0000      -7.623490      -207.4457
  23   2.0000      -6.421518      -174.7384
  24   2.0000      -6.421465      -174.7369
  25   2.0000      -5.721352      -155.6859
  26   2.0000      -5.718105      -155.5975
  27   2.0000      -5.717625      -155.5845
  28   2.0000      -5.714804      -155.5077
  29   2.0000      -5.710700      -155.3960
  30   2.0000      -5.707158      -155.2997
  31   2.0000      -5.658570      -153.9775
  32   2.0000      -5.652564      -153.8141
  33   2.0000      -5.650445      -153.7564
  34   2.0000      -5.649740      -153.7372
  35   2.0000      -5.644053      -153.5825
  36   2.0000      -5.643513      -153.5678
  37   2.0000      -4.644184      -126.3747
  38   2.0000      -4.643781      -126.3637
  39   2.0000      -4.643428      -126.3541
  40   2.0000      -4.643126      -126.3459
  41   2.0000      -4.642233      -126.3216
  42   2.0000      -4.641757      -126.3086
  43   2.0000      -0.985132       -26.8068
  44   2.0000      -0.983355       -26.7584
  45   2.0000      -0.942067       -25.6349
  46   2.0000      -0.940139       -25.5825
  47   2.0000      -0.764157       -20.7938
  48   2.0000      -0.721680       -19.6379
  49   2.0000      -0.711393       -19.3580
  50   2.0000      -0.689552       -18.7637
  51   2.0000      -0.684254       -18.6195
  52   2.0000      -0.675510       -18.3816
  53   2.0000      -0.647917       -17.6307
  54   2.0000      -0.633240       -17.2313
  55   2.0000      -0.598895       -16.2968
  56   2.0000      -0.592396       -16.1199
  57   2.0000      -0.572685       -15.5835
  58   2.0000      -0.568075       -15.4581
  59   2.0000      -0.557643       -15.1742
  60   2.0000      -0.502059       -13.6617
  61   2.0000      -0.493785       -13.4366
  62   2.0000      -0.474686       -12.9168
  63   2.0000      -0.469501       -12.7758
  64   2.0000      -0.455440       -12.3932
  65   2.0000      -0.445171       -12.1137
  66   2.0000      -0.439874       -11.9696
  67   2.0000      -0.435992       -11.8639
  68   2.0000      -0.427350       -11.6288
  69   2.0000      -0.424170       -11.5423
  70   2.0000      -0.407397       -11.0858
  71   2.0000      -0.399908       -10.8821
  72   2.0000      -0.391382       -10.6501
  73   2.0000      -0.387158       -10.5351
  74   2.0000      -0.383105       -10.4248
  75   2.0000      -0.369969       -10.0674
  76   2.0000      -0.361757        -9.8439
  77   2.0000      -0.356291        -9.6952
  78   2.0000      -0.355323        -9.6688
  79   2.0000      -0.351118        -9.5544
  80   2.0000      -0.348910        -9.4943
  81   2.0000      -0.343514        -9.3475
  82   2.0000      -0.339357        -9.2344
  83   2.0000      -0.333278        -9.0690
  84   2.0000      -0.329176        -8.9573
  85   2.0000      -0.316313        -8.6073
  86   2.0000      -0.310437        -8.4474
  87   2.0000      -0.295463        -8.0400
  88   2.0000      -0.292606        -7.9622
  89   2.0000      -0.290661        -7.9093
  90   2.0000      -0.283052        -7.7022
  91   2.0000      -0.276359        -7.5201
  92   2.0000      -0.268039        -7.2937
  93   2.0000      -0.263103        -7.1594
  94   2.0000      -0.258424        -7.0321
  95   2.0000      -0.236692        -6.4407
  96   2.0000      -0.220365        -5.9964
  97   2.0000      -0.212929        -5.7941
  98   2.0000      -0.202529        -5.5111
  99   2.0000      -0.193201        -5.2573
 100   2.0000      -0.187014        -5.0889
 101   0.0000      -0.045150        -1.2286
 102   0.0000      -0.036112        -0.9827
 103   0.0000      -0.014873        -0.4047
 104   0.0000       0.008319         0.2264
 105   0.0000       0.016837         0.4582

MULLIKEN ATOMIC CHARGES
-----------------------
   0 C :   -0.312177
   1 C :   -0.001752
   2 O :   -0.379731
   3 P :    0.624192
   4 S :   -0.317615
   5 O :   -0.359163
   6 C :   -0.005929
   7 C :   -0.290450
   8 S :   -0.103935
   9 C :   -0.333758
  10 S :   -0.137227
  11 P :    0.590941
  12 S :   -0.291566
  13 O :   -0.371988
  14 C :   -0.042180
  15 C :   -0.294887
  16 O :   -0.356222
  17 C :   -0.008652
  18 C :   -0.320911
  19 H :    0.117319
  20 H :    0.118973
  21 H :    0.112166
  22 H :    0.110182
  23 H :    0.102905
  24 H :    0.098491
  25 H :    0.110108
  26 H :    0.134970
  27 H :    0.108745
  28 H :    0.109481
  29 H :    0.182802
  30 H :    0.215506
  31 H :    0.142023
  32 H :    0.102653
  33 H :    0.108668
  34 H :    0.124844
  35 H :    0.106666
  36 H :    0.115310
  37 H :    0.116260
  38 H :    0.129835
  39 H :    0.128765
  40 H :    0.116337
Sum of atomic charges:    0.0000000

LOEWDIN ATOMIC CHARGES
----------------------
   0 C :   -0.369185
   1 C :   -0.120446
   2 O :   -0.249599
   3 P :    0.571119
   4 S :   -0.308027
   5 O :   -0.238588
   6 C :   -0.115945
   7 C :   -0.355085
   8 S :    0.091502
   9 C :   -0.475537
  10 S :    0.068671
  11 P :    0.561535
  12 S :   -0.290604
  13 O :   -0.244506
  14 C :   -0.123922
  15 C :   -0.363362
  16 O :   -0.232489
  17 C :   -0.112594
  18 C :   -0.368926
  19 H :    0.123795
  20 H :    0.118808
  21 H :    0.130223
  22 H :    0.109735
  23 H :    0.117563
  24 H :    0.109354
  25 H :    0.111505
  26 H :    0.128082
  27 H :    0.122448
  28 H :    0.129551
  29 H :    0.136238
  30 H :    0.128140
  31 H :    0.110787
  32 H :    0.117266
  33 H :    0.121670
  34 H :    0.111483
  35 H :    0.129063
  36 H :    0.125172
  37 H :    0.111996
  38 H :    0.118650
  39 H :    0.131555
  40 H :    0.132903

  Mayer bond orders larger than 0.100000
B(  0-C ,  1-C ) :   1.1648 B(  0-C , 19-H ) :   0.9443 B(  0-C , 20-H ) :   0.9369
B(  0-C , 21-H ) :   0.9382 B(  1-C ,  2-O ) :   0.9146 B(  1-C , 22-H ) :   0.9144
B(  1-C , 23-H ) :   0.9339 B(  2-O ,  3-P ) :   1.0952 B(  3-P ,  4-S ) :   1.6097
B(  3-P ,  5-O ) :   1.1248 B(  3-P ,  8-S ) :   0.9689 B(  4-S ,  8-S ) :   0.1160
B(  5-O ,  6-C ) :   0.9002 B(  6-C ,  7-C ) :   1.1634 B(  6-C , 24-H ) :   0.9302
B(  6-C , 25-H ) :   0.9147 B(  7-C , 26-H ) :   0.9391 B(  7-C , 27-H ) :   0.9490
B(  7-C , 28-H ) :   0.9412 B(  8-S ,  9-C ) :   0.9837 B(  9-C , 10-S ) :   1.0238
B(  9-C , 29-H ) :   0.9077 B(  9-C , 30-H ) :   0.8440 B( 10-S , 11-P ) :   0.9128
B( 10-S , 12-S ) :   0.1075 B( 11-P , 12-S ) :   1.6683 B( 11-P , 13-O ) :   1.0909
B( 11-P , 16-O ) :   1.1514 B( 13-O , 14-C ) :   0.9011 B( 14-C , 15-C ) :   1.1681
B( 14-C , 31-H ) :   0.8910 B( 14-C , 32-H ) :   0.9346 B( 15-C , 33-H ) :   0.9454
B( 15-C , 34-H ) :   0.9306 B( 15-C , 35-H ) :   0.9411 B( 16-O , 17-C ) :   0.9010
B( 17-C , 18-C ) :   1.1684 B( 17-C , 36-H ) :   0.9341 B( 17-C , 37-H ) :   0.9240
B( 18-C , 38-H ) :   0.9363 B( 18-C , 39-H ) :   0.9412 B( 18-C , 40-H ) :   0.9337

Dispersion correction           -0.067247912
FINAL SINGLE POINT ENERGY     -2929.518250735435

DIPOLE MOMENT
-------------

Method             : SCF
Type of density    : Electron Density
Multiplicity       :   1
Irrep              :   0
Energy             : -2929.6367935372168176 Eh
Relativity type    :
Basis              : AO
                                X                 Y                 Z
Electronic contribution:     -0.927248866       7.367665461     -11.616821334
Nuclear contribution   :      0.876476967      -8.620638706      12.222051808
                        -----------------------------------------
Total Dipole Moment    :     -0.050771899      -1.252973244       0.605230474
                        -----------------------------------------
Magnitude (a.u.)       :      1.392416484
Magnitude (Debye)      :      3.539241433

Rotational constants in cm-1:             0.012920             0.005194             0.004821
Rotational constants in MHz :           387.337644           155.711469           144.532771

                             ****ORCA TERMINATED NORMALLY****
TOTAL RUN TIME: 0 days 0 hours 0 minutes 21 seconds 716 msec
