                         Program Version 6.0.1  -  RELEASE   -
|  1> ! r2scan-3c def2/J RI DEFGRID2 scfconv6 printgap
|  2> %output
|  3>     printlevel normal
|  4> end
|  5> * xyz 0 1
|  6> C 4.6291548477 -3.2345930692 -2.018004124
|  7> C 3.632125321 -3.5911737969 -0.9268473381
|  8> O 3.2732759884 -2.4287377829 -0.1545430633
|  9> C 2.2919851691 -1.6636898399 -0.5906353981
| 10> O 1.63942396 -1.8772512759 -1.5872419743
| 11> C 2.0871910144 -0.4708161093 0.3257923106
| 12> C 0.7187811648 0.1475959113 0.0923407108
| 13> H 0.5484227228 0.258901881 -0.987197919
| 14> C 0.5262241459 1.5107667604 0.7253356229
| 15> O -0.5096898755 1.8298378144 1.2744165647
| 16> O 1.5633786946 2.2881073563 0.5825970646
| 17> C 1.456471737 3.6429662314 1.0761254275
| 18> C 2.7440792433 4.3655249975 0.7370224324
| 19> S -0.6023233754 -0.9415990006 0.72715553
| 20> P -2.2628622492 0.1955941145 0.0487778822
| 21> S -1.9754096382 1.4295616961 -1.442846308
| 22> O -3.2860712406 -0.9895672795 -0.3286967622
| 23> C -3.057366408 -1.8284183196 -1.4626247457
| 24> O -3.0470262401 0.8179831335 1.2676005368
| 25> C -3.3848627864 0.055576752 2.4427309364
| 26> H 4.1731807219 -2.5540817901 -2.7335327945
| 27> H 5.5050800763 -2.7598528246 -1.5847713686
| 28> H 4.9315090213 -4.1383322477 -2.5366583324
| 29> H 4.0665637551 -4.2767408785 -0.1994002824
| 30> H 2.7220096415 -4.0173792278 -1.3579936734
| 31> H 2.8567242112 0.2697995039 0.0967779314
| 32> H 2.2094843343 -0.7944852856 1.3591985291
| 33> H 0.585983019 4.1082314813 0.6035474575
| 34> H 1.2815924572 3.5992503827 2.1550291137
| 35> H 2.8994930254 4.3643418461 -0.337583451
| 36> H 2.6787257611 5.3903450353 1.0865988965
| 37> H 3.5859395954 3.8763642919 1.2170096892
| 38> H -2.9034619826 -1.2183798512 -2.3543996125
| 39> H -3.9535409071 -2.4345692359 -1.5649547365
| 40> H -2.1829158944 -2.4580373825 -1.2937976707
| 41> H -2.4831366011 -0.3779854957 2.8754318961
| 42> H -4.0931354081 -0.7293671367 2.1833214541
| 43> H -3.8303341787 0.7749199321 3.124821382
| 44> *
| 45>
| 46>                          ****END OF INPUT****

CARTESIAN COORDINATES (ANGSTROEM)
---------------------------------
  C      4.629155   -3.234593   -2.018004
  C      3.632125   -3.591174   -0.926847
  O      3.273276   -2.428738   -0.154543
  C      2.291985   -1.663690   -0.590635
  O      1.639424   -1.877251   -1.587242
  C      2.087191   -0.470816    0.325792
  C      0.718781    0.147596    0.092341
  H      0.548423    0.258902   -0.987198
  C      0.526224    1.510767    0.725336
  O     -0.509690    1.829838    1.274417
  O      1.563379    2.288107    0.582597
  C      1.456472    3.642966    1.076125
  C      2.744079    4.365525    0.737022
  S     -0.602323   -0.941599    0.727156
  P     -2.262862    0.195594    0.048778
  S     -1.975410    1.429562   -1.442846
  O     -3.286071   -0.989567   -0.328697
  C     -3.057366   -1.828418   -1.462625
  O     -3.047026    0.817983    1.267601
  C     -3.384863    0.055577    2.442731
  H      4.173181   -2.554082   -2.733533
  H      5.505080   -2.759853   -1.584771
  H      4.931509   -4.138332   -2.536658
  H      4.066564   -4.276741   -0.199400
  H      2.722010   -4.017379   -1.357994
  H      2.856724    0.269800    0.096778
  H      2.209484   -0.794485    1.359199
  H      0.585983    4.108231    0.603547
  H      1.281592    3.599250    2.155029
  H      2.899493    4.364342   -0.337583
  H      2.678726    5.390345    1.086599
  H      3.585940    3.876364    1.217010
  H     -2.903462   -1.218380   -2.354400
  H     -3.953541   -2.434569   -1.564955
  H     -2.182916   -2.458037   -1.293798
  H     -2.483137   -0.377985    2.875432
  H     -4.093135   -0.729367    2.183321
  H     -3.830334    0.774920    3.124821

 Total Charge           Charge          ....    0
 Multiplicity           Mult            ....    1
 Number of Electrons    NEL             ....  174
 Basis Dimension        Dim             ....  510

ORBITAL ENERGIES
----------------

  NO   OCC          E(Eh)            E(eV)
   0   2.0000     -88.566768     -2410.0243
   1   2.0000     -88.503604     -2408.3055
   2   2.0000     -76.902108     -2092.6128
   3   2.0000     -19.013810      -517.3921
   4   2.0000     -19.008849      -517.2571
   5   2.0000     -18.978736      -516.4377
   6   2.0000     -18.974377      -516.3190
   7   2.0000     -18.940869      -515.4073
   8   2.0000     -18.937573      -515.3176
   9   2.0000     -10.166337      -276.6401
  10   2.0000     -10.164640      -276.5939
  11   2.0000     -10.101073      -274.8642
  12   2.0000     -10.100113      -274.8380
  13   2.0000     -10.091391      -274.6007
  14   2.0000     -10.086538      -274.4687
  15   2.0000     -10.075725      -274.1744
  16   2.0000     -10.066998      -273.9369
  17   2.0000     -10.038710      -273.1672
  18   2.0000     -10.035759      -273.0869
  19   2.0000      -7.861117      -213.9119
  20   2.0000      -7.798550      -212.2093
  21   2.0000      -6.579936      -179.0492
  22   2.0000      -5.807967      -158.0428
  23   2.0000      -5.805153      -157.9662
  24   2.0000      -5.798080      -157.7738
  25   2.0000      -5.746476      -156.3696
  26   2.0000      -5.738930      -156.1642
  27   2.0000      -5.738135      -156.1426
  28   2.0000      -4.725623      -128.5907
  29   2.0000      -4.725128      -128.5773
  30   2.0000      -4.723395      -128.5301
  31   2.0000      -1.091448       -29.6998
  32   2.0000      -1.085456       -29.5368
  33   2.0000      -1.035675       -28.1822
  34   2.0000      -0.993246       -27.0276
  35   2.0000      -0.990421       -26.9507
  36   2.0000      -0.989019       -26.9126
  37   2.0000      -0.809958       -22.0401
  38   2.0000      -0.760050       -20.6820
  39   2.0000      -0.753196       -20.4955
  40   2.0000      -0.724976       -19.7276
  41   2.0000      -0.694905       -18.9093
  42   2.0000      -0.662789       -18.0354
  43   2.0000      -0.657357       -17.8876
  44   2.0000      -0.642944       -17.4954
  45   2.0000      -0.631249       -17.1771
  46   2.0000      -0.594882       -16.1876
  47   2.0000      -0.545087       -14.8326
  48   2.0000      -0.533076       -14.5057
  49   2.0000      -0.523552       -14.2466
  50   2.0000      -0.501269       -13.6402
  51   2.0000      -0.483189       -13.1482
  52   2.0000      -0.480243       -13.0681
  53   2.0000      -0.473179       -12.8759
  54   2.0000      -0.469236       -12.7686
  55   2.0000      -0.454529       -12.3684
  56   2.0000      -0.443514       -12.0686
  57   2.0000      -0.438368       -11.9286
  58   2.0000      -0.436238       -11.8706
  59   2.0000      -0.423474       -11.5233
  60   2.0000      -0.416971       -11.3463
  61   2.0000      -0.412330       -11.2201
  62   2.0000      -0.406678       -11.0663
  63   2.0000      -0.405162       -11.0250
  64   2.0000      -0.392307       -10.6752
  65   2.0000      -0.382167       -10.3993
  66   2.0000      -0.381628       -10.3846
  67   2.0000      -0.374901       -10.2016
  68   2.0000      -0.364666        -9.9231
  69   2.0000      -0.357554        -9.7295
  70   2.0000      -0.349867        -9.5204
  71   2.0000      -0.343352        -9.3431
  72   2.0000      -0.336473        -9.1559
  73   2.0000      -0.328299        -8.9335
  74   2.0000      -0.323685        -8.8079
  75   2.0000      -0.317595        -8.6422
  76   2.0000      -0.306900        -8.3512
  77   2.0000      -0.301156        -8.1949
  78   2.0000      -0.285890        -7.7795
  79   2.0000      -0.283486        -7.7140
  80   2.0000      -0.276071        -7.5123
  81   2.0000      -0.263262        -7.1637
  82   2.0000      -0.251339        -6.8393
  83   2.0000      -0.246660        -6.7120
  84   2.0000      -0.226601        -6.1661
  85   2.0000      -0.205893        -5.6026
  86   2.0000      -0.198192        -5.3931
  87   0.0000      -0.040631        -1.1056
  88   0.0000      -0.028121        -0.7652
  89   0.0000      -0.017826        -0.4851
  90   0.0000       0.011898         0.3238
  91   0.0000       0.030627         0.8334

MULLIKEN ATOMIC CHARGES
-----------------------
   0 C :   -0.469420
   1 C :   -0.135909
   2 O :   -0.172044
   3 C :    0.382817
   4 O :   -0.419352
   5 C :   -0.425922
   6 C :   -0.020463
   7 H :    0.258543
   8 C :    0.340616
   9 O :   -0.398763
  10 O :   -0.151339
  11 C :   -0.150658
  12 C :   -0.447953
  13 S :   -0.222006
  14 P :    0.808760
  15 S :   -0.465794
  16 O :   -0.359671
  17 C :   -0.294669
  18 O :   -0.304031
  19 C :   -0.297035
  20 H :    0.173419
  21 H :    0.153112
  22 H :    0.149645
  23 H :    0.150955
  24 H :    0.169406
  25 H :    0.202269
  26 H :    0.189534
  27 H :    0.172664
  28 H :    0.156990
  29 H :    0.157808
  30 H :    0.151860
  31 H :    0.151159
  32 H :    0.173894
  33 H :    0.146141
  34 H :    0.158819
  35 H :    0.164724
  36 H :    0.166880
  37 H :    0.155014
Sum of atomic charges:    0.0000000

LOEWDIN ATOMIC CHARGES
----------------------
   0 C :   -0.388717
   1 C :    0.030887
   2 O :   -0.584418
   3 C :    0.355565
   4 O :   -0.433340
   5 C :   -0.203409
   6 C :   -0.199169
   7 H :    0.224813
   8 C :    0.345913
   9 O :   -0.443267
  10 O :   -0.583327
  11 C :    0.041470
  12 C :   -0.384895
  13 S :    0.207348
  14 P :    0.407761
  15 S :   -0.088169
  16 O :   -0.693648
  17 C :   -0.064715
  18 O :   -0.638948
  19 C :   -0.050919
  20 H :    0.165521
  21 H :    0.157662
  22 H :    0.160647
  23 H :    0.179311
  24 H :    0.189197
  25 H :    0.205149
  26 H :    0.191355
  27 H :    0.187366
  28 H :    0.180516
  29 H :    0.161872
  30 H :    0.162113
  31 H :    0.158589
  32 H :    0.176198
  33 H :    0.173949
  34 H :    0.169541
  35 H :    0.172313
  36 H :    0.171780
  37 H :    0.180105

  Mayer bond orders larger than 0.100000
B(  0-C ,  1-C ) :   0.9392 B(  0-C , 20-H ) :   0.9707 B(  0-C , 21-H ) :   0.9736
B(  0-C , 22-H ) :   0.9635 B(  1-C ,  2-O ) :   0.8052 B(  1-C , 23-H ) :   0.9619
B(  1-C , 24-H ) :   0.9670 B(  2-O ,  3-C ) :   1.1003 B(  3-C ,  4-O ) :   1.8403
B(  3-C ,  5-C ) :   0.9605 B(  5-C ,  6-C ) :   0.9025 B(  5-C , 25-H ) :   0.9201
B(  5-C , 26-H ) :   0.9662 B(  6-C ,  7-H ) :   0.9126 B(  6-C ,  8-C ) :   0.8768
B(  6-C , 13-S ) :   0.8790 B(  8-C ,  9-O ) :   1.8090 B(  8-C , 10-O ) :   1.1966
B( 10-O , 11-C ) :   0.7813 B( 11-C , 12-C ) :   0.9443 B( 11-C , 27-H ) :   0.9503
B( 11-C , 28-H ) :   0.9494 B( 12-C , 29-H ) :   0.9719 B( 12-C , 30-H ) :   0.9666
B( 12-C , 31-H ) :   0.9725 B( 13-S , 14-P ) :   0.9789 B( 14-P , 15-S ) :   1.7824
B( 14-P , 16-O ) :   1.0102 B( 14-P , 18-O ) :   1.1926 B( 16-O , 17-C ) :   0.8397
B( 17-C , 32-H ) :   0.9585 B( 17-C , 33-H ) :   0.9693 B( 17-C , 34-H ) :   0.9538
B( 18-O , 19-C ) :   0.7964 B( 19-C , 35-H ) :   0.9592 B( 19-C , 36-H ) :   0.9632
B( 19-C , 37-H ) :   0.9656

Dispersion correction           -0.016254099
FINAL SINGLE POINT ENERGY     -1981.448238703468

DIPOLE MOMENT
-------------

Method             : SCF
Type of density    : Electron Density
Multiplicity       :   1
Irrep              :   0
Energy             : -1981.4694281611564293 Eh
Relativity type    :
Basis              : AO
                                X                 Y                 Z
Electronic contribution:    -17.770673189       2.409567455       1.227638642
Nuclear contribution   :     19.539355509      -3.118550106      -0.240438837
                        -----------------------------------------
Total Dipole Moment    :      1.768682320      -0.708982651       0.987199804
                        -----------------------------------------
Magnitude (a.u.)       :      2.146032852
Magnitude (Debye)      :      5.454782011

Rotational constants in cm-1:             0.010628             0.006751             0.004847
Rotational constants in MHz :           318.610636           202.394535           145.305387

                             ****ORCA TERMINATED NORMALLY****
TOTAL RUN TIME: 0 days 0 hours 1 minutes 9 seconds 650 msec
