                         Program Version 6.0.1  -  RELEASE   -
|  1> ! r2scan-3c def2/J RI DEFGRID2 scfconv6 printgap
|  2> %output
|  3>     printlevel normal
|  4> end
|  5> %cpcm
|  6>     smd true
|  7>     smdsolvent "water"
|  8> end
|  9> * xyz 0 1
| 10> C 4.6291548477 -3.2345930692 -2.018004124
| 11> C 3.632125321 -3.5911737969 -0.9268473381
| 12> O 3.2732759884 -2.4287377829 -0.1545430633
| 13> C 2.2919851691 -1.6636898399 -0.5906353981
| 14> O 1.63942396 -1.8772512759 -1.5872419743
| 15> C 2.0871910144 -0.4708161093 0.3257923106
| 16> C 0.7187811648 0.1475959113 0.0923407108
| 17> H 0.5484227228 0.258901881 -0.987197919
| 18> C 0.5262241459 1.5107667604 0.7253356229
| 19> O -0.5096898755 1.8298378144 1.2744165647
| 20> O 1.5633786946 2.2881073563 0.5825970646
| 21> C 1.456471737 3.6429662314 1.0761254275
| 22> C 2.7440792433 4.3655249975 0.7370224324
| 23> S -0.6023233754 -0.9415990006 0.72715553
| 24> P -2.2628622492 0.1955941145 0.0487778822
| 25> S -1.9754096382 1.4295616961 -1.442846308
| 26> O -3.2860712406 -0.9895672795 -0.3286967622
| 27> C -3.057366408 -1.8284183196 -1.4626247457
| 28> O -3.0470262401 0.8179831335 1.2676005368
| 29> C -3.3848627864 0.055576752 2.4427309364
| 30> H 4.1731807219 -2.5540817901 -2.7335327945
| 31> H 5.5050800763 -2.7598528246 -1.5847713686
| 32> H 4.9315090213 -4.1383322477 -2.5366583324
| 33> H 4.0665637551 -4.2767408785 -0.1994002824
| 34> H 2.7220096415 -4.0173792278 -1.3579936734
| 35> H 2.8567242112 0.2697995039 0.0967779314
| 36> H 2.2094843343 -0.7944852856 1.3591985291
| 37> H 0.585983019 4.1082314813 0.6035474575
| 38> H 1.2815924572 3.5992503827 2.1550291137
| 39> H 2.8994930254 4.3643418461 -0.337583451
| 40> H 2.6787257611 5.3903450353 1.0865988965
| 41> H 3.5859395954 3.8763642919 1.2170096892
| 42> H -2.9034619826 -1.2183798512 -2.3543996125
| 43> H -3.9535409071 -2.4345692359 -1.5649547365
| 44> H -2.1829158944 -2.4580373825 -1.2937976707
| 45> H -2.4831366011 -0.3779854957 2.8754318961
| 46> H -4.0931354081 -0.7293671367 2.1833214541
| 47> H -3.8303341787 0.7749199321 3.124821382
| 48> *
| 49>
| 50>                          ****END OF INPUT****

CARTESIAN COORDINATES (ANGSTROEM)
---------------------------------
  C      4.629155   -3.234593   -2.018004
  C      3.632125   -3.591174   -0.926847
  O      3.273276   -2.428738   -0.154543
  C      2.291985   -1.663690   -0.590635
  O      1.639424   -1.877251   -1.587242
  C      2.087191   -0.470816    0.325792
  C      0.718781    0.147596    0.092341
  H      0.548423    0.258902   -0.987198
  C      0.526224    1.510767    0.725336
  O     -0.509690    1.829838    1.274417
  O      1.563379    2.288107    0.582597
  C      1.456472    3.642966    1.076125
  C      2.744079    4.365525    0.737022
  S     -0.602323   -0.941599    0.727156
  P     -2.262862    0.195594    0.048778
  S     -1.975410    1.429562   -1.442846
  O     -3.286071   -0.989567   -0.328697
  C     -3.057366   -1.828418   -1.462625
  O     -3.047026    0.817983    1.267601
  C     -3.384863    0.055577    2.442731
  H      4.173181   -2.554082   -2.733533
  H      5.505080   -2.759853   -1.584771
  H      4.931509   -4.138332   -2.536658
  H      4.066564   -4.276741   -0.199400
  H      2.722010   -4.017379   -1.357994
  H      2.856724    0.269800    0.096778
  H      2.209484   -0.794485    1.359199
  H      0.585983    4.108231    0.603547
  H      1.281592    3.599250    2.155029
  H      2.899493    4.364342   -0.337583
  H      2.678726    5.390345    1.086599
  H      3.585940    3.876364    1.217010
  H     -2.903462   -1.218380   -2.354400
  H     -3.953541   -2.434569   -1.564955
  H     -2.182916   -2.458037   -1.293798
  H     -2.483137   -0.377985    2.875432
  H     -4.093135   -0.729367    2.183321
  H     -3.830334    0.774920    3.124821

 Total Charge           Charge          ....    0
 Multiplicity           Mult            ....    1
 Number of Electrons    NEL             ....  174
 Basis Dimension        Dim             ....  510

ORBITAL ENERGIES
----------------

  NO   OCC          E(Eh)            E(eV)
   0   2.0000     -88.577902     -2410.3272
   1   2.0000     -88.525058     -2408.8893
   2   2.0000     -76.919213     -2093.0782
   3   2.0000     -19.015733      -517.4444
   4   2.0000     -19.008435      -517.2458
   5   2.0000     -18.995042      -516.8814
   6   2.0000     -18.988558      -516.7049
   7   2.0000     -18.951400      -515.6938
   8   2.0000     -18.950443      -515.6678
   9   2.0000     -10.175203      -276.8813
  10   2.0000     -10.172128      -276.7977
  11   2.0000     -10.096688      -274.7449
  12   2.0000     -10.089835      -274.5584
  13   2.0000     -10.086199      -274.4594
  14   2.0000     -10.084523      -274.4138
  15   2.0000     -10.078432      -274.2481
  16   2.0000     -10.060444      -273.7586
  17   2.0000     -10.020662      -272.6761
  18   2.0000     -10.019315      -272.6394
  19   2.0000      -7.872175      -214.2128
  20   2.0000      -7.820353      -212.8026
  21   2.0000      -6.597187      -179.5186
  22   2.0000      -5.819015      -158.3434
  23   2.0000      -5.816210      -158.2671
  24   2.0000      -5.809160      -158.0753
  25   2.0000      -5.768136      -156.9590
  26   2.0000      -5.760776      -156.7587
  27   2.0000      -5.759966      -156.7367
  28   2.0000      -4.742863      -129.0599
  29   2.0000      -4.742286      -129.0442
  30   2.0000      -4.740761      -129.0027
  31   2.0000      -1.095616       -29.8132
  32   2.0000      -1.086784       -29.5729
  33   2.0000      -1.050929       -28.5972
  34   2.0000      -1.007235       -27.4083
  35   2.0000      -1.000862       -27.2348
  36   2.0000      -0.997707       -27.1490
  37   2.0000      -0.812723       -22.1153
  38   2.0000      -0.751029       -20.4365
  39   2.0000      -0.748194       -20.3594
  40   2.0000      -0.729113       -19.8402
  41   2.0000      -0.696295       -18.9471
  42   2.0000      -0.666814       -18.1449
  43   2.0000      -0.659664       -17.9504
  44   2.0000      -0.653823       -17.7914
  45   2.0000      -0.622235       -16.9319
  46   2.0000      -0.590978       -16.0813
  47   2.0000      -0.542518       -14.7627
  48   2.0000      -0.532706       -14.4957
  49   2.0000      -0.524090       -14.2612
  50   2.0000      -0.502265       -13.6673
  51   2.0000      -0.489727       -13.3261
  52   2.0000      -0.486742       -13.2449
  53   2.0000      -0.475012       -12.9257
  54   2.0000      -0.466355       -12.6902
  55   2.0000      -0.460888       -12.5414
  56   2.0000      -0.450581       -12.2609
  57   2.0000      -0.445824       -12.1315
  58   2.0000      -0.443047       -12.0559
  59   2.0000      -0.426565       -11.6074
  60   2.0000      -0.419131       -11.4051
  61   2.0000      -0.409812       -11.1516
  62   2.0000      -0.405806       -11.0425
  63   2.0000      -0.401067       -10.9136
  64   2.0000      -0.396277       -10.7832
  65   2.0000      -0.378263       -10.2931
  66   2.0000      -0.370468       -10.0810
  67   2.0000      -0.367788       -10.0080
  68   2.0000      -0.359337        -9.7781
  69   2.0000      -0.356821        -9.7096
  70   2.0000      -0.347426        -9.4539
  71   2.0000      -0.341448        -9.2913
  72   2.0000      -0.332372        -9.0443
  73   2.0000      -0.329320        -8.9612
  74   2.0000      -0.324797        -8.8382
  75   2.0000      -0.317250        -8.6328
  76   2.0000      -0.311925        -8.4879
  77   2.0000      -0.308264        -8.3883
  78   2.0000      -0.288466        -7.8496
  79   2.0000      -0.287487        -7.8229
  80   2.0000      -0.283933        -7.7262
  81   2.0000      -0.275977        -7.5097
  82   2.0000      -0.263493        -7.1700
  83   2.0000      -0.258880        -7.0445
  84   2.0000      -0.240101        -6.5335
  85   2.0000      -0.227789        -6.1984
  86   2.0000      -0.220366        -5.9965
  87   0.0000      -0.050885        -1.3846
  88   0.0000      -0.037455        -1.0192
  89   0.0000      -0.022945        -0.6244
  90   0.0000       0.001987         0.0541
  91   0.0000       0.016741         0.4555

MULLIKEN ATOMIC CHARGES
-----------------------
   0 C :   -0.496083
   1 C :   -0.140897
   2 O :   -0.183726
   3 C :    0.417186
   4 O :   -0.491859
   5 C :   -0.435586
   6 C :   -0.006076
   7 H :    0.257294
   8 C :    0.354424
   9 O :   -0.457045
  10 O :   -0.150347
  11 C :   -0.149586
  12 C :   -0.493377
  13 S :   -0.217565
  14 P :    0.810266
  15 S :   -0.516154
  16 O :   -0.387195
  17 C :   -0.308418
  18 O :   -0.353740
  19 C :   -0.301177
  20 H :    0.170282
  21 H :    0.166847
  22 H :    0.171640
  23 H :    0.176922
  24 H :    0.174131
  25 H :    0.234377
  26 H :    0.221774
  27 H :    0.178091
  28 H :    0.177888
  29 H :    0.167208
  30 H :    0.172533
  31 H :    0.167176
  32 H :    0.176173
  33 H :    0.177454
  34 H :    0.171683
  35 H :    0.178380
  36 H :    0.184898
  37 H :    0.182205
Sum of atomic charges:    0.0000000

LOEWDIN ATOMIC CHARGES
----------------------
   0 C :   -0.391566
   1 C :    0.036252
   2 O :   -0.582390
   3 C :    0.367192
   4 O :   -0.486703
   5 C :   -0.194290
   6 C :   -0.193995
   7 H :    0.224413
   8 C :    0.354964
   9 O :   -0.489777
  10 O :   -0.574242
  11 C :    0.045497
  12 C :   -0.387012
  13 S :    0.215615
  14 P :    0.403452
  15 S :   -0.129970
  16 O :   -0.706453
  17 C :   -0.061224
  18 O :   -0.670843
  19 C :   -0.042820
  20 H :    0.162911
  21 H :    0.162545
  22 H :    0.168573
  23 H :    0.190613
  24 H :    0.190716
  25 H :    0.219560
  26 H :    0.204516
  27 H :    0.188670
  28 H :    0.188106
  29 H :    0.164115
  30 H :    0.170201
  31 H :    0.163765
  32 H :    0.176202
  33 H :    0.187374
  34 H :    0.174374
  35 H :    0.179162
  36 H :    0.180932
  37 H :    0.191565

  Mayer bond orders larger than 0.100000
B(  0-C ,  1-C ) :   0.9376 B(  0-C , 20-H ) :   0.9691 B(  0-C , 21-H ) :   0.9695
B(  0-C , 22-H ) :   0.9588 B(  1-C ,  2-O ) :   0.7871 B(  1-C , 23-H ) :   0.9524
B(  1-C , 24-H ) :   0.9631 B(  2-O ,  3-C ) :   1.1232 B(  3-C ,  4-O ) :   1.7875
B(  3-C ,  5-C ) :   0.9535 B(  5-C ,  6-C ) :   0.9093 B(  5-C , 25-H ) :   0.9062
B(  5-C , 26-H ) :   0.9592 B(  6-C ,  7-H ) :   0.9031 B(  6-C ,  8-C ) :   0.8894
B(  6-C , 13-S ) :   0.8670 B(  8-C ,  9-O ) :   1.7715 B(  8-C , 10-O ) :   1.2236
B( 10-O , 11-C ) :   0.7678 B( 11-C , 12-C ) :   0.9441 B( 11-C , 27-H ) :   0.9444
B( 11-C , 28-H ) :   0.9418 B( 12-C , 29-H ) :   0.9704 B( 12-C , 30-H ) :   0.9606
B( 12-C , 31-H ) :   0.9692 B( 13-S , 14-P ) :   1.0016 B( 14-P , 15-S ) :   1.7770
B( 14-P , 16-O ) :   1.0084 B( 14-P , 18-O ) :   1.1827 B( 16-O , 17-C ) :   0.8302
B( 17-C , 32-H ) :   0.9553 B( 17-C , 33-H ) :   0.9584 B( 17-C , 34-H ) :   0.9492
B( 18-O , 19-C ) :   0.7891 B( 19-C , 35-H ) :   0.9489 B( 19-C , 36-H ) :   0.9534
B( 19-C , 37-H ) :   0.9545

Dispersion correction           -0.016254099
FINAL SINGLE POINT ENERGY     -1981.464416383854

DIPOLE MOMENT
-------------

Method             : SCF
Type of density    : Electron Density
Multiplicity       :   1
Irrep              :   0
Energy             : -1981.4856058415418829 Eh
Relativity type    :
Basis              : AO
                                X                 Y                 Z
Electronic contribution:    -16.981520458       1.982669506       1.704789062
Nuclear contribution   :     19.539355509      -3.118550106      -0.240438837
                        -----------------------------------------
Total Dipole Moment    :      2.557835051      -1.135880600       1.464350225
                        -----------------------------------------
Magnitude (a.u.)       :      3.158649469
Magnitude (Debye)      :      8.028648902

Rotational constants in cm-1:             0.010628             0.006751             0.004847
Rotational constants in MHz :           318.610636           202.394535           145.305387

                             ****ORCA TERMINATED NORMALLY****
TOTAL RUN TIME: 0 days 0 hours 1 minutes 40 seconds 587 msec
