                         Program Version 6.0.0  -   RELEASE  -
|  1> ! pbe def2-sv(p) def2/J RI DEFGRID1 loosescf d4 GCP(DFT/SV(P)) printgap
|  2> %output
|  3>     printlevel normal
|  4> end
|  5> * xyz 0 1
|  6> C 5.7676183489 -1.2350954617 -1.3011137343
|  7> C 4.933360071 -0.0283163733 -0.9237469017
|  8> O 3.7059283648 -0.5040314279 -0.3261163693
|  9> P 2.3733701668 0.3466565046 -0.3693702624
| 10> S 1.9312311388 1.0964679314 -2.1319343401
| 11> O 2.6725496447 1.4237120059 0.7630222849
| 12> C 1.8460406411 2.5667794967 1.0430983964
| 13> C 0.9775596521 2.312655281 2.2590008774
| 14> S 1.0902674825 -1.0865617494 0.472507297
| 15> C 0.1287149461 -1.5252608123 -1.0230845812
| 16> S -1.5777748738 -1.9174262885 -0.6077796427
| 17> P -2.113116545 -0.0476201609 0.2716689082
| 18> S -1.3301779375 1.5453801282 -0.5598832218
| 19> O -1.7806803829 -0.1159923694 1.8058783918
| 20> C -1.853273343 -1.2875457809 2.6587826097
| 21> C -3.2080181282 -1.9590870955 2.6233609516
| 22> O -3.698728255 -0.0878903597 0.2468447342
| 23> C -4.43570644 0.085920105 -0.9795753039
| 24> C -5.869239552 0.4168458518 -0.6169447612
| 25> H 5.9569790532 -1.842753129 -0.4210911833
| 26> H 5.2425598832 -1.8361751965 -2.0382278714
| 27> H 6.7111004556 -0.8991146399 -1.7187718834
| 28> H 4.6818796378 0.5774982692 -1.8012356455
| 29> H 5.4410706409 0.5988468744 -0.187522802
| 30> H 2.54937743 3.3820966848 1.223179347
| 31> H 1.2373812864 2.7993051294 0.1627053134
| 32> H 1.5923247897 1.9856484082 3.0927632581
| 33> H 0.4618903493 3.2302403341 2.5233371375
| 34> H 0.2344450057 1.546841542 2.044418743
| 35> H 0.5499586932 -2.4192378593 -1.4758686997
| 36> H 0.1613646935 -0.6755863259 -1.7115363874
| 37> H -1.0593897633 -1.9741314122 2.35077335
| 38> H -1.627998592 -0.884676263 3.6471671694
| 39> H -3.2261151171 -2.7536072322 3.3629465496
| 40> H -3.9898342311 -1.2386903013 2.8486891384
| 41> H -3.3937138546 -2.3868810042 1.6403403157
| 42> H -3.9713060425 0.8927876822 -1.5569756271
| 43> H -4.3714709672 -0.8443985724 -1.5502491559
| 44> H -5.9042489956 1.3343256174 -0.036248878
| 45> H -6.445762107 0.5467882997 -1.5268909084
| 46> H -6.2990053534 -0.3892179024 -0.0299097754
| 47> *
| 48>
| 49>                          ****END OF INPUT****

CARTESIAN COORDINATES (ANGSTROEM)
---------------------------------
  C      5.767618   -1.235095   -1.301114
  C      4.933360   -0.028316   -0.923747
  O      3.705928   -0.504031   -0.326116
  P      2.373370    0.346657   -0.369370
  S      1.931231    1.096468   -2.131934
  O      2.672550    1.423712    0.763022
  C      1.846041    2.566779    1.043098
  C      0.977560    2.312655    2.259001
  S      1.090267   -1.086562    0.472507
  C      0.128715   -1.525261   -1.023085
  S     -1.577775   -1.917426   -0.607780
  P     -2.113117   -0.047620    0.271669
  S     -1.330178    1.545380   -0.559883
  O     -1.780680   -0.115992    1.805878
  C     -1.853273   -1.287546    2.658783
  C     -3.208018   -1.959087    2.623361
  O     -3.698728   -0.087890    0.246845
  C     -4.435706    0.085920   -0.979575
  C     -5.869240    0.416846   -0.616945
  H      5.956979   -1.842753   -0.421091
  H      5.242560   -1.836175   -2.038228
  H      6.711100   -0.899115   -1.718772
  H      4.681880    0.577498   -1.801236
  H      5.441071    0.598847   -0.187523
  H      2.549377    3.382097    1.223179
  H      1.237381    2.799305    0.162705
  H      1.592325    1.985648    3.092763
  H      0.461890    3.230240    2.523337
  H      0.234445    1.546842    2.044419
  H      0.549959   -2.419238   -1.475869
  H      0.161365   -0.675586   -1.711536
  H     -1.059390   -1.974131    2.350773
  H     -1.627999   -0.884676    3.647167
  H     -3.226115   -2.753607    3.362947
  H     -3.989834   -1.238690    2.848689
  H     -3.393714   -2.386881    1.640340
  H     -3.971306    0.892788   -1.556976
  H     -4.371471   -0.844399   -1.550249
  H     -5.904249    1.334326   -0.036249
  H     -6.445762    0.546788   -1.526891
  H     -6.299005   -0.389218   -0.029910

 Total Charge           Charge          ....    0
 Multiplicity           Mult            ....    1
 Number of Electrons    NEL             ....  202
 Basis Dimension        Dim             ....  334

ORBITAL ENERGIES
----------------

  NO   OCC          E(Eh)            E(eV)
   0   2.0000     -88.048898     -2395.9323
   1   2.0000     -88.041206     -2395.7230
   2   2.0000     -87.980340     -2394.0668
   3   2.0000     -87.979699     -2394.0493
   4   2.0000     -76.427300     -2079.6926
   5   2.0000     -76.419641     -2079.4842
   6   2.0000     -18.795612      -511.4546
   7   2.0000     -18.795288      -511.4458
   8   2.0000     -18.784620      -511.1555
   9   2.0000     -18.782279      -511.0918
  10   2.0000      -9.959136      -271.0019
  11   2.0000      -9.954257      -270.8691
  12   2.0000      -9.953831      -270.8575
  13   2.0000      -9.945971      -270.6436
  14   2.0000      -9.939141      -270.4578
  15   2.0000      -9.890991      -269.1475
  16   2.0000      -9.889732      -269.1133
  17   2.0000      -9.883221      -268.9361
  18   2.0000      -9.868426      -268.5335
  19   2.0000      -7.693713      -209.3566
  20   2.0000      -7.686191      -209.1519
  21   2.0000      -7.625359      -207.4966
  22   2.0000      -7.624616      -207.4763
  23   2.0000      -6.424417      -174.8173
  24   2.0000      -6.417553      -174.6305
  25   2.0000      -5.721562      -155.6916
  26   2.0000      -5.718010      -155.5950
  27   2.0000      -5.714088      -155.4883
  28   2.0000      -5.711014      -155.4046
  29   2.0000      -5.710867      -155.4006
  30   2.0000      -5.702949      -155.1851
  31   2.0000      -5.654193      -153.8584
  32   2.0000      -5.653670      -153.8442
  33   2.0000      -5.646086      -153.6378
  34   2.0000      -5.645470      -153.6211
  35   2.0000      -5.645061      -153.6099
  36   2.0000      -5.644789      -153.6025
  37   2.0000      -4.647143      -126.4552
  38   2.0000      -4.646448      -126.4363
  39   2.0000      -4.644510      -126.3835
  40   2.0000      -4.639972      -126.2601
  41   2.0000      -4.639203      -126.2391
  42   2.0000      -4.638194      -126.2117
  43   2.0000      -0.990375       -26.9495
  44   2.0000      -0.979076       -26.6420
  45   2.0000      -0.949115       -25.8267
  46   2.0000      -0.936112       -25.4729
  47   2.0000      -0.763980       -20.7890
  48   2.0000      -0.722366       -19.6566
  49   2.0000      -0.710708       -19.3394
  50   2.0000      -0.695273       -18.9193
  51   2.0000      -0.678188       -18.4544
  52   2.0000      -0.673273       -18.3207
  53   2.0000      -0.646760       -17.5992
  54   2.0000      -0.630202       -17.1487
  55   2.0000      -0.596251       -16.2248
  56   2.0000      -0.589420       -16.0389
  57   2.0000      -0.570458       -15.5230
  58   2.0000      -0.563311       -15.3285
  59   2.0000      -0.560224       -15.2445
  60   2.0000      -0.505826       -13.7642
  61   2.0000      -0.497493       -13.5375
  62   2.0000      -0.479730       -13.0541
  63   2.0000      -0.470139       -12.7931
  64   2.0000      -0.452820       -12.3219
  65   2.0000      -0.443456       -12.0671
  66   2.0000      -0.436782       -11.8854
  67   2.0000      -0.434619       -11.8266
  68   2.0000      -0.432774       -11.7764
  69   2.0000      -0.414597       -11.2818
  70   2.0000      -0.410193       -11.1619
  71   2.0000      -0.401722       -10.9314
  72   2.0000      -0.386415       -10.5149
  73   2.0000      -0.380428       -10.3520
  74   2.0000      -0.377783       -10.2800
  75   2.0000      -0.370959       -10.0943
  76   2.0000      -0.363628        -9.8948
  77   2.0000      -0.358578        -9.7574
  78   2.0000      -0.354401        -9.6437
  79   2.0000      -0.352102        -9.5812
  80   2.0000      -0.350476        -9.5369
  81   2.0000      -0.342699        -9.3253
  82   2.0000      -0.337403        -9.1812
  83   2.0000      -0.332742        -9.0544
  84   2.0000      -0.326574        -8.8865
  85   2.0000      -0.316158        -8.6031
  86   2.0000      -0.307433        -8.3657
  87   2.0000      -0.300577        -8.1791
  88   2.0000      -0.294397        -8.0109
  89   2.0000      -0.287290        -7.8176
  90   2.0000      -0.281668        -7.6646
  91   2.0000      -0.278728        -7.5846
  92   2.0000      -0.266582        -7.2541
  93   2.0000      -0.263646        -7.1742
  94   2.0000      -0.257823        -7.0157
  95   2.0000      -0.236387        -6.4324
  96   2.0000      -0.223194        -6.0734
  97   2.0000      -0.209401        -5.6981
  98   2.0000      -0.197725        -5.3804
  99   2.0000      -0.193984        -5.2786
 100   2.0000      -0.185256        -5.0411
 101   0.0000      -0.047404        -1.2899
 102   0.0000      -0.033842        -0.9209
 103   0.0000      -0.006921        -0.1883
 104   0.0000       0.011458         0.3118
 105   0.0000       0.019520         0.5312

MULLIKEN ATOMIC CHARGES
-----------------------
   0 C :   -0.277908
   1 C :   -0.007471
   2 O :   -0.371958
   3 P :    0.629497
   4 S :   -0.317798
   5 O :   -0.380411
   6 C :   -0.009525
   7 C :   -0.310106
   8 S :   -0.109911
   9 C :   -0.341724
  10 S :   -0.125752
  11 P :    0.594371
  12 S :   -0.302201
  13 O :   -0.350241
  14 C :   -0.001222
  15 C :   -0.307547
  16 O :   -0.373855
  17 C :   -0.012187
  18 C :   -0.281171
  19 H :    0.115868
  20 H :    0.116414
  21 H :    0.109245
  22 H :    0.103255
  23 H :    0.101993
  24 H :    0.097508
  25 H :    0.120359
  26 H :    0.101659
  27 H :    0.105195
  28 H :    0.143173
  29 H :    0.181514
  30 H :    0.214529
  31 H :    0.113566
  32 H :    0.111468
  33 H :    0.115558
  34 H :    0.124136
  35 H :    0.119313
  36 H :    0.109641
  37 H :    0.102293
  38 H :    0.122513
  39 H :    0.113665
  40 H :    0.114255
Sum of atomic charges:    0.0000000

LOEWDIN ATOMIC CHARGES
----------------------
   0 C :   -0.350746
   1 C :   -0.117985
   2 O :   -0.250228
   3 P :    0.567448
   4 S :   -0.303432
   5 O :   -0.245973
   6 C :   -0.117204
   7 C :   -0.367104
   8 S :    0.081217
   9 C :   -0.476478
  10 S :    0.066269
  11 P :    0.564114
  12 S :   -0.297467
  13 O :   -0.227500
  14 C :   -0.112512
  15 C :   -0.366639
  16 O :   -0.245231
  17 C :   -0.121104
  18 C :   -0.350239
  19 H :    0.126536
  20 H :    0.127380
  21 H :    0.129407
  22 H :    0.106492
  23 H :    0.112836
  24 H :    0.114328
  25 H :    0.108489
  26 H :    0.119443
  27 H :    0.129058
  28 H :    0.121706
  29 H :    0.135013
  30 H :    0.124955
  31 H :    0.105688
  32 H :    0.123577
  33 H :    0.132541
  34 H :    0.129436
  35 H :    0.117064
  36 H :    0.110880
  37 H :    0.108686
  38 H :    0.130004
  39 H :    0.131751
  40 H :    0.125528

  Mayer bond orders larger than 0.100000
B(  0-C ,  1-C ) :   1.1622 B(  0-C , 19-H ) :   0.9508 B(  0-C , 20-H ) :   0.9511
B(  0-C , 21-H ) :   0.9421 B(  1-C ,  2-O ) :   0.9029 B(  1-C , 22-H ) :   0.9068
B(  1-C , 23-H ) :   0.9319 B(  2-O ,  3-P ) :   1.1275 B(  3-P ,  4-S ) :   1.6283
B(  3-P ,  5-O ) :   1.1178 B(  3-P ,  8-S ) :   0.9546 B(  4-S ,  8-S ) :   0.1185
B(  5-O ,  6-C ) :   0.8999 B(  6-C ,  7-C ) :   1.1710 B(  6-C , 24-H ) :   0.9348
B(  6-C , 25-H ) :   0.9045 B(  7-C , 26-H ) :   0.9463 B(  7-C , 27-H ) :   0.9406
B(  7-C , 28-H ) :   0.9255 B(  8-S ,  9-C ) :   0.9930 B(  9-C , 10-S ) :   1.0062
B(  9-C , 29-H ) :   0.9086 B(  9-C , 30-H ) :   0.8461 B( 10-S , 11-P ) :   0.9308
B( 10-S , 12-S ) :   0.1088 B( 11-P , 12-S ) :   1.6521 B( 11-P , 13-O ) :   1.1337
B( 11-P , 16-O ) :   1.0938 B( 13-O , 14-C ) :   0.8937 B( 14-C , 15-C ) :   1.1710
B( 14-C , 31-H ) :   0.9162 B( 14-C , 32-H ) :   0.9337 B( 15-C , 33-H ) :   0.9358
B( 15-C , 34-H ) :   0.9423 B( 15-C , 35-H ) :   0.9380 B( 16-O , 17-C ) :   0.9012
B( 17-C , 18-C ) :   1.1605 B( 17-C , 36-H ) :   0.9084 B( 17-C , 37-H ) :   0.9289
B( 18-C , 38-H ) :   0.9507 B( 18-C , 39-H ) :   0.9417 B( 18-C , 40-H ) :   0.9514

Dispersion correction           -0.064664008
FINAL SINGLE POINT ENERGY     -2929.520044134468

DIPOLE MOMENT
-------------

Method             : SCF
Type of density    : Electron Density
Multiplicity       :   1
Irrep              :   0
Energy             : -2929.6394899564888874 Eh
Relativity type    :
Basis              : AO
                                X                 Y                 Z
Electronic contribution:      4.895855791       0.541096265      -7.718371401
Nuclear contribution   :     -5.352914239      -1.418906593       8.501124471
                        -----------------------------------------
Total Dipole Moment    :     -0.457058448      -0.877810329       0.782753070
                        -----------------------------------------
Magnitude (a.u.)       :      1.261806549
Magnitude (Debye)      :      3.207257361

Rotational constants in cm-1:             0.013943             0.004454             0.004399
Rotational constants in MHz :           417.986211           133.541728           131.889841

                             ****ORCA TERMINATED NORMALLY****
TOTAL RUN TIME: 0 days 0 hours 0 minutes 20 seconds 829 msec
