                         Program Version 6.0.0  -   RELEASE  -
|  1> ! pbe def2-sv(p) def2/J RI DEFGRID1 loosescf d4 GCP(DFT/SV(P)) printgap
|  2> %output
|  3>     printlevel normal
|  4> end
|  5> * xyz 0 1
|  6> C 3.5241858789 1.6472214664 -1.9350410176
|  7> C 3.4126419207 0.1428159139 -2.0669999628
|  8> O 2.2588400137 -0.3787961879 -1.3718695302
|  9> P 2.0260409627 -0.264292023 0.1817224623
| 10> S 1.3581045652 1.3996416066 0.9938479834
| 11> O 3.471793942 -0.664416507 0.7247089357
| 12> C 3.829775909 -0.573792102 2.1162738198
| 13> C 5.3341000382 -0.4110890867 2.2071185744
| 14> S 0.8373519261 -1.9776612165 0.5103560762
| 15> C -0.471190751 -1.2889230803 1.580747858
| 16> S -2.1263433041 -1.3539957555 0.8519412705
| 17> P -2.0318264789 0.324589087 -0.4561672487
| 18> S -0.7188035641 0.3199291496 -1.9074599387
| 19> O -1.8501884778 1.5675813619 0.492637046
| 20> C -2.7022400324 1.8790089252 1.623535807
| 21> C -3.8111516656 2.8286285978 1.220589099
| 22> O -3.540787019 0.4495355315 -0.9421375683
| 23> C -4.042311589 -0.2447247185 -2.0976332107
| 24> C -4.0575606361 -1.7466764705 -1.9017145946
| 25> H 2.6022738981 2.1194808015 -2.2693610913
| 26> H 3.6939680817 1.9213663423 -0.8940513664
| 27> H 4.3523678126 2.0053950603 -2.538183746
| 28> H 4.3029764001 -0.3556413984 -1.6774043784
| 29> H 3.2353437512 -0.1560685546 -3.1014357394
| 30> H 3.3071870364 0.2829566559 2.5558017787
| 31> H 3.4983157829 -1.491570006 2.6084882956
| 32> H 5.6432929245 0.5084506925 1.7178069903
| 33> H 5.6238839552 -0.3739135106 3.2519901641
| 34> H 5.8280676863 -1.250343922 1.7260218614
| 35> H -0.2097376915 -0.2524114283 1.8168600853
| 36> H -0.5210050559 -1.9033350331 2.4753930811
| 37> H -3.1080143133 0.948140749 2.0294414029
| 38> H -2.0242646678 2.3391750244 2.3455931667
| 39> H -4.4751251676 2.3511729664 0.5052235147
| 40> H -4.3752546135 3.1073249036 2.1051729568
| 41> H -3.3894240348 3.7216741539 0.7673005597
| 42> H -5.0489260238 0.1559477462 -2.2250263905
| 43> H -3.4214621719 0.0255419337 -2.9574895568
| 44> H -4.5610300257 -2.2129679604 -2.7424658117
| 45> H -3.0374302248 -2.1249678507 -1.8492342688
| 46> H -4.5746267 -2.0037802723 -0.9806120948
| 47> *
| 48>
| 49>                          ****END OF INPUT****

CARTESIAN COORDINATES (ANGSTROEM)
---------------------------------
  C      3.524186    1.647221   -1.935041
  C      3.412642    0.142816   -2.067000
  O      2.258840   -0.378796   -1.371870
  P      2.026041   -0.264292    0.181722
  S      1.358105    1.399642    0.993848
  O      3.471794   -0.664417    0.724709
  C      3.829776   -0.573792    2.116274
  C      5.334100   -0.411089    2.207119
  S      0.837352   -1.977661    0.510356
  C     -0.471191   -1.288923    1.580748
  S     -2.126343   -1.353996    0.851941
  P     -2.031826    0.324589   -0.456167
  S     -0.718804    0.319929   -1.907460
  O     -1.850188    1.567581    0.492637
  C     -2.702240    1.879009    1.623536
  C     -3.811152    2.828629    1.220589
  O     -3.540787    0.449536   -0.942138
  C     -4.042312   -0.244725   -2.097633
  C     -4.057561   -1.746676   -1.901715
  H      2.602274    2.119481   -2.269361
  H      3.693968    1.921366   -0.894051
  H      4.352368    2.005395   -2.538184
  H      4.302976   -0.355641   -1.677404
  H      3.235344   -0.156069   -3.101436
  H      3.307187    0.282957    2.555802
  H      3.498316   -1.491570    2.608488
  H      5.643293    0.508451    1.717807
  H      5.623884   -0.373914    3.251990
  H      5.828068   -1.250344    1.726022
  H     -0.209738   -0.252411    1.816860
  H     -0.521005   -1.903335    2.475393
  H     -3.108014    0.948141    2.029441
  H     -2.024265    2.339175    2.345593
  H     -4.475125    2.351173    0.505224
  H     -4.375255    3.107325    2.105173
  H     -3.389424    3.721674    0.767301
  H     -5.048926    0.155948   -2.225026
  H     -3.421462    0.025542   -2.957490
  H     -4.561030   -2.212968   -2.742466
  H     -3.037430   -2.124968   -1.849234
  H     -4.574627   -2.003780   -0.980612

 Total Charge           Charge          ....    0
 Multiplicity           Mult            ....    1
 Number of Electrons    NEL             ....  202
 Basis Dimension        Dim             ....  334

ORBITAL ENERGIES
----------------

  NO   OCC          E(Eh)            E(eV)
   0   2.0000     -88.038495     -2395.6492
   1   2.0000     -88.034871     -2395.5506
   2   2.0000     -87.981003     -2394.0848
   3   2.0000     -87.972382     -2393.8502
   4   2.0000     -76.420977     -2079.5205
   5   2.0000     -76.417634     -2079.4295
   6   2.0000     -18.787329      -511.2292
   7   2.0000     -18.784608      -511.1552
   8   2.0000     -18.784514      -511.1526
   9   2.0000     -18.783669      -511.1296
  10   2.0000      -9.951913      -270.8053
  11   2.0000      -9.950001      -270.7533
  12   2.0000      -9.949517      -270.7401
  13   2.0000      -9.948803      -270.7207
  14   2.0000      -9.948181      -270.7038
  15   2.0000      -9.886886      -269.0358
  16   2.0000      -9.881206      -268.8813
  17   2.0000      -9.881042      -268.8768
  18   2.0000      -9.877567      -268.7823
  19   2.0000      -7.683433      -209.0769
  20   2.0000      -7.680324      -208.9922
  21   2.0000      -7.625866      -207.5104
  22   2.0000      -7.617453      -207.2814
  23   2.0000      -6.418075      -174.6447
  24   2.0000      -6.415116      -174.5642
  25   2.0000      -5.711132      -155.4078
  26   2.0000      -5.708203      -155.3281
  27   2.0000      -5.707827      -155.3179
  28   2.0000      -5.704846      -155.2368
  29   2.0000      -5.700707      -155.1241
  30   2.0000      -5.697230      -155.0295
  31   2.0000      -5.654605      -153.8696
  32   2.0000      -5.646927      -153.6607
  33   2.0000      -5.646534      -153.6500
  34   2.0000      -5.645746      -153.6286
  35   2.0000      -5.637914      -153.4154
  36   2.0000      -5.637600      -153.4069
  37   2.0000      -4.640859      -126.2842
  38   2.0000      -4.639593      -126.2498
  39   2.0000      -4.638613      -126.2231
  40   2.0000      -4.638148      -126.2104
  41   2.0000      -4.636950      -126.1778
  42   2.0000      -4.635086      -126.1271
  43   2.0000      -0.982318       -26.7302
  44   2.0000      -0.981437       -26.7063
  45   2.0000      -0.939671       -25.5697
  46   2.0000      -0.937115       -25.5002
  47   2.0000      -0.756108       -20.5747
  48   2.0000      -0.716494       -19.4968
  49   2.0000      -0.706088       -19.2136
  50   2.0000      -0.686274       -18.6745
  51   2.0000      -0.685937       -18.6653
  52   2.0000      -0.669994       -18.2315
  53   2.0000      -0.645524       -17.5656
  54   2.0000      -0.629299       -17.1241
  55   2.0000      -0.592722       -16.1288
  56   2.0000      -0.585270       -15.9260
  57   2.0000      -0.571058       -15.5393
  58   2.0000      -0.568200       -15.4615
  59   2.0000      -0.555916       -15.1272
  60   2.0000      -0.500313       -13.6142
  61   2.0000      -0.494814       -13.4646
  62   2.0000      -0.470388       -12.7999
  63   2.0000      -0.467950       -12.7336
  64   2.0000      -0.447902       -12.1880
  65   2.0000      -0.445117       -12.1122
  66   2.0000      -0.436886       -11.8883
  67   2.0000      -0.433840       -11.8054
  68   2.0000      -0.424407       -11.5487
  69   2.0000      -0.414353       -11.2751
  70   2.0000      -0.406949       -11.0737
  71   2.0000      -0.399088       -10.8597
  72   2.0000      -0.387585       -10.5467
  73   2.0000      -0.380961       -10.3665
  74   2.0000      -0.375928       -10.2295
  75   2.0000      -0.365630        -9.9493
  76   2.0000      -0.359682        -9.7874
  77   2.0000      -0.353979        -9.6323
  78   2.0000      -0.351809        -9.5732
  79   2.0000      -0.348141        -9.4734
  80   2.0000      -0.342619        -9.3231
  81   2.0000      -0.341211        -9.2848
  82   2.0000      -0.337640        -9.1877
  83   2.0000      -0.333449        -9.0736
  84   2.0000      -0.330705        -8.9989
  85   2.0000      -0.312111        -8.4930
  86   2.0000      -0.308899        -8.4056
  87   2.0000      -0.296708        -8.0738
  88   2.0000      -0.290501        -7.9049
  89   2.0000      -0.286245        -7.7891
  90   2.0000      -0.282897        -7.6980
  91   2.0000      -0.268915        -7.3175
  92   2.0000      -0.264718        -7.2033
  93   2.0000      -0.255667        -6.9571
  94   2.0000      -0.254551        -6.9267
  95   2.0000      -0.235326        -6.4036
  96   2.0000      -0.217617        -5.9216
  97   2.0000      -0.201516        -5.4835
  98   2.0000      -0.198481        -5.4009
  99   2.0000      -0.184244        -5.0135
 100   2.0000      -0.180990        -4.9250
 101   0.0000      -0.030930        -0.8417
 102   0.0000      -0.025914        -0.7051
 103   0.0000      -0.007685        -0.2091
 104   0.0000       0.008407         0.2288
 105   0.0000       0.020511         0.5581

MULLIKEN ATOMIC CHARGES
-----------------------
   0 C :   -0.318687
   1 C :    0.001657
   2 O :   -0.358817
   3 P :    0.635673
   4 S :   -0.314301
   5 O :   -0.389004
   6 C :   -0.001470
   7 C :   -0.285217
   8 S :   -0.075474
   9 C :   -0.359083
  10 S :   -0.108273
  11 P :    0.597852
  12 S :   -0.298003
  13 O :   -0.345785
  14 C :   -0.015280
  15 C :   -0.287985
  16 O :   -0.382499
  17 C :    0.002091
  18 C :   -0.327308
  19 H :    0.133497
  20 H :    0.125592
  21 H :    0.107957
  22 H :    0.107570
  23 H :    0.109509
  24 H :    0.099240
  25 H :    0.093951
  26 H :    0.116958
  27 H :    0.110358
  28 H :    0.115637
  29 H :    0.193921
  30 H :    0.178939
  31 H :    0.097609
  32 H :    0.108794
  33 H :    0.121665
  34 H :    0.106425
  35 H :    0.120667
  36 H :    0.102150
  37 H :    0.112024
  38 H :    0.114075
  39 H :    0.135949
  40 H :    0.117424
Sum of atomic charges:   -0.0000000

LOEWDIN ATOMIC CHARGES
----------------------
   0 C :   -0.367248
   1 C :   -0.107907
   2 O :   -0.227986
   3 P :    0.570658
   4 S :   -0.296761
   5 O :   -0.256469
   6 C :   -0.123515
   7 C :   -0.351487
   8 S :    0.082334
   9 C :   -0.486993
  10 S :    0.072860
  11 P :    0.564057
  12 S :   -0.302823
  13 O :   -0.227393
  14 C :   -0.117069
  15 C :   -0.359782
  16 O :   -0.249266
  17 C :   -0.118598
  18 C :   -0.373476
  19 H :    0.134179
  20 H :    0.120792
  21 H :    0.128155
  22 H :    0.111652
  23 H :    0.122194
  24 H :    0.102678
  25 H :    0.108169
  26 H :    0.126351
  27 H :    0.129962
  28 H :    0.125754
  29 H :    0.119537
  30 H :    0.135579
  31 H :    0.100853
  32 H :    0.119790
  33 H :    0.125830
  34 H :    0.128105
  35 H :    0.129115
  36 H :    0.116971
  37 H :    0.112250
  38 H :    0.131798
  39 H :    0.124680
  40 H :    0.122470

  Mayer bond orders larger than 0.100000
B(  0-C ,  1-C ) :   1.1673 B(  0-C , 19-H ) :   0.9434 B(  0-C , 20-H ) :   0.9347
B(  0-C , 21-H ) :   0.9363 B(  1-C ,  2-O ) :   0.9044 B(  1-C , 22-H ) :   0.9279
B(  1-C , 23-H ) :   0.9337 B(  2-O ,  3-P ) :   1.1454 B(  3-P ,  4-S ) :   1.5988
B(  3-P ,  5-O ) :   1.0613 B(  3-P ,  8-S ) :   0.9629 B(  4-S ,  8-S ) :   0.1260
B(  4-S , 29-H ) :   0.1210 B(  5-O ,  6-C ) :   0.9136 B(  6-C ,  7-C ) :   1.1604
B(  6-C , 24-H ) :   0.9013 B(  6-C , 25-H ) :   0.9284 B(  7-C , 26-H ) :   0.9518
B(  7-C , 27-H ) :   0.9424 B(  7-C , 28-H ) :   0.9509 B(  8-S ,  9-C ) :   1.0054
B(  9-C , 10-S ) :   0.9903 B(  9-C , 29-H ) :   0.8452 B(  9-C , 30-H ) :   0.9122
B( 10-S , 11-P ) :   0.9469 B( 10-S , 12-S ) :   0.1115 B( 11-P , 12-S ) :   1.6673
B( 11-P , 13-O ) :   1.1357 B( 11-P , 16-O ) :   1.0725 B( 13-O , 14-C ) :   0.8983
B( 14-C , 15-C ) :   1.1678 B( 14-C , 31-H ) :   0.9070 B( 14-C , 32-H ) :   0.9329
B( 15-C , 33-H ) :   0.9411 B( 15-C , 34-H ) :   0.9396 B( 15-C , 35-H ) :   0.9476
B( 16-O , 17-C ) :   0.9079 B( 17-C , 18-C ) :   1.1656 B( 17-C , 36-H ) :   0.9335
B( 17-C , 37-H ) :   0.9154 B( 18-C , 38-H ) :   0.9374 B( 18-C , 39-H ) :   0.9326
B( 18-C , 40-H ) :   0.9428

Dispersion correction           -0.065800411
FINAL SINGLE POINT ENERGY     -2929.514542227336

DIPOLE MOMENT
-------------

Method             : SCF
Type of density    : Electron Density
Multiplicity       :   1
Irrep              :   0
Energy             : -2929.6331205662349930 Eh
Relativity type    :
Basis              : AO
                                X                 Y                 Z
Electronic contribution:     -3.166920210      -7.134275646      -2.020849766
Nuclear contribution   :      3.163791826       6.913684284       2.720746483
                        -----------------------------------------
Total Dipole Moment    :     -0.003128384      -0.220591362       0.699896717
                        -----------------------------------------
Magnitude (a.u.)       :      0.733843137
Magnitude (Debye)      :      1.865281018

Rotational constants in cm-1:             0.013006             0.004832             0.004704
Rotational constants in MHz :           389.906067           144.857937           141.032812

                             ****ORCA TERMINATED NORMALLY****
TOTAL RUN TIME: 0 days 0 hours 0 minutes 20 seconds 593 msec
