                         Program Version 6.0.0  -   RELEASE  -
|  1> ! pbe def2-sv(p) def2/J RI DEFGRID1 loosescf d4 GCP(DFT/SV(P)) printgap
|  2> %output
|  3>     printlevel normal
|  4> end
|  5> * xyz 0 1
|  6> C 3.0763940664 0.1905733853 -2.7034962876
|  7> C 3.7044335553 0.9056706819 -1.524769058
|  8> O 3.4443831148 0.2365149089 -0.278825277
|  9> P 1.9850637465 0.1168736469 0.343876918
| 10> S 0.9552622058 1.7782897677 0.1838002498
| 11> O 2.2508727334 -0.225593105 1.8572965778
| 12> C 3.1022153361 -1.305092061 2.3218040119
| 13> C 4.4958620768 -0.7947790689 2.6254563147
| 14> S 1.3786202388 -1.7333229657 -0.53411015
| 15> C -0.0853226313 -2.2029580159 0.463961214
| 16> S -0.8851817958 -0.8276524331 1.3192894494
| 17> P -1.866678278 0.0260502022 -0.3548302982
| 18> S -1.1040967212 0.0170996164 -2.1497313345
| 19> O -2.2714091632 1.4797465764 0.11485858
| 20> C -2.8092307331 1.750942714 1.4320088161
| 21> C -3.6603230369 3.0000784485 1.3391294559
| 22> O -3.1764522335 -0.8948429005 -0.2324807985
| 23> C -4.100950555 -1.0590931798 -1.3224845722
| 24> C -4.9378803849 0.1858739459 -1.5368755398
| 25> H 3.3698639844 -0.8563553643 -2.7140868963
| 26> H 1.9888257919 0.2481650101 -2.6442959929
| 27> H 3.3966292781 0.6655725686 -3.6251767284
| 28> H 3.3261054379 1.9302364172 -1.4513358548
| 29> H 4.7931321337 0.9145864401 -1.5932529122
| 30> H 2.6056768667 -1.6690741328 3.2230735867
| 31> H 3.1291474352 -2.0901079966 1.5612260729
| 32> H 4.4461907997 0.0220039794 3.3402185529
| 33> H 5.085805524 -1.6039434655 3.0445632199
| 34> H 4.9716906673 -0.436249644 1.7166440103
| 35> H 0.2292835633 -2.9010449681 1.2363584323
| 36> H -0.7885421279 -2.6702533422 -0.2237535641
| 37> H -3.3916795585 0.8857472793 1.7621317043
| 38> H -1.9605713716 1.89636745 2.1060648437
| 39> H -4.0351068443 3.2482638412 2.3268160733
| 40> H -3.0599090786 3.8236055119 0.9628371061
| 41> H -4.4964686156 2.8393348726 0.6641843633
| 42> H -3.5329095565 -1.2998201288 -2.2268619771
| 43> H -4.7110193359 -1.9134920852 -1.0259316877
| 44> H -4.291325569 1.018901731 -1.8134064724
| 45> H -5.6479694159 0.0095723872 -2.3386647686
| 46> H -5.4768721245 0.4411713153 -0.6278546701
| 47> *
| 48>
| 49>                          ****END OF INPUT****

CARTESIAN COORDINATES (ANGSTROEM)
---------------------------------
  C      3.076394    0.190573   -2.703496
  C      3.704434    0.905671   -1.524769
  O      3.444383    0.236515   -0.278825
  P      1.985064    0.116874    0.343877
  S      0.955262    1.778290    0.183800
  O      2.250873   -0.225593    1.857297
  C      3.102215   -1.305092    2.321804
  C      4.495862   -0.794779    2.625456
  S      1.378620   -1.733323   -0.534110
  C     -0.085323   -2.202958    0.463961
  S     -0.885182   -0.827652    1.319289
  P     -1.866678    0.026050   -0.354830
  S     -1.104097    0.017100   -2.149731
  O     -2.271409    1.479747    0.114859
  C     -2.809231    1.750943    1.432009
  C     -3.660323    3.000078    1.339129
  O     -3.176452   -0.894843   -0.232481
  C     -4.100951   -1.059093   -1.322485
  C     -4.937880    0.185874   -1.536876
  H      3.369864   -0.856355   -2.714087
  H      1.988826    0.248165   -2.644296
  H      3.396629    0.665573   -3.625177
  H      3.326105    1.930236   -1.451336
  H      4.793132    0.914586   -1.593253
  H      2.605677   -1.669074    3.223074
  H      3.129147   -2.090108    1.561226
  H      4.446191    0.022004    3.340219
  H      5.085806   -1.603943    3.044563
  H      4.971691   -0.436250    1.716644
  H      0.229284   -2.901045    1.236358
  H     -0.788542   -2.670253   -0.223754
  H     -3.391680    0.885747    1.762132
  H     -1.960571    1.896367    2.106065
  H     -4.035107    3.248264    2.326816
  H     -3.059909    3.823606    0.962837
  H     -4.496469    2.839335    0.664184
  H     -3.532910   -1.299820   -2.226862
  H     -4.711019   -1.913492   -1.025932
  H     -4.291326    1.018902   -1.813406
  H     -5.647969    0.009572   -2.338665
  H     -5.476872    0.441171   -0.627855

 Total Charge           Charge          ....    0
 Multiplicity           Mult            ....    1
 Number of Electrons    NEL             ....  202
 Basis Dimension        Dim             ....  334

ORBITAL ENERGIES
----------------

  NO   OCC          E(Eh)            E(eV)
   0   2.0000     -88.041113     -2395.7205
   1   2.0000     -88.034912     -2395.5517
   2   2.0000     -87.979035     -2394.0312
   3   2.0000     -87.971321     -2393.8213
   4   2.0000     -76.419721     -2079.4863
   5   2.0000     -76.418559     -2079.4547
   6   2.0000     -18.788316      -511.2561
   7   2.0000     -18.784108      -511.1416
   8   2.0000     -18.784028      -511.1394
   9   2.0000     -18.781263      -511.0641
  10   2.0000      -9.960139      -271.0292
  11   2.0000      -9.953691      -270.8537
  12   2.0000      -9.952565      -270.8231
  13   2.0000      -9.945003      -270.6173
  14   2.0000      -9.944638      -270.6074
  15   2.0000      -9.888211      -269.0719
  16   2.0000      -9.883647      -268.9477
  17   2.0000      -9.882832      -268.9255
  18   2.0000      -9.874743      -268.7054
  19   2.0000      -7.685944      -209.1452
  20   2.0000      -7.679357      -208.9659
  21   2.0000      -7.624084      -207.4619
  22   2.0000      -7.616373      -207.2520
  23   2.0000      -6.417082      -174.6177
  24   2.0000      -6.415513      -174.5750
  25   2.0000      -5.713882      -155.4826
  26   2.0000      -5.710751      -155.3974
  27   2.0000      -5.707445      -155.3075
  28   2.0000      -5.703816      -155.2087
  29   2.0000      -5.702484      -155.1725
  30   2.0000      -5.696267      -155.0033
  31   2.0000      -5.653220      -153.8319
  32   2.0000      -5.645630      -153.6254
  33   2.0000      -5.644955      -153.6070
  34   2.0000      -5.643727      -153.5736
  35   2.0000      -5.636652      -153.3811
  36   2.0000      -5.636524      -153.3776
  37   2.0000      -4.639976      -126.2602
  38   2.0000      -4.638697      -126.2254
  39   2.0000      -4.638686      -126.2251
  40   2.0000      -4.637476      -126.1921
  41   2.0000      -4.637367      -126.1892
  42   2.0000      -4.635436      -126.1366
  43   2.0000      -0.980303       -26.6754
  44   2.0000      -0.979035       -26.6409
  45   2.0000      -0.938788       -25.5457
  46   2.0000      -0.938108       -25.5272
  47   2.0000      -0.760770       -20.7016
  48   2.0000      -0.714827       -19.4514
  49   2.0000      -0.707296       -19.2465
  50   2.0000      -0.688361       -18.7313
  51   2.0000      -0.683436       -18.5972
  52   2.0000      -0.665462       -18.1081
  53   2.0000      -0.647309       -17.6142
  54   2.0000      -0.633667       -17.2429
  55   2.0000      -0.590118       -16.0579
  56   2.0000      -0.580073       -15.7846
  57   2.0000      -0.573258       -15.5991
  58   2.0000      -0.569212       -15.4891
  59   2.0000      -0.559927       -15.2364
  60   2.0000      -0.504142       -13.7184
  61   2.0000      -0.494108       -13.4454
  62   2.0000      -0.475674       -12.9437
  63   2.0000      -0.467281       -12.7154
  64   2.0000      -0.451523       -12.2866
  65   2.0000      -0.441595       -12.0164
  66   2.0000      -0.438177       -11.9234
  67   2.0000      -0.428903       -11.6710
  68   2.0000      -0.422732       -11.5031
  69   2.0000      -0.418652       -11.3921
  70   2.0000      -0.400587       -10.9005
  71   2.0000      -0.393144       -10.6980
  72   2.0000      -0.389576       -10.6009
  73   2.0000      -0.383125       -10.4254
  74   2.0000      -0.376056       -10.2330
  75   2.0000      -0.369840       -10.0639
  76   2.0000      -0.356960        -9.7134
  77   2.0000      -0.356261        -9.6944
  78   2.0000      -0.353687        -9.6243
  79   2.0000      -0.349108        -9.4997
  80   2.0000      -0.345259        -9.3950
  81   2.0000      -0.343431        -9.3452
  82   2.0000      -0.339529        -9.2390
  83   2.0000      -0.337564        -9.1856
  84   2.0000      -0.327935        -8.9236
  85   2.0000      -0.314385        -8.5549
  86   2.0000      -0.309542        -8.4231
  87   2.0000      -0.306642        -8.3442
  88   2.0000      -0.292366        -7.9557
  89   2.0000      -0.283544        -7.7156
  90   2.0000      -0.274005        -7.4561
  91   2.0000      -0.269110        -7.3228
  92   2.0000      -0.263247        -7.1633
  93   2.0000      -0.258657        -7.0384
  94   2.0000      -0.252790        -6.8788
  95   2.0000      -0.237667        -6.4672
  96   2.0000      -0.220775        -6.0076
  97   2.0000      -0.205445        -5.5904
  98   2.0000      -0.188448        -5.1279
  99   2.0000      -0.180326        -4.9069
 100   2.0000      -0.174473        -4.7476
 101   0.0000      -0.051507        -1.4016
 102   0.0000      -0.030551        -0.8313
 103   0.0000      -0.008765        -0.2385
 104   0.0000       0.014736         0.4010
 105   0.0000       0.022793         0.6202

MULLIKEN ATOMIC CHARGES
-----------------------
   0 C :   -0.342056
   1 C :    0.002715
   2 O :   -0.382569
   3 P :    0.605090
   4 S :   -0.303342
   5 O :   -0.356683
   6 C :   -0.015721
   7 C :   -0.288935
   8 S :   -0.114275
   9 C :   -0.292944
  10 S :   -0.102053
  11 P :    0.605288
  12 S :   -0.284907
  13 O :   -0.360314
  14 C :   -0.036366
  15 C :   -0.278673
  16 O :   -0.385448
  17 C :   -0.006357
  18 C :   -0.320818
  19 H :    0.115988
  20 H :    0.156410
  21 H :    0.112233
  22 H :    0.112566
  23 H :    0.099597
  24 H :    0.102557
  25 H :    0.099635
  26 H :    0.119334
  27 H :    0.106707
  28 H :    0.124395
  29 H :    0.177766
  30 H :    0.180491
  31 H :    0.107110
  32 H :    0.121588
  33 H :    0.110896
  34 H :    0.128478
  35 H :    0.117509
  36 H :    0.107909
  37 H :    0.099204
  38 H :    0.133109
  39 H :    0.111552
  40 H :    0.113334
Sum of atomic charges:    0.0000000

LOEWDIN ATOMIC CHARGES
----------------------
   0 C :   -0.375836
   1 C :   -0.119060
   2 O :   -0.250054
   3 P :    0.561813
   4 S :   -0.304882
   5 O :   -0.237052
   6 C :   -0.119416
   7 C :   -0.358552
   8 S :    0.067284
   9 C :   -0.466943
  10 S :    0.096047
  11 P :    0.568218
  12 S :   -0.289556
  13 O :   -0.233147
  14 C :   -0.122468
  15 C :   -0.348971
  16 O :   -0.263983
  17 C :   -0.125581
  18 C :   -0.366526
  19 H :    0.121351
  20 H :    0.127403
  21 H :    0.131365
  22 H :    0.111957
  23 H :    0.115688
  24 H :    0.116631
  25 H :    0.101956
  26 H :    0.128401
  27 H :    0.128074
  28 H :    0.127692
  29 H :    0.131753
  30 H :    0.132324
  31 H :    0.107016
  32 H :    0.117309
  33 H :    0.130655
  34 H :    0.133634
  35 H :    0.125945
  36 H :    0.106574
  37 H :    0.115122
  38 H :    0.126533
  39 H :    0.130292
  40 H :    0.120989

  Mayer bond orders larger than 0.100000
B(  0-C ,  1-C ) :   1.1665 B(  0-C , 19-H ) :   0.9416 B(  0-C , 20-H ) :   0.9260
B(  0-C , 21-H ) :   0.9367 B(  1-C ,  2-O ) :   0.9062 B(  1-C , 22-H ) :   0.9148
B(  1-C , 23-H ) :   0.9331 B(  2-O ,  3-P ) :   1.0747 B(  3-P ,  4-S ) :   1.6223
B(  3-P ,  5-O ) :   1.1209 B(  3-P ,  8-S ) :   0.9672 B(  4-S ,  8-S ) :   0.1193
B(  5-O ,  6-C ) :   0.9030 B(  6-C ,  7-C ) :   1.1668 B(  6-C , 24-H ) :   0.9351
B(  6-C , 25-H ) :   0.9032 B(  7-C , 26-H ) :   0.9479 B(  7-C , 27-H ) :   0.9396
B(  7-C , 28-H ) :   0.9419 B(  8-S ,  9-C ) :   0.9692 B(  9-C , 10-S ) :   1.0347
B(  9-C , 29-H ) :   0.9110 B(  9-C , 30-H ) :   0.8999 B( 10-S , 11-P ) :   0.9263
B( 10-S , 12-S ) :   0.1109 B( 11-P , 12-S ) :   1.6515 B( 11-P , 13-O ) :   1.1208
B( 11-P , 16-O ) :   1.0548 B( 13-O , 14-C ) :   0.8975 B( 14-C , 15-C ) :   1.1687
B( 14-C , 31-H ) :   0.9151 B( 14-C , 32-H ) :   0.9219 B( 15-C , 33-H ) :   0.9403
B( 15-C , 34-H ) :   0.9480 B( 15-C , 35-H ) :   0.9491 B( 16-O , 17-C ) :   0.9190
B( 17-C , 18-C ) :   1.1620 B( 17-C , 36-H ) :   0.9085 B( 17-C , 37-H ) :   0.9343
B( 18-C , 38-H ) :   0.9355 B( 18-C , 39-H ) :   0.9390 B( 18-C , 40-H ) :   0.9448

Dispersion correction           -0.068209437
FINAL SINGLE POINT ENERGY     -2929.504602143675

DIPOLE MOMENT
-------------

Method             : SCF
Type of density    : Electron Density
Multiplicity       :   1
Irrep              :   0
Energy             : -2929.6205295605041101 Eh
Relativity type    :
Basis              : AO
                                X                 Y                 Z
Electronic contribution:      3.624081385      -3.163758708      -0.834210270
Nuclear contribution   :     -3.911705914       2.251702792       1.622494613
                        -----------------------------------------
Total Dipole Moment    :     -0.287624529      -0.912055916       0.788284343
                        -----------------------------------------
Magnitude (a.u.)       :      1.239340982
Magnitude (Debye)      :      3.150154428

Rotational constants in cm-1:             0.013157             0.005197             0.004977
Rotational constants in MHz :           394.432119           155.812244           149.198622

                             ****ORCA TERMINATED NORMALLY****
TOTAL RUN TIME: 0 days 0 hours 0 minutes 21 seconds 268 msec
