                         Program Version 6.0.0  -   RELEASE  -
|  1> ! pbe def2-sv(p) def2/J RI DEFGRID1 loosescf d4 GCP(DFT/SV(P)) printgap
|  2> %output
|  3>     printlevel normal
|  4> end
|  5> * xyz 0 1
|  6> C 4.5456736573 1.1932929075 0.6438466479
|  7> C 3.4699542483 1.2045059802 -0.4227631684
|  8> O 2.720870292 -0.0264525042 -0.4179446936
|  9> P 1.6338798984 -0.3397662166 0.7124100144
| 10> S 0.8939221952 1.2127008621 1.6335127363
| 11> O 2.3027128301 -1.3067936727 1.7755890486
| 12> C 3.0839428735 -2.4714672338 1.4084628151
| 13> C 4.1844569073 -2.6411622966 2.4359910643
| 14> S 0.4280020917 -1.6980098502 -0.4025969406
| 15> C 0.2610721953 -0.7556589663 -1.9440081541
| 16> S -0.3401039225 0.9291672106 -1.6835902872
| 17> P -2.2910062862 0.3892007447 -1.0516452142
| 18> S -3.1131027188 -1.0983382484 -2.0140651585
| 19> O -3.1039448571 1.7294005227 -1.2406638932
| 20> C -2.6159233074 3.0703234676 -0.9971884332
| 21> C -2.289463518 3.3141247509 0.4604404822
| 22> O -2.1926847911 0.1701610051 0.5268407054
| 23> C -2.624002255 -1.0212460221 1.2154347316
| 24> C -1.8042093369 -1.1805414674 2.4790603176
| 25> H 5.2191566953 0.3529808992 0.495391935
| 26> H 5.1106269614 2.1187568072 0.5957168119
| 27> H 4.0837911833 1.1120963245 1.6276953318
| 28> H 3.8911306853 1.2585369084 -1.4274656592
| 29> H 2.7762869241 2.036022986 -0.2649364078
| 30> H 2.407026567 -3.328568538 1.4020936463
| 31> H 3.4909950432 -2.3249171252 0.4049606288
| 32> H 4.7531180628 -3.5358460653 2.203656967
| 33> H 4.8478223894 -1.7805751939 2.4269477666
| 34> H 3.7525200936 -2.7365606758 3.4279941136
| 35> H -0.454067533 -1.3068968021 -2.5567511427
| 36> H 1.2281601372 -0.6755527342 -2.4333278411
| 37> H -1.7384248953 3.2370075128 -1.6280665681
| 38> H -3.440318324 3.6993446133 -1.337153815
| 39> H -2.0124076377 4.3552915669 0.5927119972
| 40> H -3.1519490857 3.0904024236 1.0826480431
| 41> H -1.4570631611 2.6885110876 0.7791814253
| 42> H -3.6834379855 -0.89370279 1.4512472841
| 43> H -2.5111183077 -1.8826890056 0.5491429663
| 44> H -0.7578180359 -1.3644640527 2.2399108925
| 45> H -1.8636131087 -0.2760790805 3.0781399538
| 46> H -2.1901648465 -2.0206332687 3.0467085264
| 47> *
| 48>
| 49>                          ****END OF INPUT****

CARTESIAN COORDINATES (ANGSTROEM)
---------------------------------
  C      4.545674    1.193293    0.643847
  C      3.469954    1.204506   -0.422763
  O      2.720870   -0.026453   -0.417945
  P      1.633880   -0.339766    0.712410
  S      0.893922    1.212701    1.633513
  O      2.302713   -1.306794    1.775589
  C      3.083943   -2.471467    1.408463
  C      4.184457   -2.641162    2.435991
  S      0.428002   -1.698010   -0.402597
  C      0.261072   -0.755659   -1.944008
  S     -0.340104    0.929167   -1.683590
  P     -2.291006    0.389201   -1.051645
  S     -3.113103   -1.098338   -2.014065
  O     -3.103945    1.729401   -1.240664
  C     -2.615923    3.070323   -0.997188
  C     -2.289464    3.314125    0.460440
  O     -2.192685    0.170161    0.526841
  C     -2.624002   -1.021246    1.215435
  C     -1.804209   -1.180541    2.479060
  H      5.219157    0.352981    0.495392
  H      5.110627    2.118757    0.595717
  H      4.083791    1.112096    1.627695
  H      3.891131    1.258537   -1.427466
  H      2.776287    2.036023   -0.264936
  H      2.407027   -3.328569    1.402094
  H      3.490995   -2.324917    0.404961
  H      4.753118   -3.535846    2.203657
  H      4.847822   -1.780575    2.426948
  H      3.752520   -2.736561    3.427994
  H     -0.454068   -1.306897   -2.556751
  H      1.228160   -0.675553   -2.433328
  H     -1.738425    3.237008   -1.628067
  H     -3.440318    3.699345   -1.337154
  H     -2.012408    4.355292    0.592712
  H     -3.151949    3.090402    1.082648
  H     -1.457063    2.688511    0.779181
  H     -3.683438   -0.893703    1.451247
  H     -2.511118   -1.882689    0.549143
  H     -0.757818   -1.364464    2.239911
  H     -1.863613   -0.276079    3.078140
  H     -2.190165   -2.020633    3.046709

 Total Charge           Charge          ....    0
 Multiplicity           Mult            ....    1
 Number of Electrons    NEL             ....  202
 Basis Dimension        Dim             ....  334

ORBITAL ENERGIES
----------------

  NO   OCC          E(Eh)            E(eV)
   0   2.0000     -88.045182     -2395.8312
   1   2.0000     -88.041126     -2395.7208
   2   2.0000     -87.986720     -2394.2404
   3   2.0000     -87.978052     -2394.0045
   4   2.0000     -76.430074     -2079.7681
   5   2.0000     -76.420922     -2079.5190
   6   2.0000     -18.801033      -511.6021
   7   2.0000     -18.797975      -511.5189
   8   2.0000     -18.787458      -511.2327
   9   2.0000     -18.778436      -510.9872
  10   2.0000      -9.961297      -271.0607
  11   2.0000      -9.958076      -270.9730
  12   2.0000      -9.957703      -270.9629
  13   2.0000      -9.954952      -270.8880
  14   2.0000      -9.938337      -270.4359
  15   2.0000      -9.895342      -269.2659
  16   2.0000      -9.891707      -269.1670
  17   2.0000      -9.879062      -268.8230
  18   2.0000      -9.870886      -268.6005
  19   2.0000      -7.689844      -209.2513
  20   2.0000      -7.686134      -209.1503
  21   2.0000      -7.631731      -207.6700
  22   2.0000      -7.623411      -207.4436
  23   2.0000      -6.427140      -174.8914
  24   2.0000      -6.418328      -174.6516
  25   2.0000      -5.717867      -155.5911
  26   2.0000      -5.714303      -155.4941
  27   2.0000      -5.713958      -155.4847
  28   2.0000      -5.710701      -155.3961
  29   2.0000      -5.706787      -155.2896
  30   2.0000      -5.703073      -155.1885
  31   2.0000      -5.660802      -154.0382
  32   2.0000      -5.652437      -153.8106
  33   2.0000      -5.652186      -153.8038
  34   2.0000      -5.651838      -153.7943
  35   2.0000      -5.644227      -153.5872
  36   2.0000      -5.643188      -153.5590
  37   2.0000      -4.650346      -126.5423
  38   2.0000      -4.648641      -126.4960
  39   2.0000      -4.647354      -126.4609
  40   2.0000      -4.641034      -126.2889
  41   2.0000      -4.639915      -126.2585
  42   2.0000      -4.638888      -126.2306
  43   2.0000      -0.991326       -26.9754
  44   2.0000      -0.976376       -26.5685
  45   2.0000      -0.951949       -25.9038
  46   2.0000      -0.935061       -25.4443
  47   2.0000      -0.766005       -20.8440
  48   2.0000      -0.724348       -19.7105
  49   2.0000      -0.709236       -19.2993
  50   2.0000      -0.697693       -18.9852
  51   2.0000      -0.683304       -18.5936
  52   2.0000      -0.669288       -18.2123
  53   2.0000      -0.652462       -17.7544
  54   2.0000      -0.635640       -17.2966
  55   2.0000      -0.595390       -16.2014
  56   2.0000      -0.587996       -16.0002
  57   2.0000      -0.577846       -15.7240
  58   2.0000      -0.571463       -15.5503
  59   2.0000      -0.555477       -15.1153
  60   2.0000      -0.510533       -13.8923
  61   2.0000      -0.493549       -13.4301
  62   2.0000      -0.487466       -13.2646
  63   2.0000      -0.473590       -12.8870
  64   2.0000      -0.460606       -12.5337
  65   2.0000      -0.448485       -12.2039
  66   2.0000      -0.442725       -12.0472
  67   2.0000      -0.434144       -11.8137
  68   2.0000      -0.423190       -11.5156
  69   2.0000      -0.408502       -11.1159
  70   2.0000      -0.403137       -10.9699
  71   2.0000      -0.397820       -10.8252
  72   2.0000      -0.393334       -10.7032
  73   2.0000      -0.392713       -10.6863
  74   2.0000      -0.378299       -10.2940
  75   2.0000      -0.375362       -10.2141
  76   2.0000      -0.366566        -9.9748
  77   2.0000      -0.362959        -9.8766
  78   2.0000      -0.353207        -9.6112
  79   2.0000      -0.349507        -9.5106
  80   2.0000      -0.347146        -9.4463
  81   2.0000      -0.346306        -9.4235
  82   2.0000      -0.339222        -9.2307
  83   2.0000      -0.333939        -9.0870
  84   2.0000      -0.327433        -8.9099
  85   2.0000      -0.322993        -8.7891
  86   2.0000      -0.315459        -8.5841
  87   2.0000      -0.310680        -8.4540
  88   2.0000      -0.293951        -7.9988
  89   2.0000      -0.287407        -7.8207
  90   2.0000      -0.277783        -7.5589
  91   2.0000      -0.273260        -7.4358
  92   2.0000      -0.271801        -7.3961
  93   2.0000      -0.269075        -7.3219
  94   2.0000      -0.260271        -7.0823
  95   2.0000      -0.232452        -6.3253
  96   2.0000      -0.220926        -6.0117
  97   2.0000      -0.205391        -5.5890
  98   2.0000      -0.199579        -5.4308
  99   2.0000      -0.197835        -5.3834
 100   2.0000      -0.189024        -5.1436
 101   0.0000      -0.052801        -1.4368
 102   0.0000      -0.023259        -0.6329
 103   0.0000      -0.014956        -0.4070
 104   0.0000       0.004706         0.1280
 105   0.0000       0.015828         0.4307

MULLIKEN ATOMIC CHARGES
-----------------------
   0 C :   -0.317662
   1 C :   -0.009889
   2 O :   -0.389134
   3 P :    0.608711
   4 S :   -0.284358
   5 O :   -0.371848
   6 C :   -0.025504
   7 C :   -0.283602
   8 S :   -0.101575
   9 C :   -0.331778
  10 S :   -0.121795
  11 P :    0.629086
  12 S :   -0.325487
  13 O :   -0.363413
  14 C :   -0.023599
  15 C :   -0.323539
  16 O :   -0.376453
  17 C :   -0.001228
  18 C :   -0.283626
  19 H :    0.114901
  20 H :    0.116008
  21 H :    0.132940
  22 H :    0.103626
  23 H :    0.116410
  24 H :    0.113509
  25 H :    0.108701
  26 H :    0.113114
  27 H :    0.118872
  28 H :    0.124592
  29 H :    0.193440
  30 H :    0.183702
  31 H :    0.118414
  32 H :    0.112510
  33 H :    0.108967
  34 H :    0.116230
  35 H :    0.159367
  36 H :    0.098466
  37 H :    0.108429
  38 H :    0.118603
  39 H :    0.115560
  40 H :    0.100331
Sum of atomic charges:    0.0000000

LOEWDIN ATOMIC CHARGES
----------------------
   0 C :   -0.365797
   1 C :   -0.122525
   2 O :   -0.253392
   3 P :    0.566262
   4 S :   -0.281696
   5 O :   -0.244394
   6 C :   -0.121020
   7 C :   -0.350925
   8 S :    0.086247
   9 C :   -0.476205
  10 S :    0.074783
  11 P :    0.575552
  12 S :   -0.315678
  13 O :   -0.239393
  14 C :   -0.113763
  15 C :   -0.369841
  16 O :   -0.247675
  17 C :   -0.118890
  18 C :   -0.355296
  19 H :    0.122025
  20 H :    0.132967
  21 H :    0.126240
  22 H :    0.116915
  23 H :    0.111158
  24 H :    0.115697
  25 H :    0.108895
  26 H :    0.131302
  27 H :    0.126601
  28 H :    0.131530
  29 H :    0.130600
  30 H :    0.132361
  31 H :    0.107227
  32 H :    0.123041
  33 H :    0.129870
  34 H :    0.127577
  35 H :    0.124794
  36 H :    0.110676
  37 H :    0.102240
  38 H :    0.110320
  39 H :    0.126216
  40 H :    0.125394

  Mayer bond orders larger than 0.100000
B(  0-C ,  1-C ) :   1.1639 B(  0-C , 19-H ) :   0.9439 B(  0-C , 20-H ) :   0.9386
B(  0-C , 21-H ) :   0.9332 B(  1-C ,  2-O ) :   0.9006 B(  1-C , 22-H ) :   0.9329
B(  1-C , 23-H ) :   0.9102 B(  2-O ,  3-P ) :   1.0593 B(  3-P ,  4-S ) :   1.6447
B(  3-P ,  5-O ) :   1.1052 B(  3-P ,  8-S ) :   0.9545 B(  4-S ,  8-S ) :   0.1091
B(  5-O ,  6-C ) :   0.8944 B(  6-C ,  7-C ) :   1.1628 B(  6-C , 24-H ) :   0.9309
B(  6-C , 25-H ) :   0.9166 B(  7-C , 26-H ) :   0.9405 B(  7-C , 27-H ) :   0.9480
B(  7-C , 28-H ) :   0.9482 B(  8-S ,  9-C ) :   0.9923 B(  9-C , 10-S ) :   1.0265
B(  9-C , 29-H ) :   0.8736 B(  9-C , 30-H ) :   0.9023 B( 10-S , 11-P ) :   0.9341
B( 11-P , 12-S ) :   1.6315 B( 11-P , 13-O ) :   1.1464 B( 11-P , 16-O ) :   1.1021
B( 13-O , 14-C ) :   0.9054 B( 14-C , 15-C ) :   1.1658 B( 14-C , 31-H ) :   0.9177
B( 14-C , 32-H ) :   0.9345 B( 15-C , 33-H ) :   0.9356 B( 15-C , 34-H ) :   0.9447
B( 15-C , 35-H ) :   0.9239 B( 16-O , 17-C ) :   0.8955 B( 17-C , 18-C ) :   1.1613
B( 17-C , 36-H ) :   0.9352 B( 17-C , 37-H ) :   0.9047 B( 18-C , 38-H ) :   0.9396
B( 18-C , 39-H ) :   0.9455 B( 18-C , 40-H ) :   0.9387

Dispersion correction           -0.067855786
FINAL SINGLE POINT ENERGY     -2929.516323851430

DIPOLE MOMENT
-------------

Method             : SCF
Type of density    : Electron Density
Multiplicity       :   1
Irrep              :   0
Energy             : -2929.6343594270056201 Eh
Relativity type    :
Basis              : AO
                                X                 Y                 Z
Electronic contribution:    -15.940412702      -1.566876600     -14.870497959
Nuclear contribution   :     17.813576852       1.692948690      15.166302910
                        -----------------------------------------
Total Dipole Moment    :      1.873164150       0.126072089       0.295804951
                        -----------------------------------------
Magnitude (a.u.)       :      1.900562726
Magnitude (Debye)      :      4.830846535

Rotational constants in cm-1:             0.012511             0.005425             0.005022
Rotational constants in MHz :           375.083965           162.634902           150.556149

                             ****ORCA TERMINATED NORMALLY****
TOTAL RUN TIME: 0 days 0 hours 0 minutes 21 seconds 560 msec
