                         Program Version 6.0.0  -   RELEASE  -
|  1> ! pbe def2-sv(p) def2/J RI DEFGRID1 loosescf d4 GCP(DFT/SV(P)) printgap
|  2> %output
|  3>     printlevel normal
|  4> end
|  5> * xyz 0 1
|  6> C 4.5597209835 1.6536901944 -1.9485367571
|  7> C 4.9601693542 1.1391462147 -0.5810605189
|  8> O 4.2162922129 -0.0339043444 -0.2046810427
|  9> P 2.6535275056 -0.0016418286 0.0898188158
| 10> S 2.0533267597 1.5798258768 1.0865587064
| 11> O 2.4438061835 -1.4004436228 0.7960672568
| 12> C 2.5383243653 -1.5933697795 2.2245047765
| 13> C 1.6011334673 -2.7193440064 2.6098853729
| 14> S 1.7238826467 -0.3908926312 -1.7587146511
| 15> C 0.07754591 0.1651706735 -1.2769675505
| 16> S -0.6438776225 -0.9649249275 -0.0255388021
| 17> P -2.6206411679 -0.2362679237 -0.110851774
| 18> S -3.9424614337 -1.0862990387 1.0561502726
| 19> O -2.8611228163 -0.3832078099 -1.6736649
| 20> C -4.1904071627 -0.4269859434 -2.2340566941
| 21> C -4.8994920119 0.9050960553 -2.1104603442
| 22> O -2.4940694572 1.3493927138 0.0435845254
| 23> C -2.6768668994 2.0027727726 1.3095765499
| 24> C -1.5873329907 1.6475159309 2.3005132911
| 25> H 3.539890998 2.0348780485 -1.9194370671
| 26> H 5.2283004732 2.4575785158 -2.2394538812
| 27> H 4.6127724615 0.8540281133 -2.6829812673
| 28> H 4.8012716508 1.907670985 0.1822726064
| 29> H 5.9988001441 0.8065823585 -0.5623138525
| 30> H 3.5770719167 -1.838311718 2.458333709
| 31> H 2.2657732902 -0.6575672561 2.7249023075
| 32> H 0.5780541711 -2.4601861475 2.3483868486
| 33> H 1.8746399948 -3.6267754021 2.0798073723
| 34> H 1.668200357 -2.890198991 3.6793182676
| 35> H -0.5392790486 0.1464519588 -2.1708459284
| 36> H 0.1450044114 1.1657755191 -0.8486654617
| 37> H -4.0244925769 -0.7047823016 -3.2757347082
| 38> H -4.7547784704 -1.2135139757 -1.7235217036
| 39> H -4.2896026357 1.6986998437 -2.5340342875
| 40> H -5.8478396546 0.8569566569 -2.6363826341
| 41> H -5.0887696137 1.1270278244 -1.0610556477
| 42> H -2.6685242484 3.065387208 1.0640699444
| 43> H -3.6557620369 1.7159279948 1.7069894577
| 44> H -1.6211098213 0.5795439087 2.517741092
| 45> H -0.6038658035 1.8949558884 1.9061404981
| 46> H -1.7448014094 2.1973550723 3.2226624737
| 47> *
| 48>
| 49>                          ****END OF INPUT****

CARTESIAN COORDINATES (ANGSTROEM)
---------------------------------
  C      4.559721    1.653690   -1.948537
  C      4.960169    1.139146   -0.581061
  O      4.216292   -0.033904   -0.204681
  P      2.653528   -0.001642    0.089819
  S      2.053327    1.579826    1.086559
  O      2.443806   -1.400444    0.796067
  C      2.538324   -1.593370    2.224505
  C      1.601133   -2.719344    2.609885
  S      1.723883   -0.390893   -1.758715
  C      0.077546    0.165171   -1.276968
  S     -0.643878   -0.964925   -0.025539
  P     -2.620641   -0.236268   -0.110852
  S     -3.942461   -1.086299    1.056150
  O     -2.861123   -0.383208   -1.673665
  C     -4.190407   -0.426986   -2.234057
  C     -4.899492    0.905096   -2.110460
  O     -2.494069    1.349393    0.043585
  C     -2.676867    2.002773    1.309577
  C     -1.587333    1.647516    2.300513
  H      3.539891    2.034878   -1.919437
  H      5.228300    2.457579   -2.239454
  H      4.612772    0.854028   -2.682981
  H      4.801272    1.907671    0.182273
  H      5.998800    0.806582   -0.562314
  H      3.577072   -1.838312    2.458334
  H      2.265773   -0.657567    2.724902
  H      0.578054   -2.460186    2.348387
  H      1.874640   -3.626775    2.079807
  H      1.668200   -2.890199    3.679318
  H     -0.539279    0.146452   -2.170846
  H      0.145004    1.165776   -0.848665
  H     -4.024493   -0.704782   -3.275735
  H     -4.754778   -1.213514   -1.723522
  H     -4.289603    1.698700   -2.534034
  H     -5.847840    0.856957   -2.636383
  H     -5.088770    1.127028   -1.061056
  H     -2.668524    3.065387    1.064070
  H     -3.655762    1.715928    1.706989
  H     -1.621110    0.579544    2.517741
  H     -0.603866    1.894956    1.906140
  H     -1.744801    2.197355    3.222662

 Total Charge           Charge          ....    0
 Multiplicity           Mult            ....    1
 Number of Electrons    NEL             ....  202
 Basis Dimension        Dim             ....  334

ORBITAL ENERGIES
----------------

  NO   OCC          E(Eh)            E(eV)
   0   2.0000     -88.052161     -2396.0211
   1   2.0000     -88.038305     -2395.6441
   2   2.0000     -87.994033     -2394.4394
   3   2.0000     -87.987718     -2394.2675
   4   2.0000     -76.431187     -2079.7983
   5   2.0000     -76.424502     -2079.6164
   6   2.0000     -18.797227      -511.4986
   7   2.0000     -18.792500      -511.3699
   8   2.0000     -18.790832      -511.3245
   9   2.0000     -18.789549      -511.2896
  10   2.0000      -9.956473      -270.9294
  11   2.0000      -9.955817      -270.9115
  12   2.0000      -9.952899      -270.8322
  13   2.0000      -9.951223      -270.7865
  14   2.0000      -9.946933      -270.6698
  15   2.0000      -9.888494      -269.0796
  16   2.0000      -9.884887      -268.9814
  17   2.0000      -9.881836      -268.8984
  18   2.0000      -9.872969      -268.6571
  19   2.0000      -7.697581      -209.4618
  20   2.0000      -7.683361      -209.0749
  21   2.0000      -7.638684      -207.8592
  22   2.0000      -7.632877      -207.7011
  23   2.0000      -6.428955      -174.9408
  24   2.0000      -6.422265      -174.7587
  25   2.0000      -5.725414      -155.7964
  26   2.0000      -5.722229      -155.7098
  27   2.0000      -5.714395      -155.4966
  28   2.0000      -5.711733      -155.4242
  29   2.0000      -5.707874      -155.3192
  30   2.0000      -5.699864      -155.1012
  31   2.0000      -5.667289      -154.2148
  32   2.0000      -5.661777      -154.0648
  33   2.0000      -5.659463      -154.0018
  34   2.0000      -5.659012      -153.9896
  35   2.0000      -5.653558      -153.8411
  36   2.0000      -5.653001      -153.8260
  37   2.0000      -4.651332      -126.5692
  38   2.0000      -4.650629      -126.5501
  39   2.0000      -4.649619      -126.5226
  40   2.0000      -4.644653      -126.3874
  41   2.0000      -4.644183      -126.3746
  42   2.0000      -4.642762      -126.3360
  43   2.0000      -0.990031       -26.9401
  44   2.0000      -0.984824       -26.7984
  45   2.0000      -0.948476       -25.8093
  46   2.0000      -0.943950       -25.6862
  47   2.0000      -0.767249       -20.8779
  48   2.0000      -0.724337       -19.7102
  49   2.0000      -0.708827       -19.2882
  50   2.0000      -0.688846       -18.7444
  51   2.0000      -0.682770       -18.5791
  52   2.0000      -0.674394       -18.3512
  53   2.0000      -0.656074       -17.8527
  54   2.0000      -0.641314       -17.4510
  55   2.0000      -0.602265       -16.3885
  56   2.0000      -0.593098       -16.1390
  57   2.0000      -0.574028       -15.6201
  58   2.0000      -0.569245       -15.4899
  59   2.0000      -0.557489       -15.1701
  60   2.0000      -0.505025       -13.7424
  61   2.0000      -0.492089       -13.3904
  62   2.0000      -0.476351       -12.9622
  63   2.0000      -0.469370       -12.7722
  64   2.0000      -0.453078       -12.3289
  65   2.0000      -0.448728       -12.2105
  66   2.0000      -0.442062       -12.0291
  67   2.0000      -0.435397       -11.8478
  68   2.0000      -0.430079       -11.7030
  69   2.0000      -0.421042       -11.4571
  70   2.0000      -0.414468       -11.2782
  71   2.0000      -0.395616       -10.7653
  72   2.0000      -0.394046       -10.7225
  73   2.0000      -0.389731       -10.6051
  74   2.0000      -0.387227       -10.5370
  75   2.0000      -0.381427       -10.3791
  76   2.0000      -0.361430        -9.8350
  77   2.0000      -0.356894        -9.7116
  78   2.0000      -0.353631        -9.6228
  79   2.0000      -0.351415        -9.5625
  80   2.0000      -0.345755        -9.4085
  81   2.0000      -0.343039        -9.3346
  82   2.0000      -0.337601        -9.1866
  83   2.0000      -0.336875        -9.1668
  84   2.0000      -0.327382        -8.9085
  85   2.0000      -0.318405        -8.6642
  86   2.0000      -0.315382        -8.5820
  87   2.0000      -0.300388        -8.1740
  88   2.0000      -0.294176        -8.0049
  89   2.0000      -0.288517        -7.8510
  90   2.0000      -0.286201        -7.7879
  91   2.0000      -0.277793        -7.5591
  92   2.0000      -0.272484        -7.4147
  93   2.0000      -0.268775        -7.3137
  94   2.0000      -0.257213        -6.9991
  95   2.0000      -0.234613        -6.3842
  96   2.0000      -0.219602        -5.9757
  97   2.0000      -0.212991        -5.7958
  98   2.0000      -0.210769        -5.7353
  99   2.0000      -0.206262        -5.6127
 100   2.0000      -0.202301        -5.5049
 101   0.0000      -0.044950        -1.2231
 102   0.0000      -0.025750        -0.7007
 103   0.0000      -0.019247        -0.5238
 104   0.0000       0.004122         0.1122
 105   0.0000       0.013778         0.3749

MULLIKEN ATOMIC CHARGES
-----------------------
   0 C :   -0.319333
   1 C :   -0.003627
   2 O :   -0.371880
   3 P :    0.609725
   4 S :   -0.328162
   5 O :   -0.362071
   6 C :   -0.008912
   7 C :   -0.288689
   8 S :   -0.062147
   9 C :   -0.366289
  10 S :   -0.068700
  11 P :    0.614487
  12 S :   -0.318155
  13 O :   -0.385944
  14 C :   -0.004261
  15 C :   -0.306983
  16 O :   -0.385119
  17 C :   -0.006589
  18 C :   -0.329180
  19 H :    0.126890
  20 H :    0.115629
  21 H :    0.119608
  22 H :    0.112676
  23 H :    0.107608
  24 H :    0.103335
  25 H :    0.109266
  26 H :    0.134357
  27 H :    0.117031
  28 H :    0.109475
  29 H :    0.190771
  30 H :    0.192990
  31 H :    0.105067
  32 H :    0.114736
  33 H :    0.115620
  34 H :    0.112672
  35 H :    0.124393
  36 H :    0.102873
  37 H :    0.108296
  38 H :    0.119785
  39 H :    0.142086
  40 H :    0.106664
Sum of atomic charges:   -0.0000000

LOEWDIN ATOMIC CHARGES
----------------------
   0 C :   -0.369699
   1 C :   -0.118404
   2 O :   -0.244901
   3 P :    0.569653
   4 S :   -0.306353
   5 O :   -0.240514
   6 C :   -0.114809
   7 C :   -0.352876
   8 S :    0.110090
   9 C :   -0.476348
  10 S :    0.088062
  11 P :    0.570336
  12 S :   -0.318795
  13 O :   -0.248447
  14 C :   -0.115798
  15 C :   -0.365042
  16 O :   -0.249477
  17 C :   -0.121085
  18 C :   -0.374576
  19 H :    0.120912
  20 H :    0.132373
  21 H :    0.125048
  22 H :    0.111270
  23 H :    0.120000
  24 H :    0.113642
  25 H :    0.108201
  26 H :    0.127650
  27 H :    0.127510
  28 H :    0.129766
  29 H :    0.135101
  30 H :    0.122451
  31 H :    0.118584
  32 H :    0.112711
  33 H :    0.126004
  34 H :    0.130685
  35 H :    0.123436
  36 H :    0.117767
  37 H :    0.107762
  38 H :    0.118784
  39 H :    0.120129
  40 H :    0.129196

  Mayer bond orders larger than 0.100000
B(  0-C ,  1-C ) :   1.1643 B(  0-C , 19-H ) :   0.9356 B(  0-C , 20-H ) :   0.9379
B(  0-C , 21-H ) :   0.9447 B(  1-C ,  2-O ) :   0.9074 B(  1-C , 22-H ) :   0.9165
B(  1-C , 23-H ) :   0.9337 B(  2-O ,  3-P ) :   1.1182 B(  3-P ,  4-S ) :   1.5954
B(  3-P ,  5-O ) :   1.1387 B(  3-P ,  8-S ) :   0.9614 B(  4-S ,  8-S ) :   0.1121
B(  5-O ,  6-C ) :   0.8915 B(  6-C ,  7-C ) :   1.1645 B(  6-C , 24-H ) :   0.9328
B(  6-C , 25-H ) :   0.9082 B(  7-C , 26-H ) :   0.9452 B(  7-C , 27-H ) :   0.9500
B(  7-C , 28-H ) :   0.9408 B(  8-S ,  9-C ) :   1.0193 B(  9-C , 10-S ) :   0.9608
B(  9-C , 29-H ) :   0.8920 B(  9-C , 30-H ) :   0.8735 B( 10-S , 11-P ) :   0.9850
B( 11-P , 12-S ) :   1.6313 B( 11-P , 13-O ) :   1.0928 B( 11-P , 16-O ) :   1.0697
B( 13-O , 14-C ) :   0.9070 B( 14-C , 15-C ) :   1.1627 B( 14-C , 31-H ) :   0.9357
B( 14-C , 32-H ) :   0.9175 B( 15-C , 33-H ) :   0.9462 B( 15-C , 34-H ) :   0.9381
B( 15-C , 35-H ) :   0.9363 B( 16-O , 17-C ) :   0.9073 B( 17-C , 18-C ) :   1.1651
B( 17-C , 36-H ) :   0.9331 B( 17-C , 37-H ) :   0.9166 B( 18-C , 38-H ) :   0.9346
B( 18-C , 39-H ) :   0.9264 B( 18-C , 40-H ) :   0.9368

Dispersion correction           -0.063315344
FINAL SINGLE POINT ENERGY     -2929.522184982576

DIPOLE MOMENT
-------------

Method             : SCF
Type of density    : Electron Density
Multiplicity       :   1
Irrep              :   0
Energy             : -2929.6436462854167075 Eh
Relativity type    :
Basis              : AO
                                X                 Y                 Z
Electronic contribution:      1.199327908      -8.110433768      -2.683212583
Nuclear contribution   :     -0.501735064       8.784367404       2.090971595
                        -----------------------------------------
Total Dipole Moment    :      0.697592844       0.673933636      -0.592240989
                        -----------------------------------------
Magnitude (a.u.)       :      1.136473365
Magnitude (Debye)      :      2.888685727

Rotational constants in cm-1:             0.012993             0.004374             0.004069
Rotational constants in MHz :           389.506463           131.132107           121.976973

                             ****ORCA TERMINATED NORMALLY****
TOTAL RUN TIME: 0 days 0 hours 0 minutes 20 seconds 863 msec
