                         Program Version 6.0.0  -   RELEASE  -
|  1> ! r2scan-3c def2/J RI DEFGRID2 scfconv6 printgap
|  2> %output
|  3>     printlevel normal
|  4> end
|  5> * xyz 0 1
|  6> C 5.5906892787 1.5821793641 -0.6416283398
|  7> C 4.3283369603 0.8753082634 -1.0914248578
|  8> O 3.4783621594 0.7117681097 0.0625689919
|  9> P 1.9330407852 0.3749154606 -0.0909807549
| 10> S 0.928683714 1.6028225437 -1.238045628
| 11> O 1.4490587788 0.3944211989 1.4040841078
| 12> C 2.1258294518 -0.2945335385 2.4916609917
| 13> C 1.3795151323 -1.5553934561 2.8769389815
| 14> S 1.9962769176 -1.6410264186 -0.7738839341
| 15> C 0.2715831951 -1.8166700384 -1.273040951
| 16> S -0.8711851158 -1.9210502648 0.1477623763
| 17> P -2.0343078462 -0.2084942443 -0.1563508229
| 18> S -2.3196612923 0.3597598361 -2.016497285
| 19> O -1.3937265038 0.8213871759 0.8579679071
| 20> C -1.8503912196 2.1920254295 0.9067580073
| 21> C -0.9984875633 2.9236297226 1.9210265497
| 22> O -3.3872523463 -0.5563997614 0.6075194672
| 23> C -4.4280567786 -1.3511569616 0.0045155789
| 24> C -5.7462925077 -0.971501651 0.6487611041
| 25> H 5.3457358366 2.5570703334 -0.229551931
| 26> H 6.0956676512 0.9941090234 0.1189230489
| 27> H 6.2492266684 1.7090362639 -1.4944762402
| 28> H 4.5457833785 -0.1165786427 -1.4959973026
| 29> H 3.7862657634 1.4588467438 -1.8427927045
| 30> H 3.1521604648 -0.5110786321 2.1919365735
| 31> H 2.1251167629 0.4306731046 3.3068303878
| 32> H 1.4295447592 -2.2967283619 2.0830908354
| 33> H 1.8276264552 -1.9677669031 3.7753676002
| 34> H 0.3344507317 -1.3269262148 3.070021179
| 35> H 0.2083290658 -2.7529259428 -1.8212041414
| 36> H -0.0261054904 -0.9710138187 -1.8993416572
| 37> H -1.7421739496 2.6236445839 -0.0944885586
| 38> H -2.9067458609 2.1928230377 1.18733963
| 39> H -1.1010645153 2.458596753 2.8969256819
| 40> H 0.0449571371 2.8829018275 1.6177804139
| 41> H -1.317478587 3.959445481 1.9730963817
| 42> H -4.4365110571 -1.1544639563 -1.073035235
| 43> H -4.1873787841 -2.4028964577 0.1775205291
| 44> H -6.5342600881 -1.5928789991 0.2363020022
| 45> H -5.6909132396 -1.123690096 1.7227652581
| 46> H -5.9741125333 0.0723560158 0.4509300598
| 47> *
| 48>
| 49>                          ****END OF INPUT****

CARTESIAN COORDINATES (ANGSTROEM)
---------------------------------
  C      5.590689    1.582179   -0.641628
  C      4.328337    0.875308   -1.091425
  O      3.478362    0.711768    0.062569
  P      1.933041    0.374915   -0.090981
  S      0.928684    1.602823   -1.238046
  O      1.449059    0.394421    1.404084
  C      2.125829   -0.294534    2.491661
  C      1.379515   -1.555393    2.876939
  S      1.996277   -1.641026   -0.773884
  C      0.271583   -1.816670   -1.273041
  S     -0.871185   -1.921050    0.147762
  P     -2.034308   -0.208494   -0.156351
  S     -2.319661    0.359760   -2.016497
  O     -1.393727    0.821387    0.857968
  C     -1.850391    2.192025    0.906758
  C     -0.998488    2.923630    1.921027
  O     -3.387252   -0.556400    0.607519
  C     -4.428057   -1.351157    0.004516
  C     -5.746293   -0.971502    0.648761
  H      5.345736    2.557070   -0.229552
  H      6.095668    0.994109    0.118923
  H      6.249227    1.709036   -1.494476
  H      4.545783   -0.116579   -1.495997
  H      3.786266    1.458847   -1.842793
  H      3.152160   -0.511079    2.191937
  H      2.125117    0.430673    3.306830
  H      1.429545   -2.296728    2.083091
  H      1.827626   -1.967767    3.775368
  H      0.334451   -1.326926    3.070021
  H      0.208329   -2.752926   -1.821204
  H     -0.026105   -0.971014   -1.899342
  H     -1.742174    2.623645   -0.094489
  H     -2.906746    2.192823    1.187340
  H     -1.101065    2.458597    2.896926
  H      0.044957    2.882902    1.617780
  H     -1.317479    3.959445    1.973096
  H     -4.436511   -1.154464   -1.073035
  H     -4.187379   -2.402896    0.177521
  H     -6.534260   -1.592879    0.236302
  H     -5.690913   -1.123690    1.722765
  H     -5.974113    0.072356    0.450930

 Total Charge           Charge          ....    0
 Multiplicity           Mult            ....    1
 Number of Electrons    NEL             ....  202
 Basis Dimension        Dim             ....  539

ORBITAL ENERGIES
----------------

  NO   OCC          E(Eh)            E(eV)
   0   2.0000     -88.576153     -2410.2797
   1   2.0000     -88.573657     -2410.2117
   2   2.0000     -88.513232     -2408.5675
   3   2.0000     -88.509501     -2408.4660
   4   2.0000     -76.911432     -2092.8665
   5   2.0000     -76.905682     -2092.7100
   6   2.0000     -18.992277      -516.8061
   7   2.0000     -18.990388      -516.7547
   8   2.0000     -18.984380      -516.5912
   9   2.0000     -18.978324      -516.4265
  10   2.0000     -10.106000      -274.9982
  11   2.0000     -10.102426      -274.9010
  12   2.0000     -10.099273      -274.8152
  13   2.0000     -10.091340      -274.5993
  14   2.0000     -10.085867      -274.4504
  15   2.0000     -10.034169      -273.0436
  16   2.0000     -10.028674      -272.8941
  17   2.0000     -10.027204      -272.8541
  18   2.0000     -10.018813      -272.6258
  19   2.0000      -7.870645      -214.1711
  20   2.0000      -7.868406      -214.1102
  21   2.0000      -7.808009      -212.4667
  22   2.0000      -7.804251      -212.3645
  23   2.0000      -6.589865      -179.3193
  24   2.0000      -6.584253      -179.1666
  25   2.0000      -5.817443      -158.3007
  26   2.0000      -5.815221      -158.2402
  27   2.0000      -5.814319      -158.2157
  28   2.0000      -5.812183      -158.1575
  29   2.0000      -5.807990      -158.0434
  30   2.0000      -5.805558      -157.9773
  31   2.0000      -5.755820      -156.6238
  32   2.0000      -5.751907      -156.5173
  33   2.0000      -5.748184      -156.4161
  34   2.0000      -5.747951      -156.4097
  35   2.0000      -5.744724      -156.3219
  36   2.0000      -5.744048      -156.3035
  37   2.0000      -4.735724      -128.8656
  38   2.0000      -4.734903      -128.8433
  39   2.0000      -4.733159      -128.7958
  40   2.0000      -4.729711      -128.7020
  41   2.0000      -4.729125      -128.6860
  42   2.0000      -4.728049      -128.6567
  43   2.0000      -1.051118       -28.6024
  44   2.0000      -1.041048       -28.3284
  45   2.0000      -1.009288       -27.4641
  46   2.0000      -0.999786       -27.2056
  47   2.0000      -0.799503       -21.7556
  48   2.0000      -0.758539       -20.6409
  49   2.0000      -0.748336       -20.3633
  50   2.0000      -0.735573       -20.0160
  51   2.0000      -0.725324       -19.7371
  52   2.0000      -0.707752       -19.2589
  53   2.0000      -0.679900       -18.5010
  54   2.0000      -0.658823       -17.9275
  55   2.0000      -0.620905       -16.8957
  56   2.0000      -0.613760       -16.7012
  57   2.0000      -0.606450       -16.5023
  58   2.0000      -0.597226       -16.2514
  59   2.0000      -0.587252       -15.9799
  60   2.0000      -0.534026       -14.5316
  61   2.0000      -0.525363       -14.2959
  62   2.0000      -0.497381       -13.5344
  63   2.0000      -0.491592       -13.3769
  64   2.0000      -0.467540       -12.7224
  65   2.0000      -0.462355       -12.5813
  66   2.0000      -0.454285       -12.3617
  67   2.0000      -0.452363       -12.3094
  68   2.0000      -0.447530       -12.1779
  69   2.0000      -0.435295       -11.8450
  70   2.0000      -0.422724       -11.5029
  71   2.0000      -0.406885       -11.0719
  72   2.0000      -0.401801       -10.9336
  73   2.0000      -0.396979       -10.8023
  74   2.0000      -0.392549       -10.6818
  75   2.0000      -0.383568       -10.4374
  76   2.0000      -0.376345       -10.2409
  77   2.0000      -0.368511       -10.0277
  78   2.0000      -0.367587       -10.0025
  79   2.0000      -0.365353        -9.9417
  80   2.0000      -0.359428        -9.7805
  81   2.0000      -0.358024        -9.7423
  82   2.0000      -0.350538        -9.5386
  83   2.0000      -0.348106        -9.4725
  84   2.0000      -0.339119        -9.2279
  85   2.0000      -0.328717        -8.9449
  86   2.0000      -0.321641        -8.7523
  87   2.0000      -0.319472        -8.6933
  88   2.0000      -0.312583        -8.5058
  89   2.0000      -0.308660        -8.3991
  90   2.0000      -0.296245        -8.0612
  91   2.0000      -0.287111        -7.8127
  92   2.0000      -0.276079        -7.5125
  93   2.0000      -0.274499        -7.4695
  94   2.0000      -0.270129        -7.3506
  95   2.0000      -0.247577        -6.7369
  96   2.0000      -0.233938        -6.3658
  97   2.0000      -0.225432        -6.1343
  98   2.0000      -0.213351        -5.8056
  99   2.0000      -0.202977        -5.5233
 100   2.0000      -0.193552        -5.2668
 101   0.0000      -0.042718        -1.1624
 102   0.0000      -0.030478        -0.8294
 103   0.0000      -0.006268        -0.1706
 104   0.0000       0.013325         0.3626
 105   0.0000       0.015775         0.4293

MULLIKEN ATOMIC CHARGES
-----------------------
   0 C :   -0.439928
   1 C :   -0.161653
   2 O :   -0.308237
   3 P :    0.691729
   4 S :   -0.415431
   5 O :   -0.254979
   6 C :   -0.136184
   7 C :   -0.442147
   8 S :   -0.170204
   9 C :   -0.223152
  10 S :   -0.136121
  11 P :    0.665645
  12 S :   -0.472677
  13 O :   -0.255208
  14 C :   -0.124141
  15 C :   -0.469342
  16 O :   -0.297773
  17 C :   -0.144971
  18 C :   -0.450508
  19 H :    0.159099
  20 H :    0.149927
  21 H :    0.147580
  22 H :    0.149178
  23 H :    0.173055
  24 H :    0.159857
  25 H :    0.152783
  26 H :    0.166123
  27 H :    0.142715
  28 H :    0.165087
  29 H :    0.196441
  30 H :    0.219481
  31 H :    0.175897
  32 H :    0.146251
  33 H :    0.145127
  34 H :    0.179156
  35 H :    0.142199
  36 H :    0.172461
  37 H :    0.147722
  38 H :    0.145780
  39 H :    0.152271
  40 H :    0.157091
Sum of atomic charges:    0.0000000

LOEWDIN ATOMIC CHARGES
----------------------
   0 C :   -0.385767
   1 C :    0.019116
   2 O :   -0.681431
   3 P :    0.375888
   4 S :   -0.065014
   5 O :   -0.644639
   6 C :    0.030402
   7 C :   -0.405227
   8 S :    0.123569
   9 C :   -0.412278
  10 S :    0.171322
  11 P :    0.361536
  12 S :   -0.133986
  13 O :   -0.671875
  14 C :    0.018108
  15 C :   -0.390342
  16 O :   -0.670114
  17 C :    0.017101
  18 C :   -0.388090
  19 H :    0.162116
  20 H :    0.158099
  21 H :    0.160424
  22 H :    0.171190
  23 H :    0.182054
  24 H :    0.178872
  25 H :    0.181270
  26 H :    0.162653
  27 H :    0.156571
  28 H :    0.165079
  29 H :    0.180871
  30 H :    0.203649
  31 H :    0.183542
  32 H :    0.170606
  33 H :    0.156771
  34 H :    0.169813
  35 H :    0.157754
  36 H :    0.181976
  37 H :    0.170217
  38 H :    0.159273
  39 H :    0.158739
  40 H :    0.160183

  Mayer bond orders larger than 0.100000
B(  0-C ,  1-C ) :   0.9569 B(  0-C , 19-H ) :   0.9712 B(  0-C , 20-H ) :   0.9718
B(  0-C , 21-H ) :   0.9642 B(  1-C ,  2-O ) :   0.7889 B(  1-C , 22-H ) :   0.9421
B(  1-C , 23-H ) :   0.9496 B(  2-O ,  3-P ) :   1.0640 B(  3-P ,  4-S ) :   1.8419
B(  3-P ,  5-O ) :   1.1341 B(  3-P ,  8-S ) :   0.9688 B(  5-O ,  6-C ) :   0.7315
B(  6-C ,  7-C ) :   0.9472 B(  6-C , 24-H ) :   0.9726 B(  6-C , 25-H ) :   0.9624
B(  7-C , 26-H ) :   0.9609 B(  7-C , 27-H ) :   0.9624 B(  7-C , 28-H ) :   0.9661
B(  8-S ,  9-C ) :   0.9200 B(  9-C , 10-S ) :   0.8987 B(  9-C , 29-H ) :   0.9140
B(  9-C , 30-H ) :   0.9044 B( 10-S , 11-P ) :   1.1081 B( 11-P , 12-S ) :   1.7514
B( 11-P , 13-O ) :   1.2043 B( 11-P , 16-O ) :   1.0767 B( 13-O , 14-C ) :   0.7592
B( 14-C , 15-C ) :   0.9360 B( 14-C , 31-H ) :   0.9499 B( 14-C , 32-H ) :   0.9444
B( 15-C , 33-H ) :   0.9729 B( 15-C , 34-H ) :   0.9684 B( 15-C , 35-H ) :   0.9664
B( 16-O , 17-C ) :   0.7802 B( 17-C , 18-C ) :   0.9548 B( 17-C , 36-H ) :   0.9495
B( 17-C , 37-H ) :   0.9471 B( 18-C , 38-H ) :   0.9656 B( 18-C , 39-H ) :   0.9724
B( 18-C , 40-H ) :   0.9727

Dispersion correction           -0.021774470
FINAL SINGLE POINT ENERGY     -2932.459694627360

DIPOLE MOMENT
-------------

Method             : SCF
Type of density    : Electron Density
Multiplicity       :   1
Irrep              :   0
Energy             : -2932.4843898289459503 Eh
Relativity type    :
Basis              : AO
                                X                 Y                 Z
Electronic contribution:     -0.568477031      -5.358477375     -13.086444414
Nuclear contribution   :      1.252536272       4.723746834      14.316054129
                        -----------------------------------------
Total Dipole Moment    :      0.684059242      -0.634730541       1.229609715
                        -----------------------------------------
Magnitude (a.u.)       :      1.543619110
Magnitude (Debye)      :      3.923567967

Rotational constants in cm-1:             0.013216             0.005010             0.004901
Rotational constants in MHz :           396.193753           150.210899           146.939423

                             ****ORCA TERMINATED NORMALLY****
TOTAL RUN TIME: 0 days 0 hours 1 minutes 21 seconds 879 msec
