                         Program Version 6.0.0  -   RELEASE  -
|  1> ! r2scan-3c def2/J RI DEFGRID2 scfconv6 printgap
|  2> %output
|  3>     printlevel normal
|  4> end
|  5> %cpcm
|  6>     smd true
|  7>     smdsolvent "water"
|  8> end
|  9> * xyz 0 1
| 10> C 5.5906892787 1.5821793641 -0.6416283398
| 11> C 4.3283369603 0.8753082634 -1.0914248578
| 12> O 3.4783621594 0.7117681097 0.0625689919
| 13> P 1.9330407852 0.3749154606 -0.0909807549
| 14> S 0.928683714 1.6028225437 -1.238045628
| 15> O 1.4490587788 0.3944211989 1.4040841078
| 16> C 2.1258294518 -0.2945335385 2.4916609917
| 17> C 1.3795151323 -1.5553934561 2.8769389815
| 18> S 1.9962769176 -1.6410264186 -0.7738839341
| 19> C 0.2715831951 -1.8166700384 -1.273040951
| 20> S -0.8711851158 -1.9210502648 0.1477623763
| 21> P -2.0343078462 -0.2084942443 -0.1563508229
| 22> S -2.3196612923 0.3597598361 -2.016497285
| 23> O -1.3937265038 0.8213871759 0.8579679071
| 24> C -1.8503912196 2.1920254295 0.9067580073
| 25> C -0.9984875633 2.9236297226 1.9210265497
| 26> O -3.3872523463 -0.5563997614 0.6075194672
| 27> C -4.4280567786 -1.3511569616 0.0045155789
| 28> C -5.7462925077 -0.971501651 0.6487611041
| 29> H 5.3457358366 2.5570703334 -0.229551931
| 30> H 6.0956676512 0.9941090234 0.1189230489
| 31> H 6.2492266684 1.7090362639 -1.4944762402
| 32> H 4.5457833785 -0.1165786427 -1.4959973026
| 33> H 3.7862657634 1.4588467438 -1.8427927045
| 34> H 3.1521604648 -0.5110786321 2.1919365735
| 35> H 2.1251167629 0.4306731046 3.3068303878
| 36> H 1.4295447592 -2.2967283619 2.0830908354
| 37> H 1.8276264552 -1.9677669031 3.7753676002
| 38> H 0.3344507317 -1.3269262148 3.070021179
| 39> H 0.2083290658 -2.7529259428 -1.8212041414
| 40> H -0.0261054904 -0.9710138187 -1.8993416572
| 41> H -1.7421739496 2.6236445839 -0.0944885586
| 42> H -2.9067458609 2.1928230377 1.18733963
| 43> H -1.1010645153 2.458596753 2.8969256819
| 44> H 0.0449571371 2.8829018275 1.6177804139
| 45> H -1.317478587 3.959445481 1.9730963817
| 46> H -4.4365110571 -1.1544639563 -1.073035235
| 47> H -4.1873787841 -2.4028964577 0.1775205291
| 48> H -6.5342600881 -1.5928789991 0.2363020022
| 49> H -5.6909132396 -1.123690096 1.7227652581
| 50> H -5.9741125333 0.0723560158 0.4509300598
| 51> *
| 52>
| 53>                          ****END OF INPUT****

CARTESIAN COORDINATES (ANGSTROEM)
---------------------------------
  C      5.590689    1.582179   -0.641628
  C      4.328337    0.875308   -1.091425
  O      3.478362    0.711768    0.062569
  P      1.933041    0.374915   -0.090981
  S      0.928684    1.602823   -1.238046
  O      1.449059    0.394421    1.404084
  C      2.125829   -0.294534    2.491661
  C      1.379515   -1.555393    2.876939
  S      1.996277   -1.641026   -0.773884
  C      0.271583   -1.816670   -1.273041
  S     -0.871185   -1.921050    0.147762
  P     -2.034308   -0.208494   -0.156351
  S     -2.319661    0.359760   -2.016497
  O     -1.393727    0.821387    0.857968
  C     -1.850391    2.192025    0.906758
  C     -0.998488    2.923630    1.921027
  O     -3.387252   -0.556400    0.607519
  C     -4.428057   -1.351157    0.004516
  C     -5.746293   -0.971502    0.648761
  H      5.345736    2.557070   -0.229552
  H      6.095668    0.994109    0.118923
  H      6.249227    1.709036   -1.494476
  H      4.545783   -0.116579   -1.495997
  H      3.786266    1.458847   -1.842793
  H      3.152160   -0.511079    2.191937
  H      2.125117    0.430673    3.306830
  H      1.429545   -2.296728    2.083091
  H      1.827626   -1.967767    3.775368
  H      0.334451   -1.326926    3.070021
  H      0.208329   -2.752926   -1.821204
  H     -0.026105   -0.971014   -1.899342
  H     -1.742174    2.623645   -0.094489
  H     -2.906746    2.192823    1.187340
  H     -1.101065    2.458597    2.896926
  H      0.044957    2.882902    1.617780
  H     -1.317479    3.959445    1.973096
  H     -4.436511   -1.154464   -1.073035
  H     -4.187379   -2.402896    0.177521
  H     -6.534260   -1.592879    0.236302
  H     -5.690913   -1.123690    1.722765
  H     -5.974113    0.072356    0.450930

 Total Charge           Charge          ....    0
 Multiplicity           Mult            ....    1
 Number of Electrons    NEL             ....  202
 Basis Dimension        Dim             ....  539

ORBITAL ENERGIES
----------------

  NO   OCC          E(Eh)            E(eV)
   0   2.0000     -88.579776     -2410.3782
   1   2.0000     -88.579430     -2410.3688
   2   2.0000     -88.523362     -2408.8431
   3   2.0000     -88.522780     -2408.8273
   4   2.0000     -76.917750     -2093.0384
   5   2.0000     -76.916246     -2092.9975
   6   2.0000     -18.994630      -516.8702
   7   2.0000     -18.993888      -516.8500
   8   2.0000     -18.991739      -516.7915
   9   2.0000     -18.988946      -516.7155
  10   2.0000     -10.106117      -275.0014
  11   2.0000     -10.092357      -274.6270
  12   2.0000     -10.090225      -274.5690
  13   2.0000     -10.087228      -274.4874
  14   2.0000     -10.087139      -274.4850
  15   2.0000     -10.019632      -272.6481
  16   2.0000     -10.018738      -272.6237
  17   2.0000     -10.017478      -272.5894
  18   2.0000     -10.017061      -272.5781
  19   2.0000      -7.874431      -214.2742
  20   2.0000      -7.873836      -214.2580
  21   2.0000      -7.818503      -212.7523
  22   2.0000      -7.817881      -212.7353
  23   2.0000      -6.596216      -179.4922
  24   2.0000      -6.594856      -179.4552
  25   2.0000      -5.821255      -158.4044
  26   2.0000      -5.820649      -158.3879
  27   2.0000      -5.818204      -158.3214
  28   2.0000      -5.817532      -158.3031
  29   2.0000      -5.811600      -158.1417
  30   2.0000      -5.811156      -158.1296
  31   2.0000      -5.766198      -156.9062
  32   2.0000      -5.765445      -156.8857
  33   2.0000      -5.758685      -156.7018
  34   2.0000      -5.758483      -156.6963
  35   2.0000      -5.758369      -156.6932
  36   2.0000      -5.757687      -156.6746
  37   2.0000      -4.742025      -129.0371
  38   2.0000      -4.741217      -129.0151
  39   2.0000      -4.740277      -128.9895
  40   2.0000      -4.739716      -128.9742
  41   2.0000      -4.739636      -128.9721
  42   2.0000      -4.738737      -128.9476
  43   2.0000      -1.053862       -28.6770
  44   2.0000      -1.049702       -28.5638
  45   2.0000      -1.011468       -27.5234
  46   2.0000      -1.007973       -27.4283
  47   2.0000      -0.802452       -21.8358
  48   2.0000      -0.757477       -20.6120
  49   2.0000      -0.746223       -20.3058
  50   2.0000      -0.726148       -19.7595
  51   2.0000      -0.722810       -19.6687
  52   2.0000      -0.709694       -19.3117
  53   2.0000      -0.686081       -18.6692
  54   2.0000      -0.668353       -18.1868
  55   2.0000      -0.622734       -16.9455
  56   2.0000      -0.611238       -16.6326
  57   2.0000      -0.599191       -16.3048
  58   2.0000      -0.595137       -16.1945
  59   2.0000      -0.588377       -16.0106
  60   2.0000      -0.531727       -14.4690
  61   2.0000      -0.527197       -14.3458
  62   2.0000      -0.496470       -13.5096
  63   2.0000      -0.493290       -13.4231
  64   2.0000      -0.468640       -12.7524
  65   2.0000      -0.461936       -12.5699
  66   2.0000      -0.452978       -12.3262
  67   2.0000      -0.451200       -12.2778
  68   2.0000      -0.444392       -12.0925
  69   2.0000      -0.436067       -11.8660
  70   2.0000      -0.421449       -11.4682
  71   2.0000      -0.412782       -11.2324
  72   2.0000      -0.399320       -10.8661
  73   2.0000      -0.392042       -10.6680
  74   2.0000      -0.391150       -10.6437
  75   2.0000      -0.381083       -10.3698
  76   2.0000      -0.378663       -10.3039
  77   2.0000      -0.363733        -9.8977
  78   2.0000      -0.361142        -9.8272
  79   2.0000      -0.357524        -9.7287
  80   2.0000      -0.354962        -9.6590
  81   2.0000      -0.353190        -9.6108
  82   2.0000      -0.346041        -9.4163
  83   2.0000      -0.344700        -9.3798
  84   2.0000      -0.340587        -9.2678
  85   2.0000      -0.326100        -8.8736
  86   2.0000      -0.324563        -8.8318
  87   2.0000      -0.316798        -8.6205
  88   2.0000      -0.310705        -8.4547
  89   2.0000      -0.309555        -8.4234
  90   2.0000      -0.300611        -8.1800
  91   2.0000      -0.287689        -7.8284
  92   2.0000      -0.281314        -7.6550
  93   2.0000      -0.276948        -7.5361
  94   2.0000      -0.273339        -7.4379
  95   2.0000      -0.252002        -6.8573
  96   2.0000      -0.241868        -6.5816
  97   2.0000      -0.237186        -6.4542
  98   2.0000      -0.225399        -6.1334
  99   2.0000      -0.213743        -5.8163
 100   2.0000      -0.206401        -5.6165
 101   0.0000      -0.047644        -1.2965
 102   0.0000      -0.038061        -1.0357
 103   0.0000      -0.010811        -0.2942
 104   0.0000       0.007721         0.2101
 105   0.0000       0.011441         0.3113

MULLIKEN ATOMIC CHARGES
-----------------------
   0 C :   -0.481536
   1 C :   -0.151408
   2 O :   -0.329198
   3 P :    0.704212
   4 S :   -0.471609
   5 O :   -0.287741
   6 C :   -0.128357
   7 C :   -0.479487
   8 S :   -0.164927
   9 C :   -0.222297
  10 S :   -0.131612
  11 P :    0.694653
  12 S :   -0.532061
  13 O :   -0.282125
  14 C :   -0.120921
  15 C :   -0.511252
  16 O :   -0.323556
  17 C :   -0.140334
  18 C :   -0.488267
  19 H :    0.166242
  20 H :    0.165880
  21 H :    0.169531
  22 H :    0.168897
  23 H :    0.173025
  24 H :    0.178189
  25 H :    0.178832
  26 H :    0.167201
  27 H :    0.168668
  28 H :    0.167790
  29 H :    0.237956
  30 H :    0.212072
  31 H :    0.174502
  32 H :    0.170857
  33 H :    0.166915
  34 H :    0.170719
  35 H :    0.169408
  36 H :    0.170915
  37 H :    0.170073
  38 H :    0.169096
  39 H :    0.165157
  40 H :    0.165899
Sum of atomic charges:   -0.0000000

LOEWDIN ATOMIC CHARGES
----------------------
   0 C :   -0.389148
   1 C :    0.023303
   2 O :   -0.689392
   3 P :    0.377852
   4 S :   -0.105666
   5 O :   -0.665028
   6 C :    0.037142
   7 C :   -0.406492
   8 S :    0.134917
   9 C :   -0.406778
  10 S :    0.176992
  11 P :    0.365270
  12 S :   -0.173295
  13 O :   -0.690000
  14 C :    0.020121
  15 C :   -0.393904
  16 O :   -0.682376
  17 C :    0.021552
  18 C :   -0.391392
  19 H :    0.163184
  20 H :    0.163032
  21 H :    0.169005
  22 H :    0.179217
  23 H :    0.181526
  24 H :    0.186638
  25 H :    0.192070
  26 H :    0.160874
  27 H :    0.166837
  28 H :    0.163707
  29 H :    0.197588
  30 H :    0.200365
  31 H :    0.182680
  32 H :    0.180107
  33 H :    0.163102
  34 H :    0.164409
  35 H :    0.168115
  36 H :    0.181549
  37 H :    0.179202
  38 H :    0.168456
  39 H :    0.162730
  40 H :    0.161930

  Mayer bond orders larger than 0.100000
B(  0-C ,  1-C ) :   0.9548 B(  0-C , 19-H ) :   0.9692 B(  0-C , 20-H ) :   0.9686
B(  0-C , 21-H ) :   0.9583 B(  1-C ,  2-O ) :   0.7809 B(  1-C , 22-H ) :   0.9333
B(  1-C , 23-H ) :   0.9465 B(  2-O ,  3-P ) :   1.0723 B(  3-P ,  4-S ) :   1.8081
B(  3-P ,  5-O ) :   1.1377 B(  3-P ,  8-S ) :   0.9938 B(  5-O ,  6-C ) :   0.7214
B(  6-C ,  7-C ) :   0.9351 B(  6-C , 24-H ) :   0.9628 B(  6-C , 25-H ) :   0.9520
B(  7-C , 26-H ) :   0.9615 B(  7-C , 27-H ) :   0.9570 B(  7-C , 28-H ) :   0.9666
B(  8-S ,  9-C ) :   0.9147 B(  9-C , 10-S ) :   0.8918 B(  9-C , 29-H ) :   0.8976
B(  9-C , 30-H ) :   0.9090 B( 10-S , 11-P ) :   1.1388 B( 11-P , 12-S ) :   1.6983
B( 11-P , 13-O ) :   1.2020 B( 11-P , 16-O ) :   1.0838 B( 13-O , 14-C ) :   0.7520
B( 14-C , 15-C ) :   0.9262 B( 14-C , 31-H ) :   0.9469 B( 14-C , 32-H ) :   0.9359
B( 15-C , 33-H ) :   0.9695 B( 15-C , 34-H ) :   0.9702 B( 15-C , 35-H ) :   0.9603
B( 16-O , 17-C ) :   0.7716 B( 17-C , 18-C ) :   0.9524 B( 17-C , 36-H ) :   0.9476
B( 17-C , 37-H ) :   0.9381 B( 18-C , 38-H ) :   0.9594 B( 18-C , 39-H ) :   0.9692
B( 18-C , 40-H ) :   0.9698

Dispersion correction           -0.021774470
FINAL SINGLE POINT ENERGY     -2932.469511181180

DIPOLE MOMENT
-------------

Method             : SCF
Type of density    : Electron Density
Multiplicity       :   1
Irrep              :   0
Energy             : -2932.4942063827661514 Eh
Relativity type    :
Basis              : AO
                                X                 Y                 Z
Electronic contribution:     -0.307763971      -5.890056102     -12.710384200
Nuclear contribution   :      1.252536272       4.723746834      14.316054129
                        -----------------------------------------
Total Dipole Moment    :      0.944772301      -1.166309268       1.605669929
                        -----------------------------------------
Magnitude (a.u.)       :      2.197964497
Magnitude (Debye)      :      5.586781762

Rotational constants in cm-1:             0.013216             0.005010             0.004901
Rotational constants in MHz :           396.193753           150.210899           146.939423

                             ****ORCA TERMINATED NORMALLY****
TOTAL RUN TIME: 0 days 0 hours 1 minutes 51 seconds 457 msec
