                         Program Version 6.0.0  -   RELEASE  -
|  1> ! pbe def2-sv(p) def2/J RI DEFGRID1 loosescf d4 GCP(DFT/SV(P)) printgap
|  2> %output
|  3>     printlevel normal
|  4> end
|  5> * xyz 0 1
|  6> C 2.5774052551 -3.1705929993 -0.3684090565
|  7> C 3.3468219292 -2.1918062067 -1.230653284
|  8> O 3.5304075418 -0.9101315539 -0.5859826255
|  9> P 2.3788796514 0.1002717261 -0.1704731914
| 10> S 3.1419976205 1.8742209738 0.1269368926
| 11> O 1.6163787089 -0.533656637 1.0836249325
| 12> C 1.9816712324 -0.2288936581 2.4464695965
| 13> C 1.0503382772 0.8112182783 3.0351628843
| 14> S 0.9192673043 -0.1239233222 -1.6804496437
| 15> C 0.161845618 1.5065894412 -1.4765162065
| 16> S -0.7301132006 1.7006702184 0.0840959111
| 17> P -2.1903990989 0.2154190661 -0.2912761724
| 18> S -2.8367812355 0.0772271532 -2.1294499477
| 19> O -3.3734862324 0.531539207 0.7140853367
| 20> C -3.2420844054 0.5024103988 2.1566594293
| 21> C -2.9737063995 1.887313355 2.7102148794
| 22> O -1.4425061374 -1.0721053755 0.2962902506
| 23> C -1.647978302 -2.3880239311 -0.249031392
| 24> C -3.0253011389 -2.9206371993 0.0903921652
| 25> H 1.568788234 -2.8003246254 -0.1977238317
| 26> H 2.5226812856 -4.1264945811 -0.8797964212
| 27> H 3.0748310886 -3.302893675 0.5890631706
| 28> H 2.8355661772 -2.0263324828 -2.1827740656
| 29> H 4.3682443575 -2.5295428309 -1.4135053769
| 30> H 1.8999331211 -1.1807463254 2.9744077699
| 31> H 3.0184982658 0.1195953999 2.4721597788
| 32> H 0.0190575395 0.4828999781 2.9414396641
| 33> H 1.2909172544 0.9548087528 4.083461782
| 34> H 1.1643818113 1.7569563857 2.5096541915
| 35> H -0.5316095107 1.6271308856 -2.3087539654
| 36> H 0.9378990607 2.2721860993 -1.4863114153
| 37> H -4.203565381 0.1194744048 2.503415899
| 38> H -2.4465942135 -0.1968063557 2.4255058085
| 39> H -2.0145797973 2.2636143507 2.3597812386
| 40> H -3.7531971828 2.5727207755 2.3895669411
| 41> H -2.9620406359 1.8399337563 3.794699891
| 42> H -1.5054385942 -2.3426479063 -1.3332358895
| 43> H -0.8591423637 -2.9900355599 0.2046719575
| 44> H -3.1678460621 -2.9526343311 1.1674884045
| 45> H -3.7858594026 -2.2752539709 -0.3488912412
| 46> H -3.1348171168 -3.9205890314 -0.3172300141
| 47> *
| 48>
| 49>                          ****END OF INPUT****

CARTESIAN COORDINATES (ANGSTROEM)
---------------------------------
  C      2.577405   -3.170593   -0.368409
  C      3.346822   -2.191806   -1.230653
  O      3.530408   -0.910132   -0.585983
  P      2.378880    0.100272   -0.170473
  S      3.141998    1.874221    0.126937
  O      1.616379   -0.533657    1.083625
  C      1.981671   -0.228894    2.446470
  C      1.050338    0.811218    3.035163
  S      0.919267   -0.123923   -1.680450
  C      0.161846    1.506589   -1.476516
  S     -0.730113    1.700670    0.084096
  P     -2.190399    0.215419   -0.291276
  S     -2.836781    0.077227   -2.129450
  O     -3.373486    0.531539    0.714085
  C     -3.242084    0.502410    2.156659
  C     -2.973706    1.887313    2.710215
  O     -1.442506   -1.072105    0.296290
  C     -1.647978   -2.388024   -0.249031
  C     -3.025301   -2.920637    0.090392
  H      1.568788   -2.800325   -0.197724
  H      2.522681   -4.126495   -0.879796
  H      3.074831   -3.302894    0.589063
  H      2.835566   -2.026332   -2.182774
  H      4.368244   -2.529543   -1.413505
  H      1.899933   -1.180746    2.974408
  H      3.018498    0.119595    2.472160
  H      0.019058    0.482900    2.941440
  H      1.290917    0.954809    4.083462
  H      1.164382    1.756956    2.509654
  H     -0.531610    1.627131   -2.308754
  H      0.937899    2.272186   -1.486311
  H     -4.203565    0.119474    2.503416
  H     -2.446594   -0.196806    2.425506
  H     -2.014580    2.263614    2.359781
  H     -3.753197    2.572721    2.389567
  H     -2.962041    1.839934    3.794700
  H     -1.505439   -2.342648   -1.333236
  H     -0.859142   -2.990036    0.204672
  H     -3.167846   -2.952634    1.167488
  H     -3.785859   -2.275254   -0.348891
  H     -3.134817   -3.920589   -0.317230

 Total Charge           Charge          ....    0
 Multiplicity           Mult            ....    1
 Number of Electrons    NEL             ....  202
 Basis Dimension        Dim             ....  334

ORBITAL ENERGIES
----------------

  NO   OCC          E(Eh)            E(eV)
   0   2.0000     -88.045349     -2395.8357
   1   2.0000     -88.042178     -2395.7495
   2   2.0000     -87.987969     -2394.2744
   3   2.0000     -87.984592     -2394.1825
   4   2.0000     -76.427374     -2079.6946
   5   2.0000     -76.425560     -2079.6452
   6   2.0000     -18.797298      -511.5005
   7   2.0000     -18.793179      -511.3884
   8   2.0000     -18.790356      -511.3116
   9   2.0000     -18.787258      -511.2273
  10   2.0000      -9.962949      -271.1056
  11   2.0000      -9.962207      -271.0854
  12   2.0000      -9.955547      -270.9042
  13   2.0000      -9.952793      -270.8293
  14   2.0000      -9.952499      -270.8213
  15   2.0000      -9.894877      -269.2533
  16   2.0000      -9.893270      -269.2096
  17   2.0000      -9.887032      -269.0398
  18   2.0000      -9.881176      -268.8805
  19   2.0000      -7.690346      -209.2649
  20   2.0000      -7.687132      -209.1775
  21   2.0000      -7.633206      -207.7101
  22   2.0000      -7.629891      -207.6199
  23   2.0000      -6.425091      -174.8356
  24   2.0000      -6.423389      -174.7893
  25   2.0000      -5.718153      -155.5989
  26   2.0000      -5.715002      -155.5131
  27   2.0000      -5.714995      -155.5129
  28   2.0000      -5.711784      -155.4255
  29   2.0000      -5.707216      -155.3012
  30   2.0000      -5.703942      -155.2122
  31   2.0000      -5.662253      -154.0777
  32   2.0000      -5.658925      -153.9872
  33   2.0000      -5.653766      -153.8468
  34   2.0000      -5.653251      -153.8328
  35   2.0000      -5.650842      -153.7672
  36   2.0000      -5.649533      -153.7316
  37   2.0000      -4.648040      -126.4796
  38   2.0000      -4.646411      -126.4353
  39   2.0000      -4.646259      -126.4311
  40   2.0000      -4.645653      -126.4146
  41   2.0000      -4.644913      -126.3945
  42   2.0000      -4.643811      -126.3645
  43   2.0000      -0.987486       -26.8709
  44   2.0000      -0.982442       -26.7336
  45   2.0000      -0.945859       -25.7381
  46   2.0000      -0.943381       -25.6707
  47   2.0000      -0.767690       -20.8899
  48   2.0000      -0.724665       -19.7191
  49   2.0000      -0.713703       -19.4209
  50   2.0000      -0.696347       -18.9486
  51   2.0000      -0.692044       -18.8315
  52   2.0000      -0.675317       -18.3763
  53   2.0000      -0.652490       -17.7552
  54   2.0000      -0.640594       -17.4314
  55   2.0000      -0.598028       -16.2732
  56   2.0000      -0.590943       -16.0804
  57   2.0000      -0.582936       -15.8625
  58   2.0000      -0.580109       -15.7856
  59   2.0000      -0.559853       -15.2344
  60   2.0000      -0.505483       -13.7549
  61   2.0000      -0.498414       -13.5625
  62   2.0000      -0.481134       -13.0923
  63   2.0000      -0.478351       -13.0166
  64   2.0000      -0.459223       -12.4961
  65   2.0000      -0.451406       -12.2834
  66   2.0000      -0.445527       -12.1234
  67   2.0000      -0.435996       -11.8641
  68   2.0000      -0.432713       -11.7747
  69   2.0000      -0.414898       -11.2900
  70   2.0000      -0.407520       -11.0892
  71   2.0000      -0.402444       -10.9511
  72   2.0000      -0.397331       -10.8119
  73   2.0000      -0.386403       -10.5146
  74   2.0000      -0.377746       -10.2790
  75   2.0000      -0.375720       -10.2239
  76   2.0000      -0.368404       -10.0248
  77   2.0000      -0.362775        -9.8716
  78   2.0000      -0.361168        -9.8279
  79   2.0000      -0.356805        -9.7092
  80   2.0000      -0.353153        -9.6098
  81   2.0000      -0.349468        -9.5095
  82   2.0000      -0.347396        -9.4531
  83   2.0000      -0.345374        -9.3981
  84   2.0000      -0.337613        -9.1869
  85   2.0000      -0.322148        -8.7661
  86   2.0000      -0.314207        -8.5500
  87   2.0000      -0.306695        -8.3456
  88   2.0000      -0.305665        -8.3176
  89   2.0000      -0.283270        -7.7082
  90   2.0000      -0.280094        -7.6217
  91   2.0000      -0.277859        -7.5609
  92   2.0000      -0.274792        -7.4775
  93   2.0000      -0.271891        -7.3985
  94   2.0000      -0.259443        -7.0598
  95   2.0000      -0.229403        -6.2424
  96   2.0000      -0.217422        -5.9164
  97   2.0000      -0.214338        -5.8324
  98   2.0000      -0.204253        -5.5580
  99   2.0000      -0.201851        -5.4926
 100   2.0000      -0.197205        -5.3662
 101   0.0000      -0.047012        -1.2793
 102   0.0000      -0.025045        -0.6815
 103   0.0000      -0.002372        -0.0645
 104   0.0000      -0.000288        -0.0078
 105   0.0000       0.004426         0.1204

MULLIKEN ATOMIC CHARGES
-----------------------
   0 C :   -0.337546
   1 C :   -0.019921
   2 O :   -0.369708
   3 P :    0.617243
   4 S :   -0.318223
   5 O :   -0.375233
   6 C :   -0.007505
   7 C :   -0.303010
   8 S :   -0.099281
   9 C :   -0.343167
  10 S :   -0.096077
  11 P :    0.624738
  12 S :   -0.315980
  13 O :   -0.366510
  14 C :   -0.043247
  15 C :   -0.304281
  16 O :   -0.379418
  17 C :   -0.026933
  18 C :   -0.302036
  19 H :    0.152751
  20 H :    0.114823
  21 H :    0.118204
  22 H :    0.120853
  23 H :    0.116047
  24 H :    0.097306
  25 H :    0.106779
  26 H :    0.117320
  27 H :    0.104233
  28 H :    0.131296
  29 H :    0.194601
  30 H :    0.194876
  31 H :    0.112007
  32 H :    0.123464
  33 H :    0.143180
  34 H :    0.125844
  35 H :    0.112667
  36 H :    0.112492
  37 H :    0.116893
  38 H :    0.108100
  39 H :    0.130474
  40 H :    0.111885
Sum of atomic charges:   -0.0000000

LOEWDIN ATOMIC CHARGES
----------------------
   0 C :   -0.369017
   1 C :   -0.115489
   2 O :   -0.246700
   3 P :    0.571565
   4 S :   -0.313730
   5 O :   -0.251701
   6 C :   -0.114809
   7 C :   -0.364339
   8 S :    0.090324
   9 C :   -0.479067
  10 S :    0.098242
  11 P :    0.572807
  12 S :   -0.309528
  13 O :   -0.242281
  14 C :   -0.117670
  15 C :   -0.361599
  16 O :   -0.248637
  17 C :   -0.123363
  18 C :   -0.366182
  19 H :    0.124324
  20 H :    0.131745
  21 H :    0.127621
  22 H :    0.109692
  23 H :    0.124736
  24 H :    0.113886
  25 H :    0.109523
  26 H :    0.117588
  27 H :    0.126540
  28 H :    0.123390
  29 H :    0.132028
  30 H :    0.132116
  31 H :    0.122313
  32 H :    0.109250
  33 H :    0.120360
  34 H :    0.132346
  35 H :    0.131913
  36 H :    0.108680
  37 H :    0.115535
  38 H :    0.121116
  39 H :    0.125454
  40 H :    0.131016

  Mayer bond orders larger than 0.100000
B(  0-C ,  1-C ) :   1.1606 B(  0-C , 19-H ) :   0.9259 B(  0-C , 20-H ) :   0.9365
B(  0-C , 21-H ) :   0.9446 B(  1-C ,  2-O ) :   0.9127 B(  1-C , 22-H ) :   0.9179
B(  1-C , 23-H ) :   0.9348 B(  2-O ,  3-P ) :   1.1207 B(  3-P ,  4-S ) :   1.6224
B(  3-P ,  5-O ) :   1.0859 B(  3-P ,  8-S ) :   0.9563 B(  5-O ,  6-C ) :   0.9058
B(  6-C ,  7-C ) :   1.1731 B(  6-C , 24-H ) :   0.9326 B(  6-C , 25-H ) :   0.9128
B(  7-C , 26-H ) :   0.9369 B(  7-C , 27-H ) :   0.9370 B(  7-C , 28-H ) :   0.9340
B(  8-S ,  9-C ) :   1.0107 B(  9-C , 10-S ) :   1.0104 B(  9-C , 29-H ) :   0.8808
B(  9-C , 30-H ) :   0.8781 B( 10-S , 11-P ) :   0.9598 B( 10-S , 12-S ) :   0.1022
B( 11-P , 12-S ) :   1.6268 B( 11-P , 13-O ) :   1.1251 B( 11-P , 16-O ) :   1.0724
B( 13-O , 14-C ) :   0.9018 B( 14-C , 15-C ) :   1.1701 B( 14-C , 31-H ) :   0.9321
B( 14-C , 32-H ) :   0.9088 B( 15-C , 33-H ) :   0.9296 B( 15-C , 34-H ) :   0.9447
B( 15-C , 35-H ) :   0.9382 B( 16-O , 17-C ) :   0.9070 B( 17-C , 18-C ) :   1.1611
B( 17-C , 36-H ) :   0.9142 B( 17-C , 37-H ) :   0.9215 B( 18-C , 38-H ) :   0.9468
B( 18-C , 39-H ) :   0.9317 B( 18-C , 40-H ) :   0.9400

Dispersion correction           -0.067869738
FINAL SINGLE POINT ENERGY     -2929.516894905098

DIPOLE MOMENT
-------------

Method             : SCF
Type of density    : Electron Density
Multiplicity       :   1
Irrep              :   0
Energy             : -2929.6354165061720778 Eh
Relativity type    :
Basis              : AO
                                X                 Y                 Z
Electronic contribution:      5.329660899      14.357875732     -17.841610135
Nuclear contribution   :     -5.491523680     -16.020061576      19.252888102
                        -----------------------------------------
Total Dipole Moment    :     -0.161862781      -1.662185844       1.411277966
                        -----------------------------------------
Magnitude (a.u.)       :      2.186496476
Magnitude (Debye)      :      5.557632369

Rotational constants in cm-1:             0.010926             0.005977             0.005370
Rotational constants in MHz :           327.557042           179.196980           160.989360

                             ****ORCA TERMINATED NORMALLY****
TOTAL RUN TIME: 0 days 0 hours 0 minutes 22 seconds 478 msec
