                         Program Version 6.0.0  -   RELEASE  -
|  1> ! pbe def2-sv(p) def2/J RI DEFGRID1 loosescf d4 GCP(DFT/SV(P)) printgap
|  2> %output
|  3>     printlevel normal
|  4> end
|  5> * xyz 0 1
|  6> C 3.2748966136 2.4438000187 -0.4688098141
|  7> C 1.9677736543 1.6982789416 -0.6298251287
|  8> O 1.6144380668 1.013473765 0.5992667423
|  9> P 1.9270285465 -0.5089834346 0.8608010855
| 10> S 1.5479248886 -1.0605273967 2.6961551641
| 11> O 3.4433976241 -0.6355399608 0.4090727513
| 12> C 4.1592029498 -1.8802273489 0.5548461737
| 13> C 5.6376499833 -1.5861947694 0.4028232868
| 14> S 0.9259502907 -1.6130605669 -0.6671383377
| 15> C -0.64449194 -1.8486871245 0.2151127062
| 16> S -1.3361984616 -0.3328490445 0.9237051933
| 17> P -2.1890280681 0.4947148445 -0.8606079029
| 18> S -1.0413158451 0.6212854898 -2.4358152492
| 19> O -2.8050816928 1.8452210964 -0.2884680057
| 20> C -1.9938743026 2.9360829362 0.1901797875
| 21> C -1.6693870148 3.9079703598 -0.9278389673
| 22> O -3.4753157113 -0.3495103161 -1.1862603698
| 23> C -4.592560273 -0.5379955115 -0.2785221691
| 24> C -4.5655054805 -1.9320892377 0.3161633318
| 25> H 4.0874296964 1.7446677863 -0.2913244413
| 26> H 3.4737596079 3.0044223654 -1.376723013
| 27> H 3.2098125217 3.1287916294 0.3720753291
| 28> H 2.0141725641 0.9711551742 -1.4455076085
| 29> H 1.1376299794 2.3834838754 -0.8135494174
| 30> H 3.9306436206 -2.2980629846 1.5407688735
| 31> H 3.8059442608 -2.5689001201 -0.2174474222
| 32> H 5.8324304103 -1.1516675527 -0.5735003567
| 33> H 5.9606976524 -0.8898475887 1.1716671166
| 34> H 6.1953897438 -2.5116497426 0.501262165
| 35> H -0.4771838742 -2.5177438193 1.0580634224
| 36> H -1.3385899143 -2.2776437303 -0.5050679192
| 37> H -2.6035071526 3.4102398759 0.9620717985
| 38> H -1.0845023919 2.5350919083 0.6484921026
| 39> H -1.0848202094 4.7309355067 -0.5290129434
| 40> H -1.1019866647 3.4096437724 -1.7112176164
| 41> H -2.5873110527 4.2952101996 -1.3610186185
| 42> H -4.5577296522 0.2287066342 0.496864757
| 43> H -5.4752098482 -0.391066488 -0.9026813954
| 44> H -3.7145954945 -2.0508310516 0.9828100601
| 45> H -5.4781276065 -2.0908421694 0.8819740324
| 46> H -4.5046264087 -2.6743584824 -0.4752061433
| 47> *
| 48>
| 49>                          ****END OF INPUT****

CARTESIAN COORDINATES (ANGSTROEM)
---------------------------------
  C      3.274897    2.443800   -0.468810
  C      1.967774    1.698279   -0.629825
  O      1.614438    1.013474    0.599267
  P      1.927029   -0.508983    0.860801
  S      1.547925   -1.060527    2.696155
  O      3.443398   -0.635540    0.409073
  C      4.159203   -1.880227    0.554846
  C      5.637650   -1.586195    0.402823
  S      0.925950   -1.613061   -0.667138
  C     -0.644492   -1.848687    0.215113
  S     -1.336198   -0.332849    0.923705
  P     -2.189028    0.494715   -0.860608
  S     -1.041316    0.621285   -2.435815
  O     -2.805082    1.845221   -0.288468
  C     -1.993874    2.936083    0.190180
  C     -1.669387    3.907970   -0.927839
  O     -3.475316   -0.349510   -1.186260
  C     -4.592560   -0.537996   -0.278522
  C     -4.565505   -1.932089    0.316163
  H      4.087430    1.744668   -0.291324
  H      3.473760    3.004422   -1.376723
  H      3.209813    3.128792    0.372075
  H      2.014173    0.971155   -1.445508
  H      1.137630    2.383484   -0.813549
  H      3.930644   -2.298063    1.540769
  H      3.805944   -2.568900   -0.217447
  H      5.832430   -1.151668   -0.573500
  H      5.960698   -0.889848    1.171667
  H      6.195390   -2.511650    0.501262
  H     -0.477184   -2.517744    1.058063
  H     -1.338590   -2.277644   -0.505068
  H     -2.603507    3.410240    0.962072
  H     -1.084502    2.535092    0.648492
  H     -1.084820    4.730936   -0.529013
  H     -1.101987    3.409644   -1.711218
  H     -2.587311    4.295210   -1.361019
  H     -4.557730    0.228707    0.496865
  H     -5.475210   -0.391066   -0.902681
  H     -3.714595   -2.050831    0.982810
  H     -5.478128   -2.090842    0.881974
  H     -4.504626   -2.674358   -0.475206

 Total Charge           Charge          ....    0
 Multiplicity           Mult            ....    1
 Number of Electrons    NEL             ....  202
 Basis Dimension        Dim             ....  334

ORBITAL ENERGIES
----------------

  NO   OCC          E(Eh)            E(eV)
   0   2.0000     -88.042320     -2395.7533
   1   2.0000     -88.035545     -2395.5690
   2   2.0000     -87.982785     -2394.1333
   3   2.0000     -87.981574     -2394.1003
   4   2.0000     -76.425662     -2079.6480
   5   2.0000     -76.423530     -2079.5900
   6   2.0000     -18.795292      -511.4459
   7   2.0000     -18.794172      -511.4154
   8   2.0000     -18.793770      -511.4045
   9   2.0000     -18.788899      -511.2719
  10   2.0000      -9.958782      -270.9922
  11   2.0000      -9.958003      -270.9710
  12   2.0000      -9.957606      -270.9602
  13   2.0000      -9.953576      -270.8506
  14   2.0000      -9.948734      -270.7188
  15   2.0000      -9.890299      -269.1287
  16   2.0000      -9.889640      -269.1108
  17   2.0000      -9.883792      -268.9517
  18   2.0000      -9.881942      -268.9013
  19   2.0000      -7.686433      -209.1585
  20   2.0000      -7.680584      -208.9993
  21   2.0000      -7.627983      -207.5680
  22   2.0000      -7.626933      -207.5394
  23   2.0000      -6.423083      -174.7810
  24   2.0000      -6.420845      -174.7201
  25   2.0000      -5.714143      -155.4897
  26   2.0000      -5.711050      -155.4056
  27   2.0000      -5.708437      -155.3345
  28   2.0000      -5.705165      -155.2454
  29   2.0000      -5.703594      -155.2027
  30   2.0000      -5.697528      -155.0376
  31   2.0000      -5.656971      -153.9340
  32   2.0000      -5.655939      -153.9059
  33   2.0000      -5.648610      -153.7065
  34   2.0000      -5.648017      -153.6903
  35   2.0000      -5.647505      -153.6764
  36   2.0000      -5.647020      -153.6632
  37   2.0000      -4.646137      -126.4278
  38   2.0000      -4.644949      -126.3955
  39   2.0000      -4.643782      -126.3637
  40   2.0000      -4.643032      -126.3433
  41   2.0000      -4.642657      -126.3331
  42   2.0000      -4.640963      -126.2870
  43   2.0000      -0.990272       -26.9467
  44   2.0000      -0.987554       -26.8727
  45   2.0000      -0.947274       -25.7766
  46   2.0000      -0.943802       -25.6822
  47   2.0000      -0.761232       -20.7142
  48   2.0000      -0.721153       -19.6236
  49   2.0000      -0.712190       -19.3797
  50   2.0000      -0.692388       -18.8408
  51   2.0000      -0.690779       -18.7971
  52   2.0000      -0.671370       -18.2689
  53   2.0000      -0.648001       -17.6330
  54   2.0000      -0.637771       -17.3546
  55   2.0000      -0.588039       -16.0013
  56   2.0000      -0.585493       -15.9321
  57   2.0000      -0.579425       -15.7669
  58   2.0000      -0.569805       -15.5052
  59   2.0000      -0.566012       -15.4020
  60   2.0000      -0.512306       -13.9406
  61   2.0000      -0.503969       -13.7137
  62   2.0000      -0.480939       -13.0870
  63   2.0000      -0.478185       -13.0121
  64   2.0000      -0.457065       -12.4374
  65   2.0000      -0.446255       -12.1432
  66   2.0000      -0.442978       -12.0540
  67   2.0000      -0.437376       -11.9016
  68   2.0000      -0.430053       -11.7023
  69   2.0000      -0.413220       -11.2443
  70   2.0000      -0.404844       -11.0164
  71   2.0000      -0.399508       -10.8712
  72   2.0000      -0.387804       -10.5527
  73   2.0000      -0.386279       -10.5112
  74   2.0000      -0.380534       -10.3549
  75   2.0000      -0.372449       -10.1349
  76   2.0000      -0.363468        -9.8905
  77   2.0000      -0.360037        -9.7971
  78   2.0000      -0.356146        -9.6912
  79   2.0000      -0.352561        -9.5937
  80   2.0000      -0.350465        -9.5366
  81   2.0000      -0.348635        -9.4869
  82   2.0000      -0.342374        -9.3165
  83   2.0000      -0.336841        -9.1659
  84   2.0000      -0.334062        -9.0903
  85   2.0000      -0.321089        -8.7373
  86   2.0000      -0.316093        -8.6013
  87   2.0000      -0.302715        -8.2373
  88   2.0000      -0.300133        -8.1670
  89   2.0000      -0.296109        -8.0575
  90   2.0000      -0.290310        -7.8997
  91   2.0000      -0.276190        -7.5155
  92   2.0000      -0.272006        -7.4017
  93   2.0000      -0.263627        -7.1737
  94   2.0000      -0.256792        -6.9877
  95   2.0000      -0.239121        -6.5068
  96   2.0000      -0.215993        -5.8775
  97   2.0000      -0.205709        -5.5976
  98   2.0000      -0.201895        -5.4938
  99   2.0000      -0.197033        -5.3615
 100   2.0000      -0.184244        -5.0135
 101   0.0000      -0.042287        -1.1507
 102   0.0000      -0.026462        -0.7201
 103   0.0000      -0.003011        -0.0819
 104   0.0000       0.003408         0.0927
 105   0.0000       0.016949         0.4612

MULLIKEN ATOMIC CHARGES
-----------------------
   0 C :   -0.286309
   1 C :   -0.026639
   2 O :   -0.353001
   3 P :    0.595976
   4 S :   -0.320660
   5 O :   -0.383283
   6 C :   -0.011345
   7 C :   -0.283492
   8 S :   -0.082732
   9 C :   -0.341929
  10 S :   -0.091354
  11 P :    0.589671
  12 S :   -0.306959
  13 O :   -0.382168
  14 C :   -0.032138
  15 C :   -0.300630
  16 O :   -0.361444
  17 C :   -0.005917
  18 C :   -0.301235
  19 H :    0.121280
  20 H :    0.109496
  21 H :    0.113935
  22 H :    0.114151
  23 H :    0.111847
  24 H :    0.106260
  25 H :    0.104746
  26 H :    0.117151
  27 H :    0.122377
  28 H :    0.113588
  29 H :    0.191905
  30 H :    0.182407
  31 H :    0.107963
  32 H :    0.127016
  33 H :    0.107270
  34 H :    0.140554
  35 H :    0.115133
  36 H :    0.108637
  37 H :    0.112085
  38 H :    0.124728
  39 H :    0.112986
  40 H :    0.120074
Sum of atomic charges:   -0.0000000

LOEWDIN ATOMIC CHARGES
----------------------
   0 C :   -0.359905
   1 C :   -0.116916
   2 O :   -0.233531
   3 P :    0.565019
   4 S :   -0.322146
   5 O :   -0.248713
   6 C :   -0.120716
   7 C :   -0.350812
   8 S :    0.069429
   9 C :   -0.475446
  10 S :    0.083597
  11 P :    0.555056
  12 S :   -0.303394
  13 O :   -0.249112
  14 C :   -0.116574
  15 C :   -0.365942
  16 O :   -0.239047
  17 C :   -0.110623
  18 C :   -0.362149
  19 H :    0.124815
  20 H :    0.129550
  21 H :    0.126244
  22 H :    0.108812
  23 H :    0.114318
  24 H :    0.109985
  25 H :    0.109101
  26 H :    0.126153
  27 H :    0.129292
  28 H :    0.131691
  29 H :    0.134025
  30 H :    0.132042
  31 H :    0.119596
  32 H :    0.111866
  33 H :    0.128558
  34 H :    0.123392
  35 H :    0.127552
  36 H :    0.112008
  37 H :    0.122738
  38 H :    0.120735
  39 H :    0.131719
  40 H :    0.127733

  Mayer bond orders larger than 0.100000
B(  0-C ,  1-C ) :   1.1582 B(  0-C , 19-H ) :   0.9412 B(  0-C , 20-H ) :   0.9404
B(  0-C , 21-H ) :   0.9462 B(  1-C ,  2-O ) :   0.8881 B(  1-C , 22-H ) :   0.9155
B(  1-C , 23-H ) :   0.9243 B(  2-O ,  3-P ) :   1.1352 B(  3-P ,  4-S ) :   1.6351
B(  3-P ,  5-O ) :   1.0782 B(  3-P ,  8-S ) :   0.9669 B(  4-S ,  8-S ) :   0.1114
B(  5-O ,  6-C ) :   0.9043 B(  6-C ,  7-C ) :   1.1591 B(  6-C , 24-H ) :   0.9105
B(  6-C , 25-H ) :   0.9270 B(  7-C , 26-H ) :   0.9505 B(  7-C , 27-H ) :   0.9507
B(  7-C , 28-H ) :   0.9418 B(  8-S ,  9-C ) :   1.0023 B(  9-C , 10-S ) :   0.9961
B(  9-C , 29-H ) :   0.8936 B(  9-C , 30-H ) :   0.8978 B( 10-S , 11-P ) :   0.9397
B( 10-S , 12-S ) :   0.1158 B( 11-P , 12-S ) :   1.6709 B( 11-P , 13-O ) :   1.0810
B( 11-P , 16-O ) :   1.1277 B( 13-O , 14-C ) :   0.9041 B( 14-C , 15-C ) :   1.1687
B( 14-C , 31-H ) :   0.9349 B( 14-C , 32-H ) :   0.9138 B( 15-C , 33-H ) :   0.9394
B( 15-C , 34-H ) :   0.9231 B( 15-C , 35-H ) :   0.9448 B( 16-O , 17-C ) :   0.8922
B( 17-C , 18-C ) :   1.1666 B( 17-C , 36-H ) :   0.9180 B( 17-C , 37-H ) :   0.9349
B( 18-C , 38-H ) :   0.9352 B( 18-C , 39-H ) :   0.9395 B( 18-C , 40-H ) :   0.9455

Dispersion correction           -0.065078337
FINAL SINGLE POINT ENERGY     -2929.519070893052

DIPOLE MOMENT
-------------

Method             : SCF
Type of density    : Electron Density
Multiplicity       :   1
Irrep              :   0
Energy             : -2929.6378864435469040 Eh
Relativity type    :
Basis              : AO
                                X                 Y                 Z
Electronic contribution:     -5.712671208      -7.830846872       1.465396387
Nuclear contribution   :      5.504228250       8.008699617      -1.510177832
                        -----------------------------------------
Total Dipole Moment    :     -0.208442959       0.177852746      -0.044781446
                        -----------------------------------------
Magnitude (a.u.)       :      0.277642655
Magnitude (Debye)      :      0.705711546

Rotational constants in cm-1:             0.012261             0.005172             0.004460
Rotational constants in MHz :           367.568731           155.046182           133.700151

                             ****ORCA TERMINATED NORMALLY****
TOTAL RUN TIME: 0 days 0 hours 0 minutes 21 seconds 253 msec
