                         Program Version 6.0.0  -   RELEASE  -
|  1> ! pbe def2-sv(p) def2/J RI DEFGRID1 loosescf d4 GCP(DFT/SV(P)) printgap
|  2> %output
|  3>     printlevel normal
|  4> end
|  5> * xyz 0 1
|  6> C 4.9786427193 -1.2396245547 -0.9461757231
|  7> C 4.8703299637 0.2518436805 -0.7153220594
|  8> O 3.5467187354 0.7669734553 -1.0147555774
|  9> P 2.2215580493 0.3533399229 -0.2797463324
| 10> S 0.8181494608 1.7059203448 -0.5138749416
| 11> O 2.7224195646 0.142253612 1.2156124693
| 12> C 1.8083779447 -0.1500523778 2.2903959408
| 13> C 2.5596352868 0.0147253494 3.5953982996
| 14> S 1.7171254804 -1.6020897628 -0.9741828097
| 15> C -0.0558093398 -1.4219997985 -1.2300861167
| 16> S -0.9776139711 -1.2537931894 0.3358186333
| 17> P -2.397049776 0.2356003584 -0.2312861381
| 18> S -2.4343548837 0.7590278041 -2.1134830968
| 19> O -2.1717031095 1.4408000392 0.7545647576
| 20> C -2.1602962583 1.2826855098 2.1970028019
| 21> C -1.456363839 2.4877953109 2.7848717127
| 22> O -3.7745599261 -0.3444176817 0.3302298836
| 23> C -4.6336789652 -1.2110218513 -0.4306267367
| 24> C -3.9733006812 -2.5303369469 -0.7753166864
| 25> H 6.0078250202 -1.5474790538 -0.7893233063
| 26> H 4.3374968558 -1.7792405589 -0.2514136179
| 27> H 4.680205846 -1.4908973834 -1.9606648259
| 28> H 5.5113085687 0.8132016631 -1.3967148962
| 29> H 5.1078808429 0.5089942358 0.3180074445
| 30> H 0.9625112251 0.5413562206 2.2236354337
| 31> H 1.4401054716 -1.1727266396 2.1638014933
| 32> H 2.9213461357 1.034509952 3.6921729245
| 33> H 1.8910724537 -0.208739598 4.4200102604
| 34> H 3.406092606 -0.6647648703 3.625043772
| 35> H -0.3729716667 -2.3359722768 -1.7266378827
| 36> H -0.2654766607 -0.5438437326 -1.8456204521
| 37> H -3.1967339557 1.2134042182 2.5328544786
| 38> H -1.6391857009 0.350822318 2.4397609314
| 39> H -2.0128880403 3.3922148234 2.5571991949
| 40> H -1.3773922164 2.3697264603 3.8605270148
| 41> H -0.4627799923 2.5842611792 2.3530632205
| 42> H -5.4986052118 -1.3502553366 0.219516311
| 43> H -4.9320057733 -0.6829454589 -1.341383294
| 44> H -3.5715642415 -3.0003476463 0.1187967044
| 45> H -4.7067321673 -3.1874985001 -1.231354816
| 46> H -3.1646417401 -2.3617565777 -1.4855628135
| 47> *
| 48>
| 49>                          ****END OF INPUT****

CARTESIAN COORDINATES (ANGSTROEM)
---------------------------------
  C      4.978643   -1.239625   -0.946176
  C      4.870330    0.251844   -0.715322
  O      3.546719    0.766973   -1.014756
  P      2.221558    0.353340   -0.279746
  S      0.818149    1.705920   -0.513875
  O      2.722420    0.142254    1.215612
  C      1.808378   -0.150052    2.290396
  C      2.559635    0.014725    3.595398
  S      1.717125   -1.602090   -0.974183
  C     -0.055809   -1.422000   -1.230086
  S     -0.977614   -1.253793    0.335819
  P     -2.397050    0.235600   -0.231286
  S     -2.434355    0.759028   -2.113483
  O     -2.171703    1.440800    0.754565
  C     -2.160296    1.282686    2.197003
  C     -1.456364    2.487795    2.784872
  O     -3.774560   -0.344418    0.330230
  C     -4.633679   -1.211022   -0.430627
  C     -3.973301   -2.530337   -0.775317
  H      6.007825   -1.547479   -0.789323
  H      4.337497   -1.779241   -0.251414
  H      4.680206   -1.490897   -1.960665
  H      5.511309    0.813202   -1.396715
  H      5.107881    0.508994    0.318007
  H      0.962511    0.541356    2.223635
  H      1.440105   -1.172727    2.163801
  H      2.921346    1.034510    3.692173
  H      1.891072   -0.208740    4.420010
  H      3.406093   -0.664765    3.625044
  H     -0.372972   -2.335972   -1.726638
  H     -0.265477   -0.543844   -1.845620
  H     -3.196734    1.213404    2.532854
  H     -1.639186    0.350822    2.439761
  H     -2.012888    3.392215    2.557199
  H     -1.377392    2.369726    3.860527
  H     -0.462780    2.584261    2.353063
  H     -5.498605   -1.350255    0.219516
  H     -4.932006   -0.682945   -1.341383
  H     -3.571564   -3.000348    0.118797
  H     -4.706732   -3.187499   -1.231355
  H     -3.164642   -2.361757   -1.485563

 Total Charge           Charge          ....    0
 Multiplicity           Mult            ....    1
 Number of Electrons    NEL             ....  202
 Basis Dimension        Dim             ....  334

ORBITAL ENERGIES
----------------

  NO   OCC          E(Eh)            E(eV)
   0   2.0000     -88.043514     -2395.7858
   1   2.0000     -88.037898     -2395.6330
   2   2.0000     -87.981802     -2394.1066
   3   2.0000     -87.978537     -2394.0177
   4   2.0000     -76.423383     -2079.5860
   5   2.0000     -76.421464     -2079.5338
   6   2.0000     -18.792496      -511.3698
   7   2.0000     -18.792048      -511.3576
   8   2.0000     -18.785674      -511.1842
   9   2.0000     -18.784528      -511.1530
  10   2.0000      -9.959610      -271.0148
  11   2.0000      -9.955174      -270.8941
  12   2.0000      -9.954293      -270.8701
  13   2.0000      -9.951169      -270.7851
  14   2.0000      -9.949661      -270.7440
  15   2.0000      -9.893733      -269.2222
  16   2.0000      -9.891876      -269.1716
  17   2.0000      -9.884913      -268.9822
  18   2.0000      -9.882663      -268.9209
  19   2.0000      -7.688342      -209.2104
  20   2.0000      -7.682426      -209.0494
  21   2.0000      -7.627021      -207.5418
  22   2.0000      -7.623254      -207.4393
  23   2.0000      -6.420936      -174.7225
  24   2.0000      -6.418678      -174.6611
  25   2.0000      -5.716349      -155.5498
  26   2.0000      -5.712577      -155.4471
  27   2.0000      -5.710299      -155.3851
  28   2.0000      -5.707074      -155.2974
  29   2.0000      -5.705554      -155.2560
  30   2.0000      -5.699331      -155.0867
  31   2.0000      -5.656064      -153.9093
  32   2.0000      -5.652385      -153.8092
  33   2.0000      -5.647498      -153.6762
  34   2.0000      -5.647158      -153.6670
  35   2.0000      -5.643651      -153.5716
  36   2.0000      -5.643468      -153.5666
  37   2.0000      -4.643863      -126.3659
  38   2.0000      -4.642616      -126.3320
  39   2.0000      -4.641417      -126.2994
  40   2.0000      -4.641095      -126.2906
  41   2.0000      -4.640308      -126.2692
  42   2.0000      -4.639179      -126.2385
  43   2.0000      -0.989069       -26.9139
  44   2.0000      -0.982516       -26.7356
  45   2.0000      -0.944869       -25.7112
  46   2.0000      -0.937781       -25.5183
  47   2.0000      -0.758856       -20.6495
  48   2.0000      -0.720843       -19.6151
  49   2.0000      -0.712608       -19.3911
  50   2.0000      -0.696595       -18.9553
  51   2.0000      -0.686127       -18.6705
  52   2.0000      -0.675974       -18.3942
  53   2.0000      -0.647983       -17.6325
  54   2.0000      -0.631658       -17.1883
  55   2.0000      -0.594867       -16.1872
  56   2.0000      -0.586913       -15.9707
  57   2.0000      -0.575944       -15.6722
  58   2.0000      -0.569815       -15.5054
  59   2.0000      -0.561478       -15.2786
  60   2.0000      -0.507889       -13.8204
  61   2.0000      -0.501833       -13.6556
  62   2.0000      -0.476584       -12.9685
  63   2.0000      -0.468801       -12.7567
  64   2.0000      -0.451421       -12.2838
  65   2.0000      -0.448177       -12.1955
  66   2.0000      -0.446808       -12.1583
  67   2.0000      -0.434918       -11.8347
  68   2.0000      -0.431840       -11.7510
  69   2.0000      -0.423508       -11.5242
  70   2.0000      -0.413036       -11.2393
  71   2.0000      -0.397478       -10.8159
  72   2.0000      -0.390175       -10.6172
  73   2.0000      -0.387160       -10.5352
  74   2.0000      -0.381188       -10.3727
  75   2.0000      -0.368555       -10.0289
  76   2.0000      -0.360574        -9.8117
  77   2.0000      -0.359958        -9.7950
  78   2.0000      -0.354983        -9.6596
  79   2.0000      -0.353170        -9.6103
  80   2.0000      -0.348327        -9.4785
  81   2.0000      -0.346359        -9.4249
  82   2.0000      -0.343500        -9.3471
  83   2.0000      -0.338338        -9.2066
  84   2.0000      -0.332947        -9.0600
  85   2.0000      -0.314373        -8.5545
  86   2.0000      -0.311633        -8.4800
  87   2.0000      -0.304003        -8.2724
  88   2.0000      -0.297687        -8.1005
  89   2.0000      -0.293326        -7.9818
  90   2.0000      -0.290767        -7.9122
  91   2.0000      -0.275857        -7.5065
  92   2.0000      -0.267370        -7.2755
  93   2.0000      -0.260865        -7.0985
  94   2.0000      -0.253303        -6.8927
  95   2.0000      -0.235641        -6.4121
  96   2.0000      -0.215915        -5.8753
  97   2.0000      -0.209330        -5.6962
  98   2.0000      -0.198247        -5.3946
  99   2.0000      -0.191733        -5.2173
 100   2.0000      -0.185787        -5.0555
 101   0.0000      -0.041162        -1.1201
 102   0.0000      -0.032258        -0.8778
 103   0.0000      -0.012011        -0.3268
 104   0.0000       0.005800         0.1578
 105   0.0000       0.012671         0.3448

MULLIKEN ATOMIC CHARGES
-----------------------
   0 C :   -0.335552
   1 C :    0.005406
   2 O :   -0.356344
   3 P :    0.600790
   4 S :   -0.290097
   5 O :   -0.388078
   6 C :   -0.043637
   7 C :   -0.271784
   8 S :   -0.134194
   9 C :   -0.322195
  10 S :   -0.139318
  11 P :    0.617458
  12 S :   -0.292752
  13 O :   -0.353234
  14 C :   -0.018009
  15 C :   -0.296927
  16 O :   -0.389099
  17 C :    0.005999
  18 C :   -0.318154
  19 H :    0.119012
  20 H :    0.130578
  21 H :    0.131838
  22 H :    0.113767
  23 H :    0.112040
  24 H :    0.128239
  25 H :    0.106463
  26 H :    0.118998
  27 H :    0.109562
  28 H :    0.113652
  29 H :    0.179795
  30 H :    0.209157
  31 H :    0.109290
  32 H :    0.103957
  33 H :    0.121797
  34 H :    0.104408
  35 H :    0.145396
  36 H :    0.101558
  37 H :    0.110679
  38 H :    0.118366
  39 H :    0.111384
  40 H :    0.119783
Sum of atomic charges:    0.0000000

LOEWDIN ATOMIC CHARGES
----------------------
   0 C :   -0.372274
   1 C :   -0.107874
   2 O :   -0.234112
   3 P :    0.562099
   4 S :   -0.289698
   5 O :   -0.252430
   6 C :   -0.124836
   7 C :   -0.350101
   8 S :    0.068733
   9 C :   -0.479189
  10 S :    0.056616
  11 P :    0.574156
  12 S :   -0.290583
  13 O :   -0.230551
  14 C :   -0.112752
  15 C :   -0.354984
  16 O :   -0.256280
  17 C :   -0.115460
  18 C :   -0.371822
  19 H :    0.134464
  20 H :    0.117442
  21 H :    0.130186
  22 H :    0.124365
  23 H :    0.115510
  24 H :    0.108931
  25 H :    0.104023
  26 H :    0.128197
  27 H :    0.129992
  28 H :    0.125460
  29 H :    0.133139
  30 H :    0.125935
  31 H :    0.115483
  32 H :    0.099693
  33 H :    0.131442
  34 H :    0.127151
  35 H :    0.129363
  36 H :    0.117262
  37 H :    0.112154
  38 H :    0.122773
  39 H :    0.129728
  40 H :    0.118647

  Mayer bond orders larger than 0.100000
B(  0-C ,  1-C ) :   1.1697 B(  0-C , 19-H ) :   0.9351 B(  0-C , 20-H ) :   0.9307
B(  0-C , 21-H ) :   0.9420 B(  1-C ,  2-O ) :   0.8975 B(  1-C , 22-H ) :   0.9336
B(  1-C , 23-H ) :   0.9271 B(  2-O ,  3-P ) :   1.1487 B(  3-P ,  4-S ) :   1.6742
B(  3-P ,  5-O ) :   1.0607 B(  3-P ,  8-S ) :   0.9279 B(  4-S ,  8-S ) :   0.1131
B(  5-O ,  6-C ) :   0.9063 B(  6-C ,  7-C ) :   1.1570 B(  6-C , 24-H ) :   0.9037
B(  6-C , 25-H ) :   0.9201 B(  7-C , 26-H ) :   0.9498 B(  7-C , 27-H ) :   0.9421
B(  7-C , 28-H ) :   0.9506 B(  8-S ,  9-C ) :   1.0106 B(  9-C , 10-S ) :   0.9870
B(  9-C , 29-H ) :   0.9040 B(  9-C , 30-H ) :   0.8491 B( 10-S , 11-P ) :   0.9375
B( 10-S , 12-S ) :   0.1148 B( 11-P , 12-S ) :   1.6372 B( 11-P , 13-O ) :   1.1375
B( 11-P , 16-O ) :   1.0709 B( 13-O , 14-C ) :   0.8971 B( 14-C , 15-C ) :   1.1625
B( 14-C , 31-H ) :   0.9291 B( 14-C , 32-H ) :   0.9099 B( 15-C , 33-H ) :   0.9468
B( 15-C , 34-H ) :   0.9411 B( 15-C , 35-H ) :   0.9341 B( 16-O , 17-C ) :   0.9183
B( 17-C , 18-C ) :   1.1647 B( 17-C , 36-H ) :   0.9350 B( 17-C , 37-H ) :   0.9200
B( 18-C , 38-H ) :   0.9412 B( 18-C , 39-H ) :   0.9366 B( 18-C , 40-H ) :   0.9357

Dispersion correction           -0.065772518
FINAL SINGLE POINT ENERGY     -2929.513512762179

DIPOLE MOMENT
-------------

Method             : SCF
Type of density    : Electron Density
Multiplicity       :   1
Irrep              :   0
Energy             : -2929.6326291794507597 Eh
Relativity type    :
Basis              : AO
                                X                 Y                 Z
Electronic contribution:     -4.319224307       6.175394803     -16.325303147
Nuclear contribution   :      4.938678522      -7.538354936      17.922341225
                        -----------------------------------------
Total Dipole Moment    :      0.619454215      -1.362960133       1.597038078
                        -----------------------------------------
Magnitude (a.u.)       :      2.189044191
Magnitude (Debye)      :      5.564108147

Rotational constants in cm-1:             0.012349             0.005125             0.004577
Rotational constants in MHz :           370.210790           153.632677           137.227175

                             ****ORCA TERMINATED NORMALLY****
TOTAL RUN TIME: 0 days 0 hours 0 minutes 21 seconds 489 msec
