                         Program Version 6.0.0  -   RELEASE  -
|  1> ! pbe def2-sv(p) def2/J RI DEFGRID1 loosescf d4 GCP(DFT/SV(P)) printgap
|  2> %output
|  3>     printlevel normal
|  4> end
|  5> * xyz 0 1
|  6> C 2.2849182801 -1.4514417044 -3.3105489768
|  7> C 2.9288515092 -0.4538091524 -2.3685256794
|  8> O 2.6435910372 -0.8476361796 -1.0067316976
|  9> P 2.0787863578 0.1141436395 0.1098809509
| 10> S 1.184562185 1.7438965979 -0.5478137267
| 11> O 3.3892039331 0.4599619592 0.9462158305
| 12> C 3.4387447254 1.5272992853 1.9050773065
| 13> C 2.5675189075 1.2439349962 3.1124911576
| 14> S 1.1485021186 -1.3212295037 1.3345993144
| 15> C 0.07193535 -2.1461675597 0.1144561851
| 16> S -0.7655523457 -1.0567083235 -1.0661113998
| 17> P -1.9121105119 0.308919564 0.1117467143
| 18> S -1.38883014 0.8189266906 1.9263412945
| 19> O -3.3921926906 -0.2960626633 0.0495840724
| 20> C -4.0340821572 -0.9812612618 1.1327574242
| 21> C -3.400239299 -2.327828783 1.4199809676
| 22> O -2.0368015558 1.5656406846 -0.8244659371
| 23> C -2.0385567889 1.6106900923 -2.2690350358
| 24> C -3.1428765291 0.7743093434 -2.8780388304
| 25> H 2.5233010347 -1.1768119858 -4.332792933
| 26> H 2.6628520267 -2.4495573911 -3.1096674853
| 27> H 1.2048674732 -1.4479813339 -3.1806708659
| 28> H 2.5431323273 0.5583659356 -2.5310635803
| 29> H 4.0156699043 -0.4479658059 -2.4692511013
| 30> H 4.4938442077 1.5909455009 2.1744184758
| 31> H 3.1232892085 2.4528186849 1.4114342827
| 32> H 2.8226811614 0.2799893861 3.5460632333
| 33> H 2.7098852799 2.0234466291 3.854004428
| 34> H 1.5149947716 1.22769555 2.8239772838
| 35> H -0.6507914828 -2.7173419507 0.692219149
| 36> H 0.6796533889 -2.8032826397 -0.5051181346
| 37> H -3.9955801842 -0.3440690375 2.021826427
| 38> H -5.0662107369 -1.0857446526 0.7951368685
| 39> H -2.4157957143 -2.1782490766 1.862591192
| 40> H -4.0174417463 -2.8715743329 2.1280620481
| 41> H -3.3112662596 -2.9056766867 0.5031401345
| 42> H -2.1693824138 2.6732442681 -2.4806274517
| 43> H -1.0526823831 1.2935289112 -2.619919603
| 44> H -4.1059169482 1.0782745488 -2.4762603205
| 45> H -3.1391615876 0.9158418865 -3.9542456485
| 46> H -2.9850542986 -0.2793240701 -2.6569918796
| 47> *
| 48>
| 49>                          ****END OF INPUT****

CARTESIAN COORDINATES (ANGSTROEM)
---------------------------------
  C      2.284918   -1.451442   -3.310549
  C      2.928852   -0.453809   -2.368526
  O      2.643591   -0.847636   -1.006732
  P      2.078786    0.114144    0.109881
  S      1.184562    1.743897   -0.547814
  O      3.389204    0.459962    0.946216
  C      3.438745    1.527299    1.905077
  C      2.567519    1.243935    3.112491
  S      1.148502   -1.321230    1.334599
  C      0.071935   -2.146168    0.114456
  S     -0.765552   -1.056708   -1.066111
  P     -1.912111    0.308920    0.111747
  S     -1.388830    0.818927    1.926341
  O     -3.392193   -0.296063    0.049584
  C     -4.034082   -0.981261    1.132757
  C     -3.400239   -2.327829    1.419981
  O     -2.036802    1.565641   -0.824466
  C     -2.038557    1.610690   -2.269035
  C     -3.142877    0.774309   -2.878039
  H      2.523301   -1.176812   -4.332793
  H      2.662852   -2.449557   -3.109667
  H      1.204867   -1.447981   -3.180671
  H      2.543132    0.558366   -2.531064
  H      4.015670   -0.447966   -2.469251
  H      4.493844    1.590946    2.174418
  H      3.123289    2.452819    1.411434
  H      2.822681    0.279989    3.546063
  H      2.709885    2.023447    3.854004
  H      1.514995    1.227696    2.823977
  H     -0.650791   -2.717342    0.692219
  H      0.679653   -2.803283   -0.505118
  H     -3.995580   -0.344069    2.021826
  H     -5.066211   -1.085745    0.795137
  H     -2.415796   -2.178249    1.862591
  H     -4.017442   -2.871574    2.128062
  H     -3.311266   -2.905677    0.503140
  H     -2.169382    2.673244   -2.480627
  H     -1.052682    1.293529   -2.619920
  H     -4.105917    1.078275   -2.476260
  H     -3.139162    0.915842   -3.954246
  H     -2.985054   -0.279324   -2.656992

 Total Charge           Charge          ....    0
 Multiplicity           Mult            ....    1
 Number of Electrons    NEL             ....  202
 Basis Dimension        Dim             ....  334

ORBITAL ENERGIES
----------------

  NO   OCC          E(Eh)            E(eV)
   0   2.0000     -88.045635     -2395.8435
   1   2.0000     -88.037739     -2395.6287
   2   2.0000     -87.978393     -2394.0138
   3   2.0000     -87.977479     -2393.9889
   4   2.0000     -76.422908     -2079.5731
   5   2.0000     -76.421051     -2079.5225
   6   2.0000     -18.787161      -511.2246
   7   2.0000     -18.785141      -511.1697
   8   2.0000     -18.781602      -511.0734
   9   2.0000     -18.780093      -511.0323
  10   2.0000      -9.964183      -271.1392
  11   2.0000      -9.951926      -270.8057
  12   2.0000      -9.949543      -270.7408
  13   2.0000      -9.948821      -270.7212
  14   2.0000      -9.943265      -270.5700
  15   2.0000      -9.887317      -269.0476
  16   2.0000      -9.887227      -269.0451
  17   2.0000      -9.885171      -268.9892
  18   2.0000      -9.875043      -268.7136
  19   2.0000      -7.689698      -209.2473
  20   2.0000      -7.683034      -209.0660
  21   2.0000      -7.622968      -207.4315
  22   2.0000      -7.622404      -207.4162
  23   2.0000      -6.419533      -174.6844
  24   2.0000      -6.418333      -174.6517
  25   2.0000      -5.717738      -155.5876
  26   2.0000      -5.714180      -155.4907
  27   2.0000      -5.711279      -155.4118
  28   2.0000      -5.707586      -155.3113
  29   2.0000      -5.706615      -155.2849
  30   2.0000      -5.699500      -155.0913
  31   2.0000      -5.651840      -153.7944
  32   2.0000      -5.651598      -153.7878
  33   2.0000      -5.643665      -153.5719
  34   2.0000      -5.643133      -153.5575
  35   2.0000      -5.643054      -153.5553
  36   2.0000      -5.642245      -153.5333
  37   2.0000      -4.642232      -126.3216
  38   2.0000      -4.641346      -126.2974
  39   2.0000      -4.640998      -126.2880
  40   2.0000      -4.640237      -126.2673
  41   2.0000      -4.640004      -126.2609
  42   2.0000      -4.638595      -126.2226
  43   2.0000      -0.979958       -26.6660
  44   2.0000      -0.978657       -26.6306
  45   2.0000      -0.939881       -25.5755
  46   2.0000      -0.937151       -25.5012
  47   2.0000      -0.762509       -20.7489
  48   2.0000      -0.717123       -19.5139
  49   2.0000      -0.709311       -19.3013
  50   2.0000      -0.688325       -18.7303
  51   2.0000      -0.680525       -18.5180
  52   2.0000      -0.671043       -18.2600
  53   2.0000      -0.649264       -17.6674
  54   2.0000      -0.634539       -17.2667
  55   2.0000      -0.596280       -16.2256
  56   2.0000      -0.588870       -16.0240
  57   2.0000      -0.573455       -15.6045
  58   2.0000      -0.567855       -15.4521
  59   2.0000      -0.566036       -15.4026
  60   2.0000      -0.498159       -13.5556
  61   2.0000      -0.490310       -13.3420
  62   2.0000      -0.468440       -12.7469
  63   2.0000      -0.465891       -12.6776
  64   2.0000      -0.458533       -12.4773
  65   2.0000      -0.440033       -11.9739
  66   2.0000      -0.436337       -11.8733
  67   2.0000      -0.432785       -11.7767
  68   2.0000      -0.426218       -11.5980
  69   2.0000      -0.414445       -11.2776
  70   2.0000      -0.411777       -11.2050
  71   2.0000      -0.395043       -10.7497
  72   2.0000      -0.388913       -10.5829
  73   2.0000      -0.387898       -10.5552
  74   2.0000      -0.382207       -10.4004
  75   2.0000      -0.374302       -10.1853
  76   2.0000      -0.363914        -9.9026
  77   2.0000      -0.358350        -9.7512
  78   2.0000      -0.353259        -9.6127
  79   2.0000      -0.349927        -9.5220
  80   2.0000      -0.347010        -9.4426
  81   2.0000      -0.344149        -9.3648
  82   2.0000      -0.340878        -9.2757
  83   2.0000      -0.337274        -9.1777
  84   2.0000      -0.329202        -8.9580
  85   2.0000      -0.316659        -8.6167
  86   2.0000      -0.304474        -8.2852
  87   2.0000      -0.291127        -7.9220
  88   2.0000      -0.289130        -7.8676
  89   2.0000      -0.285760        -7.7759
  90   2.0000      -0.278408        -7.5759
  91   2.0000      -0.272849        -7.4246
  92   2.0000      -0.266566        -7.2536
  93   2.0000      -0.257335        -7.0024
  94   2.0000      -0.254753        -6.9322
  95   2.0000      -0.240969        -6.5571
  96   2.0000      -0.221518        -6.0278
  97   2.0000      -0.205487        -5.5916
  98   2.0000      -0.186686        -5.0800
  99   2.0000      -0.183377        -4.9900
 100   2.0000      -0.181523        -4.9395
 101   0.0000      -0.052982        -1.4417
 102   0.0000      -0.032392        -0.8814
 103   0.0000      -0.012080        -0.3287
 104   0.0000      -0.002296        -0.0625
 105   0.0000       0.017959         0.4887

MULLIKEN ATOMIC CHARGES
-----------------------
   0 C :   -0.304354
   1 C :    0.000156
   2 O :   -0.374692
   3 P :    0.610023
   4 S :   -0.318088
   5 O :   -0.368766
   6 C :    0.002035
   7 C :   -0.346011
   8 S :   -0.083375
   9 C :   -0.311355
  10 S :   -0.150711
  11 P :    0.623436
  12 S :   -0.288083
  13 O :   -0.378730
  14 C :    0.006122
  15 C :   -0.333591
  16 O :   -0.353478
  17 C :   -0.012870
  18 C :   -0.309730
  19 H :    0.110692
  20 H :    0.113943
  21 H :    0.126241
  22 H :    0.106694
  23 H :    0.105227
  24 H :    0.101346
  25 H :    0.110618
  26 H :    0.116747
  27 H :    0.112606
  28 H :    0.155446
  29 H :    0.184768
  30 H :    0.186484
  31 H :    0.112630
  32 H :    0.101572
  33 H :    0.126544
  34 H :    0.113478
  35 H :    0.117513
  36 H :    0.112096
  37 H :    0.120372
  38 H :    0.121544
  39 H :    0.111563
  40 H :    0.123940
Sum of atomic charges:    0.0000000

LOEWDIN ATOMIC CHARGES
----------------------
   0 C :   -0.358768
   1 C :   -0.116273
   2 O :   -0.245266
   3 P :    0.564908
   4 S :   -0.307416
   5 O :   -0.246616
   6 C :   -0.120978
   7 C :   -0.375083
   8 S :    0.097445
   9 C :   -0.466138
  10 S :    0.075065
  11 P :    0.567130
  12 S :   -0.294964
  13 O :   -0.254277
  14 C :   -0.118913
  15 C :   -0.370996
  16 O :   -0.224931
  17 C :   -0.116290
  18 C :   -0.368044
  19 H :    0.130407
  20 H :    0.124200
  21 H :    0.119163
  22 H :    0.105560
  23 H :    0.116524
  24 H :    0.116836
  25 H :    0.109501
  26 H :    0.122846
  27 H :    0.131592
  28 H :    0.125440
  29 H :    0.130344
  30 H :    0.136400
  31 H :    0.111057
  32 H :    0.117828
  33 H :    0.118400
  34 H :    0.131966
  35 H :    0.123340
  36 H :    0.124435
  37 H :    0.107500
  38 H :    0.129235
  39 H :    0.130462
  40 H :    0.117369

  Mayer bond orders larger than 0.100000
B(  0-C ,  1-C ) :   1.1636 B(  0-C , 19-H ) :   0.9408 B(  0-C , 20-H ) :   0.9494
B(  0-C , 21-H ) :   0.9402 B(  1-C ,  2-O ) :   0.8971 B(  1-C , 22-H ) :   0.8991
B(  1-C , 23-H ) :   0.9339 B(  2-O ,  3-P ) :   1.1171 B(  3-P ,  4-S ) :   1.5935
B(  3-P ,  5-O ) :   1.1158 B(  3-P ,  8-S ) :   0.9780 B(  4-S ,  8-S ) :   0.1143
B(  5-O ,  6-C ) :   0.9111 B(  6-C ,  7-C ) :   1.1632 B(  6-C , 24-H ) :   0.9331
B(  6-C , 25-H ) :   0.9129 B(  7-C , 26-H ) :   0.9434 B(  7-C , 27-H ) :   0.9377
B(  7-C , 28-H ) :   0.9246 B(  8-S ,  9-C ) :   0.9949 B(  9-C , 10-S ) :   1.0167
B(  9-C , 29-H ) :   0.8952 B(  9-C , 30-H ) :   0.9049 B( 10-S , 11-P ) :   0.9082
B( 10-S , 12-S ) :   0.1137 B( 11-P , 12-S ) :   1.6463 B( 11-P , 13-O ) :   1.0636
B( 11-P , 16-O ) :   1.1522 B( 13-O , 14-C ) :   0.9243 B( 14-C , 15-C ) :   1.1589
B( 14-C , 31-H ) :   0.9142 B( 14-C , 32-H ) :   0.9332 B( 15-C , 33-H ) :   0.9196
B( 15-C , 34-H ) :   0.9358 B( 15-C , 35-H ) :   0.9436 B( 16-O , 17-C ) :   0.9009
B( 17-C , 18-C ) :   1.1653 B( 17-C , 36-H ) :   0.9340 B( 17-C , 37-H ) :   0.9150
B( 18-C , 38-H ) :   0.9429 B( 18-C , 39-H ) :   0.9365 B( 18-C , 40-H ) :   0.9363

Dispersion correction           -0.069774816
FINAL SINGLE POINT ENERGY     -2929.506196244329

DIPOLE MOMENT
-------------

Method             : SCF
Type of density    : Electron Density
Multiplicity       :   1
Irrep              :   0
Energy             : -2929.6205791489928743 Eh
Relativity type    :
Basis              : AO
                                X                 Y                 Z
Electronic contribution:      4.324553823       5.535257417       7.306156418
Nuclear contribution   :     -4.474924495      -6.574831182      -8.236039231
                        -----------------------------------------
Total Dipole Moment    :     -0.150370672      -1.039573765      -0.929882813
                        -----------------------------------------
Magnitude (a.u.)       :      1.402856727
Magnitude (Debye)      :      3.565778423

Rotational constants in cm-1:             0.010864             0.006375             0.005550
Rotational constants in MHz :           325.709456           191.104651           166.371810

                             ****ORCA TERMINATED NORMALLY****
TOTAL RUN TIME: 0 days 0 hours 0 minutes 21 seconds 909 msec
