                         Program Version 6.0.0  -   RELEASE  -
|  1> ! pbe def2-sv(p) def2/J RI DEFGRID1 loosescf d4 GCP(DFT/SV(P)) printgap
|  2> %output
|  3>     printlevel normal
|  4> end
|  5> * xyz 0 1
|  6> C 4.1682171787 0.7936411046 -1.8762611529
|  7> C 4.3007253822 -0.0741076162 -0.6399722503
|  8> O 3.3444110211 0.3187606541 0.3746635101
|  9> P 2.0606124913 -0.5492966131 0.738402529
| 10> S 1.2468190888 0.1072847958 2.3858141725
| 11> O 2.496986809 -2.0828315605 0.7412255241
| 12> C 2.8579361356 -2.7585779181 1.9628048753
| 13> C 4.2316245084 -2.3356294733 2.4436964966
| 14> S 0.9166819752 -0.658922515 -1.0424845127
| 15> C 0.5347906455 1.1147659021 -1.1677970904
| 16> S -0.7836891593 1.6678994621 -0.0519780086
| 17> P -2.2962060977 0.3590102949 -0.7918571198
| 18> S -2.2569132898 -0.0180717977 -2.7066905281
| 19> O -3.6421775034 1.0042925571 -0.2440646179
| 20> C -4.3758014882 2.0001697681 -0.9817535763
| 21> C -3.6129956322 3.3021536422 -1.11291696
| 22> O -2.1652102274 -0.9575219027 0.0698774974
| 23> C -2.1871734106 -1.0038787096 1.5155690956
| 24> C -3.58890092 -1.2454286414 2.0343210223
| 25> H 4.9913065921 0.5729507919 -2.5487584919
| 26> H 3.2322107813 0.5929433388 -2.3919062389
| 27> H 4.2079821849 1.8442858049 -1.6013927652
| 28> H 5.2747270647 0.0646611537 -0.1672506772
| 29> H 4.1524904111 -1.1296977418 -0.8816504501
| 30> H 2.1012986851 -2.5364993412 2.7219370109
| 31> H 2.8247329323 -3.8170461684 1.7013146301
| 32> H 4.2262736219 -1.2711669894 2.6771920879
| 33> H 4.484336888 -2.8913846531 3.3411614545
| 34> H 4.9792514857 -2.5291726493 1.6788827564
| 35> H 0.2185404447 1.2785463853 -2.1974503151
| 36> H 1.4131874411 1.7070974652 -0.9186357011
| 37> H -4.6100808509 1.5906622395 -1.9690267574
| 38> H -5.29259962 2.1270180916 -0.4042698346
| 39> H -2.7477916495 3.1632945985 -1.7591061886
| 40> H -4.2620280796 4.0533396625 -1.551349738
| 41> H -3.2724372918 3.6425388842 -0.1380467472
| 42> H -1.5202684847 -1.83141452 1.7686115534
| 43> H -1.7693442273 -0.0740636031 1.9139351699
| 44> H -3.5481265409 -1.3635887201 3.1126298325
| 45> H -4.2320474709 -0.4049266694 1.7888947988
| 46> H -3.9994785815 -2.1467801124 1.5873050936
| 47> *
| 48>
| 49>                          ****END OF INPUT****

CARTESIAN COORDINATES (ANGSTROEM)
---------------------------------
  C      4.168217    0.793641   -1.876261
  C      4.300725   -0.074108   -0.639972
  O      3.344411    0.318761    0.374664
  P      2.060612   -0.549297    0.738403
  S      1.246819    0.107285    2.385814
  O      2.496987   -2.082832    0.741226
  C      2.857936   -2.758578    1.962805
  C      4.231625   -2.335629    2.443696
  S      0.916682   -0.658923   -1.042485
  C      0.534791    1.114766   -1.167797
  S     -0.783689    1.667899   -0.051978
  P     -2.296206    0.359010   -0.791857
  S     -2.256913   -0.018072   -2.706691
  O     -3.642178    1.004293   -0.244065
  C     -4.375801    2.000170   -0.981754
  C     -3.612996    3.302154   -1.112917
  O     -2.165210   -0.957522    0.069877
  C     -2.187173   -1.003879    1.515569
  C     -3.588901   -1.245429    2.034321
  H      4.991307    0.572951   -2.548758
  H      3.232211    0.592943   -2.391906
  H      4.207982    1.844286   -1.601393
  H      5.274727    0.064661   -0.167251
  H      4.152490   -1.129698   -0.881650
  H      2.101299   -2.536499    2.721937
  H      2.824733   -3.817046    1.701315
  H      4.226274   -1.271167    2.677192
  H      4.484337   -2.891385    3.341161
  H      4.979251   -2.529173    1.678883
  H      0.218540    1.278546   -2.197450
  H      1.413187    1.707097   -0.918636
  H     -4.610081    1.590662   -1.969027
  H     -5.292600    2.127018   -0.404270
  H     -2.747792    3.163295   -1.759106
  H     -4.262028    4.053340   -1.551350
  H     -3.272437    3.642539   -0.138047
  H     -1.520268   -1.831415    1.768612
  H     -1.769344   -0.074064    1.913935
  H     -3.548127   -1.363589    3.112630
  H     -4.232047   -0.404927    1.788895
  H     -3.999479   -2.146780    1.587305

 Total Charge           Charge          ....    0
 Multiplicity           Mult            ....    1
 Number of Electrons    NEL             ....  202
 Basis Dimension        Dim             ....  334

ORBITAL ENERGIES
----------------

  NO   OCC          E(Eh)            E(eV)
   0   2.0000     -88.042207     -2395.7502
   1   2.0000     -88.036445     -2395.5935
   2   2.0000     -87.986848     -2394.2439
   3   2.0000     -87.982304     -2394.1202
   4   2.0000     -76.425869     -2079.6536
   5   2.0000     -76.421932     -2079.5465
   6   2.0000     -18.796355      -511.4748
   7   2.0000     -18.795762      -511.4587
   8   2.0000     -18.791567      -511.3445
   9   2.0000     -18.782017      -511.0847
  10   2.0000      -9.960801      -271.0472
  11   2.0000      -9.956580      -270.9323
  12   2.0000      -9.956015      -270.9170
  13   2.0000      -9.951587      -270.7965
  14   2.0000      -9.942051      -270.5370
  15   2.0000      -9.892806      -269.1969
  16   2.0000      -9.890275      -269.1281
  17   2.0000      -9.882298      -268.9110
  18   2.0000      -9.876918      -268.7646
  19   2.0000      -7.686934      -209.1721
  20   2.0000      -7.681363      -209.0205
  21   2.0000      -7.632005      -207.6774
  22   2.0000      -7.627651      -207.5589
  23   2.0000      -6.423866      -174.8023
  24   2.0000      -6.419237      -174.6763
  25   2.0000      -5.714668      -155.5040
  26   2.0000      -5.711721      -155.4238
  27   2.0000      -5.709165      -155.3543
  28   2.0000      -5.705985      -155.2677
  29   2.0000      -5.703806      -155.2085
  30   2.0000      -5.698295      -155.0585
  31   2.0000      -5.661014      -154.0440
  32   2.0000      -5.656561      -153.9229
  33   2.0000      -5.652681      -153.8173
  34   2.0000      -5.651971      -153.7980
  35   2.0000      -5.648203      -153.6954
  36   2.0000      -5.647846      -153.6857
  37   2.0000      -4.647078      -126.4534
  38   2.0000      -4.645291      -126.4048
  39   2.0000      -4.644039      -126.3707
  40   2.0000      -4.642129      -126.3187
  41   2.0000      -4.640920      -126.2859
  42   2.0000      -4.639548      -126.2485
  43   2.0000      -0.988484       -26.8980
  44   2.0000      -0.982485       -26.7348
  45   2.0000      -0.948394       -25.8071
  46   2.0000      -0.939251       -25.5583
  47   2.0000      -0.762086       -20.7374
  48   2.0000      -0.721564       -19.6348
  49   2.0000      -0.707562       -19.2538
  50   2.0000      -0.696685       -18.9578
  51   2.0000      -0.685400       -18.6507
  52   2.0000      -0.672153       -18.2902
  53   2.0000      -0.650525       -17.7017
  54   2.0000      -0.637790       -17.3551
  55   2.0000      -0.597413       -16.2564
  56   2.0000      -0.588692       -16.0191
  57   2.0000      -0.581534       -15.8243
  58   2.0000      -0.567412       -15.4401
  59   2.0000      -0.559977       -15.2377
  60   2.0000      -0.505229       -13.7480
  61   2.0000      -0.492361       -13.3978
  62   2.0000      -0.483357       -13.1528
  63   2.0000      -0.469174       -12.7669
  64   2.0000      -0.459932       -12.5154
  65   2.0000      -0.446102       -12.1390
  66   2.0000      -0.442268       -12.0347
  67   2.0000      -0.436668       -11.8824
  68   2.0000      -0.423278       -11.5180
  69   2.0000      -0.418566       -11.3897
  70   2.0000      -0.406828       -11.0704
  71   2.0000      -0.396460       -10.7882
  72   2.0000      -0.386343       -10.5129
  73   2.0000      -0.381525       -10.3818
  74   2.0000      -0.376751       -10.2519
  75   2.0000      -0.376031       -10.2323
  76   2.0000      -0.366700        -9.9784
  77   2.0000      -0.363235        -9.8841
  78   2.0000      -0.358044        -9.7429
  79   2.0000      -0.351759        -9.5718
  80   2.0000      -0.350202        -9.5295
  81   2.0000      -0.346530        -9.4296
  82   2.0000      -0.342619        -9.3231
  83   2.0000      -0.340262        -9.2590
  84   2.0000      -0.331417        -9.0183
  85   2.0000      -0.322757        -8.7827
  86   2.0000      -0.314828        -8.5669
  87   2.0000      -0.309954        -8.4343
  88   2.0000      -0.291989        -7.9454
  89   2.0000      -0.285639        -7.7726
  90   2.0000      -0.284121        -7.7313
  91   2.0000      -0.273015        -7.4291
  92   2.0000      -0.271443        -7.3864
  93   2.0000      -0.263223        -7.1627
  94   2.0000      -0.257538        -7.0080
  95   2.0000      -0.236994        -6.4489
  96   2.0000      -0.215115        -5.8536
  97   2.0000      -0.209111        -5.6902
  98   2.0000      -0.202524        -5.5110
  99   2.0000      -0.200110        -5.4453
 100   2.0000      -0.190252        -5.1770
 101   0.0000      -0.041650        -1.1334
 102   0.0000      -0.024950        -0.6789
 103   0.0000       0.000558         0.0152
 104   0.0000       0.006184         0.1683
 105   0.0000       0.016708         0.4546

MULLIKEN ATOMIC CHARGES
-----------------------
   0 C :   -0.298008
   1 C :   -0.024996
   2 O :   -0.375551
   3 P :    0.610723
   4 S :   -0.308526
   5 O :   -0.391209
   6 C :   -0.008325
   7 C :   -0.315592
   8 S :   -0.058437
   9 C :   -0.374183
  10 S :   -0.075076
  11 P :    0.606263
  12 S :   -0.324315
  13 O :   -0.380618
  14 C :   -0.000614
  15 C :   -0.316338
  16 O :   -0.349474
  17 C :   -0.018507
  18 C :   -0.288795
  19 H :    0.114292
  20 H :    0.127904
  21 H :    0.121703
  22 H :    0.110706
  23 H :    0.112292
  24 H :    0.114372
  25 H :    0.108049
  26 H :    0.130661
  27 H :    0.116068
  28 H :    0.113661
  29 H :    0.193709
  30 H :    0.186835
  31 H :    0.113345
  32 H :    0.104527
  33 H :    0.126097
  34 H :    0.112668
  35 H :    0.118686
  36 H :    0.105032
  37 H :    0.120217
  38 H :    0.108110
  39 H :    0.118210
  40 H :    0.114436
Sum of atomic charges:   -0.0000000

LOEWDIN ATOMIC CHARGES
----------------------
   0 C :   -0.361228
   1 C :   -0.118349
   2 O :   -0.250855
   3 P :    0.563611
   4 S :   -0.301773
   5 O :   -0.254353
   6 C :   -0.118752
   7 C :   -0.365054
   8 S :    0.101896
   9 C :   -0.482869
  10 S :    0.085345
  11 P :    0.570538
  12 S :   -0.319256
  13 O :   -0.246887
  14 C :   -0.116594
  15 C :   -0.371218
  16 O :   -0.231402
  17 C :   -0.117777
  18 C :   -0.361275
  19 H :    0.132535
  20 H :    0.122829
  21 H :    0.127789
  22 H :    0.120064
  23 H :    0.111146
  24 H :    0.110297
  25 H :    0.119703
  26 H :    0.126502
  27 H :    0.132763
  28 H :    0.122975
  29 H :    0.131442
  30 H :    0.130735
  31 H :    0.112963
  32 H :    0.118154
  33 H :    0.120608
  34 H :    0.130852
  35 H :    0.123873
  36 H :    0.117098
  37 H :    0.105417
  38 H :    0.128730
  39 H :    0.123669
  40 H :    0.126106

  Mayer bond orders larger than 0.100000
B(  0-C ,  1-C ) :   1.1711 B(  0-C , 19-H ) :   0.9389 B(  0-C , 20-H ) :   0.9333
B(  0-C , 21-H ) :   0.9435 B(  1-C ,  2-O ) :   0.9039 B(  1-C , 22-H ) :   0.9335
B(  1-C , 23-H ) :   0.9124 B(  2-O ,  3-P ) :   1.0858 B(  3-P ,  4-S ) :   1.6545
B(  3-P ,  5-O ) :   1.0817 B(  3-P ,  8-S ) :   0.9624 B(  4-S ,  8-S ) :   0.1088
B(  5-O ,  6-C ) :   0.9045 B(  6-C ,  7-C ) :   1.1613 B(  6-C , 24-H ) :   0.9117
B(  6-C , 25-H ) :   0.9340 B(  7-C , 26-H ) :   0.9361 B(  7-C , 27-H ) :   0.9393
B(  7-C , 28-H ) :   0.9464 B(  8-S ,  9-C ) :   0.9886 B(  9-C , 10-S ) :   1.0078
B(  9-C , 29-H ) :   0.8866 B(  9-C , 30-H ) :   0.8904 B( 10-S , 11-P ) :   0.9558
B( 10-S , 12-S ) :   0.1088 B( 11-P , 12-S ) :   1.6189 B( 11-P , 13-O ) :   1.0852
B( 11-P , 16-O ) :   1.1461 B( 13-O , 14-C ) :   0.9063 B( 14-C , 15-C ) :   1.1660
B( 14-C , 31-H ) :   0.9184 B( 14-C , 32-H ) :   0.9342 B( 15-C , 33-H ) :   0.9347
B( 15-C , 34-H ) :   0.9369 B( 15-C , 35-H ) :   0.9434 B( 16-O , 17-C ) :   0.8918
B( 17-C , 18-C ) :   1.1581 B( 17-C , 36-H ) :   0.9345 B( 17-C , 37-H ) :   0.9106
B( 18-C , 38-H ) :   0.9407 B( 18-C , 39-H ) :   0.9414 B( 18-C , 40-H ) :   0.9468

Dispersion correction           -0.065583125
FINAL SINGLE POINT ENERGY     -2929.520703977010

DIPOLE MOMENT
-------------

Method             : SCF
Type of density    : Electron Density
Multiplicity       :   1
Irrep              :   0
Energy             : -2929.6398590305984726 Eh
Relativity type    :
Basis              : AO
                                X                 Y                 Z
Electronic contribution:     -5.719454871      -0.673582734      -5.135685075
Nuclear contribution   :      6.664877943       0.714727120       5.509382249
                        -----------------------------------------
Total Dipole Moment    :      0.945423072       0.041144386       0.373697173
                        -----------------------------------------
Magnitude (a.u.)       :      1.017431680
Magnitude (Debye)      :      2.586105808

Rotational constants in cm-1:             0.013196             0.004846             0.004239
Rotational constants in MHz :           395.612176           145.291351           127.082403

                             ****ORCA TERMINATED NORMALLY****
TOTAL RUN TIME: 0 days 0 hours 0 minutes 21 seconds 39 msec
