                         Program Version 6.0.0  -   RELEASE  -
|  1> ! r2scan-3c def2/J RI DEFGRID2 scfconv6 printgap
|  2> %output
|  3>     printlevel normal
|  4> end
|  5> * xyz 0 1
|  6> C 0.7548931884 -1.25678002 -0.4719742474
|  7> C 0.0036292179 0.0001548461 -0.0180137823
|  8> C -1.4149241546 0.0051933003 -0.5907176636
|  9> C 0.7610309818 1.2562215245 -0.4643636373
| 10> O -0.1473328484 -0.0039237844 1.4007225685
| 11> H 0.242850113 -2.1446720828 -0.1089048954
| 12> H 0.7985791903 -1.2949895545 -1.5562001693
| 13> H 1.7710057294 -1.2570740201 -0.0828132285
| 14> H -1.9514488834 -0.8750364834 -0.2466181413
| 15> H -1.385372841 0.0070221784 -1.6755386954
| 16> H -1.9467438036 0.8870087125 -0.2434762285
| 17> H 0.8004597775 1.3029981224 -1.5484680118
| 18> H 0.2558677867 2.1441337388 -0.0916934197
| 19> H 1.7788015641 1.2470696244 -0.0798748112
| 20> H 0.7278947236 -0.0112506202 1.8106368208
| 21> *
| 22>
| 23>                          ****END OF INPUT****

CARTESIAN COORDINATES (ANGSTROEM)
---------------------------------
  C      0.754893   -1.256780   -0.471974
  C      0.003629    0.000155   -0.018014
  C     -1.414924    0.005193   -0.590718
  C      0.761031    1.256222   -0.464364
  O     -0.147333   -0.003924    1.400723
  H      0.242850   -2.144672   -0.108905
  H      0.798579   -1.294990   -1.556200
  H      1.771006   -1.257074   -0.082813
  H     -1.951449   -0.875036   -0.246618
  H     -1.385373    0.007022   -1.675539
  H     -1.946744    0.887009   -0.243476
  H      0.800460    1.302998   -1.548468
  H      0.255868    2.144134   -0.091693
  H      1.778802    1.247070   -0.079875
  H      0.727895   -0.011251    1.810637

 Total Charge           Charge          ....    0
 Multiplicity           Mult            ....    1
 Number of Electrons    NEL             ....   42
 Basis Dimension        Dim             ....  150

ORBITAL ENERGIES
----------------

  NO   OCC          E(Eh)            E(eV)
   0   2.0000     -18.941491      -515.4242
   1   2.0000     -10.088955      -274.5344
   2   2.0000     -10.017754      -272.5970
   3   2.0000     -10.017671      -272.5947
   4   2.0000     -10.014234      -272.5012
   5   2.0000      -0.980931       -26.6925
   6   2.0000      -0.754469       -20.5302
   7   2.0000      -0.657696       -17.8968
   8   2.0000      -0.657234       -17.8842
   9   2.0000      -0.537916       -14.6374
  10   2.0000      -0.456746       -12.4287
  11   2.0000      -0.420491       -11.4421
  12   2.0000      -0.415681       -11.3113
  13   2.0000      -0.379955       -10.3391
  14   2.0000      -0.367282        -9.9943
  15   2.0000      -0.352073        -9.5804
  16   2.0000      -0.335353        -9.1254
  17   2.0000      -0.323517        -8.8033
  18   2.0000      -0.315622        -8.5885
  19   2.0000      -0.284042        -7.7292
  20   2.0000      -0.233122        -6.3436
  21   0.0000       0.060735         1.6527
  22   0.0000       0.108813         2.9609
  23   0.0000       0.125838         3.4242
  24   0.0000       0.138202         3.7607
  25   0.0000       0.138997         3.7823

MULLIKEN ATOMIC CHARGES
-----------------------
   0 C :   -0.447593
   1 C :    0.131645
   2 C :   -0.457350
   3 C :   -0.447278
   4 O :   -0.402754
   5 H :    0.160969
   6 H :    0.146227
   7 H :    0.137426
   8 H :    0.153859
   9 H :    0.142990
  10 H :    0.153728
  11 H :    0.146172
  12 H :    0.161094
  13 H :    0.137414
  14 H :    0.283450
Sum of atomic charges:    0.0000000

LOEWDIN ATOMIC CHARGES
----------------------
   0 C :   -0.391531
   1 C :    0.046392
   2 C :   -0.373376
   3 C :   -0.391575
   4 O :   -0.602197
   5 H :    0.164192
   6 H :    0.159072
   7 H :    0.154334
   8 H :    0.164891
   9 H :    0.157547
  10 H :    0.164855
  11 H :    0.159047
  12 H :    0.164255
  13 H :    0.154343
  14 H :    0.269751

  Mayer bond orders larger than 0.100000
B(  0-C ,  1-C ) :   0.9497 B(  0-C ,  5-H ) :   0.9733 B(  0-C ,  6-H ) :   0.9730
B(  0-C ,  7-H ) :   0.9644 B(  1-C ,  2-C ) :   0.9443 B(  1-C ,  3-C ) :   0.9493
B(  1-C ,  4-O ) :   0.8659 B(  2-C ,  8-H ) :   0.9689 B(  2-C ,  9-H ) :   0.9766
B(  2-C , 10-H ) :   0.9688 B(  3-C , 11-H ) :   0.9730 B(  3-C , 12-H ) :   0.9734
B(  3-C , 13-H ) :   0.9643 B(  4-O , 14-H ) :   0.9027

Dispersion correction           -0.003326447
FINAL SINGLE POINT ENERGY      -233.610643860286

DIPOLE MOMENT
-------------

Method             : SCF
Type of density    : Electron Density
Multiplicity       :   1
Irrep              :   0
Energy             :  -233.6154944824509414 Eh
Relativity type    :
Basis              : AO
                                X                 Y                 Z
Electronic contribution:     -0.532587344      -0.007369055       3.232579519
Nuclear contribution   :      1.022190380       0.004829107      -3.565734215
                        -----------------------------------------
Total Dipole Moment    :      0.489603036      -0.002539947      -0.333154696
                        -----------------------------------------
Magnitude (a.u.)       :      0.592207426
Magnitude (Debye)      :      1.505271651

Rotational constants in cm-1:             0.157074             0.155966             0.151310
Rotational constants in MHz :          4708.969597          4675.730695          4536.155059

                             ****ORCA TERMINATED NORMALLY****
TOTAL RUN TIME: 0 days 0 hours 1 minutes 7 seconds 349 msec
