                         Program Version 6.0.0  -   RELEASE  -
|  1> ! r2scan-3c def2/J RI DEFGRID2 scfconv6 printgap
|  2> %output
|  3>     printlevel normal
|  4> end
|  5> %cpcm
|  6>     smd true
|  7>     smdsolvent "water"
|  8> end
|  9> * xyz 0 1
| 10> C 0.7548931884 -1.25678002 -0.4719742474
| 11> C 0.0036292179 0.0001548461 -0.0180137823
| 12> C -1.4149241546 0.0051933003 -0.5907176636
| 13> C 0.7610309818 1.2562215245 -0.4643636373
| 14> O -0.1473328484 -0.0039237844 1.4007225685
| 15> H 0.242850113 -2.1446720828 -0.1089048954
| 16> H 0.7985791903 -1.2949895545 -1.5562001693
| 17> H 1.7710057294 -1.2570740201 -0.0828132285
| 18> H -1.9514488834 -0.8750364834 -0.2466181413
| 19> H -1.385372841 0.0070221784 -1.6755386954
| 20> H -1.9467438036 0.8870087125 -0.2434762285
| 21> H 0.8004597775 1.3029981224 -1.5484680118
| 22> H 0.2558677867 2.1441337388 -0.0916934197
| 23> H 1.7788015641 1.2470696244 -0.0798748112
| 24> H 0.7278947236 -0.0112506202 1.8106368208
| 25> *
| 26>
| 27>                          ****END OF INPUT****

CARTESIAN COORDINATES (ANGSTROEM)
---------------------------------
  C      0.754893   -1.256780   -0.471974
  C      0.003629    0.000155   -0.018014
  C     -1.414924    0.005193   -0.590718
  C      0.761031    1.256222   -0.464364
  O     -0.147333   -0.003924    1.400723
  H      0.242850   -2.144672   -0.108905
  H      0.798579   -1.294990   -1.556200
  H      1.771006   -1.257074   -0.082813
  H     -1.951449   -0.875036   -0.246618
  H     -1.385373    0.007022   -1.675539
  H     -1.946744    0.887009   -0.243476
  H      0.800460    1.302998   -1.548468
  H      0.255868    2.144134   -0.091693
  H      1.778802    1.247070   -0.079875
  H      0.727895   -0.011251    1.810637

 Total Charge           Charge          ....    0
 Multiplicity           Mult            ....    1
 Number of Electrons    NEL             ....   42
 Basis Dimension        Dim             ....  150

ORBITAL ENERGIES
----------------

  NO   OCC          E(Eh)            E(eV)
   0   2.0000     -18.946278      -515.5544
   1   2.0000     -10.084937      -274.4251
   2   2.0000     -10.008970      -272.3579
   3   2.0000     -10.007921      -272.3294
   4   2.0000     -10.007896      -272.3287
   5   2.0000      -0.984361       -26.7858
   6   2.0000      -0.748731       -20.3740
   7   2.0000      -0.651182       -17.7196
   8   2.0000      -0.649033       -17.6611
   9   2.0000      -0.535257       -14.5651
  10   2.0000      -0.452349       -12.3090
  11   2.0000      -0.414563       -11.2808
  12   2.0000      -0.410701       -11.1757
  13   2.0000      -0.373997       -10.1770
  14   2.0000      -0.358450        -9.7539
  15   2.0000      -0.347088        -9.4447
  16   2.0000      -0.327300        -8.9063
  17   2.0000      -0.321290        -8.7428
  18   2.0000      -0.310704        -8.4547
  19   2.0000      -0.282804        -7.6955
  20   2.0000      -0.238333        -6.4854
  21   0.0000       0.075870         2.0645
  22   0.0000       0.118292         3.2189
  23   0.0000       0.138658         3.7731
  24   0.0000       0.145683         3.9642
  25   0.0000       0.146816         3.9951

MULLIKEN ATOMIC CHARGES
-----------------------
   0 C :   -0.499207
   1 C :    0.191846
   2 C :   -0.510827
   3 C :   -0.499064
   4 O :   -0.497118
   5 H :    0.162810
   6 H :    0.165909
   7 H :    0.161870
   8 H :    0.162486
   9 H :    0.168130
  10 H :    0.162401
  11 H :    0.165882
  12 H :    0.162878
  13 H :    0.161783
  14 H :    0.340221
Sum of atomic charges:    0.0000000

LOEWDIN ATOMIC CHARGES
----------------------
   0 C :   -0.396273
   1 C :    0.049574
   2 C :   -0.383761
   3 C :   -0.396340
   4 O :   -0.640337
   5 H :    0.163460
   6 H :    0.165661
   7 H :    0.162324
   8 H :    0.164714
   9 H :    0.166785
  10 H :    0.164687
  11 H :    0.165648
  12 H :    0.163484
  13 H :    0.162289
  14 H :    0.288084

  Mayer bond orders larger than 0.100000
B(  0-C ,  1-C ) :   0.9408 B(  0-C ,  5-H ) :   0.9690 B(  0-C ,  6-H ) :   0.9693
B(  0-C ,  7-H ) :   0.9643 B(  1-C ,  2-C ) :   0.9382 B(  1-C ,  3-C ) :   0.9403
B(  1-C ,  4-O ) :   0.8462 B(  2-C ,  8-H ) :   0.9679 B(  2-C ,  9-H ) :   0.9705
B(  2-C , 10-H ) :   0.9678 B(  3-C , 11-H ) :   0.9693 B(  3-C , 12-H ) :   0.9691
B(  3-C , 13-H ) :   0.9643 B(  4-O , 14-H ) :   0.8767

Dispersion correction           -0.003326447
FINAL SINGLE POINT ENERGY      -233.617144698381

DIPOLE MOMENT
-------------

Method             : SCF
Type of density    : Electron Density
Multiplicity       :   1
Irrep              :   0
Energy             :  -233.6219953205464037 Eh
Relativity type    :
Basis              : AO
                                X                 Y                 Z
Electronic contribution:     -0.267279501      -0.008518374       3.063445308
Nuclear contribution   :      1.022190380       0.004829107      -3.565734215
                        -----------------------------------------
Total Dipole Moment    :      0.754910878      -0.003689266      -0.502288907
                        -----------------------------------------
Magnitude (a.u.)       :      0.906751450
Magnitude (Debye)      :      2.304779021

Rotational constants in cm-1:             0.157074             0.155966             0.151310
Rotational constants in MHz :          4708.969597          4675.730695          4536.155059

                             ****ORCA TERMINATED NORMALLY****
TOTAL RUN TIME: 0 days 0 hours 0 minutes 50 seconds 221 msec
