                         Program Version 6.0.0  -   RELEASE  -
|  1> ! pbe def2-sv(p) def2/J RI DEFGRID1 loosescf d4 GCP(DFT/SV(P)) printgap
|  2> %output
|  3>     printlevel normal
|  4> end
|  5> * xyz 0 1
|  6> C -0.6761041152 -0.5139855519 0.3721443867
|  7> C 0.6690706103 -0.539168446 -0.3491781429
|  8> O 1.4969854594 0.4693597376 0.1908056991
|  9> O -1.4906497408 0.4810333259 -0.2115918384
| 10> H -0.4917398455 -0.2986520091 1.4306271294
| 11> H -1.1534410402 -1.4979296899 0.2754862344
| 12> H 0.4877034705 -0.3682781581 -1.4162438768
| 13> H 1.1328156248 -1.524348304 -0.208767005
| 14> H 2.2955599781 0.5533473715 -0.347152766
| 15> H -2.287655281 0.5994330027 0.3223277697
| 16> *
| 17>
| 18>                          ****END OF INPUT****

CARTESIAN COORDINATES (ANGSTROEM)
---------------------------------
  C     -0.676104   -0.513986    0.372144
  C      0.669071   -0.539168   -0.349178
  O      1.496985    0.469360    0.190806
  O     -1.490650    0.481033   -0.211592
  H     -0.491740   -0.298652    1.430627
  H     -1.153441   -1.497930    0.275486
  H      0.487703   -0.368278   -1.416244
  H      1.132816   -1.524348   -0.208767
  H      2.295560    0.553347   -0.347153
  H     -2.287655    0.599433    0.322328

 Total Charge           Charge          ....    0
 Multiplicity           Mult            ....    1
 Number of Electrons    NEL             ....   34
 Basis Dimension        Dim             ....   68

ORBITAL ENERGIES
----------------

  NO   OCC          E(Eh)            E(eV)
   0   2.0000     -18.737010      -509.8600
   1   2.0000     -18.736940      -509.8581
   2   2.0000      -9.926954      -270.1262
   3   2.0000      -9.926897      -270.1246
   4   2.0000      -0.920536       -25.0491
   5   2.0000      -0.905007       -24.6265
   6   2.0000      -0.659246       -17.9390
   7   2.0000      -0.536888       -14.6095
   8   2.0000      -0.469127       -12.7656
   9   2.0000      -0.464675       -12.6444
  10   2.0000      -0.371744       -10.1157
  11   2.0000      -0.371676       -10.1138
  12   2.0000      -0.365067        -9.9340
  13   2.0000      -0.290127        -7.8948
  14   2.0000      -0.263253        -7.1635
  15   2.0000      -0.213894        -5.8203
  16   2.0000      -0.203908        -5.5486
  17   0.0000       0.028745         0.7822
  18   0.0000       0.040116         1.0916
  19   0.0000       0.079512         2.1636
  20   0.0000       0.105583         2.8731
  21   0.0000       0.112680         3.0662

MULLIKEN ATOMIC CHARGES
-----------------------
   0 C :   -0.003783
   1 C :   -0.003854
   2 O :   -0.441272
   3 O :   -0.441333
   4 H :    0.081612
   5 H :    0.066506
   6 H :    0.081635
   7 H :    0.066525
   8 H :    0.296976
   9 H :    0.296989
Sum of atomic charges:    0.0000000

LOEWDIN ATOMIC CHARGES
----------------------
   0 C :   -0.133715
   1 C :   -0.133743
   2 O :   -0.349452
   3 O :   -0.349495
   4 H :    0.104304
   5 H :    0.094714
   6 H :    0.104312
   7 H :    0.094741
   8 H :    0.284163
   9 H :    0.284170

  Mayer bond orders larger than 0.100000
B(  0-C ,  1-C ) :   1.1133 B(  0-C ,  3-O ) :   1.0846 B(  0-C ,  4-H ) :   0.9170
B(  0-C ,  5-H ) :   0.9204 B(  1-C ,  2-O ) :   1.0847 B(  1-C ,  6-H ) :   0.9170
B(  1-C ,  7-H ) :   0.9204 B(  2-O ,  8-H ) :   0.8542 B(  3-O ,  9-H ) :   0.8542

Dispersion correction           -0.004754454
FINAL SINGLE POINT ENERGY      -229.720857065224

DIPOLE MOMENT
-------------

Method             : SCF
Type of density    : Electron Density
Multiplicity       :   1
Irrep              :   0
Energy             :  -229.7710883968175608 Eh
Relativity type    :
Basis              : AO
                                X                 Y                 Z
Electronic contribution:      0.012633275       1.877509682      -0.041642852
Nuclear contribution   :     -0.015626915      -2.365486942       0.052489173
                        -----------------------------------------
Total Dipole Moment    :     -0.002993640      -0.487977260       0.010846321
                        -----------------------------------------
Magnitude (a.u.)       :      0.488106967
Magnitude (Debye)      :      1.240669311

Rotational constants in cm-1:             0.596807             0.160805             0.146112
Rotational constants in MHz :         17891.814323          4820.822592          4380.339556

                             ****ORCA TERMINATED NORMALLY****
TOTAL RUN TIME: 0 days 0 hours 0 minutes 4 seconds 311 msec
