                         Program Version 6.0.0  -   RELEASE  -
|  1> ! pbe def2-sv(p) def2/J RI DEFGRID1 loosescf d4 GCP(DFT/SV(P)) printgap
|  2> %output
|  3>     printlevel normal
|  4> end
|  5> * xyz 0 1
|  6> C 2.1256174146 2.5327521536 -0.6426247417
|  7> C 1.9706732393 1.2875125156 -1.4938296822
|  8> O 2.7304607023 0.179381194 -0.988730563
|  9> P 2.4332458822 -0.6212778366 0.3444791571
| 10> S 2.8442484464 0.2374892859 2.0639905244
| 11> O 3.3639876207 -1.8454855783 -0.0205260939
| 12> C 3.8741559243 -2.7364169794 0.9870402505
| 13> C 2.7895423937 -3.6264099421 1.5611743528
| 14> S 0.4441994763 -1.3671106929 0.1480333197
| 15> C -0.3454718872 -0.4578901434 1.5022984081
| 16> S -0.9276265168 1.2007232225 1.0409674607
| 17> P -2.2913236822 0.6765702508 -0.4913291481
| 18> S -1.6393558622 0.3215916435 -2.3129994173
| 19> O -3.3721220179 1.8429375622 -0.4360084215
| 20> C -3.2404279244 3.0473575364 -1.2085369798
| 21> C -2.063160071 3.8829581916 -0.7486099649
| 22> O -3.0701058694 -0.5010936106 0.2190589858
| 23> C -3.624652632 -1.6403481719 -0.4761701151
| 24> C -2.9980623425 -2.9131199839 0.0575068446
| 25> H 1.6480192928 3.3691848879 -1.1433581463
| 26> H 1.6628571807 2.3944927539 0.3333387606
| 27> H 3.1800398692 2.7556337031 -0.4997045953
| 28> H 2.3757539139 1.4403786451 -2.4960289974
| 29> H 0.9190492512 0.9932605897 -1.5819477919
| 30> H 4.6346677112 -3.3159837562 0.46207557
| 31> H 4.3422680838 -2.1398802836 1.7770538955
| 32> H 2.2523389293 -4.128665637 0.7606089764
| 33> H 3.2415125825 -4.3672487773 2.2128479453
| 34> H 2.0855236426 -3.0299191428 2.1395533744
| 35> H 0.3834737508 -0.2981289183 2.3001180663
| 36> H -1.1883579788 -1.0528758483 1.8418365839
| 37> H -3.1287142776 2.7715193056 -2.2623579753
| 38> H -4.1891472932 3.5636698359 -1.0574987985
| 39> H -1.1347393062 3.3431751395 -0.9362080309
| 40> H -2.0453633513 4.8187919117 -1.297730406
| 41> H -2.136585368 4.0879711013 0.3164108629
| 42> H -4.699509397 -1.6122323188 -0.2895875059
| 43> H -3.435387722 -1.5306279158 -1.5490096746
| 44> H -3.4465640614 -3.7649780805 -0.4431050477
| 45> H -1.9262938974 -2.9121067553 -0.1340929749
| 46> H -3.1687525208 -2.9969755941 1.1271183002
| 47> *
| 48>
| 49>                          ****END OF INPUT****

CARTESIAN COORDINATES (ANGSTROEM)
---------------------------------
  C      2.125617    2.532752   -0.642625
  C      1.970673    1.287513   -1.493830
  O      2.730461    0.179381   -0.988731
  P      2.433246   -0.621278    0.344479
  S      2.844248    0.237489    2.063991
  O      3.363988   -1.845486   -0.020526
  C      3.874156   -2.736417    0.987040
  C      2.789542   -3.626410    1.561174
  S      0.444199   -1.367111    0.148033
  C     -0.345472   -0.457890    1.502298
  S     -0.927627    1.200723    1.040967
  P     -2.291324    0.676570   -0.491329
  S     -1.639356    0.321592   -2.312999
  O     -3.372122    1.842938   -0.436008
  C     -3.240428    3.047358   -1.208537
  C     -2.063160    3.882958   -0.748610
  O     -3.070106   -0.501094    0.219059
  C     -3.624653   -1.640348   -0.476170
  C     -2.998062   -2.913120    0.057507
  H      1.648019    3.369185   -1.143358
  H      1.662857    2.394493    0.333339
  H      3.180040    2.755634   -0.499705
  H      2.375754    1.440379   -2.496029
  H      0.919049    0.993261   -1.581948
  H      4.634668   -3.315984    0.462076
  H      4.342268   -2.139880    1.777054
  H      2.252339   -4.128666    0.760609
  H      3.241513   -4.367249    2.212848
  H      2.085524   -3.029919    2.139553
  H      0.383474   -0.298129    2.300118
  H     -1.188358   -1.052876    1.841837
  H     -3.128714    2.771519   -2.262358
  H     -4.189147    3.563670   -1.057499
  H     -1.134739    3.343175   -0.936208
  H     -2.045363    4.818792   -1.297730
  H     -2.136585    4.087971    0.316411
  H     -4.699509   -1.612232   -0.289588
  H     -3.435388   -1.530628   -1.549010
  H     -3.446564   -3.764978   -0.443105
  H     -1.926294   -2.912107   -0.134093
  H     -3.168753   -2.996976    1.127118

 Total Charge           Charge          ....    0
 Multiplicity           Mult            ....    1
 Number of Electrons    NEL             ....  202
 Basis Dimension        Dim             ....  334

ORBITAL ENERGIES
----------------

  NO   OCC          E(Eh)            E(eV)
   0   2.0000     -88.046050     -2395.8548
   1   2.0000     -88.045902     -2395.8508
   2   2.0000     -87.991864     -2394.3804
   3   2.0000     -87.991045     -2394.3581
   4   2.0000     -76.431833     -2079.8159
   5   2.0000     -76.427007     -2079.6846
   6   2.0000     -18.799887      -511.5709
   7   2.0000     -18.793741      -511.4037
   8   2.0000     -18.789268      -511.2820
   9   2.0000     -18.785375      -511.1760
  10   2.0000      -9.958170      -270.9756
  11   2.0000      -9.957797      -270.9654
  12   2.0000      -9.955326      -270.8982
  13   2.0000      -9.950625      -270.7703
  14   2.0000      -9.941227      -270.5145
  15   2.0000      -9.891830      -269.1704
  16   2.0000      -9.890147      -269.1246
  17   2.0000      -9.883706      -268.9493
  18   2.0000      -9.872181      -268.6357
  19   2.0000      -7.691007      -209.2829
  20   2.0000      -7.690230      -209.2618
  21   2.0000      -7.636375      -207.7963
  22   2.0000      -7.635880      -207.7828
  23   2.0000      -6.429296      -174.9500
  24   2.0000      -6.424266      -174.8132
  25   2.0000      -5.719063      -155.6236
  26   2.0000      -5.718046      -155.5959
  27   2.0000      -5.715490      -155.5264
  28   2.0000      -5.714749      -155.5062
  29   2.0000      -5.707835      -155.3181
  30   2.0000      -5.707357      -155.3051
  31   2.0000      -5.665135      -154.1561
  32   2.0000      -5.664657      -154.1431
  33   2.0000      -5.657154      -153.9390
  34   2.0000      -5.656600      -153.9239
  35   2.0000      -5.656496      -153.9211
  36   2.0000      -5.656212      -153.9133
  37   2.0000      -4.651960      -126.5863
  38   2.0000      -4.651074      -126.5621
  39   2.0000      -4.649644      -126.5233
  40   2.0000      -4.646483      -126.4372
  41   2.0000      -4.646311      -126.4326
  42   2.0000      -4.644785      -126.3910
  43   2.0000      -0.991837       -26.9893
  44   2.0000      -0.986534       -26.8450
  45   2.0000      -0.951526       -25.8923
  46   2.0000      -0.941081       -25.6081
  47   2.0000      -0.765324       -20.8255
  48   2.0000      -0.724484       -19.7142
  49   2.0000      -0.710888       -19.3442
  50   2.0000      -0.691494       -18.8165
  51   2.0000      -0.680970       -18.5301
  52   2.0000      -0.674417       -18.3518
  53   2.0000      -0.655700       -17.8425
  54   2.0000      -0.642213       -17.4755
  55   2.0000      -0.604134       -16.4393
  56   2.0000      -0.595753       -16.2113
  57   2.0000      -0.577915       -15.7259
  58   2.0000      -0.566357       -15.4114
  59   2.0000      -0.562663       -15.3108
  60   2.0000      -0.506484       -13.7821
  61   2.0000      -0.492301       -13.3962
  62   2.0000      -0.476501       -12.9663
  63   2.0000      -0.468166       -12.7395
  64   2.0000      -0.458129       -12.4663
  65   2.0000      -0.446081       -12.1385
  66   2.0000      -0.440871       -11.9967
  67   2.0000      -0.434369       -11.8198
  68   2.0000      -0.425204       -11.5704
  69   2.0000      -0.417019       -11.3477
  70   2.0000      -0.413872       -11.2620
  71   2.0000      -0.404398       -11.0042
  72   2.0000      -0.395273       -10.7559
  73   2.0000      -0.394520       -10.7354
  74   2.0000      -0.382325       -10.4036
  75   2.0000      -0.378358       -10.2956
  76   2.0000      -0.370278       -10.0758
  77   2.0000      -0.362574        -9.8661
  78   2.0000      -0.359464        -9.7815
  79   2.0000      -0.353480        -9.6187
  80   2.0000      -0.347419        -9.4537
  81   2.0000      -0.343569        -9.3490
  82   2.0000      -0.339745        -9.2449
  83   2.0000      -0.337176        -9.1750
  84   2.0000      -0.332072        -9.0361
  85   2.0000      -0.320080        -8.7098
  86   2.0000      -0.309157        -8.4126
  87   2.0000      -0.302195        -8.2231
  88   2.0000      -0.295605        -8.0438
  89   2.0000      -0.290633        -7.9085
  90   2.0000      -0.285016        -7.7557
  91   2.0000      -0.278050        -7.5661
  92   2.0000      -0.268389        -7.3032
  93   2.0000      -0.265649        -7.2287
  94   2.0000      -0.257993        -7.0203
  95   2.0000      -0.245684        -6.6854
  96   2.0000      -0.221926        -6.0389
  97   2.0000      -0.211366        -5.7516
  98   2.0000      -0.209261        -5.6943
  99   2.0000      -0.204569        -5.5666
 100   2.0000      -0.197826        -5.3831
 101   0.0000      -0.051885        -1.4119
 102   0.0000      -0.031076        -0.8456
 103   0.0000      -0.021172        -0.5761
 104   0.0000      -0.003584        -0.0975
 105   0.0000       0.009391         0.2555

MULLIKEN ATOMIC CHARGES
-----------------------
   0 C :   -0.317046
   1 C :   -0.035939
   2 O :   -0.350833
   3 P :    0.614777
   4 S :   -0.331062
   5 O :   -0.356119
   6 C :   -0.003817
   7 C :   -0.309428
   8 S :   -0.101236
   9 C :   -0.356021
  10 S :   -0.089545
  11 P :    0.605273
  12 S :   -0.316382
  13 O :   -0.364750
  14 C :    0.001686
  15 C :   -0.344117
  16 O :   -0.373213
  17 C :   -0.007548
  18 C :   -0.312131
  19 H :    0.111895
  20 H :    0.132298
  21 H :    0.114502
  22 H :    0.103135
  23 H :    0.135920
  24 H :    0.107691
  25 H :    0.113901
  26 H :    0.117270
  27 H :    0.111903
  28 H :    0.117550
  29 H :    0.193623
  30 H :    0.193000
  31 H :    0.110861
  32 H :    0.108141
  33 H :    0.138276
  34 H :    0.118325
  35 H :    0.126221
  36 H :    0.109420
  37 H :    0.114626
  38 H :    0.116112
  39 H :    0.133587
  40 H :    0.119193
Sum of atomic charges:    0.0000000

LOEWDIN ATOMIC CHARGES
----------------------
   0 C :   -0.371196
   1 C :   -0.124086
   2 O :   -0.228108
   3 P :    0.573925
   4 S :   -0.308636
   5 O :   -0.232912
   6 C :   -0.119026
   7 C :   -0.368004
   8 S :    0.089021
   9 C :   -0.483810
  10 S :    0.096515
  11 P :    0.568121
  12 S :   -0.306502
  13 O :   -0.243908
  14 C :   -0.119800
  15 C :   -0.372323
  16 O :   -0.241210
  17 C :   -0.115991
  18 C :   -0.359872
  19 H :    0.126775
  20 H :    0.113583
  21 H :    0.125674
  22 H :    0.119714
  23 H :    0.098617
  24 H :    0.120049
  25 H :    0.110360
  26 H :    0.124718
  27 H :    0.130109
  28 H :    0.118026
  29 H :    0.127143
  30 H :    0.133142
  31 H :    0.109860
  32 H :    0.120354
  33 H :    0.120588
  34 H :    0.133794
  35 H :    0.127339
  36 H :    0.118950
  37 H :    0.109121
  38 H :    0.133641
  39 H :    0.121142
  40 H :    0.125103

  Mayer bond orders larger than 0.100000
B(  0-C ,  1-C ) :   1.1642 B(  0-C , 19-H ) :   0.9328 B(  0-C , 20-H ) :   0.9291
B(  0-C , 21-H ) :   0.9423 B(  1-C ,  2-O ) :   0.9092 B(  1-C , 22-H ) :   0.9350
B(  1-C , 23-H ) :   0.8951 B(  2-O ,  3-P ) :   1.1478 B(  3-P ,  4-S ) :   1.5920
B(  3-P ,  5-O ) :   1.1329 B(  3-P ,  8-S ) :   0.9282 B(  4-S ,  8-S ) :   0.1183
B(  4-S , 29-H ) :   0.1054 B(  5-O ,  6-C ) :   0.9131 B(  6-C ,  7-C ) :   1.1633
B(  6-C , 24-H ) :   0.9339 B(  6-C , 25-H ) :   0.9142 B(  7-C , 26-H ) :   0.9450
B(  7-C , 27-H ) :   0.9386 B(  7-C , 28-H ) :   0.9389 B(  8-S ,  9-C ) :   1.0190
B(  9-C , 10-S ) :   0.9981 B(  9-C , 29-H ) :   0.8597 B(  9-C , 30-H ) :   0.8930
B( 10-S , 11-P ) :   0.9659 B( 10-S , 12-S ) :   0.1042 B( 11-P , 12-S ) :   1.6052
B( 11-P , 13-O ) :   1.1165 B( 11-P , 16-O ) :   1.1209 B( 13-O , 14-C ) :   0.9114
B( 14-C , 15-C ) :   1.1604 B( 14-C , 31-H ) :   0.9143 B( 14-C , 32-H ) :   0.9326
B( 15-C , 33-H ) :   0.9279 B( 15-C , 34-H ) :   0.9378 B( 15-C , 35-H ) :   0.9425
B( 16-O , 17-C ) :   0.8938 B( 17-C , 18-C ) :   1.1680 B( 17-C , 36-H ) :   0.9322
B( 17-C , 37-H ) :   0.9014 B( 18-C , 38-H ) :   0.9385 B( 18-C , 39-H ) :   0.9353
B( 18-C , 40-H ) :   0.9458

Dispersion correction           -0.066564162
FINAL SINGLE POINT ENERGY     -2929.523371873815

DIPOLE MOMENT
-------------

Method             : SCF
Type of density    : Electron Density
Multiplicity       :   1
Irrep              :   0
Energy             : -2929.6414892796969980 Eh
Relativity type    :
Basis              : AO
                                X                 Y                 Z
Electronic contribution:      2.744666343       1.194151360       0.324290922
Nuclear contribution   :     -3.693420207      -1.577479972      -0.307879694
                        -----------------------------------------
Total Dipole Moment    :     -0.948753864      -0.383328612       0.016411229
                        -----------------------------------------
Magnitude (a.u.)       :      1.023398284
Magnitude (Debye)      :      2.601271712

Rotational constants in cm-1:             0.011851             0.005424             0.004517
Rotational constants in MHz :           355.295420           162.603083           135.429500

                             ****ORCA TERMINATED NORMALLY****
TOTAL RUN TIME: 0 days 0 hours 0 minutes 21 seconds 349 msec
