                         Program Version 6.0.0  -   RELEASE  -
|  1> ! pbe def2-sv(p) def2/J RI DEFGRID1 loosescf d4 GCP(DFT/SV(P)) printgap
|  2> %output
|  3>     printlevel normal
|  4> end
|  5> * xyz 0 1
|  6> C 3.44784874 2.189496534 -1.3679637899
|  7> C 2.4513518033 1.0680467159 -1.5713958923
|  8> O 1.6008251337 0.9316425939 -0.4037806556
|  9> P 1.8267978732 -0.1503767183 0.7231146683
| 10> S 0.628060214 0.2199739819 2.2249019057
| 11> O 3.3816935112 -0.030059144 1.0202534911
| 12> C 4.1859369731 -1.0542912391 1.6355691696
| 13> C 3.6019563898 -1.5584428786 2.9380698112
| 14> S 1.721047864 -2.0496578106 -0.2530621845
| 15> C 0.1354485545 -1.8916015731 -1.1130798611
| 16> S -1.2820810004 -1.5922102862 -0.0147119415
| 17> P -2.0409668166 0.2179950758 -0.8566514147
| 18> S -1.0704866604 0.9241253486 -2.3979200782
| 19> O -2.245645364 1.2389296319 0.3440645925
| 20> C -1.4251919428 2.3934476822 0.5811101574
| 21> C -2.1233984979 3.634964875 0.0636498824
| 22> O -3.5218979582 -0.1557964709 -1.2564313056
| 23> C -4.4140057839 -1.0429318435 -0.5435952774
| 24> C -4.5820990232 -0.6575441878 0.9098724414
| 25> H 4.041764187 2.30095337 -2.2695904741
| 26> H 2.9250590542 3.1202468498 -1.166039306
| 27> H 4.1012609552 1.9643993661 -0.5290039749
| 28> H 2.9574852895 0.1169861844 -1.7567900542
| 29> H 1.7606210364 1.2874798959 -2.3895514221
| 30> H 4.2971812208 -1.8739834048 0.9201879875
| 31> H 5.148457821 -0.5644987108 1.7932106548
| 32> H 2.6466677614 -2.0496789105 2.7555996252
| 33> H 4.2855227703 -2.2713064974 3.3877304986
| 34> H 3.4366579972 -0.7324896492 3.6260365432
| 35> H -0.0142660547 -2.8510543298 -1.6024495588
| 36> H 0.1813487182 -1.0794947424 -1.8451199511
| 37> H -1.2785463409 2.4260665079 1.6626476911
| 38> H -0.4545779409 2.2619528826 0.0941539636
| 39> H -1.5209079939 4.5066987279 0.2972953184
| 40> H -2.2494361713 3.5659821599 -1.0153523293
| 41> H -3.1001168136 3.7352768872 0.5281798101
| 42> H -5.3492212255 -0.9526738555 -1.0981032342
| 43> H -4.0249326766 -2.0606329073 -0.6327781102
| 44> H -3.6302446901 -0.7425789076 1.4337079696
| 45> H -4.9340773673 0.3673312801 0.9928542336
| 46> H -5.3004761803 -1.3250910124 1.3754981889
| 47> *
| 48>
| 49>                          ****END OF INPUT****

CARTESIAN COORDINATES (ANGSTROEM)
---------------------------------
  C      3.447849    2.189497   -1.367964
  C      2.451352    1.068047   -1.571396
  O      1.600825    0.931643   -0.403781
  P      1.826798   -0.150377    0.723115
  S      0.628060    0.219974    2.224902
  O      3.381694   -0.030059    1.020253
  C      4.185937   -1.054291    1.635569
  C      3.601956   -1.558443    2.938070
  S      1.721048   -2.049658   -0.253062
  C      0.135449   -1.891602   -1.113080
  S     -1.282081   -1.592210   -0.014712
  P     -2.040967    0.217995   -0.856651
  S     -1.070487    0.924125   -2.397920
  O     -2.245645    1.238930    0.344065
  C     -1.425192    2.393448    0.581110
  C     -2.123398    3.634965    0.063650
  O     -3.521898   -0.155796   -1.256431
  C     -4.414006   -1.042932   -0.543595
  C     -4.582099   -0.657544    0.909872
  H      4.041764    2.300953   -2.269590
  H      2.925059    3.120247   -1.166039
  H      4.101261    1.964399   -0.529004
  H      2.957485    0.116986   -1.756790
  H      1.760621    1.287480   -2.389551
  H      4.297181   -1.873983    0.920188
  H      5.148458   -0.564499    1.793211
  H      2.646668   -2.049679    2.755600
  H      4.285523   -2.271306    3.387730
  H      3.436658   -0.732490    3.626037
  H     -0.014266   -2.851054   -1.602450
  H      0.181349   -1.079495   -1.845120
  H     -1.278546    2.426067    1.662648
  H     -0.454578    2.261953    0.094154
  H     -1.520908    4.506699    0.297295
  H     -2.249436    3.565982   -1.015352
  H     -3.100117    3.735277    0.528180
  H     -5.349221   -0.952674   -1.098103
  H     -4.024933   -2.060633   -0.632778
  H     -3.630245   -0.742579    1.433708
  H     -4.934077    0.367331    0.992854
  H     -5.300476   -1.325091    1.375498

 Total Charge           Charge          ....    0
 Multiplicity           Mult            ....    1
 Number of Electrons    NEL             ....  202
 Basis Dimension        Dim             ....  334

ORBITAL ENERGIES
----------------

  NO   OCC          E(Eh)            E(eV)
   0   2.0000     -88.045177     -2395.8311
   1   2.0000     -88.040127     -2395.6936
   2   2.0000     -87.985095     -2394.1961
   3   2.0000     -87.978763     -2394.0238
   4   2.0000     -76.426261     -2079.6643
   5   2.0000     -76.423344     -2079.5849
   6   2.0000     -18.794865      -511.4343
   7   2.0000     -18.791556      -511.3442
   8   2.0000     -18.786075      -511.1951
   9   2.0000     -18.782713      -511.1036
  10   2.0000      -9.962172      -271.0845
  11   2.0000      -9.957054      -270.9452
  12   2.0000      -9.954490      -270.8754
  13   2.0000      -9.949884      -270.7501
  14   2.0000      -9.934675      -270.3363
  15   2.0000      -9.886006      -269.0119
  16   2.0000      -9.885363      -268.9944
  17   2.0000      -9.883944      -268.9558
  18   2.0000      -9.871821      -268.6259
  19   2.0000      -7.690149      -209.2596
  20   2.0000      -7.684670      -209.1105
  21   2.0000      -7.630275      -207.6303
  22   2.0000      -7.623815      -207.4545
  23   2.0000      -6.423372      -174.7888
  24   2.0000      -6.420966      -174.7234
  25   2.0000      -5.717924      -155.5926
  26   2.0000      -5.714520      -155.5000
  27   2.0000      -5.712554      -155.4465
  28   2.0000      -5.709257      -155.3568
  29   2.0000      -5.707410      -155.3065
  30   2.0000      -5.701600      -155.1484
  31   2.0000      -5.659127      -153.9927
  32   2.0000      -5.652986      -153.8256
  33   2.0000      -5.651090      -153.7740
  34   2.0000      -5.650181      -153.7492
  35   2.0000      -5.644187      -153.5861
  36   2.0000      -5.643951      -153.5797
  37   2.0000      -4.646505      -126.4378
  38   2.0000      -4.645500      -126.4105
  39   2.0000      -4.643488      -126.3557
  40   2.0000      -4.643043      -126.3436
  41   2.0000      -4.642557      -126.3304
  42   2.0000      -4.641703      -126.3072
  43   2.0000      -0.989378       -26.9223
  44   2.0000      -0.979518       -26.6540
  45   2.0000      -0.946246       -25.7487
  46   2.0000      -0.937564       -25.5124
  47   2.0000      -0.760660       -20.6986
  48   2.0000      -0.719097       -19.5676
  49   2.0000      -0.709934       -19.3183
  50   2.0000      -0.692185       -18.8353
  51   2.0000      -0.684590       -18.6286
  52   2.0000      -0.672013       -18.2864
  53   2.0000      -0.649549       -17.6751
  54   2.0000      -0.638048       -17.3622
  55   2.0000      -0.594405       -16.1746
  56   2.0000      -0.588036       -16.0013
  57   2.0000      -0.573471       -15.6049
  58   2.0000      -0.570535       -15.5251
  59   2.0000      -0.560715       -15.2578
  60   2.0000      -0.504946       -13.7403
  61   2.0000      -0.490200       -13.3390
  62   2.0000      -0.474894       -12.9225
  63   2.0000      -0.470442       -12.8014
  64   2.0000      -0.455129       -12.3847
  65   2.0000      -0.449909       -12.2426
  66   2.0000      -0.437288       -11.8992
  67   2.0000      -0.434105       -11.8126
  68   2.0000      -0.423604       -11.5269
  69   2.0000      -0.417704       -11.3663
  70   2.0000      -0.411203       -11.1894
  71   2.0000      -0.400723       -10.9042
  72   2.0000      -0.394595       -10.7375
  73   2.0000      -0.386750       -10.5240
  74   2.0000      -0.374118       -10.1803
  75   2.0000      -0.368177       -10.0186
  76   2.0000      -0.357927        -9.7397
  77   2.0000      -0.357011        -9.7148
  78   2.0000      -0.352398        -9.5892
  79   2.0000      -0.349090        -9.4992
  80   2.0000      -0.347014        -9.4427
  81   2.0000      -0.344032        -9.3616
  82   2.0000      -0.340960        -9.2780
  83   2.0000      -0.337466        -9.1829
  84   2.0000      -0.328127        -8.9288
  85   2.0000      -0.320653        -8.7254
  86   2.0000      -0.306355        -8.3364
  87   2.0000      -0.298983        -8.1357
  88   2.0000      -0.292119        -7.9490
  89   2.0000      -0.291375        -7.9287
  90   2.0000      -0.278099        -7.5675
  91   2.0000      -0.276702        -7.5294
  92   2.0000      -0.270055        -7.3486
  93   2.0000      -0.259660        -7.0657
  94   2.0000      -0.255544        -6.9537
  95   2.0000      -0.239427        -6.5151
  96   2.0000      -0.221261        -6.0208
  97   2.0000      -0.205363        -5.5882
  98   2.0000      -0.201705        -5.4887
  99   2.0000      -0.193900        -5.2763
 100   2.0000      -0.183601        -4.9960
 101   0.0000      -0.046130        -1.2553
 102   0.0000      -0.031160        -0.8479
 103   0.0000      -0.019055        -0.5185
 104   0.0000      -0.001247        -0.0339
 105   0.0000       0.022811         0.6207

MULLIKEN ATOMIC CHARGES
-----------------------
   0 C :   -0.282524
   1 C :   -0.021788
   2 O :   -0.349214
   3 P :    0.589586
   4 S :   -0.296621
   5 O :   -0.378068
   6 C :   -0.015238
   7 C :   -0.312309
   8 S :   -0.130759
   9 C :   -0.332362
  10 S :   -0.106458
  11 P :    0.625930
  12 S :   -0.321016
  13 O :   -0.374382
  14 C :   -0.031906
  15 C :   -0.277828
  16 O :   -0.363099
  17 C :   -0.005216
  18 C :   -0.317064
  19 H :    0.108640
  20 H :    0.119208
  21 H :    0.118084
  22 H :    0.095039
  23 H :    0.121805
  24 H :    0.115727
  25 H :    0.111293
  26 H :    0.130484
  27 H :    0.112406
  28 H :    0.129588
  29 H :    0.181766
  30 H :    0.198270
  31 H :    0.109546
  32 H :    0.128837
  33 H :    0.105324
  34 H :    0.115098
  35 H :    0.105382
  36 H :    0.110666
  37 H :    0.110417
  38 H :    0.135367
  39 H :    0.123407
  40 H :    0.113983
Sum of atomic charges:   -0.0000000

LOEWDIN ATOMIC CHARGES
----------------------
   0 C :   -0.356985
   1 C :   -0.122161
   2 O :   -0.228312
   3 P :    0.562596
   4 S :   -0.296784
   5 O :   -0.245447
   6 C :   -0.115864
   7 C :   -0.370518
   8 S :    0.055222
   9 C :   -0.479954
  10 S :    0.080469
  11 P :    0.577868
  12 S :   -0.295663
  13 O :   -0.237467
  14 C :   -0.127461
  15 C :   -0.359247
  16 O :   -0.240042
  17 C :   -0.116284
  18 C :   -0.366687
  19 H :    0.129491
  20 H :    0.128287
  21 H :    0.124792
  22 H :    0.102669
  23 H :    0.115196
  24 H :    0.108148
  25 H :    0.122239
  26 H :    0.122853
  27 H :    0.130606
  28 H :    0.131435
  29 H :    0.137745
  30 H :    0.120019
  31 H :    0.114014
  32 H :    0.109276
  33 H :    0.127761
  34 H :    0.123005
  35 H :    0.121015
  36 H :    0.122680
  37 H :    0.107650
  38 H :    0.122577
  39 H :    0.129571
  40 H :    0.131693

  Mayer bond orders larger than 0.100000
B(  0-C ,  1-C ) :   1.1685 B(  0-C , 19-H ) :   0.9403 B(  0-C , 20-H ) :   0.9483
B(  0-C , 21-H ) :   0.9431 B(  1-C ,  2-O ) :   0.8824 B(  1-C , 22-H ) :   0.9107
B(  1-C , 23-H ) :   0.9168 B(  2-O ,  3-P ) :   1.1198 B(  3-P ,  4-S ) :   1.6792
B(  3-P ,  5-O ) :   1.0731 B(  3-P ,  8-S ) :   0.9403 B(  4-S ,  8-S ) :   0.1134
B(  5-O ,  6-C ) :   0.9144 B(  6-C ,  7-C ) :   1.1672 B(  6-C , 24-H ) :   0.9246
B(  6-C , 25-H ) :   0.9331 B(  7-C , 26-H ) :   0.9319 B(  7-C , 27-H ) :   0.9340
B(  7-C , 28-H ) :   0.9415 B(  8-S ,  9-C ) :   0.9916 B(  9-C , 10-S ) :   1.0175
B(  9-C , 29-H ) :   0.9120 B(  9-C , 30-H ) :   0.8446 B( 10-S , 11-P ) :   0.9439
B( 10-S , 12-S ) :   0.1124 B( 11-P , 12-S ) :   1.5961 B( 11-P , 13-O ) :   1.1179
B( 11-P , 16-O ) :   1.1408 B( 12-S , 30-H ) :   0.1244 B( 13-O , 14-C ) :   0.8859
B( 14-C , 15-C ) :   1.1527 B( 14-C , 31-H ) :   0.9277 B( 14-C , 32-H ) :   0.9045
B( 15-C , 33-H ) :   0.9422 B( 15-C , 34-H ) :   0.9419 B( 15-C , 35-H ) :   0.9481
B( 16-O , 17-C ) :   0.9071 B( 17-C , 18-C ) :   1.1681 B( 17-C , 36-H ) :   0.9331
B( 17-C , 37-H ) :   0.9187 B( 18-C , 38-H ) :   0.9351 B( 18-C , 39-H ) :   0.9434
B( 18-C , 40-H ) :   0.9351

Dispersion correction           -0.067539139
FINAL SINGLE POINT ENERGY     -2929.510185823667

DIPOLE MOMENT
-------------

Method             : SCF
Type of density    : Electron Density
Multiplicity       :   1
Irrep              :   0
Energy             : -2929.6296425690529759 Eh
Relativity type    :
Basis              : AO
                                X                 Y                 Z
Electronic contribution:     -3.206616580      -9.167040267      -4.382935721
Nuclear contribution   :      3.862368776       8.625449952       4.407937133
                        -----------------------------------------
Total Dipole Moment    :      0.655752196      -0.541590315       0.025001412
                        -----------------------------------------
Magnitude (a.u.)       :      0.850856088
Magnitude (Debye)      :      2.162704302

Rotational constants in cm-1:             0.012003             0.005566             0.005115
Rotational constants in MHz :           359.831528           166.878969           153.342995

                             ****ORCA TERMINATED NORMALLY****
TOTAL RUN TIME: 0 days 0 hours 0 minutes 21 seconds 802 msec
