                         Program Version 6.0.0  -   RELEASE  -
|  1> ! pbe def2-sv(p) def2/J RI DEFGRID1 loosescf d4 GCP(DFT/SV(P)) printgap
|  2> %output
|  3>     printlevel normal
|  4> end
|  5> * xyz 0 1
|  6> C 1.8644061017 0.9499950151 -2.482315813
|  7> C 3.076803708 1.3697256786 -1.6791454864
|  8> O 3.3086377068 0.5140364172 -0.5471817427
|  9> P 2.3200451692 0.4329135178 0.6976212539
| 10> S 1.497151724 2.1058859237 1.27196882
| 11> O 3.2648442528 -0.1285687082 1.830602877
| 12> C 4.0586223932 -1.3362685279 1.6918470173
| 13> C 3.4972603156 -2.4332027804 2.5743378427
| 14> S 1.0227408683 -1.1864319883 0.2063612837
| 15> C -0.220748695 -0.8602313779 1.5011166955
| 16> S -1.9028349432 -1.2433282792 0.9640124381
| 17> P -1.9734779254 -0.1121917513 -0.854662667
| 18> S -1.276537579 -0.9948199895 -2.4591964219
| 19> O -1.2435233482 1.2539599096 -0.5356769939
| 20> C -1.8810129342 2.4440828079 -0.0071690687
| 21> C -2.3748103869 2.2669503981 1.4125391777
| 22> O -3.4982645587 0.3189703089 -0.9704112657
| 23> C -4.4739405128 -0.5205553142 -1.6108807614
| 24> C -4.7438432415 -1.7800307883 -0.8140773184
| 25> H 1.9258119711 -0.1002026886 -2.759646852
| 26> H 0.9546521584 1.0984311364 -1.9006294315
| 27> H 1.7989160782 1.551197481 -3.3833685156
| 28> H 2.9610456686 2.3963085209 -1.3175000644
| 29> H 3.9946017142 1.2816158408 -2.2624118242
| 30> H 4.0760986491 -1.6361735293 0.6420401815
| 31> H 5.0620935226 -1.0468329312 2.0071702089
| 32> H 2.5251916909 -2.7571407732 2.2105511279
| 33> H 4.1770654234 -3.2792256427 2.5615191798
| 34> H 3.3936973466 -2.0722847391 3.5938433937
| 35> H -0.1476968613 0.1940989716 1.7767674097
| 36> H -0.0353300529 -1.5043423225 2.3577462334
| 37> H -1.0876224559 3.1920670928 -0.0569972812
| 38> H -2.6993776794 2.7128954725 -0.6764720029
| 39> H -1.542239724 2.0611768758 2.0812014403
| 40> H -2.8534952481 3.1877588814 1.7307380086
| 41> H -3.0958468569 1.4543708447 1.4673598561
| 42> H -5.3590494211 0.1131679491 -1.6801074756
| 43> H -4.1116929595 -0.7692580921 -2.6135487944
| 44> H -5.5483206879 -2.3374620241 -1.2827516575
| 45> H -3.8492841053 -2.4020018999 -0.7924331829
| 46> H -5.0210526695 -1.5331212087 0.2073999688
| 47> *
| 48>
| 49>                          ****END OF INPUT****

CARTESIAN COORDINATES (ANGSTROEM)
---------------------------------
  C      1.864406    0.949995   -2.482316
  C      3.076804    1.369726   -1.679145
  O      3.308638    0.514036   -0.547182
  P      2.320045    0.432914    0.697621
  S      1.497152    2.105886    1.271969
  O      3.264844   -0.128569    1.830603
  C      4.058622   -1.336269    1.691847
  C      3.497260   -2.433203    2.574338
  S      1.022741   -1.186432    0.206361
  C     -0.220749   -0.860231    1.501117
  S     -1.902835   -1.243328    0.964012
  P     -1.973478   -0.112192   -0.854663
  S     -1.276538   -0.994820   -2.459196
  O     -1.243523    1.253960   -0.535677
  C     -1.881013    2.444083   -0.007169
  C     -2.374810    2.266950    1.412539
  O     -3.498265    0.318970   -0.970411
  C     -4.473941   -0.520555   -1.610881
  C     -4.743843   -1.780031   -0.814077
  H      1.925812   -0.100203   -2.759647
  H      0.954652    1.098431   -1.900629
  H      1.798916    1.551197   -3.383369
  H      2.961046    2.396309   -1.317500
  H      3.994602    1.281616   -2.262412
  H      4.076099   -1.636174    0.642040
  H      5.062094   -1.046833    2.007170
  H      2.525192   -2.757141    2.210551
  H      4.177065   -3.279226    2.561519
  H      3.393697   -2.072285    3.593843
  H     -0.147697    0.194099    1.776767
  H     -0.035330   -1.504342    2.357746
  H     -1.087622    3.192067   -0.056997
  H     -2.699378    2.712895   -0.676472
  H     -1.542240    2.061177    2.081201
  H     -2.853495    3.187759    1.730738
  H     -3.095847    1.454371    1.467360
  H     -5.359049    0.113168   -1.680107
  H     -4.111693   -0.769258   -2.613549
  H     -5.548321   -2.337462   -1.282752
  H     -3.849284   -2.402002   -0.792433
  H     -5.021053   -1.533121    0.207400

 Total Charge           Charge          ....    0
 Multiplicity           Mult            ....    1
 Number of Electrons    NEL             ....  202
 Basis Dimension        Dim             ....  334

ORBITAL ENERGIES
----------------

  NO   OCC          E(Eh)            E(eV)
   0   2.0000     -88.041879     -2395.7413
   1   2.0000     -88.041356     -2395.7271
   2   2.0000     -87.987627     -2394.2651
   3   2.0000     -87.979228     -2394.0365
   4   2.0000     -76.426502     -2079.6709
   5   2.0000     -76.425849     -2079.6531
   6   2.0000     -18.795732      -511.4579
   7   2.0000     -18.792916      -511.3812
   8   2.0000     -18.790070      -511.3038
   9   2.0000     -18.787646      -511.2378
  10   2.0000      -9.956410      -270.9277
  11   2.0000      -9.955167      -270.8939
  12   2.0000      -9.955075      -270.8914
  13   2.0000      -9.950810      -270.7753
  14   2.0000      -9.947822      -270.6940
  15   2.0000      -9.888070      -269.0681
  16   2.0000      -9.887906      -269.0636
  17   2.0000      -9.881331      -268.8847
  18   2.0000      -9.870006      -268.5765
  19   2.0000      -7.686793      -209.1683
  20   2.0000      -7.685651      -209.1372
  21   2.0000      -7.632859      -207.7007
  22   2.0000      -7.624399      -207.4704
  23   2.0000      -6.423442      -174.7908
  24   2.0000      -6.423397      -174.7895
  25   2.0000      -5.714843      -155.5088
  26   2.0000      -5.713440      -155.4706
  27   2.0000      -5.711397      -155.4150
  28   2.0000      -5.710358      -155.3867
  29   2.0000      -5.703566      -155.2019
  30   2.0000      -5.702601      -155.1757
  31   2.0000      -5.661733      -154.0636
  32   2.0000      -5.653554      -153.8410
  33   2.0000      -5.653439      -153.8379
  34   2.0000      -5.652874      -153.8225
  35   2.0000      -5.645124      -153.6116
  36   2.0000      -5.644330      -153.5900
  37   2.0000      -4.646832      -126.4467
  38   2.0000      -4.646314      -126.4326
  39   2.0000      -4.645117      -126.4001
  40   2.0000      -4.644957      -126.3957
  41   2.0000      -4.643770      -126.3634
  42   2.0000      -4.643314      -126.3510
  43   2.0000      -0.989094       -26.9146
  44   2.0000      -0.986036       -26.8314
  45   2.0000      -0.944901       -25.7121
  46   2.0000      -0.942721       -25.6527
  47   2.0000      -0.760790       -20.7021
  48   2.0000      -0.719538       -19.5796
  49   2.0000      -0.709274       -19.3003
  50   2.0000      -0.691284       -18.8108
  51   2.0000      -0.684556       -18.6277
  52   2.0000      -0.675419       -18.3791
  53   2.0000      -0.650366       -17.6974
  54   2.0000      -0.636197       -17.3118
  55   2.0000      -0.595143       -16.1947
  56   2.0000      -0.587372       -15.9832
  57   2.0000      -0.577757       -15.7216
  58   2.0000      -0.575486       -15.6598
  59   2.0000      -0.557373       -15.1669
  60   2.0000      -0.500927       -13.6309
  61   2.0000      -0.495298       -13.4777
  62   2.0000      -0.471081       -12.8188
  63   2.0000      -0.469199       -12.7676
  64   2.0000      -0.452912       -12.3244
  65   2.0000      -0.449424       -12.2295
  66   2.0000      -0.443235       -12.0610
  67   2.0000      -0.438781       -11.9398
  68   2.0000      -0.426926       -11.6172
  69   2.0000      -0.423438       -11.5223
  70   2.0000      -0.413751       -11.2587
  71   2.0000      -0.395854       -10.7717
  72   2.0000      -0.391660       -10.6576
  73   2.0000      -0.381979       -10.3942
  74   2.0000      -0.381469       -10.3803
  75   2.0000      -0.367335        -9.9957
  76   2.0000      -0.366133        -9.9630
  77   2.0000      -0.358708        -9.7609
  78   2.0000      -0.355843        -9.6830
  79   2.0000      -0.349928        -9.5220
  80   2.0000      -0.346396        -9.4259
  81   2.0000      -0.342256        -9.3133
  82   2.0000      -0.340001        -9.2519
  83   2.0000      -0.332382        -9.0446
  84   2.0000      -0.328243        -8.9319
  85   2.0000      -0.320541        -8.7224
  86   2.0000      -0.312097        -8.4926
  87   2.0000      -0.299472        -8.1490
  88   2.0000      -0.297567        -8.0972
  89   2.0000      -0.293963        -7.9991
  90   2.0000      -0.287330        -7.8186
  91   2.0000      -0.271616        -7.3910
  92   2.0000      -0.268631        -7.3098
  93   2.0000      -0.262315        -7.1380
  94   2.0000      -0.254373        -6.9218
  95   2.0000      -0.238518        -6.4904
  96   2.0000      -0.220906        -6.0112
  97   2.0000      -0.208661        -5.6779
  98   2.0000      -0.204819        -5.5734
  99   2.0000      -0.192648        -5.2422
 100   2.0000      -0.186873        -5.0851
 101   0.0000      -0.047649        -1.2966
 102   0.0000      -0.033791        -0.9195
 103   0.0000      -0.016288        -0.4432
 104   0.0000       0.003222         0.0877
 105   0.0000       0.020240         0.5507

MULLIKEN ATOMIC CHARGES
-----------------------
   0 C :   -0.344183
   1 C :    0.002989
   2 O :   -0.380958
   3 P :    0.604203
   4 S :   -0.317334
   5 O :   -0.362163
   6 C :   -0.009201
   7 C :   -0.293649
   8 S :   -0.088405
   9 C :   -0.351808
  10 S :   -0.112062
  11 P :    0.614514
  12 S :   -0.303640
  13 O :   -0.364690
  14 C :    0.017755
  15 C :   -0.339042
  16 O :   -0.379746
  17 C :   -0.000764
  18 C :   -0.330243
  19 H :    0.121095
  20 H :    0.158597
  21 H :    0.108044
  22 H :    0.107440
  23 H :    0.102009
  24 H :    0.108894
  25 H :    0.111652
  26 H :    0.120704
  27 H :    0.110529
  28 H :    0.118809
  29 H :    0.204281
  30 H :    0.178627
  31 H :    0.114636
  32 H :    0.105868
  33 H :    0.139490
  34 H :    0.109823
  35 H :    0.124598
  36 H :    0.105012
  37 H :    0.114327
  38 H :    0.118382
  39 H :    0.134442
  40 H :    0.121173
Sum of atomic charges:   -0.0000000

LOEWDIN ATOMIC CHARGES
----------------------
   0 C :   -0.375949
   1 C :   -0.116360
   2 O :   -0.246604
   3 P :    0.574630
   4 S :   -0.300278
   5 O :   -0.245136
   6 C :   -0.112592
   7 C :   -0.360149
   8 S :    0.084543
   9 C :   -0.479398
  10 S :    0.070328
  11 P :    0.573976
  12 S :   -0.307025
  13 O :   -0.233650
  14 C :   -0.109743
  15 C :   -0.370500
  16 O :   -0.243853
  17 C :   -0.120313
  18 C :   -0.372431
  19 H :    0.124480
  20 H :    0.123909
  21 H :    0.130351
  22 H :    0.110795
  23 H :    0.117210
  24 H :    0.110317
  25 H :    0.122134
  26 H :    0.120294
  27 H :    0.130414
  28 H :    0.128239
  29 H :    0.118177
  30 H :    0.132557
  31 H :    0.120531
  32 H :    0.112863
  33 H :    0.125680
  34 H :    0.131542
  35 H :    0.118463
  36 H :    0.118635
  37 H :    0.111979
  38 H :    0.134214
  39 H :    0.122687
  40 H :    0.125033

  Mayer bond orders larger than 0.100000
B(  0-C ,  1-C ) :   1.1584 B(  0-C , 19-H ) :   0.9421 B(  0-C , 20-H ) :   0.9220
B(  0-C , 21-H ) :   0.9370 B(  1-C ,  2-O ) :   0.8984 B(  1-C , 22-H ) :   0.9200
B(  1-C , 23-H ) :   0.9330 B(  2-O ,  3-P ) :   1.1037 B(  3-P ,  4-S ) :   1.6169
B(  3-P ,  5-O ) :   1.1312 B(  3-P ,  8-S ) :   0.9531 B(  4-S ,  8-S ) :   0.1116
B(  5-O ,  6-C ) :   0.8902 B(  6-C ,  7-C ) :   1.1638 B(  6-C , 24-H ) :   0.9181
B(  6-C , 25-H ) :   0.9345 B(  7-C , 26-H ) :   0.9372 B(  7-C , 27-H ) :   0.9396
B(  7-C , 28-H ) :   0.9465 B(  8-S ,  9-C ) :   0.9900 B(  9-C , 10-S ) :   1.0140
B(  9-C , 29-H ) :   0.8483 B(  9-C , 30-H ) :   0.9088 B( 10-S , 11-P ) :   0.9313
B( 10-S , 12-S ) :   0.1090 B( 11-P , 12-S ) :   1.6599 B( 11-P , 13-O ) :   1.1132
B( 11-P , 16-O ) :   1.0689 B( 13-O , 14-C ) :   0.8864 B( 14-C , 15-C ) :   1.1750
B( 14-C , 31-H ) :   0.9222 B( 14-C , 32-H ) :   0.9281 B( 15-C , 33-H ) :   0.9323
B( 15-C , 34-H ) :   0.9355 B( 15-C , 35-H ) :   0.9360 B( 16-O , 17-C ) :   0.9053
B( 17-C , 18-C ) :   1.1648 B( 17-C , 36-H ) :   0.9324 B( 17-C , 37-H ) :   0.9122
B( 18-C , 38-H ) :   0.9377 B( 18-C , 39-H ) :   0.9294 B( 18-C , 40-H ) :   0.9440

Dispersion correction           -0.067488595
FINAL SINGLE POINT ENERGY     -2929.513171672703

DIPOLE MOMENT
-------------

Method             : SCF
Type of density    : Electron Density
Multiplicity       :   1
Irrep              :   0
Energy             : -2929.6326617026152235 Eh
Relativity type    :
Basis              : AO
                                X                 Y                 Z
Electronic contribution:      4.161207756       0.241005115      -1.636384009
Nuclear contribution   :     -4.468172538      -0.402292737       1.929856332
                        -----------------------------------------
Total Dipole Moment    :     -0.306964782      -0.161287622       0.293472323
                        -----------------------------------------
Magnitude (a.u.)       :      0.454276434
Magnitude (Debye)      :      1.154678932

Rotational constants in cm-1:             0.012580             0.005147             0.004966
Rotational constants in MHz :           377.125255           154.314775           148.863150

                             ****ORCA TERMINATED NORMALLY****
TOTAL RUN TIME: 0 days 0 hours 0 minutes 21 seconds 474 msec
