                         Program Version 6.0.0  -   RELEASE  -
|  1> ! pbe def2-sv(p) def2/J RI DEFGRID1 loosescf d4 GCP(DFT/SV(P)) printgap
|  2> %output
|  3>     printlevel normal
|  4> end
|  5> * xyz 0 1
|  6> C 3.1348497575 -1.3605025324 -2.457852659
|  7> C 2.2739348284 -0.1177079543 -2.5189958227
|  8> O 2.3407230954 0.6894967392 -1.3200050834
|  9> P 2.1447775455 0.2069776965 0.1614174693
| 10> S 1.6671011231 1.7154878468 1.3173084634
| 11> O 3.576057435 -0.4358293306 0.4513778107
| 12> C 3.8949940032 -1.329988411 1.5300865498
| 13> C 3.7200881857 -0.6961728955 2.8955321768
| 14> S 0.8312488293 -1.4735657291 0.198122786
| 15> C -0.2846221504 -0.9603962131 1.5402013991
| 16> S -2.0506700242 -1.0917530092 1.1468726448
| 17> P -2.3643657485 0.3477927765 -0.3850611818
| 18> S -0.8214454962 1.1613837187 -1.2985454132
| 19> O -3.4096382142 1.3713356485 0.226399651
| 20> C -3.0360938281 2.5956687625 0.8758997564
| 21> C -2.2761232454 2.3614287215 2.1669754909
| 22> O -3.3986521583 -0.3779471839 -1.3367535737
| 23> C -2.9824186937 -1.184657084 -2.4541249958
| 24> C -2.3262159665 -2.4812312756 -2.0215131064
| 25> H 4.1609477805 -1.0946100342 -2.2172319411
| 26> H 2.7575142815 -2.0480847469 -1.7022852732
| 27> H 3.1071753386 -1.8526638398 -3.4251622129
| 28> H 1.2228251883 -0.3677876291 -2.6874579631
| 29> H 2.6100438466 0.5699910984 -3.2966551567
| 30> H 3.2702326491 -2.2231160712 1.4334114652
| 31> H 4.939082777 -1.5895392938 1.346227778
| 32> H 2.6739763544 -0.4519393725 3.0718961133
| 33> H 4.0579461328 -1.3895064103 3.6589681321
| 34> H 4.2976835791 0.222621679 2.9620325965
| 35> H -0.024112915 0.0656901931 1.8167114676
| 36> H -0.1459641953 -1.6412439975 2.3764632489
| 37> H -2.436215113 3.1937369251 0.1819351996
| 38> H -3.9908938666 3.0911939179 1.0582418796
| 39> H -2.7939575084 1.631161003 2.7840171316
| 40> H -1.2678838883 2.0059958765 1.9530543804
| 41> H -2.1932008949 3.2973367695 2.7103863692
| 42> H -3.9092626435 -1.3676070906 -2.9997692641
| 43> H -2.3006165927 -0.5913787479 -3.0726066476
| 44> H -2.9657692883 -3.0108110948 -1.3201269665
| 45> H -2.1563999605 -3.1029684422 -2.8947172049
| 46> H -1.3687498678 -2.2821201973 -1.541006366
| 47> *
| 48>
| 49>                          ****END OF INPUT****

CARTESIAN COORDINATES (ANGSTROEM)
---------------------------------
  C      3.134850   -1.360503   -2.457853
  C      2.273935   -0.117708   -2.518996
  O      2.340723    0.689497   -1.320005
  P      2.144778    0.206978    0.161417
  S      1.667101    1.715488    1.317308
  O      3.576057   -0.435829    0.451378
  C      3.894994   -1.329988    1.530087
  C      3.720088   -0.696173    2.895532
  S      0.831249   -1.473566    0.198123
  C     -0.284622   -0.960396    1.540201
  S     -2.050670   -1.091753    1.146873
  P     -2.364366    0.347793   -0.385061
  S     -0.821445    1.161384   -1.298545
  O     -3.409638    1.371336    0.226400
  C     -3.036094    2.595669    0.875900
  C     -2.276123    2.361429    2.166975
  O     -3.398652   -0.377947   -1.336754
  C     -2.982419   -1.184657   -2.454125
  C     -2.326216   -2.481231   -2.021513
  H      4.160948   -1.094610   -2.217232
  H      2.757514   -2.048085   -1.702285
  H      3.107175   -1.852664   -3.425162
  H      1.222825   -0.367788   -2.687458
  H      2.610044    0.569991   -3.296655
  H      3.270233   -2.223116    1.433411
  H      4.939083   -1.589539    1.346228
  H      2.673976   -0.451939    3.071896
  H      4.057946   -1.389506    3.658968
  H      4.297684    0.222622    2.962033
  H     -0.024113    0.065690    1.816711
  H     -0.145964   -1.641244    2.376463
  H     -2.436215    3.193737    0.181935
  H     -3.990894    3.091194    1.058242
  H     -2.793958    1.631161    2.784017
  H     -1.267884    2.005996    1.953054
  H     -2.193201    3.297337    2.710386
  H     -3.909263   -1.367607   -2.999769
  H     -2.300617   -0.591379   -3.072607
  H     -2.965769   -3.010811   -1.320127
  H     -2.156400   -3.102968   -2.894717
  H     -1.368750   -2.282120   -1.541006

 Total Charge           Charge          ....    0
 Multiplicity           Mult            ....    1
 Number of Electrons    NEL             ....  202
 Basis Dimension        Dim             ....  334

ORBITAL ENERGIES
----------------

  NO   OCC          E(Eh)            E(eV)
   0   2.0000     -88.048253     -2395.9148
   1   2.0000     -88.044890     -2395.8233
   2   2.0000     -87.986981     -2394.2475
   3   2.0000     -87.981277     -2394.0923
   4   2.0000     -76.426499     -2079.6708
   5   2.0000     -76.424188     -2079.6079
   6   2.0000     -18.790043      -511.3031
   7   2.0000     -18.787119      -511.2235
   8   2.0000     -18.784818      -511.1609
   9   2.0000     -18.782226      -511.0903
  10   2.0000      -9.958735      -270.9910
  11   2.0000      -9.954578      -270.8778
  12   2.0000      -9.954113      -270.8652
  13   2.0000      -9.950811      -270.7753
  14   2.0000      -9.947179      -270.6765
  15   2.0000      -9.890832      -269.1432
  16   2.0000      -9.882728      -268.9227
  17   2.0000      -9.882238      -268.9094
  18   2.0000      -9.877465      -268.7795
  19   2.0000      -7.692131      -209.3135
  20   2.0000      -7.689902      -209.2529
  21   2.0000      -7.631332      -207.6591
  22   2.0000      -7.626415      -207.5253
  23   2.0000      -6.423184      -174.7837
  24   2.0000      -6.421457      -174.7367
  25   2.0000      -5.719930      -155.6472
  26   2.0000      -5.717835      -155.5902
  27   2.0000      -5.716696      -155.5592
  28   2.0000      -5.714263      -155.4930
  29   2.0000      -5.709308      -155.3582
  30   2.0000      -5.706946      -155.2939
  31   2.0000      -5.660226      -154.0226
  32   2.0000      -5.655460      -153.8929
  33   2.0000      -5.651902      -153.7961
  34   2.0000      -5.651691      -153.7903
  35   2.0000      -5.647382      -153.6731
  36   2.0000      -5.646027      -153.6362
  37   2.0000      -4.645819      -126.4192
  38   2.0000      -4.645310      -126.4053
  39   2.0000      -4.643655      -126.3603
  40   2.0000      -4.643480      -126.3555
  41   2.0000      -4.643367      -126.3524
  42   2.0000      -4.642004      -126.3153
  43   2.0000      -0.984409       -26.7871
  44   2.0000      -0.983709       -26.7681
  45   2.0000      -0.941437       -25.6178
  46   2.0000      -0.939547       -25.5664
  47   2.0000      -0.762087       -20.7374
  48   2.0000      -0.719600       -19.5813
  49   2.0000      -0.710612       -19.3367
  50   2.0000      -0.690118       -18.7791
  51   2.0000      -0.680185       -18.5088
  52   2.0000      -0.678394       -18.4600
  53   2.0000      -0.652043       -17.7430
  54   2.0000      -0.637041       -17.3348
  55   2.0000      -0.600260       -16.3339
  56   2.0000      -0.592412       -16.1203
  57   2.0000      -0.576233       -15.6801
  58   2.0000      -0.567882       -15.4529
  59   2.0000      -0.564901       -15.3717
  60   2.0000      -0.495778       -13.4908
  61   2.0000      -0.490276       -13.3411
  62   2.0000      -0.471142       -12.8204
  63   2.0000      -0.461457       -12.5569
  64   2.0000      -0.455016       -12.3816
  65   2.0000      -0.450668       -12.2633
  66   2.0000      -0.438778       -11.9397
  67   2.0000      -0.436523       -11.8784
  68   2.0000      -0.424691       -11.5564
  69   2.0000      -0.416891       -11.3442
  70   2.0000      -0.409415       -11.1407
  71   2.0000      -0.406430       -11.0595
  72   2.0000      -0.399214       -10.8632
  73   2.0000      -0.395054       -10.7500
  74   2.0000      -0.380937       -10.3658
  75   2.0000      -0.373520       -10.1640
  76   2.0000      -0.362311        -9.8590
  77   2.0000      -0.354998        -9.6600
  78   2.0000      -0.350331        -9.5330
  79   2.0000      -0.349411        -9.5080
  80   2.0000      -0.348236        -9.4760
  81   2.0000      -0.344805        -9.3826
  82   2.0000      -0.342287        -9.3141
  83   2.0000      -0.336903        -9.1676
  84   2.0000      -0.331592        -9.0231
  85   2.0000      -0.315220        -8.5776
  86   2.0000      -0.311087        -8.4651
  87   2.0000      -0.296505        -8.0683
  88   2.0000      -0.293387        -7.9835
  89   2.0000      -0.286066        -7.7843
  90   2.0000      -0.283310        -7.7093
  91   2.0000      -0.274461        -7.4685
  92   2.0000      -0.265655        -7.2288
  93   2.0000      -0.261310        -7.1106
  94   2.0000      -0.257688        -7.0121
  95   2.0000      -0.239777        -6.5247
  96   2.0000      -0.220292        -5.9944
  97   2.0000      -0.213404        -5.8070
  98   2.0000      -0.201929        -5.4948
  99   2.0000      -0.194739        -5.2991
 100   2.0000      -0.184139        -5.0107
 101   0.0000      -0.047647        -1.2966
 102   0.0000      -0.036777        -1.0007
 103   0.0000      -0.017339        -0.4718
 104   0.0000      -0.002290        -0.0623
 105   0.0000       0.015731         0.4281

MULLIKEN ATOMIC CHARGES
-----------------------
   0 C :   -0.321604
   1 C :   -0.003186
   2 O :   -0.353502
   3 P :    0.608668
   4 S :   -0.294855
   5 O :   -0.370658
   6 C :   -0.006932
   7 C :   -0.304088
   8 S :   -0.127537
   9 C :   -0.338943
  10 S :   -0.107564
  11 P :    0.595839
  12 S :   -0.313442
  13 O :   -0.357782
  14 C :    0.007001
  15 C :   -0.349380
  16 O :   -0.358093
  17 C :    0.002293
  18 C :   -0.329858
  19 H :    0.126696
  20 H :    0.124023
  21 H :    0.115708
  22 H :    0.119924
  23 H :    0.111737
  24 H :    0.101198
  25 H :    0.105291
  26 H :    0.118624
  27 H :    0.107398
  28 H :    0.125292
  29 H :    0.209743
  30 H :    0.178747
  31 H :    0.114601
  32 H :    0.104821
  33 H :    0.117185
  34 H :    0.152143
  35 H :    0.112146
  36 H :    0.106455
  37 H :    0.106544
  38 H :    0.118897
  39 H :    0.108291
  40 H :    0.138155
Sum of atomic charges:    0.0000000

LOEWDIN ATOMIC CHARGES
----------------------
   0 C :   -0.368389
   1 C :   -0.113199
   2 O :   -0.225017
   3 P :    0.575503
   4 S :   -0.289933
   5 O :   -0.246364
   6 C :   -0.120252
   7 C :   -0.367620
   8 S :    0.073976
   9 C :   -0.481053
  10 S :    0.082423
  11 P :    0.563545
  12 S :   -0.296251
  13 O :   -0.237528
  14 C :   -0.113998
  15 C :   -0.374737
  16 O :   -0.237863
  17 C :   -0.115729
  18 C :   -0.373859
  19 H :    0.130252
  20 H :    0.114913
  21 H :    0.132716
  22 H :    0.108493
  23 H :    0.124449
  24 H :    0.100724
  25 H :    0.119204
  26 H :    0.117662
  27 H :    0.127810
  28 H :    0.130906
  29 H :    0.120485
  30 H :    0.135781
  31 H :    0.113433
  32 H :    0.119072
  33 H :    0.123372
  34 H :    0.120983
  35 H :    0.131994
  36 H :    0.119515
  37 H :    0.107769
  38 H :    0.125222
  39 H :    0.128694
  40 H :    0.112897

  Mayer bond orders larger than 0.100000
B(  0-C ,  1-C ) :   1.1640 B(  0-C , 19-H ) :   0.9413 B(  0-C , 20-H ) :   0.9380
B(  0-C , 21-H ) :   0.9350 B(  1-C ,  2-O ) :   0.9008 B(  1-C , 22-H ) :   0.9160
B(  1-C , 23-H ) :   0.9346 B(  2-O ,  3-P ) :   1.1511 B(  3-P ,  4-S ) :   1.6174
B(  3-P ,  5-O ) :   1.0809 B(  3-P ,  8-S ) :   0.9271 B(  4-S ,  8-S ) :   0.1148
B(  4-S , 29-H ) :   0.1214 B(  5-O ,  6-C ) :   0.9238 B(  6-C ,  7-C ) :   1.1649
B(  6-C , 24-H ) :   0.9165 B(  6-C , 25-H ) :   0.9336 B(  7-C , 26-H ) :   0.9352
B(  7-C , 27-H ) :   0.9362 B(  7-C , 28-H ) :   0.9444 B(  8-S ,  9-C ) :   1.0000
B(  9-C , 10-S ) :   1.0039 B(  9-C , 29-H ) :   0.8338 B(  9-C , 30-H ) :   0.9068
B( 10-S , 11-P ) :   0.9403 B( 10-S , 12-S ) :   0.1243 B( 11-P , 12-S ) :   1.6164
B( 11-P , 13-O ) :   1.1264 B( 11-P , 16-O ) :   1.1264 B( 13-O , 14-C ) :   0.9172
B( 14-C , 15-C ) :   1.1606 B( 14-C , 31-H ) :   0.9199 B( 14-C , 32-H ) :   0.9350
B( 15-C , 33-H ) :   0.9428 B( 15-C , 34-H ) :   0.9188 B( 15-C , 35-H ) :   0.9357
B( 16-O , 17-C ) :   0.9158 B( 17-C , 18-C ) :   1.1649 B( 17-C , 36-H ) :   0.9346
B( 17-C , 37-H ) :   0.9155 B( 18-C , 38-H ) :   0.9427 B( 18-C , 39-H ) :   0.9373
B( 18-C , 40-H ) :   0.9280

Dispersion correction           -0.068433229
FINAL SINGLE POINT ENERGY     -2929.512412933252

DIPOLE MOMENT
-------------

Method             : SCF
Type of density    : Electron Density
Multiplicity       :   1
Irrep              :   0
Energy             : -2929.6287398851504804 Eh
Relativity type    :
Basis              : AO
                                X                 Y                 Z
Electronic contribution:     -6.965479856       7.502037408      -0.447105194
Nuclear contribution   :      7.271763677      -8.869414220       0.315228842
                        -----------------------------------------
Total Dipole Moment    :      0.306283821      -1.367376812      -0.131876352
                        -----------------------------------------
Magnitude (a.u.)       :      1.407451774
Magnitude (Debye)      :      3.577458104

Rotational constants in cm-1:             0.011444             0.005829             0.005088
Rotational constants in MHz :           343.071584           174.743140           152.542386

                             ****ORCA TERMINATED NORMALLY****
TOTAL RUN TIME: 0 days 0 hours 0 minutes 21 seconds 680 msec
