                         Program Version 6.0.0  -   RELEASE  -
|  1> ! r2scan-3c def2/J RI DEFGRID2 scfconv6 printgap
|  2> %output
|  3>     printlevel normal
|  4> end
|  5> * xyz 0 1
|  6> C -1.2527363101 0.1649400338 2.8548e-06
|  7> C 0.1156597197 -0.4075604457 2.38348e-05
|  8> O 1.1461315871 0.2236268161 -5.7747e-06
|  9> H -1.2208731209 1.2505420743 0.0004028501
| 10> H -1.7856926285 -0.1978463888 -0.8763705557
| 11> H -1.7860718492 -0.1985579569 0.8758368456
| 12> H 0.1492131446 -1.5127541116 -9.55123e-05
| 13> *
| 14>
| 15>                          ****END OF INPUT****

CARTESIAN COORDINATES (ANGSTROEM)
---------------------------------
  C     -1.252736    0.164940    0.000003
  C      0.115660   -0.407560    0.000024
  O      1.146132    0.223627   -0.000006
  H     -1.220873    1.250542    0.000403
  H     -1.785693   -0.197846   -0.876371
  H     -1.786072   -0.198558    0.875837
  H      0.149213   -1.512754   -0.000096

 Total Charge           Charge          ....    0
 Multiplicity           Mult            ....    1
 Number of Electrons    NEL             ....   24
 Basis Dimension        Dim             ....   82

ORBITAL ENERGIES
----------------

  NO   OCC          E(Eh)            E(eV)
   0   2.0000     -18.951735      -515.7029
   1   2.0000     -10.124264      -275.4952
   2   2.0000     -10.043594      -273.3001
   3   2.0000      -1.014625       -27.6094
   4   2.0000      -0.730765       -19.8851
   5   2.0000      -0.550999       -14.9934
   6   2.0000      -0.449336       -12.2270
   7   2.0000      -0.423146       -11.5144
   8   2.0000      -0.406425       -11.0594
   9   2.0000      -0.368972       -10.0402
  10   2.0000      -0.341333        -9.2882
  11   2.0000      -0.225152        -6.1267
  12   0.0000      -0.058568        -1.5937
  13   0.0000       0.097169         2.6441
  14   0.0000       0.118632         3.2281
  15   0.0000       0.136479         3.7138
  16   0.0000       0.163694         4.4543

MULLIKEN ATOMIC CHARGES
-----------------------
   0 C :   -0.432165
   1 C :    0.184844
   2 O :   -0.344846
   3 H :    0.173324
   4 H :    0.160587
   5 H :    0.160567
   6 H :    0.097688
Sum of atomic charges:    0.0000000

LOEWDIN ATOMIC CHARGES
----------------------
   0 C :   -0.405556
   1 C :    0.192102
   2 O :   -0.453021
   3 H :    0.172149
   4 H :    0.174452
   5 H :    0.174432
   6 H :    0.145443

  Mayer bond orders larger than 0.100000
B(  0-C ,  1-C ) :   0.9484 B(  0-C ,  3-H ) :   0.9713 B(  0-C ,  4-H ) :   0.9426
B(  0-C ,  5-H ) :   0.9426 B(  1-C ,  2-O ) :   1.8932 B(  1-C ,  6-H ) :   0.9476

Dispersion correction           -0.000883009
FINAL SINGLE POINT ENERGY      -153.793632319682

DIPOLE MOMENT
-------------

Method             : SCF
Type of density    : Electron Density
Multiplicity       :   1
Irrep              :   0
Energy             :  -153.7961665517622123 Eh
Relativity type    :
Basis              : AO
                                X                 Y                 Z
Electronic contribution:      3.274665794       0.204387087       0.000162676
Nuclear contribution   :     -4.339311931      -0.614574513      -0.000212462
                        -----------------------------------------
Total Dipole Moment    :     -1.064646137      -0.410187426      -0.000049786
                        -----------------------------------------
Magnitude (a.u.)       :      1.140931691
Magnitude (Debye)      :      2.900017890

Rotational constants in cm-1:             1.953006             0.340361             0.306137
Rotational constants in MHz :         58549.642131         10203.758190          9177.770157

                             ****ORCA TERMINATED NORMALLY****
TOTAL RUN TIME: 0 days 0 hours 0 minutes 34 seconds 644 msec
