                         Program Version 6.0.0  -   RELEASE  -
|  1> ! r2scan-3c def2/J RI DEFGRID2 scfconv6 printgap
|  2> %output
|  3>     printlevel normal
|  4> end
|  5> %cpcm
|  6>     smd true
|  7>     smdsolvent "water"
|  8> end
|  9> * xyz 0 1
| 10> C -1.2527363101 0.1649400338 2.8548e-06
| 11> C 0.1156597197 -0.4075604457 2.38348e-05
| 12> O 1.1461315871 0.2236268161 -5.7747e-06
| 13> H -1.2208731209 1.2505420743 0.0004028501
| 14> H -1.7856926285 -0.1978463888 -0.8763705557
| 15> H -1.7860718492 -0.1985579569 0.8758368456
| 16> H 0.1492131446 -1.5127541116 -9.55123e-05
| 17> *
| 18>
| 19>                          ****END OF INPUT****

CARTESIAN COORDINATES (ANGSTROEM)
---------------------------------
  C     -1.252736    0.164940    0.000003
  C      0.115660   -0.407560    0.000024
  O      1.146132    0.223627   -0.000006
  H     -1.220873    1.250542    0.000403
  H     -1.785693   -0.197846   -0.876371
  H     -1.786072   -0.198558    0.875837
  H      0.149213   -1.512754   -0.000096

 Total Charge           Charge          ....    0
 Multiplicity           Mult            ....    1
 Number of Electrons    NEL             ....   24
 Basis Dimension        Dim             ....   82

ORBITAL ENERGIES
----------------

  NO   OCC          E(Eh)            E(eV)
   0   2.0000     -18.956493      -515.8324
   1   2.0000     -10.124710      -275.5074
   2   2.0000     -10.025899      -272.8186
   3   2.0000      -1.022278       -27.8176
   4   2.0000      -0.716353       -19.4929
   5   2.0000      -0.543316       -14.7844
   6   2.0000      -0.447070       -12.1654
   7   2.0000      -0.410728       -11.1765
   8   2.0000      -0.409316       -11.1381
   9   2.0000      -0.356683        -9.7058
  10   2.0000      -0.340477        -9.2649
  11   2.0000      -0.231034        -6.2867
  12   0.0000      -0.056262        -1.5310
  13   0.0000       0.110025         2.9939
  14   0.0000       0.135782         3.6948
  15   0.0000       0.150735         4.1017
  16   0.0000       0.178653         4.8614

MULLIKEN ATOMIC CHARGES
-----------------------
   0 C :   -0.468199
   1 C :    0.230734
   2 O :   -0.451254
   3 H :    0.175126
   4 H :    0.191726
   5 H :    0.191701
   6 H :    0.130166
Sum of atomic charges:   -0.0000000

LOEWDIN ATOMIC CHARGES
----------------------
   0 C :   -0.402094
   1 C :    0.219637
   2 O :   -0.531787
   3 H :    0.172595
   4 H :    0.189279
   5 H :    0.189257
   6 H :    0.163113

  Mayer bond orders larger than 0.100000
B(  0-C ,  1-C ) :   0.9755 B(  0-C ,  3-H ) :   0.9714 B(  0-C ,  4-H ) :   0.9277
B(  0-C ,  5-H ) :   0.9277 B(  1-C ,  2-O ) :   1.8305 B(  1-C ,  6-H ) :   0.9368

Dispersion correction           -0.000883009
FINAL SINGLE POINT ENERGY      -153.799532803002

DIPOLE MOMENT
-------------

Method             : SCF
Type of density    : Electron Density
Multiplicity       :   1
Irrep              :   0
Energy             :  -153.8020670350826151 Eh
Relativity type    :
Basis              : AO
                                X                 Y                 Z
Electronic contribution:      2.874547303      -0.012646547       0.000133983
Nuclear contribution   :     -4.339311931      -0.614574513      -0.000212462
                        -----------------------------------------
Total Dipole Moment    :     -1.464764628      -0.627221060      -0.000078479
                        -----------------------------------------
Magnitude (a.u.)       :      1.593405686
Magnitude (Debye)      :      4.050115386

Rotational constants in cm-1:             1.953006             0.340361             0.306137
Rotational constants in MHz :         58549.642131         10203.758190          9177.770157

                             ****ORCA TERMINATED NORMALLY****
TOTAL RUN TIME: 0 days 0 hours 0 minutes 29 seconds 317 msec
