                         Program Version 6.0.0  -   RELEASE  -
|  1> ! r2scan-3c def2/J RI DEFGRID2 scfconv6 printgap
|  2> %output
|  3>     printlevel normal
|  4> end
|  5> * xyz 0 1
|  6> C 2.2223969213 1.6328188303 2.6211409838
|  7> C 1.4544155589 0.4265507302 2.1199650046
|  8> O 1.9996200892 0.0637403068 0.8398489141
|  9> P 1.8941059835 -1.3955766267 0.2143540746
| 10> S 1.9189598897 -2.8560562524 1.5169526075
| 11> O 3.049180181 -1.3636041851 -0.8705700339
| 12> C 4.3952181856 -1.7845395298 -0.5621207196
| 13> C 5.0545446763 -0.8791104849 0.4563953398
| 14> S 0.2338932525 -1.3677920511 -1.0921077403
| 15> C 0.5046605185 0.234688354 -1.9042720635
| 16> S 0.0241238474 1.6608978224 -0.8848435505
| 17> P -1.9425130468 1.0502026133 -0.4636071458
| 18> S -2.9417843516 0.1327194758 -1.8846876404
| 19> O -2.6399619555 2.3790006044 0.0604439019
| 20> C -3.1865316494 3.3662826981 -0.8388247264
| 21> C -4.2291476903 4.1636557059 -0.0815631422
| 22> O -1.7300378562 0.2739065166 0.9040549347
| 23> C -2.7563347946 -0.5706081631 1.4762204312
| 24> C -2.4139734793 -2.0327095921 1.2709324212
| 25> H 1.8034928995 1.9507840132 3.5701303811
| 26> H 3.2708934145 1.3835063975 2.7571429742
| 27> H 2.1403668728 2.4423489591 1.9010896244
| 28> H 0.3943579863 0.6613902805 1.9911891656
| 29> H 1.5507816321 -0.4300458048 2.7959620198
| 30> H 4.3573958179 -2.8150656218 -0.1960268593
| 31> H 4.9032538626 -1.7512554726 -1.5268102795
| 32> H 4.9987016836 0.1569122729 0.1324982879
| 33> H 4.5513490731 -0.9787956076 1.4173180267
| 34> H 6.0946962582 -1.1672096739 0.572771647
| 35> H -0.114342065 0.211978684 -2.7999366886
| 36> H 1.5565570685 0.3560140793 -2.1473864378
| 37> H -2.3659979816 4.0030360106 -1.1784617614
| 38> H -3.6230231078 2.8493164586 -1.7000850398
| 39> H -5.0363108261 3.5132734115 0.2436288385
| 40> H -3.778455475 4.6286033252 0.7903805221
| 41> H -4.6304152627 4.9326648633 -0.7334045823
| 42> H -2.7784505152 -0.3093384902 2.535395186
| 43> H -3.7180959014 -0.3286084812 1.0159890012
| 44> H -3.1489058068 -2.6477176207 1.7800164346
| 45> H -2.4177173648 -2.2765173839 0.2102815734
| 46> H -1.4263481204 -2.2527337939 1.6712509811
| 47> *
| 48>
| 49>                          ****END OF INPUT****

CARTESIAN COORDINATES (ANGSTROEM)
---------------------------------
  C      2.222397    1.632819    2.621141
  C      1.454416    0.426551    2.119965
  O      1.999620    0.063740    0.839849
  P      1.894106   -1.395577    0.214354
  S      1.918960   -2.856056    1.516953
  O      3.049180   -1.363604   -0.870570
  C      4.395218   -1.784540   -0.562121
  C      5.054545   -0.879110    0.456395
  S      0.233893   -1.367792   -1.092108
  C      0.504661    0.234688   -1.904272
  S      0.024124    1.660898   -0.884844
  P     -1.942513    1.050203   -0.463607
  S     -2.941784    0.132719   -1.884688
  O     -2.639962    2.379001    0.060444
  C     -3.186532    3.366283   -0.838825
  C     -4.229148    4.163656   -0.081563
  O     -1.730038    0.273907    0.904055
  C     -2.756335   -0.570608    1.476220
  C     -2.413973   -2.032710    1.270932
  H      1.803493    1.950784    3.570130
  H      3.270893    1.383506    2.757143
  H      2.140367    2.442349    1.901090
  H      0.394358    0.661390    1.991189
  H      1.550782   -0.430046    2.795962
  H      4.357396   -2.815066   -0.196027
  H      4.903254   -1.751255   -1.526810
  H      4.998702    0.156912    0.132498
  H      4.551349   -0.978796    1.417318
  H      6.094696   -1.167210    0.572772
  H     -0.114342    0.211979   -2.799937
  H      1.556557    0.356014   -2.147386
  H     -2.365998    4.003036   -1.178462
  H     -3.623023    2.849316   -1.700085
  H     -5.036311    3.513273    0.243629
  H     -3.778455    4.628603    0.790381
  H     -4.630415    4.932665   -0.733405
  H     -2.778451   -0.309338    2.535395
  H     -3.718096   -0.328608    1.015989
  H     -3.148906   -2.647718    1.780016
  H     -2.417717   -2.276517    0.210282
  H     -1.426348   -2.252734    1.671251

 Total Charge           Charge          ....    0
 Multiplicity           Mult            ....    1
 Number of Electrons    NEL             ....  202
 Basis Dimension        Dim             ....  539

ORBITAL ENERGIES
----------------

  NO   OCC          E(Eh)            E(eV)
   0   2.0000     -88.578696     -2410.3489
   1   2.0000     -88.572370     -2410.1767
   2   2.0000     -88.522645     -2408.8236
   3   2.0000     -88.521404     -2408.7899
   4   2.0000     -76.916516     -2093.0048
   5   2.0000     -76.912785     -2092.9033
   6   2.0000     -18.994100      -516.8557
   7   2.0000     -18.990333      -516.7532
   8   2.0000     -18.990020      -516.7447
   9   2.0000     -18.989018      -516.7174
  10   2.0000     -10.110840      -275.1299
  11   2.0000     -10.099841      -274.8307
  12   2.0000     -10.099735      -274.8278
  13   2.0000     -10.097324      -274.7622
  14   2.0000     -10.090440      -274.5748
  15   2.0000     -10.034924      -273.0642
  16   2.0000     -10.031022      -272.9580
  17   2.0000     -10.029495      -272.9164
  18   2.0000     -10.018841      -272.6265
  19   2.0000      -7.873237      -214.2417
  20   2.0000      -7.866512      -214.0587
  21   2.0000      -7.817297      -212.7195
  22   2.0000      -7.816046      -212.6854
  23   2.0000      -6.594888      -179.4560
  24   2.0000      -6.591175      -179.3550
  25   2.0000      -5.820136      -158.3740
  26   2.0000      -5.817042      -158.2898
  27   2.0000      -5.813901      -158.2043
  28   2.0000      -5.810341      -158.1074
  29   2.0000      -5.810053      -158.0996
  30   2.0000      -5.803423      -157.9192
  31   2.0000      -5.764948      -156.8722
  32   2.0000      -5.763654      -156.8370
  33   2.0000      -5.757682      -156.6745
  34   2.0000      -5.757224      -156.6620
  35   2.0000      -5.756430      -156.6404
  36   2.0000      -5.756002      -156.6288
  37   2.0000      -4.740369      -128.9920
  38   2.0000      -4.739823      -128.9771
  39   2.0000      -4.738648      -128.9452
  40   2.0000      -4.736455      -128.8855
  41   2.0000      -4.736278      -128.8807
  42   2.0000      -4.734973      -128.8452
  43   2.0000      -1.050370       -28.5820
  44   2.0000      -1.048564       -28.5329
  45   2.0000      -1.010284       -27.4912
  46   2.0000      -1.009308       -27.4647
  47   2.0000      -0.803175       -21.8555
  48   2.0000      -0.761350       -20.7174
  49   2.0000      -0.749971       -20.4078
  50   2.0000      -0.732155       -19.9230
  51   2.0000      -0.730141       -19.8682
  52   2.0000      -0.708211       -19.2714
  53   2.0000      -0.687798       -18.7159
  54   2.0000      -0.669850       -18.2276
  55   2.0000      -0.629947       -17.1417
  56   2.0000      -0.623347       -16.9621
  57   2.0000      -0.605089       -16.4653
  58   2.0000      -0.598151       -16.2765
  59   2.0000      -0.591714       -16.1014
  60   2.0000      -0.534793       -14.5525
  61   2.0000      -0.525073       -14.2880
  62   2.0000      -0.496626       -13.5139
  63   2.0000      -0.495969       -13.4960
  64   2.0000      -0.479540       -13.0490
  65   2.0000      -0.464439       -12.6380
  66   2.0000      -0.454095       -12.3565
  67   2.0000      -0.451999       -12.2995
  68   2.0000      -0.445383       -12.1195
  69   2.0000      -0.432450       -11.7676
  70   2.0000      -0.428440       -11.6584
  71   2.0000      -0.418437       -11.3863
  72   2.0000      -0.402850       -10.9621
  73   2.0000      -0.398423       -10.8416
  74   2.0000      -0.395130       -10.7520
  75   2.0000      -0.392666       -10.6850
  76   2.0000      -0.380747       -10.3606
  77   2.0000      -0.372171       -10.1273
  78   2.0000      -0.370233       -10.0745
  79   2.0000      -0.369723       -10.0607
  80   2.0000      -0.362827        -9.8730
  81   2.0000      -0.361352        -9.8329
  82   2.0000      -0.357813        -9.7366
  83   2.0000      -0.352900        -9.6029
  84   2.0000      -0.346324        -9.4240
  85   2.0000      -0.333847        -9.0844
  86   2.0000      -0.319326        -8.6893
  87   2.0000      -0.317110        -8.6290
  88   2.0000      -0.309324        -8.4171
  89   2.0000      -0.305518        -8.3136
  90   2.0000      -0.301819        -8.2129
  91   2.0000      -0.292691        -7.9645
  92   2.0000      -0.290056        -7.8928
  93   2.0000      -0.280278        -7.6268
  94   2.0000      -0.270425        -7.3586
  95   2.0000      -0.245158        -6.6711
  96   2.0000      -0.230289        -6.2665
  97   2.0000      -0.222024        -6.0416
  98   2.0000      -0.221009        -6.0140
  99   2.0000      -0.217348        -5.9143
 100   2.0000      -0.214459        -5.8357
 101   0.0000      -0.048165        -1.3106
 102   0.0000      -0.017050        -0.4640
 103   0.0000      -0.010006        -0.2723
 104   0.0000       0.004445         0.1209
 105   0.0000       0.007567         0.2059

MULLIKEN ATOMIC CHARGES
-----------------------
   0 C :   -0.463003
   1 C :   -0.136027
   2 O :   -0.262049
   3 P :    0.683050
   4 S :   -0.477974
   5 O :   -0.301739
   6 C :   -0.156767
   7 C :   -0.438633
   8 S :   -0.106524
   9 C :   -0.252515
  10 S :   -0.121309
  11 P :    0.665532
  12 S :   -0.468950
  13 O :   -0.282844
  14 C :   -0.147857
  15 C :   -0.443263
  16 O :   -0.268079
  17 C :   -0.118064
  18 C :   -0.474656
  19 H :    0.146940
  20 H :    0.149142
  21 H :    0.158895
  22 H :    0.173933
  23 H :    0.167765
  24 H :    0.172271
  25 H :    0.148893
  26 H :    0.155095
  27 H :    0.168747
  28 H :    0.148313
  29 H :    0.211890
  30 H :    0.195954
  31 H :    0.149734
  32 H :    0.171289
  33 H :    0.156566
  34 H :    0.153212
  35 H :    0.147119
  36 H :    0.148063
  37 H :    0.154815
  38 H :    0.142683
  39 H :    0.177665
  40 H :    0.172688
Sum of atomic charges:    0.0000000

LOEWDIN ATOMIC CHARGES
----------------------
   0 C :   -0.387171
   1 C :    0.010320
   2 O :   -0.686658
   3 P :    0.369791
   4 S :   -0.118151
   5 O :   -0.679801
   6 C :    0.024284
   7 C :   -0.401292
   8 S :    0.195966
   9 C :   -0.406061
  10 S :    0.184121
  11 P :    0.366815
  12 S :   -0.124898
  13 O :   -0.664986
  14 C :    0.019708
  15 C :   -0.386209
  16 O :   -0.689041
  17 C :    0.025539
  18 C :   -0.402750
  19 H :    0.159429
  20 H :    0.157130
  21 H :    0.160765
  22 H :    0.189276
  23 H :    0.180757
  24 H :    0.180220
  25 H :    0.179941
  26 H :    0.160855
  27 H :    0.165112
  28 H :    0.159665
  29 H :    0.191532
  30 H :    0.188771
  31 H :    0.171125
  32 H :    0.181348
  33 H :    0.160591
  34 H :    0.159514
  35 H :    0.160158
  36 H :    0.176789
  37 H :    0.176956
  38 H :    0.157131
  39 H :    0.167411
  40 H :    0.165997

  Mayer bond orders larger than 0.100000
B(  0-C ,  1-C ) :   0.9351 B(  0-C , 19-H ) :   0.9681 B(  0-C , 20-H ) :   0.9723
B(  0-C , 21-H ) :   0.9779 B(  1-C ,  2-O ) :   0.7446 B(  1-C , 22-H ) :   0.9366
B(  1-C , 23-H ) :   0.9399 B(  2-O ,  3-P ) :   1.0639 B(  3-P ,  4-S ) :   1.7770
B(  3-P ,  5-O ) :   1.1459 B(  3-P ,  8-S ) :   1.0809 B(  5-O ,  6-C ) :   0.8116
B(  6-C ,  7-C ) :   0.9246 B(  6-C , 24-H ) :   0.9670 B(  6-C , 25-H ) :   0.9615
B(  7-C , 26-H ) :   0.9699 B(  7-C , 27-H ) :   0.9601 B(  7-C , 28-H ) :   0.9600
B(  8-S ,  9-C ) :   0.9065 B(  9-C , 10-S ) :   0.9119 B(  9-C , 29-H ) :   0.9165
B(  9-C , 30-H ) :   0.9188 B( 10-S , 11-P ) :   1.0856 B( 11-P , 12-S ) :   1.7515
B( 11-P , 13-O ) :   1.0864 B( 11-P , 16-O ) :   1.1624 B( 13-O , 14-C ) :   0.7752
B( 14-C , 15-C ) :   0.9593 B( 14-C , 31-H ) :   0.9454 B( 14-C , 32-H ) :   0.9506
B( 15-C , 33-H ) :   0.9722 B( 15-C , 34-H ) :   0.9716 B( 15-C , 35-H ) :   0.9644
B( 16-O , 17-C ) :   0.7520 B( 17-C , 18-C ) :   0.9492 B( 17-C , 36-H ) :   0.9596
B( 17-C , 37-H ) :   0.9621 B( 18-C , 38-H ) :   0.9631 B( 18-C , 39-H ) :   0.9626
B( 18-C , 40-H ) :   0.9641

Dispersion correction           -0.021621056
FINAL SINGLE POINT ENERGY     -2932.464250501411

DIPOLE MOMENT
-------------

Method             : SCF
Type of density    : Electron Density
Multiplicity       :   1
Irrep              :   0
Energy             : -2932.4889789924659453 Eh
Relativity type    :
Basis              : AO
                                X                 Y                 Z
Electronic contribution:     -2.063678665     -10.255963739     -12.216988571
Nuclear contribution   :      2.499477564      11.781388368      12.597212812
                        -----------------------------------------
Total Dipole Moment    :      0.435798898       1.525424628       0.380224242
                        -----------------------------------------
Magnitude (a.u.)       :      1.631383293
Magnitude (Debye)      :      4.146646792

Rotational constants in cm-1:             0.013428             0.004771             0.004580
Rotational constants in MHz :           402.562557           143.029067           137.310136

                             ****ORCA TERMINATED NORMALLY****
TOTAL RUN TIME: 0 days 0 hours 1 minutes 20 seconds 660 msec
