                         Program Version 6.0.0  -   RELEASE  -
|  1> ! r2scan-3c def2/J RI DEFGRID2 scfconv6 printgap
|  2> %output
|  3>     printlevel normal
|  4> end
|  5> %cpcm
|  6>     smd true
|  7>     smdsolvent "water"
|  8> end
|  9> * xyz 0 1
| 10> C 2.2223969213 1.6328188303 2.6211409838
| 11> C 1.4544155589 0.4265507302 2.1199650046
| 12> O 1.9996200892 0.0637403068 0.8398489141
| 13> P 1.8941059835 -1.3955766267 0.2143540746
| 14> S 1.9189598897 -2.8560562524 1.5169526075
| 15> O 3.049180181 -1.3636041851 -0.8705700339
| 16> C 4.3952181856 -1.7845395298 -0.5621207196
| 17> C 5.0545446763 -0.8791104849 0.4563953398
| 18> S 0.2338932525 -1.3677920511 -1.0921077403
| 19> C 0.5046605185 0.234688354 -1.9042720635
| 20> S 0.0241238474 1.6608978224 -0.8848435505
| 21> P -1.9425130468 1.0502026133 -0.4636071458
| 22> S -2.9417843516 0.1327194758 -1.8846876404
| 23> O -2.6399619555 2.3790006044 0.0604439019
| 24> C -3.1865316494 3.3662826981 -0.8388247264
| 25> C -4.2291476903 4.1636557059 -0.0815631422
| 26> O -1.7300378562 0.2739065166 0.9040549347
| 27> C -2.7563347946 -0.5706081631 1.4762204312
| 28> C -2.4139734793 -2.0327095921 1.2709324212
| 29> H 1.8034928995 1.9507840132 3.5701303811
| 30> H 3.2708934145 1.3835063975 2.7571429742
| 31> H 2.1403668728 2.4423489591 1.9010896244
| 32> H 0.3943579863 0.6613902805 1.9911891656
| 33> H 1.5507816321 -0.4300458048 2.7959620198
| 34> H 4.3573958179 -2.8150656218 -0.1960268593
| 35> H 4.9032538626 -1.7512554726 -1.5268102795
| 36> H 4.9987016836 0.1569122729 0.1324982879
| 37> H 4.5513490731 -0.9787956076 1.4173180267
| 38> H 6.0946962582 -1.1672096739 0.572771647
| 39> H -0.114342065 0.211978684 -2.7999366886
| 40> H 1.5565570685 0.3560140793 -2.1473864378
| 41> H -2.3659979816 4.0030360106 -1.1784617614
| 42> H -3.6230231078 2.8493164586 -1.7000850398
| 43> H -5.0363108261 3.5132734115 0.2436288385
| 44> H -3.778455475 4.6286033252 0.7903805221
| 45> H -4.6304152627 4.9326648633 -0.7334045823
| 46> H -2.7784505152 -0.3093384902 2.535395186
| 47> H -3.7180959014 -0.3286084812 1.0159890012
| 48> H -3.1489058068 -2.6477176207 1.7800164346
| 49> H -2.4177173648 -2.2765173839 0.2102815734
| 50> H -1.4263481204 -2.2527337939 1.6712509811
| 51> *
| 52>
| 53>                          ****END OF INPUT****

CARTESIAN COORDINATES (ANGSTROEM)
---------------------------------
  C      2.222397    1.632819    2.621141
  C      1.454416    0.426551    2.119965
  O      1.999620    0.063740    0.839849
  P      1.894106   -1.395577    0.214354
  S      1.918960   -2.856056    1.516953
  O      3.049180   -1.363604   -0.870570
  C      4.395218   -1.784540   -0.562121
  C      5.054545   -0.879110    0.456395
  S      0.233893   -1.367792   -1.092108
  C      0.504661    0.234688   -1.904272
  S      0.024124    1.660898   -0.884844
  P     -1.942513    1.050203   -0.463607
  S     -2.941784    0.132719   -1.884688
  O     -2.639962    2.379001    0.060444
  C     -3.186532    3.366283   -0.838825
  C     -4.229148    4.163656   -0.081563
  O     -1.730038    0.273907    0.904055
  C     -2.756335   -0.570608    1.476220
  C     -2.413973   -2.032710    1.270932
  H      1.803493    1.950784    3.570130
  H      3.270893    1.383506    2.757143
  H      2.140367    2.442349    1.901090
  H      0.394358    0.661390    1.991189
  H      1.550782   -0.430046    2.795962
  H      4.357396   -2.815066   -0.196027
  H      4.903254   -1.751255   -1.526810
  H      4.998702    0.156912    0.132498
  H      4.551349   -0.978796    1.417318
  H      6.094696   -1.167210    0.572772
  H     -0.114342    0.211979   -2.799937
  H      1.556557    0.356014   -2.147386
  H     -2.365998    4.003036   -1.178462
  H     -3.623023    2.849316   -1.700085
  H     -5.036311    3.513273    0.243629
  H     -3.778455    4.628603    0.790381
  H     -4.630415    4.932665   -0.733405
  H     -2.778451   -0.309338    2.535395
  H     -3.718096   -0.328608    1.015989
  H     -3.148906   -2.647718    1.780016
  H     -2.417717   -2.276517    0.210282
  H     -1.426348   -2.252734    1.671251

 Total Charge           Charge          ....    0
 Multiplicity           Mult            ....    1
 Number of Electrons    NEL             ....  202
 Basis Dimension        Dim             ....  539

ORBITAL ENERGIES
----------------

  NO   OCC          E(Eh)            E(eV)
   0   2.0000     -88.579965     -2410.3834
   1   2.0000     -88.576956     -2410.3015
   2   2.0000     -88.530056     -2409.0253
   3   2.0000     -88.528163     -2408.9738
   4   2.0000     -76.919389     -2093.0830
   5   2.0000     -76.918407     -2093.0563
   6   2.0000     -18.994514      -516.8670
   7   2.0000     -18.992006      -516.7988
   8   2.0000     -18.991755      -516.7919
   9   2.0000     -18.990921      -516.7692
  10   2.0000     -10.107570      -275.0410
  11   2.0000     -10.089868      -274.5593
  12   2.0000     -10.089580      -274.5514
  13   2.0000     -10.089086      -274.5380
  14   2.0000     -10.085301      -274.4350
  15   2.0000     -10.019383      -272.6413
  16   2.0000     -10.018635      -272.6209
  17   2.0000     -10.018113      -272.6067
  18   2.0000     -10.015704      -272.5412
  19   2.0000      -7.874434      -214.2743
  20   2.0000      -7.871224      -214.1869
  21   2.0000      -7.825040      -212.9302
  22   2.0000      -7.823131      -212.8782
  23   2.0000      -6.597812      -179.5356
  24   2.0000      -6.596834      -179.5090
  25   2.0000      -5.821340      -158.4067
  26   2.0000      -5.818532      -158.3303
  27   2.0000      -5.818241      -158.3224
  28   2.0000      -5.814701      -158.2261
  29   2.0000      -5.811548      -158.1403
  30   2.0000      -5.808276      -158.0512
  31   2.0000      -5.772558      -157.0793
  32   2.0000      -5.770705      -157.0289
  33   2.0000      -5.765389      -156.8842
  34   2.0000      -5.765058      -156.8752
  35   2.0000      -5.763504      -156.8329
  36   2.0000      -5.763089      -156.8216
  37   2.0000      -4.743255      -129.0705
  38   2.0000      -4.742736      -129.0564
  39   2.0000      -4.742057      -129.0379
  40   2.0000      -4.741919      -129.0342
  41   2.0000      -4.741651      -129.0269
  42   2.0000      -4.740742      -129.0021
  43   2.0000      -1.050935       -28.5974
  44   2.0000      -1.050308       -28.5803
  45   2.0000      -1.010814       -27.5056
  46   2.0000      -1.009990       -27.4832
  47   2.0000      -0.803374       -21.8609
  48   2.0000      -0.758227       -20.6324
  49   2.0000      -0.743687       -20.2368
  50   2.0000      -0.723552       -19.6889
  51   2.0000      -0.722420       -19.6580
  52   2.0000      -0.707286       -19.2462
  53   2.0000      -0.691145       -18.8070
  54   2.0000      -0.675144       -18.3716
  55   2.0000      -0.627331       -17.0705
  56   2.0000      -0.619481       -16.8569
  57   2.0000      -0.597771       -16.2662
  58   2.0000      -0.591271       -16.0893
  59   2.0000      -0.588876       -16.0241
  60   2.0000      -0.530636       -14.4393
  61   2.0000      -0.522150       -14.2084
  62   2.0000      -0.493532       -13.4297
  63   2.0000      -0.492420       -13.3994
  64   2.0000      -0.477479       -12.9929
  65   2.0000      -0.459712       -12.5094
  66   2.0000      -0.447718       -12.1830
  67   2.0000      -0.447037       -12.1645
  68   2.0000      -0.441046       -12.0015
  69   2.0000      -0.433042       -11.7837
  70   2.0000      -0.424805       -11.5595
  71   2.0000      -0.413212       -11.2441
  72   2.0000      -0.400512       -10.8985
  73   2.0000      -0.395982       -10.7752
  74   2.0000      -0.390695       -10.6313
  75   2.0000      -0.387838       -10.5536
  76   2.0000      -0.377922       -10.2838
  77   2.0000      -0.368088       -10.0162
  78   2.0000      -0.361990        -9.8503
  79   2.0000      -0.358357        -9.7514
  80   2.0000      -0.355458        -9.6725
  81   2.0000      -0.353462        -9.6182
  82   2.0000      -0.349451        -9.5090
  83   2.0000      -0.348614        -9.4863
  84   2.0000      -0.342869        -9.3299
  85   2.0000      -0.329760        -8.9732
  86   2.0000      -0.315933        -8.5970
  87   2.0000      -0.312130        -8.4935
  88   2.0000      -0.307340        -8.3631
  89   2.0000      -0.302279        -8.2254
  90   2.0000      -0.300906        -8.1881
  91   2.0000      -0.291645        -7.9361
  92   2.0000      -0.288089        -7.8393
  93   2.0000      -0.278616        -7.5815
  94   2.0000      -0.270488        -7.3604
  95   2.0000      -0.247711        -6.7406
  96   2.0000      -0.236229        -6.4281
  97   2.0000      -0.231723        -6.3055
  98   2.0000      -0.228448        -6.2164
  99   2.0000      -0.222725        -6.0607
 100   2.0000      -0.221245        -6.0204
 101   0.0000      -0.050509        -1.3744
 102   0.0000      -0.023413        -0.6371
 103   0.0000      -0.014049        -0.3823
 104   0.0000       0.001964         0.0534
 105   0.0000       0.005142         0.1399

MULLIKEN ATOMIC CHARGES
-----------------------
   0 C :   -0.502674
   1 C :   -0.120017
   2 O :   -0.277844
   3 P :    0.708799
   4 S :   -0.529801
   5 O :   -0.325824
   6 C :   -0.148913
   7 C :   -0.478404
   8 S :   -0.143784
   9 C :   -0.260281
  10 S :   -0.121379
  11 P :    0.699104
  12 S :   -0.522499
  13 O :   -0.310583
  14 C :   -0.140836
  15 C :   -0.484853
  16 O :   -0.286153
  17 C :   -0.120594
  18 C :   -0.504009
  19 H :    0.169891
  20 H :    0.164427
  21 H :    0.166882
  22 H :    0.177477
  23 H :    0.169478
  24 H :    0.175611
  25 H :    0.175176
  26 H :    0.169352
  27 H :    0.169656
  28 H :    0.172762
  29 H :    0.234720
  30 H :    0.230607
  31 H :    0.171345
  32 H :    0.171057
  33 H :    0.166328
  34 H :    0.165534
  35 H :    0.169375
  36 H :    0.175373
  37 H :    0.170033
  38 H :    0.167962
  39 H :    0.171517
  40 H :    0.165980
Sum of atomic charges:    0.0000000

LOEWDIN ATOMIC CHARGES
----------------------
   0 C :   -0.390500
   1 C :    0.015452
   2 O :   -0.691939
   3 P :    0.373056
   4 S :   -0.154485
   5 O :   -0.689067
   6 C :    0.028894
   7 C :   -0.403755
   8 S :    0.175402
   9 C :   -0.396984
  10 S :    0.188225
  11 P :    0.372081
  12 S :   -0.159354
  13 O :   -0.677510
  14 C :    0.024273
  15 C :   -0.390329
  16 O :   -0.696260
  17 C :    0.030674
  18 C :   -0.407833
  19 H :    0.168109
  20 H :    0.161721
  21 H :    0.162624
  22 H :    0.190218
  23 H :    0.182353
  24 H :    0.181093
  25 H :    0.191064
  26 H :    0.164454
  27 H :    0.163092
  28 H :    0.168856
  29 H :    0.199220
  30 H :    0.201600
  31 H :    0.179763
  32 H :    0.181576
  33 H :    0.162442
  34 H :    0.162970
  35 H :    0.168833
  36 H :    0.188207
  37 H :    0.181733
  38 H :    0.165564
  39 H :    0.162537
  40 H :    0.161930

  Mayer bond orders larger than 0.100000
B(  0-C ,  1-C ) :   0.9331 B(  0-C , 19-H ) :   0.9620 B(  0-C , 20-H ) :   0.9692
B(  0-C , 21-H ) :   0.9744 B(  1-C ,  2-O ) :   0.7394 B(  1-C , 22-H ) :   0.9323
B(  1-C , 23-H ) :   0.9374 B(  2-O ,  3-P ) :   1.0713 B(  3-P ,  4-S ) :   1.7444
B(  3-P ,  5-O ) :   1.1529 B(  3-P ,  8-S ) :   1.0929 B(  5-O ,  6-C ) :   0.7997
B(  6-C ,  7-C ) :   0.9129 B(  6-C , 24-H ) :   0.9632 B(  6-C , 25-H ) :   0.9510
B(  7-C , 26-H ) :   0.9690 B(  7-C , 27-H ) :   0.9589 B(  7-C , 28-H ) :   0.9541
B(  8-S ,  9-C ) :   0.8996 B(  9-C , 10-S ) :   0.9078 B(  9-C , 29-H ) :   0.9077
B(  9-C , 30-H ) :   0.9074 B( 10-S , 11-P ) :   1.1047 B( 11-P , 12-S ) :   1.7035
B( 11-P , 13-O ) :   1.0919 B( 11-P , 16-O ) :   1.1684 B( 13-O , 14-C ) :   0.7684
B( 14-C , 15-C ) :   0.9544 B( 14-C , 31-H ) :   0.9366 B( 14-C , 32-H ) :   0.9483
B( 15-C , 33-H ) :   0.9699 B( 15-C , 34-H ) :   0.9687 B( 15-C , 35-H ) :   0.9586
B( 16-O , 17-C ) :   0.7423 B( 17-C , 18-C ) :   0.9383 B( 17-C , 36-H ) :   0.9499
B( 17-C , 37-H ) :   0.9608 B( 18-C , 38-H ) :   0.9590 B( 18-C , 39-H ) :   0.9657
B( 18-C , 40-H ) :   0.9658

Dispersion correction           -0.021621056
FINAL SINGLE POINT ENERGY     -2932.472231221460

DIPOLE MOMENT
-------------

Method             : SCF
Type of density    : Electron Density
Multiplicity       :   1
Irrep              :   0
Energy             : -2932.4969597125150358 Eh
Relativity type    :
Basis              : AO
                                X                 Y                 Z
Electronic contribution:     -1.821197620      -9.634273554     -12.133579225
Nuclear contribution   :      2.499477564      11.781388368      12.597212812
                        -----------------------------------------
Total Dipole Moment    :      0.678279943       2.147114813       0.463633588
                        -----------------------------------------
Magnitude (a.u.)       :      2.298939278
Magnitude (Debye)      :      5.843439260

Rotational constants in cm-1:             0.013428             0.004771             0.004580
Rotational constants in MHz :           402.562557           143.029067           137.310136

                             ****ORCA TERMINATED NORMALLY****
TOTAL RUN TIME: 0 days 0 hours 1 minutes 50 seconds 859 msec
