                         Program Version 6.0.1  -  RELEASE   -
|  1> ! pbe def2-sv(p) def2/J RI DEFGRID1 loosescf d4 GCP(DFT/SV(P)) printgap
|  2> %output
|  3>     printlevel normal
|  4> end
|  5> * xyz 0 1
|  6> C 5.2364907203 -3.259258642 -1.7056517879
|  7> C 4.1491239934 -2.7637887142 -0.77191523
|  8> O 3.1210538217 -2.1400879457 -1.5691036361
|  9> C 2.3428361251 -1.2460622332 -1.0066176892
| 10> O 2.4112221269 -0.9073796856 0.1583482693
| 11> C 1.3515875318 -0.658099526 -1.9884287578
| 12> C 0.3070789417 0.1538994945 -1.2335313078
| 13> H -0.2947289189 0.7485378157 -1.928801515
| 14> C 0.999819178 1.1237380921 -0.2911619896
| 15> O 1.9050727431 1.8346864698 -0.6695567469
| 16> O 0.4796805639 1.1575336566 0.9174152746
| 17> C 1.0918169082 2.0637476679 1.8588528408
| 18> C 0.6655379286 1.6860292146 3.2622179295
| 19> S -0.8261100503 -0.9607578515 -0.3446381639
| 20> P -2.2143618601 0.4950523832 0.3427960013
| 21> S -2.1908078565 2.238993147 -0.5480609741
| 22> O -3.6065486253 -0.2863459622 0.1947016008
| 23> C -4.1571820119 -0.5782035435 -1.0942259008
| 24> O -2.1227917894 0.5839651362 1.915489284
| 25> C -2.1779294021 -0.5966359274 2.7420473948
| 26> H 4.8169423495 -3.9561939585 -2.4245162013
| 27> H 5.6796702645 -2.4255906051 -2.242496519
| 28> H 6.0050805818 -3.7596229738 -1.1261292928
| 29> H 4.5256588581 -2.0289167558 -0.053821245
| 30> H 3.6875959701 -3.5885985631 -0.2214296833
| 31> H 0.8924918376 -1.4545687486 -2.5727577778
| 32> H 1.9037185633 0.0022306331 -2.6610832165
| 33> H 2.1755095723 1.9886190343 1.7254061163
| 34> H 0.7737162825 3.0776088925 1.595095257
| 35> H 0.9425677118 0.656151911 3.4684787595
| 36> H 1.1647573602 2.341223401 3.9683749885
| 37> H -0.4093981026 1.7984568717 3.3654573596
| 38> H -4.1765566679 0.3247596753 -1.7064962595
| 39> H -5.1678852268 -0.9315678502 -0.9071271432
| 40> H -3.5631467532 -1.3497012312 -1.5838795616
| 41> H -1.3390514019 -1.2510553785 2.5056683792
| 42> H -3.1183361497 -1.1197600317 2.5814308609
| 43> H -2.1067695149 -0.2350522986 3.7644184151
| 44> *
| 45>
| 46>                          ****END OF INPUT****

CARTESIAN COORDINATES (ANGSTROEM)
---------------------------------
  C      5.236491   -3.259259   -1.705652
  C      4.149124   -2.763789   -0.771915
  O      3.121054   -2.140088   -1.569104
  C      2.342836   -1.246062   -1.006618
  O      2.411222   -0.907380    0.158348
  C      1.351588   -0.658100   -1.988429
  C      0.307079    0.153899   -1.233531
  H     -0.294729    0.748538   -1.928802
  C      0.999819    1.123738   -0.291162
  O      1.905073    1.834686   -0.669557
  O      0.479681    1.157534    0.917415
  C      1.091817    2.063748    1.858853
  C      0.665538    1.686029    3.262218
  S     -0.826110   -0.960758   -0.344638
  P     -2.214362    0.495052    0.342796
  S     -2.190808    2.238993   -0.548061
  O     -3.606549   -0.286346    0.194702
  C     -4.157182   -0.578204   -1.094226
  O     -2.122792    0.583965    1.915489
  C     -2.177929   -0.596636    2.742047
  H      4.816942   -3.956194   -2.424516
  H      5.679670   -2.425591   -2.242497
  H      6.005081   -3.759623   -1.126129
  H      4.525659   -2.028917   -0.053821
  H      3.687596   -3.588599   -0.221430
  H      0.892492   -1.454569   -2.572758
  H      1.903719    0.002231   -2.661083
  H      2.175510    1.988619    1.725406
  H      0.773716    3.077609    1.595095
  H      0.942568    0.656152    3.468479
  H      1.164757    2.341223    3.968375
  H     -0.409398    1.798457    3.365457
  H     -4.176557    0.324760   -1.706496
  H     -5.167885   -0.931568   -0.907127
  H     -3.563147   -1.349701   -1.583880
  H     -1.339051   -1.251055    2.505668
  H     -3.118336   -1.119760    2.581431
  H     -2.106770   -0.235052    3.764418

 Total Charge           Charge          ....    0
 Multiplicity           Mult            ....    1
 Number of Electrons    NEL             ....  174
 Basis Dimension        Dim             ....  316

ORBITAL ENERGIES
----------------

  NO   OCC          E(Eh)            E(eV)
   0   2.0000     -88.037202     -2395.6140
   1   2.0000     -87.981204     -2394.0903
   2   2.0000     -76.423964     -2079.6018
   3   2.0000     -18.810749      -511.8665
   4   2.0000     -18.793969      -511.4099
   5   2.0000     -18.793690      -511.4023
   6   2.0000     -18.789665      -511.2928
   7   2.0000     -18.748305      -510.1673
   8   2.0000     -18.721626      -509.4413
   9   2.0000     -10.017858      -272.5998
  10   2.0000     -10.003795      -272.2171
  11   2.0000      -9.955070      -270.8912
  12   2.0000      -9.949253      -270.7329
  13   2.0000      -9.943266      -270.5700
  14   2.0000      -9.941783      -270.5297
  15   2.0000      -9.935154      -270.3493
  16   2.0000      -9.917574      -269.8709
  17   2.0000      -9.894841      -269.2523
  18   2.0000      -9.877722      -268.7865
  19   2.0000      -7.681839      -209.0335
  20   2.0000      -7.626372      -207.5241
  21   2.0000      -6.420970      -174.7235
  22   2.0000      -5.709477      -155.3628
  23   2.0000      -5.706580      -155.2839
  24   2.0000      -5.698890      -155.0747
  25   2.0000      -5.655527      -153.8947
  26   2.0000      -5.646857      -153.6588
  27   2.0000      -5.646405      -153.6465
  28   2.0000      -4.643682      -126.3610
  29   2.0000      -4.642867      -126.3388
  30   2.0000      -4.641286      -126.2958
  31   2.0000      -1.020025       -27.7563
  32   2.0000      -1.001251       -27.2454
  33   2.0000      -0.986339       -26.8397
  34   2.0000      -0.941433       -25.6177
  35   2.0000      -0.924929       -25.1686
  36   2.0000      -0.902994       -24.5717
  37   2.0000      -0.763382       -20.7727
  38   2.0000      -0.720912       -19.6170
  39   2.0000      -0.697436       -18.9782
  40   2.0000      -0.693148       -18.8615
  41   2.0000      -0.660700       -17.9786
  42   2.0000      -0.636082       -17.3087
  43   2.0000      -0.620133       -16.8747
  44   2.0000      -0.610625       -16.6160
  45   2.0000      -0.589832       -16.0501
  46   2.0000      -0.554324       -15.0839
  47   2.0000      -0.516427       -14.0527
  48   2.0000      -0.513477       -13.9724
  49   2.0000      -0.498484       -13.5644
  50   2.0000      -0.476499       -12.9662
  51   2.0000      -0.472560       -12.8590
  52   2.0000      -0.466700       -12.6995
  53   2.0000      -0.452102       -12.3023
  54   2.0000      -0.435940       -11.8625
  55   2.0000      -0.431881       -11.7521
  56   2.0000      -0.423172       -11.5151
  57   2.0000      -0.416355       -11.3296
  58   2.0000      -0.412446       -11.2232
  59   2.0000      -0.411192       -11.1891
  60   2.0000      -0.400888       -10.9087
  61   2.0000      -0.399522       -10.8715
  62   2.0000      -0.394600       -10.7376
  63   2.0000      -0.377527       -10.2730
  64   2.0000      -0.367051        -9.9880
  65   2.0000      -0.362714        -9.8699
  66   2.0000      -0.355888        -9.6842
  67   2.0000      -0.352956        -9.6044
  68   2.0000      -0.346550        -9.4301
  69   2.0000      -0.338720        -9.2171
  70   2.0000      -0.334641        -9.1060
  71   2.0000      -0.326837        -8.8937
  72   2.0000      -0.319008        -8.6807
  73   2.0000      -0.309119        -8.4116
  74   2.0000      -0.306094        -8.3292
  75   2.0000      -0.304694        -8.2911
  76   2.0000      -0.297154        -8.0860
  77   2.0000      -0.289689        -7.8828
  78   2.0000      -0.270133        -7.3507
  79   2.0000      -0.268132        -7.2962
  80   2.0000      -0.258740        -7.0407
  81   2.0000      -0.247503        -6.7349
  82   2.0000      -0.236724        -6.4416
  83   2.0000      -0.229696        -6.2503
  84   2.0000      -0.203687        -5.5426
  85   2.0000      -0.199887        -5.4392
  86   2.0000      -0.196150        -5.3375
  87   0.0000      -0.039454        -1.0736
  88   0.0000      -0.025842        -0.7032
  89   0.0000      -0.009455        -0.2573
  90   0.0000       0.008618         0.2345
  91   0.0000       0.019222         0.5231

MULLIKEN ATOMIC CHARGES
-----------------------
   0 C :   -0.279238
   1 C :   -0.030087
   2 O :   -0.227136
   3 C :    0.115278
   4 O :   -0.198420
   5 C :   -0.100860
   6 C :   -0.299758
   7 H :    0.149775
   8 C :    0.234818
   9 O :   -0.215326
  10 O :   -0.231295
  11 C :   -0.015873
  12 C :   -0.293630
  13 S :   -0.105434
  14 P :    0.622525
  15 S :   -0.317329
  16 O :   -0.390717
  17 C :   -0.097881
  18 O :   -0.360715
  19 C :   -0.114433
  20 H :    0.116573
  21 H :    0.119325
  22 H :    0.114287
  23 H :    0.118347
  24 H :    0.107955
  25 H :    0.127478
  26 H :    0.144822
  27 H :    0.110150
  28 H :    0.106852
  29 H :    0.112915
  30 H :    0.106099
  31 H :    0.131580
  32 H :    0.117343
  33 H :    0.124170
  34 H :    0.110652
  35 H :    0.128961
  36 H :    0.126944
  37 H :    0.131283
Sum of atomic charges:    0.0000000

LOEWDIN ATOMIC CHARGES
----------------------
   0 C :   -0.350451
   1 C :   -0.106003
   2 O :   -0.056668
   3 C :    0.036836
   4 O :   -0.150978
   5 C :   -0.249092
   6 C :   -0.268064
   7 H :    0.141928
   8 C :    0.014679
   9 O :   -0.171135
  10 O :   -0.057871
  11 C :   -0.100828
  12 C :   -0.355600
  13 S :    0.086674
  14 P :    0.578973
  15 S :   -0.310164
  16 O :   -0.262811
  17 C :   -0.217497
  18 O :   -0.233633
  19 C :   -0.211992
  20 H :    0.127343
  21 H :    0.128669
  22 H :    0.131917
  23 H :    0.121615
  24 H :    0.118251
  25 H :    0.141791
  26 H :    0.160660
  27 H :    0.119787
  28 H :    0.118462
  29 H :    0.125128
  30 H :    0.128469
  31 H :    0.127511
  32 H :    0.111456
  33 H :    0.121858
  34 H :    0.106370
  35 H :    0.113728
  36 H :    0.116163
  37 H :    0.124522

  Mayer bond orders larger than 0.100000
B(  0-C ,  1-C ) :   1.1586 B(  0-C , 20-H ) :   0.9482 B(  0-C , 21-H ) :   0.9516
B(  0-C , 22-H ) :   0.9436 B(  1-C ,  2-O ) :   0.9001 B(  1-C , 23-H ) :   0.9210
B(  1-C , 24-H ) :   0.9362 B(  2-O ,  3-C ) :   1.2493 B(  3-C ,  4-O ) :   2.0118
B(  3-C ,  5-C ) :   0.9981 B(  5-C ,  6-C ) :   1.0639 B(  5-C , 25-H ) :   0.9028
B(  5-C , 26-H ) :   0.8707 B(  6-C ,  7-H ) :   0.8521 B(  6-C ,  8-C ) :   0.8737
B(  6-C , 13-S ) :   1.0189 B(  8-C ,  9-O ) :   2.0458 B(  8-C , 10-O ) :   1.2424
B( 10-O , 11-C ) :   0.8979 B( 11-C , 12-C ) :   1.1626 B( 11-C , 27-H ) :   0.9244
B( 11-C , 28-H ) :   0.9320 B( 12-C , 29-H ) :   0.9494 B( 12-C , 30-H ) :   0.9415
B( 12-C , 31-H ) :   0.9365 B( 13-S , 14-P ) :   0.9583 B( 13-S , 15-S ) :   0.1145
B( 14-P , 15-S ) :   1.6366 B( 14-P , 16-O ) :   1.0650 B( 14-P , 18-O ) :   1.1221
B( 16-O , 17-C ) :   0.9343 B( 17-C , 32-H ) :   0.9358 B( 17-C , 33-H ) :   0.9587
B( 17-C , 34-H ) :   0.9447 B( 18-O , 19-C ) :   0.9145 B( 19-C , 35-H ) :   0.9382
B( 19-C , 36-H ) :   0.9456 B( 19-C , 37-H ) :   0.9563

Dispersion correction           -0.052268036
FINAL SINGLE POINT ENERGY     -1979.020448911290

DIPOLE MOMENT
-------------

Method             : SCF
Type of density    : Electron Density
Multiplicity       :   1
Irrep              :   0
Energy             : -1979.1509261629366847 Eh
Relativity type    :
Basis              : AO
                                X                 Y                 Z
Electronic contribution:    -13.462737166       8.984033898      -4.710975397
Nuclear contribution   :     13.723948114     -10.948590544       4.936484434
                        -----------------------------------------
Total Dipole Moment    :      0.261210948      -1.964556646       0.225509037
                        -----------------------------------------
Magnitude (a.u.)       :      1.994634879
Magnitude (Debye)      :      5.069958946

Rotational constants in cm-1:             0.015351             0.006027             0.005445
Rotational constants in MHz :           460.200771           180.697329           163.250267

                             ****ORCA TERMINATED NORMALLY****
TOTAL RUN TIME: 0 days 0 hours 0 minutes 43 seconds 359 msec
