                         Program Version 6.0.0  -   RELEASE  -
|  1> ! pbe def2-sv(p) def2/J RI DEFGRID1 loosescf d4 GCP(DFT/SV(P)) printgap
|  2> %output
|  3>     printlevel normal
|  4> end
|  5> * xyz 0 1
|  6> C 5.2821715857 -0.6090669237 -2.5204073436
|  7> C 3.8887120438 -0.9806567478 -2.056733901
|  8> O 3.5392091756 -0.1069417266 -0.9621439152
|  9> P 2.0358548009 0.0337523575 -0.4770693424
| 10> S 0.7604364112 0.4831955121 -1.8960613866
| 11> O 2.1188066356 1.1552798091 0.6199479669
| 12> C 3.2454058271 1.4256383274 1.4929721374
| 13> C 3.4571088663 0.3385333381 2.5252105065
| 14> S 1.7002605584 -1.8420981909 0.4740741726
| 15> C 0.1138877358 -1.5084455696 1.2774609696
| 16> S -1.3225547645 -1.5707112934 0.1624440375
| 17> P -2.0129270935 0.4434286197 0.308049008
| 18> S -0.970203369 1.6231941215 1.466212189
| 19> O -3.5224058638 0.2442284835 0.7845350247
| 20> C -3.8291768662 -0.2168152582 2.1146434166
| 21> C -5.3138463718 -0.020477464 2.3452964619
| 22> O -2.2163779644 1.0076576937 -1.1395941423
| 23> C -2.8444397371 0.2721090149 -2.2193547525
| 24> C -4.3038560215 0.6530049742 -2.3489367879
| 25> H 5.9890692775 -0.7239335561 -1.7040020594
| 26> H 5.5687296346 -1.2612390006 -3.3386979071
| 27> H 5.2999616893 0.4223508205 -2.8614699634
| 28> H 3.8477641699 -2.0107971103 -1.6935792586
| 29> H 3.1489387327 -0.8512060253 -2.853496041
| 30> H 4.132099496 1.5601191262 0.8718419022
| 31> H 2.9658389626 2.3718896129 1.9594346523
| 32> H 3.7595038001 -0.5907131371 2.0479906365
| 33> H 4.2386516077 0.6557547425 3.2086973869
| 34> H 2.5421759157 0.1703787025 3.0882128691
| 35> H 0.138583917 -0.5201444165 1.7466493228
| 36> H -0.0098012442 -2.2992989914 2.0123774893
| 37> H -3.5503043485 -1.2724325403 2.1830215847
| 38> H -3.2315978501 0.3610344931 2.8275753403
| 39> H -5.5652823239 -0.3558318316 3.3459803787
| 40> H -5.5703998334 1.0302219096 2.2435455822
| 41> H -5.8829851536 -0.5945168937 1.6199246575
| 42> H -2.2668881832 0.5514483422 -3.1031221814
| 43> H -2.7249651557 -0.7994027997 -2.0350090444
| 44> H -4.395489698 1.7252455942 -2.4986058248
| 45> H -4.7291923067 0.1328071547 -3.2013213016
| 46> H -4.8456919487 0.3761971198 -1.4485166372
| 47> *
| 48>
| 49>                          ****END OF INPUT****

CARTESIAN COORDINATES (ANGSTROEM)
---------------------------------
  C      5.282172   -0.609067   -2.520407
  C      3.888712   -0.980657   -2.056734
  O      3.539209   -0.106942   -0.962144
  P      2.035855    0.033752   -0.477069
  S      0.760436    0.483196   -1.896061
  O      2.118807    1.155280    0.619948
  C      3.245406    1.425638    1.492972
  C      3.457109    0.338533    2.525211
  S      1.700261   -1.842098    0.474074
  C      0.113888   -1.508446    1.277461
  S     -1.322555   -1.570711    0.162444
  P     -2.012927    0.443429    0.308049
  S     -0.970203    1.623194    1.466212
  O     -3.522406    0.244228    0.784535
  C     -3.829177   -0.216815    2.114643
  C     -5.313846   -0.020477    2.345296
  O     -2.216378    1.007658   -1.139594
  C     -2.844440    0.272109   -2.219355
  C     -4.303856    0.653005   -2.348937
  H      5.989069   -0.723934   -1.704002
  H      5.568730   -1.261239   -3.338698
  H      5.299962    0.422351   -2.861470
  H      3.847764   -2.010797   -1.693579
  H      3.148939   -0.851206   -2.853496
  H      4.132099    1.560119    0.871842
  H      2.965839    2.371890    1.959435
  H      3.759504   -0.590713    2.047991
  H      4.238652    0.655755    3.208697
  H      2.542176    0.170379    3.088213
  H      0.138584   -0.520144    1.746649
  H     -0.009801   -2.299299    2.012377
  H     -3.550304   -1.272433    2.183022
  H     -3.231598    0.361034    2.827575
  H     -5.565282   -0.355832    3.345980
  H     -5.570400    1.030222    2.243546
  H     -5.882985   -0.594517    1.619925
  H     -2.266888    0.551448   -3.103122
  H     -2.724965   -0.799403   -2.035009
  H     -4.395490    1.725246   -2.498606
  H     -4.729192    0.132807   -3.201321
  H     -4.845692    0.376197   -1.448517

 Total Charge           Charge          ....    0
 Multiplicity           Mult            ....    1
 Number of Electrons    NEL             ....  202
 Basis Dimension        Dim             ....  334

ORBITAL ENERGIES
----------------

  NO   OCC          E(Eh)            E(eV)
   0   2.0000     -88.036812     -2395.6034
   1   2.0000     -88.035625     -2395.5711
   2   2.0000     -87.977987     -2394.0027
   3   2.0000     -87.971289     -2393.8205
   4   2.0000     -76.419289     -2079.4746
   5   2.0000     -76.418056     -2079.4410
   6   2.0000     -18.791514      -511.3431
   7   2.0000     -18.785000      -511.1658
   8   2.0000     -18.783946      -511.1372
   9   2.0000     -18.782473      -511.0971
  10   2.0000      -9.953650      -270.8526
  11   2.0000      -9.952853      -270.8309
  12   2.0000      -9.952733      -270.8276
  13   2.0000      -9.950895      -270.7776
  14   2.0000      -9.946990      -270.6714
  15   2.0000      -9.889433      -269.1052
  16   2.0000      -9.885582      -269.0004
  17   2.0000      -9.885162      -268.9889
  18   2.0000      -9.881417      -268.8870
  19   2.0000      -7.682032      -209.0387
  20   2.0000      -7.680492      -208.9968
  21   2.0000      -7.623266      -207.4396
  22   2.0000      -7.616390      -207.2525
  23   2.0000      -6.416713      -174.6077
  24   2.0000      -6.415561      -174.5763
  25   2.0000      -5.709662      -155.3678
  26   2.0000      -5.708313      -155.3311
  27   2.0000      -5.706634      -155.2854
  28   2.0000      -5.705009      -155.2412
  29   2.0000      -5.699123      -155.0810
  30   2.0000      -5.697573      -155.0388
  31   2.0000      -5.652187      -153.8038
  32   2.0000      -5.645382      -153.6187
  33   2.0000      -5.644051      -153.5824
  34   2.0000      -5.643160      -153.5582
  35   2.0000      -5.637275      -153.3981
  36   2.0000      -5.636204      -153.3689
  37   2.0000      -4.639930      -126.2589
  38   2.0000      -4.638494      -126.2198
  39   2.0000      -4.638196      -126.2117
  40   2.0000      -4.637305      -126.1875
  41   2.0000      -4.636540      -126.1667
  42   2.0000      -4.635964      -126.1510
  43   2.0000      -0.985408       -26.8143
  44   2.0000      -0.980819       -26.6894
  45   2.0000      -0.941599       -25.6222
  46   2.0000      -0.937113       -25.5001
  47   2.0000      -0.755897       -20.5690
  48   2.0000      -0.717496       -19.5241
  49   2.0000      -0.709472       -19.3057
  50   2.0000      -0.691800       -18.8248
  51   2.0000      -0.686890       -18.6912
  52   2.0000      -0.671466       -18.2715
  53   2.0000      -0.642859       -17.4931
  54   2.0000      -0.628706       -17.1080
  55   2.0000      -0.586727       -15.9656
  56   2.0000      -0.583797       -15.8859
  57   2.0000      -0.572466       -15.5776
  58   2.0000      -0.566254       -15.4085
  59   2.0000      -0.560034       -15.2393
  60   2.0000      -0.506785       -13.7903
  61   2.0000      -0.500096       -13.6083
  62   2.0000      -0.475861       -12.9488
  63   2.0000      -0.472398       -12.8546
  64   2.0000      -0.449757       -12.2385
  65   2.0000      -0.443497       -12.0682
  66   2.0000      -0.440010       -11.9733
  67   2.0000      -0.435017       -11.8374
  68   2.0000      -0.429281       -11.6813
  69   2.0000      -0.420713       -11.4482
  70   2.0000      -0.403709       -10.9855
  71   2.0000      -0.395541       -10.7632
  72   2.0000      -0.384088       -10.4516
  73   2.0000      -0.381455       -10.3799
  74   2.0000      -0.376219       -10.2374
  75   2.0000      -0.365144        -9.9361
  76   2.0000      -0.360204        -9.8016
  77   2.0000      -0.353712        -9.6250
  78   2.0000      -0.351614        -9.5679
  79   2.0000      -0.350612        -9.5406
  80   2.0000      -0.347605        -9.4588
  81   2.0000      -0.340995        -9.2790
  82   2.0000      -0.339459        -9.2371
  83   2.0000      -0.337310        -9.1787
  84   2.0000      -0.331614        -9.0237
  85   2.0000      -0.319689        -8.6992
  86   2.0000      -0.310575        -8.4512
  87   2.0000      -0.301860        -8.2140
  88   2.0000      -0.294402        -8.0111
  89   2.0000      -0.289851        -7.8873
  90   2.0000      -0.282000        -7.6736
  91   2.0000      -0.269606        -7.3364
  92   2.0000      -0.269086        -7.3222
  93   2.0000      -0.255930        -6.9642
  94   2.0000      -0.251734        -6.8500
  95   2.0000      -0.235207        -6.4003
  96   2.0000      -0.215386        -5.8610
  97   2.0000      -0.199338        -5.4243
  98   2.0000      -0.194901        -5.3035
  99   2.0000      -0.185511        -5.0480
 100   2.0000      -0.179497        -4.8844
 101   0.0000      -0.034896        -0.9496
 102   0.0000      -0.026675        -0.7259
 103   0.0000      -0.009526        -0.2592
 104   0.0000       0.004941         0.1344
 105   0.0000       0.026332         0.7165

MULLIKEN ATOMIC CHARGES
-----------------------
   0 C :   -0.281068
   1 C :   -0.012759
   2 O :   -0.389807
   3 P :    0.611104
   4 S :   -0.311257
   5 O :   -0.347139
   6 C :    0.006006
   7 C :   -0.321826
   8 S :   -0.122224
   9 C :   -0.348044
  10 S :   -0.106727
  11 P :    0.602261
  12 S :   -0.298405
  13 O :   -0.383179
  14 C :   -0.004076
  15 C :   -0.281871
  16 O :   -0.340198
  17 C :   -0.017141
  18 C :   -0.287080
  19 H :    0.113677
  20 H :    0.113080
  21 H :    0.122912
  22 H :    0.105669
  23 H :    0.107087
  24 H :    0.109428
  25 H :    0.113518
  26 H :    0.124140
  27 H :    0.111267
  28 H :    0.125736
  29 H :    0.195929
  30 H :    0.178101
  31 H :    0.092251
  32 H :    0.098281
  33 H :    0.109583
  34 H :    0.121398
  35 H :    0.115093
  36 H :    0.117301
  37 H :    0.109309
  38 H :    0.120703
  39 H :    0.108227
  40 H :    0.120741
Sum of atomic charges:    0.0000000

LOEWDIN ATOMIC CHARGES
----------------------
   0 C :   -0.350756
   1 C :   -0.119916
   2 O :   -0.252222
   3 P :    0.562639
   4 S :   -0.311866
   5 O :   -0.225439
   6 C :   -0.106132
   7 C :   -0.368949
   8 S :    0.059653
   9 C :   -0.484241
  10 S :    0.062420
  11 P :    0.569515
  12 S :   -0.293173
  13 O :   -0.255182
  14 C :   -0.125034
  15 C :   -0.350605
  16 O :   -0.219836
  17 C :   -0.110000
  18 C :   -0.359640
  19 H :    0.125309
  20 H :    0.131604
  21 H :    0.130076
  22 H :    0.109393
  23 H :    0.110387
  24 H :    0.114176
  25 H :    0.124238
  26 H :    0.117817
  27 H :    0.130343
  28 H :    0.127807
  29 H :    0.118687
  30 H :    0.135552
  31 H :    0.102302
  32 H :    0.105790
  33 H :    0.129565
  34 H :    0.129051
  35 H :    0.124920
  36 H :    0.122561
  37 H :    0.105701
  38 H :    0.129541
  39 H :    0.128733
  40 H :    0.125214

  Mayer bond orders larger than 0.100000
B(  0-C ,  1-C ) :   1.1603 B(  0-C , 19-H ) :   0.9512 B(  0-C , 20-H ) :   0.9416
B(  0-C , 21-H ) :   0.9507 B(  1-C ,  2-O ) :   0.9043 B(  1-C , 22-H ) :   0.9293
B(  1-C , 23-H ) :   0.9072 B(  2-O ,  3-P ) :   1.0671 B(  3-P ,  4-S ) :   1.6810
B(  3-P ,  5-O ) :   1.1436 B(  3-P ,  8-S ) :   0.9425 B(  4-S ,  8-S ) :   0.1129
B(  5-O ,  6-C ) :   0.8962 B(  6-C ,  7-C ) :   1.1695 B(  6-C , 24-H ) :   0.9267
B(  6-C , 25-H ) :   0.9335 B(  7-C , 26-H ) :   0.9366 B(  7-C , 27-H ) :   0.9362
B(  7-C , 28-H ) :   0.9442 B(  8-S ,  9-C ) :   0.9999 B(  9-C , 10-S ) :   1.0033
B(  9-C , 29-H ) :   0.8408 B(  9-C , 30-H ) :   0.9124 B( 10-S , 11-P ) :   0.9442
B( 10-S , 12-S ) :   0.1169 B( 11-P , 12-S ) :   1.6366 B( 11-P , 13-O ) :   1.0620
B( 11-P , 16-O ) :   1.1612 B( 12-S , 29-H ) :   0.1245 B( 13-O , 14-C ) :   0.9147
B( 14-C , 15-C ) :   1.1598 B( 14-C , 31-H ) :   0.9208 B( 14-C , 32-H ) :   0.9103
B( 15-C , 33-H ) :   0.9425 B( 15-C , 34-H ) :   0.9513 B( 15-C , 35-H ) :   0.9513
B( 16-O , 17-C ) :   0.8902 B( 17-C , 18-C ) :   1.1634 B( 17-C , 36-H ) :   0.9323
B( 17-C , 37-H ) :   0.9162 B( 18-C , 38-H ) :   0.9468 B( 18-C , 39-H ) :   0.9398
B( 18-C , 40-H ) :   0.9403

Dispersion correction           -0.064836314
FINAL SINGLE POINT ENERGY     -2929.510543096158

DIPOLE MOMENT
-------------

Method             : SCF
Type of density    : Electron Density
Multiplicity       :   1
Irrep              :   0
Energy             : -2929.6297568029422109 Eh
Relativity type    :
Basis              : AO
                                X                 Y                 Z
Electronic contribution:      1.437359626       1.129207164      -1.983348454
Nuclear contribution   :     -1.097261014      -2.157710406       2.402677630
                        -----------------------------------------
Total Dipole Moment    :      0.340098613      -1.028503242       0.419329177
                        -----------------------------------------
Magnitude (a.u.)       :      1.161603608
Magnitude (Debye)      :      2.952561728

Rotational constants in cm-1:             0.013491             0.004834             0.004319
Rotational constants in MHz :           404.456361           144.924778           129.491600

                             ****ORCA TERMINATED NORMALLY****
TOTAL RUN TIME: 0 days 0 hours 0 minutes 20 seconds 576 msec
