                         Program Version 6.0.0  -   RELEASE  -
|  1> ! pbe def2-sv(p) def2/J RI DEFGRID1 loosescf d4 GCP(DFT/SV(P)) printgap
|  2> %output
|  3>     printlevel normal
|  4> end
|  5> * xyz 0 1
|  6> C 3.9646009067 -1.6689146832 -2.5346699485
|  7> C 4.0732033242 -0.2266977447 -2.0849703058
|  8> O 3.5208932778 -0.0274309032 -0.7712854619
|  9> P 1.9636227271 -0.1469742118 -0.4752847105
| 10> S 0.8353040693 0.5876151321 -1.9082053448
| 11> O 1.8681625878 0.5134788153 0.9596047505
| 12> C 2.2662038916 1.8817739381 1.2100440334
| 13> C 2.027390233 2.1622924006 2.6777697332
| 14> S 1.6304445185 -2.154634972 0.0375348808
| 15> C -0.1643676199 -2.1979801452 -0.2063255246
| 16> S -1.1035326279 -1.5356785425 1.2088430677
| 17> P -1.9841365783 0.2391055724 0.4716326149
| 18> S -1.1529343111 2.0030663407 0.717354686
| 19> O -3.4410460207 0.1998217201 1.1218440676
| 20> C -3.7261118201 0.8044150347 2.3913431351
| 21> C -3.064083537 0.050591878 3.5265778837
| 22> O -2.2948675021 -0.2183386944 -1.0093473273
| 23> C -2.8067999679 0.7116838146 -1.9907776965
| 24> C -2.5999566989 0.101239317 -3.3603065345
| 25> H 4.3832989546 -2.3317478851 -1.7818581627
| 26> H 2.9194694527 -1.931642695 -2.6913869759
| 27> H 4.5035546202 -1.7941328547 -3.4682402611
| 28> H 3.5507257976 0.4356731618 -2.7827964547
| 29> H 5.1124110954 0.0879893568 -1.9809189596
| 30> H 3.3206861024 1.9829644505 0.9431330354
| 31> H 1.6631992388 2.5410335531 0.5774590016
| 32> H 2.5598072062 1.4368543237 3.2858461484
| 33> H 2.3780923297 3.1624864387 2.9093078595
| 34> H 0.9641529048 2.09927969 2.8940210542
| 35> H -0.434675811 -3.2463546263 -0.2971981149
| 36> H -0.4239246122 -1.6374709059 -1.104227854
| 37> H -3.3819881034 1.8441746924 2.3646381705
| 38> H -4.8139576647 0.7741531576 2.4627684986
| 39> H -1.9800610501 0.1012565352 3.4163935796
| 40> H -3.3449268995 0.4989070674 4.4740104367
| 41> H -3.3638467866 -0.9939284478 3.5135434594
| 42> H -3.86469848 0.8771152507 -1.7738377852
| 43> H -2.2642555671 1.6581655718 -1.8900329733
| 44> H -3.0836073312 -0.8698017224 -3.4111370198
| 45> H -3.026997809 0.7597977456 -4.1092066597
| 46> H -1.5364416783 -0.0160517891 -3.554540951
| 47> *
| 48>
| 49>                          ****END OF INPUT****

CARTESIAN COORDINATES (ANGSTROEM)
---------------------------------
  C      3.964601   -1.668915   -2.534670
  C      4.073203   -0.226698   -2.084970
  O      3.520893   -0.027431   -0.771285
  P      1.963623   -0.146974   -0.475285
  S      0.835304    0.587615   -1.908205
  O      1.868163    0.513479    0.959605
  C      2.266204    1.881774    1.210044
  C      2.027390    2.162292    2.677770
  S      1.630445   -2.154635    0.037535
  C     -0.164368   -2.197980   -0.206326
  S     -1.103533   -1.535679    1.208843
  P     -1.984137    0.239106    0.471633
  S     -1.152934    2.003066    0.717355
  O     -3.441046    0.199822    1.121844
  C     -3.726112    0.804415    2.391343
  C     -3.064084    0.050592    3.526578
  O     -2.294868   -0.218339   -1.009347
  C     -2.806800    0.711684   -1.990778
  C     -2.599957    0.101239   -3.360307
  H      4.383299   -2.331748   -1.781858
  H      2.919469   -1.931643   -2.691387
  H      4.503555   -1.794133   -3.468240
  H      3.550726    0.435673   -2.782796
  H      5.112411    0.087989   -1.980919
  H      3.320686    1.982964    0.943133
  H      1.663199    2.541034    0.577459
  H      2.559807    1.436854    3.285846
  H      2.378092    3.162486    2.909308
  H      0.964153    2.099280    2.894021
  H     -0.434676   -3.246355   -0.297198
  H     -0.423925   -1.637471   -1.104228
  H     -3.381988    1.844175    2.364638
  H     -4.813958    0.774153    2.462768
  H     -1.980061    0.101257    3.416394
  H     -3.344927    0.498907    4.474010
  H     -3.363847   -0.993928    3.513543
  H     -3.864698    0.877115   -1.773838
  H     -2.264256    1.658166   -1.890033
  H     -3.083607   -0.869802   -3.411137
  H     -3.026998    0.759798   -4.109207
  H     -1.536442   -0.016052   -3.554541

 Total Charge           Charge          ....    0
 Multiplicity           Mult            ....    1
 Number of Electrons    NEL             ....  202
 Basis Dimension        Dim             ....  334

ORBITAL ENERGIES
----------------

  NO   OCC          E(Eh)            E(eV)
   0   2.0000     -88.042548     -2395.7595
   1   2.0000     -88.037727     -2395.6283
   2   2.0000     -87.984513     -2394.1803
   3   2.0000     -87.978290     -2394.0110
   4   2.0000     -76.423386     -2079.5860
   5   2.0000     -76.421116     -2079.5243
   6   2.0000     -18.793298      -511.3916
   7   2.0000     -18.788295      -511.2555
   8   2.0000     -18.784417      -511.1500
   9   2.0000     -18.782414      -511.0955
  10   2.0000      -9.957026      -270.9445
  11   2.0000      -9.951840      -270.8033
  12   2.0000      -9.946290      -270.6523
  13   2.0000      -9.946156      -270.6487
  14   2.0000      -9.941054      -270.5098
  15   2.0000      -9.884118      -268.9605
  16   2.0000      -9.882825      -268.9253
  17   2.0000      -9.880177      -268.8533
  18   2.0000      -9.873909      -268.6827
  19   2.0000      -7.688302      -209.2093
  20   2.0000      -7.683341      -209.0743
  21   2.0000      -7.629283      -207.6033
  22   2.0000      -7.623168      -207.4370
  23   2.0000      -6.421185      -174.7293
  24   2.0000      -6.418863      -174.6661
  25   2.0000      -5.716191      -155.5455
  26   2.0000      -5.712785      -155.4528
  27   2.0000      -5.711655      -155.4220
  28   2.0000      -5.707651      -155.3131
  29   2.0000      -5.705143      -155.2448
  30   2.0000      -5.699973      -155.1042
  31   2.0000      -5.657907      -153.9595
  32   2.0000      -5.651965      -153.7978
  33   2.0000      -5.650138      -153.7481
  34   2.0000      -5.649493      -153.7305
  35   2.0000      -5.644026      -153.5818
  36   2.0000      -5.643172      -153.5585
  37   2.0000      -4.643874      -126.3662
  38   2.0000      -4.642696      -126.3342
  39   2.0000      -4.641728      -126.3078
  40   2.0000      -4.641509      -126.3019
  41   2.0000      -4.640722      -126.2805
  42   2.0000      -4.639142      -126.2375
  43   2.0000      -0.984108       -26.7789
  44   2.0000      -0.982097       -26.7242
  45   2.0000      -0.940549       -25.5936
  46   2.0000      -0.939399       -25.5624
  47   2.0000      -0.761638       -20.7252
  48   2.0000      -0.719272       -19.5724
  49   2.0000      -0.705373       -19.1942
  50   2.0000      -0.685075       -18.6418
  51   2.0000      -0.682790       -18.5797
  52   2.0000      -0.670381       -18.2420
  53   2.0000      -0.649282       -17.6679
  54   2.0000      -0.630849       -17.1663
  55   2.0000      -0.598104       -16.2752
  56   2.0000      -0.586211       -15.9516
  57   2.0000      -0.568435       -15.4679
  58   2.0000      -0.566004       -15.4017
  59   2.0000      -0.552509       -15.0345
  60   2.0000      -0.500223       -13.6118
  61   2.0000      -0.498387       -13.5618
  62   2.0000      -0.471077       -12.8187
  63   2.0000      -0.468118       -12.7381
  64   2.0000      -0.450675       -12.2635
  65   2.0000      -0.445126       -12.1125
  66   2.0000      -0.435152       -11.8411
  67   2.0000      -0.431501       -11.7417
  68   2.0000      -0.423322       -11.5192
  69   2.0000      -0.421745       -11.4763
  70   2.0000      -0.413306       -11.2466
  71   2.0000      -0.391805       -10.6616
  72   2.0000      -0.386622       -10.5205
  73   2.0000      -0.383489       -10.4353
  74   2.0000      -0.380648       -10.3579
  75   2.0000      -0.370743       -10.0884
  76   2.0000      -0.362977        -9.8771
  77   2.0000      -0.351710        -9.5705
  78   2.0000      -0.350832        -9.5466
  79   2.0000      -0.349115        -9.4999
  80   2.0000      -0.345980        -9.4146
  81   2.0000      -0.337601        -9.1866
  82   2.0000      -0.333480        -9.0745
  83   2.0000      -0.329156        -8.9568
  84   2.0000      -0.326257        -8.8779
  85   2.0000      -0.312078        -8.4921
  86   2.0000      -0.305948        -8.3253
  87   2.0000      -0.295089        -8.0298
  88   2.0000      -0.293683        -7.9915
  89   2.0000      -0.286739        -7.8026
  90   2.0000      -0.285266        -7.7625
  91   2.0000      -0.269716        -7.3394
  92   2.0000      -0.268269        -7.3000
  93   2.0000      -0.259638        -7.0651
  94   2.0000      -0.256419        -6.9775
  95   2.0000      -0.237131        -6.4526
  96   2.0000      -0.219753        -5.9798
  97   2.0000      -0.212236        -5.7752
  98   2.0000      -0.204110        -5.5541
  99   2.0000      -0.192429        -5.2363
 100   2.0000      -0.179928        -4.8961
 101   0.0000      -0.041170        -1.1203
 102   0.0000      -0.029813        -0.8113
 103   0.0000      -0.022871        -0.6224
 104   0.0000       0.004509         0.1227
 105   0.0000       0.021793         0.5930

MULLIKEN ATOMIC CHARGES
-----------------------
   0 C :   -0.314515
   1 C :   -0.004063
   2 O :   -0.380802
   3 P :    0.625835
   4 S :   -0.335638
   5 O :   -0.360039
   6 C :   -0.004150
   7 C :   -0.283976
   8 S :   -0.075592
   9 C :   -0.368429
  10 S :   -0.089551
  11 P :    0.620842
  12 S :   -0.323334
  13 O :   -0.376344
  14 C :   -0.003772
  15 C :   -0.327346
  16 O :   -0.375000
  17 C :   -0.003103
  18 C :   -0.291269
  19 H :    0.117772
  20 H :    0.123276
  21 H :    0.112970
  22 H :    0.111585
  23 H :    0.104113
  24 H :    0.099172
  25 H :    0.113506
  26 H :    0.110910
  27 H :    0.103630
  28 H :    0.126612
  29 H :    0.184627
  30 H :    0.215416
  31 H :    0.108053
  32 H :    0.102512
  33 H :    0.131468
  34 H :    0.114458
  35 H :    0.121411
  36 H :    0.101953
  37 H :    0.113695
  38 H :    0.111409
  39 H :    0.108699
  40 H :    0.132998
Sum of atomic charges:    0.0000000

LOEWDIN ATOMIC CHARGES
----------------------
   0 C :   -0.369723
   1 C :   -0.120110
   2 O :   -0.244633
   3 P :    0.570426
   4 S :   -0.312193
   5 O :   -0.237421
   6 C :   -0.116876
   7 C :   -0.353138
   8 S :    0.092614
   9 C :   -0.477670
  10 S :    0.081269
  11 P :    0.569386
  12 S :   -0.302383
  13 O :   -0.248327
  14 C :   -0.124776
  15 C :   -0.370213
  16 O :   -0.240348
  17 C :   -0.115763
  18 C :   -0.354489
  19 H :    0.124467
  20 H :    0.119895
  21 H :    0.131096
  22 H :    0.110234
  23 H :    0.118146
  24 H :    0.107594
  25 H :    0.109508
  26 H :    0.124875
  27 H :    0.127684
  28 H :    0.124871
  29 H :    0.139517
  30 H :    0.131885
  31 H :    0.106602
  32 H :    0.117617
  33 H :    0.120109
  34 H :    0.131769
  35 H :    0.125663
  36 H :    0.111984
  37 H :    0.111120
  38 H :    0.124540
  39 H :    0.129844
  40 H :    0.125350

  Mayer bond orders larger than 0.100000
B(  0-C ,  1-C ) :   1.1659 B(  0-C , 19-H ) :   0.9451 B(  0-C , 20-H ) :   0.9347
B(  0-C , 21-H ) :   0.9379 B(  1-C ,  2-O ) :   0.9083 B(  1-C , 22-H ) :   0.9135
B(  1-C , 23-H ) :   0.9331 B(  2-O ,  3-P ) :   1.0948 B(  3-P ,  4-S ) :   1.6090
B(  3-P ,  5-O ) :   1.1548 B(  3-P ,  8-S ) :   0.9606 B(  4-S ,  8-S ) :   0.1165
B(  5-O ,  6-C ) :   0.8892 B(  6-C ,  7-C ) :   1.1696 B(  6-C , 24-H ) :   0.9279
B(  6-C , 25-H ) :   0.9112 B(  7-C , 26-H ) :   0.9491 B(  7-C , 27-H ) :   0.9410
B(  7-C , 28-H ) :   0.9414 B(  8-S ,  9-C ) :   1.0088 B(  9-C , 10-S ) :   0.9951
B(  9-C , 29-H ) :   0.9102 B(  9-C , 30-H ) :   0.8577 B( 10-S , 11-P ) :   0.9670
B( 10-S , 12-S ) :   0.1070 B( 11-P , 12-S ) :   1.6199 B( 11-P , 13-O ) :   1.0852
B( 11-P , 16-O ) :   1.1219 B( 13-O , 14-C ) :   0.9188 B( 14-C , 15-C ) :   1.1617
B( 14-C , 31-H ) :   0.9087 B( 14-C , 32-H ) :   0.9316 B( 15-C , 33-H ) :   0.9309
B( 15-C , 34-H ) :   0.9389 B( 15-C , 35-H ) :   0.9440 B( 16-O , 17-C ) :   0.8883
B( 17-C , 18-C ) :   1.1642 B( 17-C , 36-H ) :   0.9315 B( 17-C , 37-H ) :   0.9098
B( 18-C , 38-H ) :   0.9493 B( 18-C , 39-H ) :   0.9409 B( 18-C , 40-H ) :   0.9427

Dispersion correction           -0.066830992
FINAL SINGLE POINT ENERGY     -2929.517345838687

DIPOLE MOMENT
-------------

Method             : SCF
Type of density    : Electron Density
Multiplicity       :   1
Irrep              :   0
Energy             : -2929.6355490613327675 Eh
Relativity type    :
Basis              : AO
                                X                 Y                 Z
Electronic contribution:      0.224081549      -5.333888917       1.674331223
Nuclear contribution   :     -0.146711078       5.058889564      -1.874230102
                        -----------------------------------------
Total Dipole Moment    :      0.077370471      -0.274999353      -0.199898878
                        -----------------------------------------
Magnitude (a.u.)       :      0.348669465
Magnitude (Debye)      :      0.886247348

Rotational constants in cm-1:             0.011209             0.005805             0.005182
Rotational constants in MHz :           336.050124           174.043873           155.362462

                             ****ORCA TERMINATED NORMALLY****
TOTAL RUN TIME: 0 days 0 hours 0 minutes 21 seconds 135 msec
