                         Program Version 6.0.0  -   RELEASE  -
|  1> ! pbe def2-sv(p) def2/J RI DEFGRID1 loosescf d4 GCP(DFT/SV(P)) printgap
|  2> %output
|  3>     printlevel normal
|  4> end
|  5> * xyz 0 1
|  6> C 4.3539799753 -0.2635132359 -1.6198912475
|  7> C 2.9928658215 0.3648756585 -1.8219881461
|  8> O 2.4297597069 0.9028751023 -0.6013095123
|  9> P 2.2412928454 0.1552113643 0.7741805912
| 10> S 1.0156412072 1.1371015968 1.9396745734
| 11> O 3.7256242547 0.0299875462 1.3233352495
| 12> C 4.0236700242 -0.2040690996 2.7107564074
| 13> C 3.5728345786 -1.5738853622 3.1752314354
| 14> S 1.6692729833 -1.85044484 0.3135727849
| 15> C -0.0887858436 -1.5329005603 0.1330491165
| 16> S -0.4198015698 -0.6728621888 -1.4595404
| 17> P -2.3014811455 0.1244392254 -1.0030002828
| 18> S -3.2098184527 1.0796826987 -2.4517369372
| 19> O -2.1203136097 0.9984214157 0.3213785791
| 20> C -1.8602596599 2.4116177472 0.286446316
| 21> C -2.2702646543 2.9937232524 1.6229409697
| 22> O -2.9750894713 -1.1816196724 -0.4107679578
| 23> C -4.3684129422 -1.1941911493 -0.0149941171
| 24> C -5.2315882516 -1.7484823769 -1.1300737729
| 25> H 5.0293365738 0.4440739496 -1.1460935329
| 26> H 4.2728725609 -1.1492099217 -0.9931298884
| 27> H 4.7544721541 -0.5508543548 -2.587222365
| 28> H 2.2794898806 -0.3566264597 -2.2321435998
| 29> H 3.0424077487 1.2371407853 -2.4755538714
| 30> H 5.1080913111 -0.0979719621 2.7632653715
| 31> H 3.5449927557 0.5806358669 3.305165866
| 32> H 3.9433924556 -1.7497534597 4.1800445925
| 33> H 2.4854976779 -1.6255865551 3.1873082706
| 34> H 3.9533506015 -2.3443557039 2.5097483398
| 35> H -0.4321149518 -0.8950425333 0.9500176483
| 36> H -0.5943119779 -2.4942674238 0.1261303602
| 37> H -0.7911533934 2.560026259 0.1089424431
| 38> H -2.4262562121 2.849644847 -0.5428745475
| 39> H -2.0937042244 4.0639768982 1.611562748
| 40> H -3.3227871028 2.8023976626 1.8108663489
| 41> H -1.6757166084 2.5413093805 2.4129109409
| 42> H -4.3956293067 -1.8332009271 0.8691566432
| 43> H -4.6746220083 -0.1804798834 0.2552949909
| 44> H -4.8849107194 -2.7380856253 -1.4139267458
| 45> H -6.2602353622 -1.8104249743 -0.7895474644
| 46> H -5.1840851937 -1.0975519419 -2.0006404749
| 47> *
| 48>
| 49>                          ****END OF INPUT****

CARTESIAN COORDINATES (ANGSTROEM)
---------------------------------
  C      4.353980   -0.263513   -1.619891
  C      2.992866    0.364876   -1.821988
  O      2.429760    0.902875   -0.601310
  P      2.241293    0.155211    0.774181
  S      1.015641    1.137102    1.939675
  O      3.725624    0.029988    1.323335
  C      4.023670   -0.204069    2.710756
  C      3.572835   -1.573885    3.175231
  S      1.669273   -1.850445    0.313573
  C     -0.088786   -1.532901    0.133049
  S     -0.419802   -0.672862   -1.459540
  P     -2.301481    0.124439   -1.003000
  S     -3.209818    1.079683   -2.451737
  O     -2.120314    0.998421    0.321379
  C     -1.860260    2.411618    0.286446
  C     -2.270265    2.993723    1.622941
  O     -2.975089   -1.181620   -0.410768
  C     -4.368413   -1.194191   -0.014994
  C     -5.231588   -1.748482   -1.130074
  H      5.029337    0.444074   -1.146094
  H      4.272873   -1.149210   -0.993130
  H      4.754472   -0.550854   -2.587222
  H      2.279490   -0.356626   -2.232144
  H      3.042408    1.237141   -2.475554
  H      5.108091   -0.097972    2.763265
  H      3.544993    0.580636    3.305166
  H      3.943392   -1.749753    4.180045
  H      2.485498   -1.625587    3.187308
  H      3.953351   -2.344356    2.509748
  H     -0.432115   -0.895043    0.950018
  H     -0.594312   -2.494267    0.126130
  H     -0.791153    2.560026    0.108942
  H     -2.426256    2.849645   -0.542875
  H     -2.093704    4.063977    1.611563
  H     -3.322787    2.802398    1.810866
  H     -1.675717    2.541309    2.412911
  H     -4.395629   -1.833201    0.869157
  H     -4.674622   -0.180480    0.255295
  H     -4.884911   -2.738086   -1.413927
  H     -6.260235   -1.810425   -0.789547
  H     -5.184085   -1.097552   -2.000640

 Total Charge           Charge          ....    0
 Multiplicity           Mult            ....    1
 Number of Electrons    NEL             ....  202
 Basis Dimension        Dim             ....  334

ORBITAL ENERGIES
----------------

  NO   OCC          E(Eh)            E(eV)
   0   2.0000     -88.054844     -2396.0941
   1   2.0000     -88.039580     -2395.6788
   2   2.0000     -87.990347     -2394.3391
   3   2.0000     -87.982034     -2394.1129
   4   2.0000     -76.432890     -2079.8447
   5   2.0000     -76.420840     -2079.5168
   6   2.0000     -18.800662      -511.5920
   7   2.0000     -18.793930      -511.4088
   8   2.0000     -18.789886      -511.2988
   9   2.0000     -18.782542      -511.0989
  10   2.0000      -9.958981      -270.9976
  11   2.0000      -9.957116      -270.9469
  12   2.0000      -9.957049      -270.9451
  13   2.0000      -9.954521      -270.8763
  14   2.0000      -9.935393      -270.3558
  15   2.0000      -9.890083      -269.1228
  16   2.0000      -9.890036      -269.1216
  17   2.0000      -9.880366      -268.8584
  18   2.0000      -9.875089      -268.7148
  19   2.0000      -7.699489      -209.5137
  20   2.0000      -7.684887      -209.1164
  21   2.0000      -7.635277      -207.7664
  22   2.0000      -7.627238      -207.5477
  23   2.0000      -6.430187      -174.9743
  24   2.0000      -6.418839      -174.6655
  25   2.0000      -5.727213      -155.8454
  26   2.0000      -5.723983      -155.7575
  27   2.0000      -5.716707      -155.5595
  28   2.0000      -5.713230      -155.4649
  29   2.0000      -5.709220      -155.3558
  30   2.0000      -5.701556      -155.1472
  31   2.0000      -5.664127      -154.1287
  32   2.0000      -5.656215      -153.9134
  33   2.0000      -5.655878      -153.9043
  34   2.0000      -5.655466      -153.8931
  35   2.0000      -5.648002      -153.6899
  36   2.0000      -5.647194      -153.6680
  37   2.0000      -4.652955      -126.6133
  38   2.0000      -4.652033      -126.5883
  39   2.0000      -4.650437      -126.5448
  40   2.0000      -4.641336      -126.2972
  41   2.0000      -4.640741      -126.2810
  42   2.0000      -4.639225      -126.2397
  43   2.0000      -0.992312       -27.0022
  44   2.0000      -0.981903       -26.7189
  45   2.0000      -0.950570       -25.8663
  46   2.0000      -0.937798       -25.5188
  47   2.0000      -0.766815       -20.8661
  48   2.0000      -0.724183       -19.7060
  49   2.0000      -0.711452       -19.3596
  50   2.0000      -0.695354       -18.9215
  51   2.0000      -0.680991       -18.5307
  52   2.0000      -0.675046       -18.3689
  53   2.0000      -0.653837       -17.7918
  54   2.0000      -0.637536       -17.3482
  55   2.0000      -0.603368       -16.4185
  56   2.0000      -0.584491       -15.9048
  57   2.0000      -0.580551       -15.7976
  58   2.0000      -0.563981       -15.3467
  59   2.0000      -0.562048       -15.2941
  60   2.0000      -0.501418       -13.6443
  61   2.0000      -0.496750       -13.5172
  62   2.0000      -0.476203       -12.9581
  63   2.0000      -0.470863       -12.8128
  64   2.0000      -0.456217       -12.4143
  65   2.0000      -0.449426       -12.2295
  66   2.0000      -0.448227       -12.1969
  67   2.0000      -0.436792       -11.8857
  68   2.0000      -0.426801       -11.6139
  69   2.0000      -0.421709       -11.4753
  70   2.0000      -0.415264       -11.2999
  71   2.0000      -0.401511       -10.9257
  72   2.0000      -0.389636       -10.6025
  73   2.0000      -0.384888       -10.4733
  74   2.0000      -0.377528       -10.2730
  75   2.0000      -0.373506       -10.1636
  76   2.0000      -0.370261       -10.0753
  77   2.0000      -0.359938        -9.7944
  78   2.0000      -0.356254        -9.6942
  79   2.0000      -0.350899        -9.5485
  80   2.0000      -0.347131        -9.4459
  81   2.0000      -0.344846        -9.3837
  82   2.0000      -0.339835        -9.2474
  83   2.0000      -0.334233        -9.0949
  84   2.0000      -0.330116        -8.9829
  85   2.0000      -0.317626        -8.6430
  86   2.0000      -0.309924        -8.4335
  87   2.0000      -0.298158        -8.1133
  88   2.0000      -0.296424        -8.0661
  89   2.0000      -0.291005        -7.9186
  90   2.0000      -0.287769        -7.8306
  91   2.0000      -0.276658        -7.5283
  92   2.0000      -0.273145        -7.4326
  93   2.0000      -0.268029        -7.2934
  94   2.0000      -0.256727        -6.9859
  95   2.0000      -0.238329        -6.4853
  96   2.0000      -0.220584        -6.0024
  97   2.0000      -0.209632        -5.7044
  98   2.0000      -0.207210        -5.6385
  99   2.0000      -0.202497        -5.5102
 100   2.0000      -0.195951        -5.3321
 101   0.0000      -0.046387        -1.2622
 102   0.0000      -0.022792        -0.6202
 103   0.0000      -0.020821        -0.5666
 104   0.0000       0.004957         0.1349
 105   0.0000       0.014685         0.3996

MULLIKEN ATOMIC CHARGES
-----------------------
   0 C :   -0.307965
   1 C :   -0.006956
   2 O :   -0.351797
   3 P :    0.608362
   4 S :   -0.312845
   5 O :   -0.372799
   6 C :   -0.003102
   7 C :   -0.319776
   8 S :   -0.106303
   9 C :   -0.351147
  10 S :   -0.093655
  11 P :    0.624037
  12 S :   -0.326001
  13 O :   -0.382603
  14 C :   -0.009539
  15 C :   -0.286449
  16 O :   -0.386441
  17 C :   -0.006998
  18 C :   -0.288922
  19 H :    0.122965
  20 H :    0.116796
  21 H :    0.116210
  22 H :    0.120793
  23 H :    0.113495
  24 H :    0.107398
  25 H :    0.115874
  26 H :    0.116707
  27 H :    0.129101
  28 H :    0.117444
  29 H :    0.204397
  30 H :    0.187320
  31 H :    0.109694
  32 H :    0.104720
  33 H :    0.108171
  34 H :    0.106491
  35 H :    0.121784
  36 H :    0.105914
  37 H :    0.105154
  38 H :    0.112686
  39 H :    0.107466
  40 H :    0.130320
Sum of atomic charges:    0.0000000

LOEWDIN ATOMIC CHARGES
----------------------
   0 C :   -0.366704
   1 C :   -0.114548
   2 O :   -0.231849
   3 P :    0.577732
   4 S :   -0.296810
   5 O :   -0.239731
   6 C :   -0.117141
   7 C :   -0.371099
   8 S :    0.086028
   9 C :   -0.475561
  10 S :    0.079241
  11 P :    0.561767
  12 S :   -0.321194
  13 O :   -0.246908
  14 C :   -0.128098
  15 C :   -0.351541
  16 O :   -0.249863
  17 C :   -0.110825
  18 C :   -0.361585
  19 H :    0.128798
  20 H :    0.116535
  21 H :    0.132836
  22 H :    0.104446
  23 H :    0.125119
  24 H :    0.120013
  25 H :    0.113873
  26 H :    0.133012
  27 H :    0.121871
  28 H :    0.123403
  29 H :    0.125205
  30 H :    0.135876
  31 H :    0.108626
  32 H :    0.103088
  33 H :    0.129630
  34 H :    0.121716
  35 H :    0.123702
  36 H :    0.118373
  37 H :    0.111074
  38 H :    0.125881
  39 H :    0.128581
  40 H :    0.127033

  Mayer bond orders larger than 0.100000
B(  0-C ,  1-C ) :   1.1692 B(  0-C , 19-H ) :   0.9427 B(  0-C , 20-H ) :   0.9384
B(  0-C , 21-H ) :   0.9357 B(  1-C ,  2-O ) :   0.8962 B(  1-C , 22-H ) :   0.9127
B(  1-C , 23-H ) :   0.9339 B(  2-O ,  3-P ) :   1.1561 B(  3-P ,  4-S ) :   1.6191
B(  3-P ,  5-O ) :   1.0983 B(  3-P ,  8-S ) :   0.9264 B(  4-S ,  8-S ) :   0.1074
B(  5-O ,  6-C ) :   0.9031 B(  6-C ,  7-C ) :   1.1655 B(  6-C , 24-H ) :   0.9336
B(  6-C , 25-H ) :   0.9167 B(  7-C , 26-H ) :   0.9372 B(  7-C , 27-H ) :   0.9348
B(  7-C , 28-H ) :   0.9446 B(  8-S ,  9-C ) :   1.0178 B(  9-C , 10-S ) :   0.9562
B(  9-C , 29-H ) :   0.8586 B(  9-C , 30-H ) :   0.9050 B( 10-S , 11-P ) :   0.9869
B( 11-P , 12-S ) :   1.6504 B( 11-P , 13-O ) :   1.0880 B( 11-P , 16-O ) :   1.0929
B( 13-O , 14-C ) :   0.8967 B( 14-C , 15-C ) :   1.1656 B( 14-C , 31-H ) :   0.9135
B( 14-C , 32-H ) :   0.9070 B( 15-C , 33-H ) :   0.9425 B( 15-C , 34-H ) :   0.9512
B( 15-C , 35-H ) :   0.9466 B( 16-O , 17-C ) :   0.8929 B( 17-C , 18-C ) :   1.1699
B( 17-C , 36-H ) :   0.9358 B( 17-C , 37-H ) :   0.9155 B( 18-C , 38-H ) :   0.9470
B( 18-C , 39-H ) :   0.9400 B( 18-C , 40-H ) :   0.9336

Dispersion correction           -0.063781519
FINAL SINGLE POINT ENERGY     -2929.519855728297

DIPOLE MOMENT
-------------

Method             : SCF
Type of density    : Electron Density
Multiplicity       :   1
Irrep              :   0
Energy             : -2929.6416396931763302 Eh
Relativity type    :
Basis              : AO
                                X                 Y                 Z
Electronic contribution:     -0.726290962       1.086001300      -8.694351284
Nuclear contribution   :      1.671429416      -1.960075719       9.558425338
                        -----------------------------------------
Total Dipole Moment    :      0.945138454      -0.874074419       0.864074054
                        -----------------------------------------
Magnitude (a.u.)       :      1.550456951
Magnitude (Debye)      :      3.940948378

Rotational constants in cm-1:             0.012969             0.004471             0.004300
Rotational constants in MHz :           388.802347           134.048885           128.922156

                             ****ORCA TERMINATED NORMALLY****
TOTAL RUN TIME: 0 days 0 hours 0 minutes 20 seconds 789 msec
