                         Program Version 6.0.0  -   RELEASE  -
|  1> ! pbe def2-sv(p) def2/J RI DEFGRID1 loosescf d4 GCP(DFT/SV(P)) printgap
|  2> %output
|  3>     printlevel normal
|  4> end
|  5> * xyz 0 1
|  6> C 5.0335712388 -2.3559012019 -1.3975001936
|  7> C 4.0559943598 -1.2075673373 -1.5449218975
|  8> O 3.0364343606 -1.3608961678 -0.5360771368
|  9> P 2.0997946887 -0.1534388737 -0.1086866187
| 10> S 3.0301691306 1.5276383976 0.2926656831
| 11> O 1.2644242419 -0.8141180542 1.0582871982
| 12> C 1.5480930731 -0.5624420527 2.4493265497
| 13> C 2.8147685893 -1.2671692038 2.8854019687
| 14> S 0.675615819 -0.0870940334 -1.6711473243
| 15> C 0.0359811115 1.5723606455 -1.3054854311
| 16> S -0.6714690307 1.7112294841 0.3541216807
| 17> P -2.2265198116 0.2884724434 0.0756029272
| 18> S -3.0365982263 0.2363749026 -1.7120707897
| 19> O -3.1731401798 0.5536783774 1.3188188819
| 20> C -3.688669664 1.8356525705 1.7234380259
| 21> C -4.3952097422 2.5674163811 0.6009460342
| 22> O -1.5819474704 -1.0747789194 0.5570369912
| 23> C -1.6993087016 -2.3133898077 -0.1636313433
| 24> C -2.9724527743 -3.0338956246 0.2287172622
| 25> H 5.5088167089 -2.3214284528 -0.4213647889
| 26> H 4.510773447 -3.3020875746 -1.5017932403
| 27> H 5.793052348 -2.2770169914 -2.1683276813
| 28> H 3.5708985655 -1.2184252798 -2.5247907062
| 29> H 4.5471619406 -0.2394733964 -1.3993510926
| 30> H 1.6316940775 0.5193468928 2.5984026311
| 31> H 0.6657194095 -0.938760424 2.9691133101
| 32> H 3.666638635 -0.8525192369 2.3472971215
| 33> H 2.9627906588 -1.1193748581 3.9504718359
| 34> H 2.7469139516 -2.3302435316 2.6706251096
| 35> H -0.7320001728 1.774053011 -2.051841641
| 36> H 0.847365119 2.2973440302 -1.3573347142
| 37> H -4.376555167 1.5893176247 2.5343588236
| 38> H -2.8569922475 2.4310186584 2.1110365871
| 39> H -5.1712075922 1.9401808982 0.1684922435
| 40> H -4.8425754946 3.476695241 0.9893612222
| 41> H -3.6858242532 2.828525216 -0.183235766
| 42> H -1.684673393 -2.1068705931 -1.2394120676
| 43> H -0.805493985 -2.8758326587 0.1119543832
| 44> H -3.8340396872 -2.4328154745 -0.0586243885
| 45> H -3.0190219953 -3.9900826482 -0.2824786427
| 46> H -2.9983111838 -3.1927409635 1.3031217412
| 47> *
| 48>
| 49>                          ****END OF INPUT****

CARTESIAN COORDINATES (ANGSTROEM)
---------------------------------
  C      5.033571   -2.355901   -1.397500
  C      4.055994   -1.207567   -1.544922
  O      3.036434   -1.360896   -0.536077
  P      2.099795   -0.153439   -0.108687
  S      3.030169    1.527638    0.292666
  O      1.264424   -0.814118    1.058287
  C      1.548093   -0.562442    2.449327
  C      2.814769   -1.267169    2.885402
  S      0.675616   -0.087094   -1.671147
  C      0.035981    1.572361   -1.305485
  S     -0.671469    1.711229    0.354122
  P     -2.226520    0.288472    0.075603
  S     -3.036598    0.236375   -1.712071
  O     -3.173140    0.553678    1.318819
  C     -3.688670    1.835653    1.723438
  C     -4.395210    2.567416    0.600946
  O     -1.581947   -1.074779    0.557037
  C     -1.699309   -2.313390   -0.163631
  C     -2.972453   -3.033896    0.228717
  H      5.508817   -2.321428   -0.421365
  H      4.510773   -3.302088   -1.501793
  H      5.793052   -2.277017   -2.168328
  H      3.570899   -1.218425   -2.524791
  H      4.547162   -0.239473   -1.399351
  H      1.631694    0.519347    2.598403
  H      0.665719   -0.938760    2.969113
  H      3.666639   -0.852519    2.347297
  H      2.962791   -1.119375    3.950472
  H      2.746914   -2.330244    2.670625
  H     -0.732000    1.774053   -2.051842
  H      0.847365    2.297344   -1.357335
  H     -4.376555    1.589318    2.534359
  H     -2.856992    2.431019    2.111037
  H     -5.171208    1.940181    0.168492
  H     -4.842575    3.476695    0.989361
  H     -3.685824    2.828525   -0.183236
  H     -1.684673   -2.106871   -1.239412
  H     -0.805494   -2.875833    0.111954
  H     -3.834040   -2.432815   -0.058624
  H     -3.019022   -3.990083   -0.282479
  H     -2.998311   -3.192741    1.303122

 Total Charge           Charge          ....    0
 Multiplicity           Mult            ....    1
 Number of Electrons    NEL             ....  202
 Basis Dimension        Dim             ....  334

ORBITAL ENERGIES
----------------

  NO   OCC          E(Eh)            E(eV)
   0   2.0000     -88.042899     -2395.7691
   1   2.0000     -88.042462     -2395.7572
   2   2.0000     -87.989140     -2394.3062
   3   2.0000     -87.986536     -2394.2354
   4   2.0000     -76.426409     -2079.6683
   5   2.0000     -76.425858     -2079.6533
   6   2.0000     -18.795665      -511.4561
   7   2.0000     -18.792999      -511.3835
   8   2.0000     -18.788927      -511.2727
   9   2.0000     -18.783277      -511.1190
  10   2.0000      -9.958094      -270.9735
  11   2.0000      -9.954886      -270.8862
  12   2.0000      -9.954480      -270.8752
  13   2.0000      -9.948812      -270.7209
  14   2.0000      -9.942459      -270.5481
  15   2.0000      -9.890136      -269.1243
  16   2.0000      -9.883281      -268.9378
  17   2.0000      -9.882839      -268.9257
  18   2.0000      -9.877535      -268.7814
  19   2.0000      -7.687622      -209.1908
  20   2.0000      -7.687396      -209.1847
  21   2.0000      -7.634094      -207.7343
  22   2.0000      -7.631484      -207.6632
  23   2.0000      -6.424071      -174.8079
  24   2.0000      -6.422939      -174.7771
  25   2.0000      -5.715374      -155.5232
  26   2.0000      -5.715227      -155.5192
  27   2.0000      -5.712179      -155.4363
  28   2.0000      -5.711991      -155.4312
  29   2.0000      -5.704715      -155.2332
  30   2.0000      -5.704328      -155.2227
  31   2.0000      -5.662872      -154.0946
  32   2.0000      -5.660333      -154.0255
  33   2.0000      -5.654706      -153.8724
  34   2.0000      -5.654429      -153.8648
  35   2.0000      -5.652126      -153.8022
  36   2.0000      -5.651713      -153.7909
  37   2.0000      -4.646385      -126.4346
  38   2.0000      -4.645878      -126.4208
  39   2.0000      -4.645280      -126.4045
  40   2.0000      -4.644897      -126.3941
  41   2.0000      -4.644684      -126.3883
  42   2.0000      -4.643494      -126.3559
  43   2.0000      -0.988173       -26.8896
  44   2.0000      -0.984839       -26.7988
  45   2.0000      -0.946702       -25.7611
  46   2.0000      -0.941724       -25.6256
  47   2.0000      -0.765419       -20.8281
  48   2.0000      -0.721422       -19.6309
  49   2.0000      -0.709356       -19.3025
  50   2.0000      -0.688426       -18.7330
  51   2.0000      -0.683479       -18.5984
  52   2.0000      -0.672278       -18.2936
  53   2.0000      -0.651034       -17.7155
  54   2.0000      -0.639767       -17.4089
  55   2.0000      -0.599520       -16.3138
  56   2.0000      -0.594659       -16.1815
  57   2.0000      -0.571200       -15.5431
  58   2.0000      -0.566052       -15.4031
  59   2.0000      -0.561852       -15.2888
  60   2.0000      -0.505920       -13.7668
  61   2.0000      -0.493272       -13.4226
  62   2.0000      -0.476974       -12.9791
  63   2.0000      -0.467984       -12.7345
  64   2.0000      -0.457422       -12.4471
  65   2.0000      -0.444872       -12.1056
  66   2.0000      -0.436527       -11.8785
  67   2.0000      -0.435025       -11.8376
  68   2.0000      -0.427161       -11.6236
  69   2.0000      -0.416761       -11.3406
  70   2.0000      -0.408679       -11.1207
  71   2.0000      -0.394394       -10.7320
  72   2.0000      -0.387280       -10.5384
  73   2.0000      -0.383944       -10.4477
  74   2.0000      -0.382709       -10.4140
  75   2.0000      -0.374307       -10.1854
  76   2.0000      -0.373620       -10.1667
  77   2.0000      -0.358902        -9.7662
  78   2.0000      -0.354271        -9.6402
  79   2.0000      -0.348239        -9.4761
  80   2.0000      -0.346482        -9.4282
  81   2.0000      -0.344991        -9.3877
  82   2.0000      -0.342586        -9.3222
  83   2.0000      -0.339033        -9.2256
  84   2.0000      -0.330588        -8.9958
  85   2.0000      -0.319917        -8.7054
  86   2.0000      -0.310200        -8.4410
  87   2.0000      -0.302275        -8.2253
  88   2.0000      -0.295899        -8.0518
  89   2.0000      -0.285529        -7.7696
  90   2.0000      -0.281501        -7.6600
  91   2.0000      -0.277310        -7.5460
  92   2.0000      -0.270316        -7.3557
  93   2.0000      -0.264670        -7.2020
  94   2.0000      -0.253734        -6.9044
  95   2.0000      -0.233275        -6.3477
  96   2.0000      -0.219077        -5.9614
  97   2.0000      -0.214025        -5.8239
  98   2.0000      -0.208179        -5.6648
  99   2.0000      -0.199447        -5.4272
 100   2.0000      -0.198401        -5.3988
 101   0.0000      -0.046022        -1.2523
 102   0.0000      -0.023854        -0.6491
 103   0.0000      -0.001338        -0.0364
 104   0.0000       0.003629         0.0987
 105   0.0000       0.010001         0.2721

MULLIKEN ATOMIC CHARGES
-----------------------
   0 C :   -0.280699
   1 C :   -0.012899
   2 O :   -0.374690
   3 P :    0.616815
   4 S :   -0.339261
   5 O :   -0.351362
   6 C :   -0.002366
   7 C :   -0.303905
   8 S :   -0.087704
   9 C :   -0.351547
  10 S :   -0.099544
  11 P :    0.614398
  12 S :   -0.335553
  13 O :   -0.366840
  14 C :   -0.012110
  15 C :   -0.309578
  16 O :   -0.350902
  17 C :   -0.010132
  18 C :   -0.288893
  19 H :    0.119363
  20 H :    0.117290
  21 H :    0.113109
  22 H :    0.104081
  23 H :    0.106658
  24 H :    0.112490
  25 H :    0.106393
  26 H :    0.120954
  27 H :    0.111295
  28 H :    0.114300
  29 H :    0.191575
  30 H :    0.191383
  31 H :    0.109634
  32 H :    0.114943
  33 H :    0.126413
  34 H :    0.111406
  35 H :    0.124904
  36 H :    0.114118
  37 H :    0.100568
  38 H :    0.117748
  39 H :    0.107468
  40 H :    0.110680
Sum of atomic charges:    0.0000000

LOEWDIN ATOMIC CHARGES
----------------------
   0 C :   -0.350151
   1 C :   -0.120521
   2 O :   -0.247776
   3 P :    0.569427
   4 S :   -0.326195
   5 O :   -0.228428
   6 C :   -0.116791
   7 C :   -0.364032
   8 S :    0.087899
   9 C :   -0.478723
  10 S :    0.080857
  11 P :    0.572276
  12 S :   -0.318493
  13 O :   -0.241633
  14 C :   -0.114403
  15 C :   -0.369332
  16 O :   -0.229260
  17 C :   -0.123450
  18 C :   -0.360433
  19 H :    0.128073
  20 H :    0.127296
  21 H :    0.131464
  22 H :    0.110556
  23 H :    0.108654
  24 H :    0.109665
  25 H :    0.119137
  26 H :    0.121577
  27 H :    0.129977
  28 H :    0.125195
  29 H :    0.130245
  30 H :    0.131138
  31 H :    0.121667
  32 H :    0.109335
  33 H :    0.129843
  34 H :    0.129960
  35 H :    0.120897
  36 H :    0.104644
  37 H :    0.114923
  38 H :    0.123169
  39 H :    0.128233
  40 H :    0.123516

  Mayer bond orders larger than 0.100000
B(  0-C ,  1-C ) :   1.1610 B(  0-C , 19-H ) :   0.9514 B(  0-C , 20-H ) :   0.9505
B(  0-C , 21-H ) :   0.9418 B(  1-C ,  2-O ) :   0.9031 B(  1-C , 22-H ) :   0.9288
B(  1-C , 23-H ) :   0.9100 B(  2-O ,  3-P ) :   1.1134 B(  3-P ,  4-S ) :   1.5942
B(  3-P ,  5-O ) :   1.1389 B(  3-P ,  8-S ) :   0.9546 B(  4-S ,  8-S ) :   0.1080
B(  5-O ,  6-C ) :   0.8999 B(  6-C ,  7-C ) :   1.1633 B(  6-C , 24-H ) :   0.9150
B(  6-C , 25-H ) :   0.9328 B(  7-C , 26-H ) :   0.9362 B(  7-C , 27-H ) :   0.9401
B(  7-C , 28-H ) :   0.9467 B(  8-S ,  9-C ) :   1.0009 B(  9-C , 10-S ) :   1.0104
B(  9-C , 29-H ) :   0.8828 B(  9-C , 30-H ) :   0.8858 B( 10-S , 11-P ) :   0.9322
B( 10-S , 12-S ) :   0.1083 B( 11-P , 12-S ) :   1.5885 B( 11-P , 13-O ) :   1.1282
B( 11-P , 16-O ) :   1.1363 B( 13-O , 14-C ) :   0.9149 B( 14-C , 15-C ) :   1.1638
B( 14-C , 31-H ) :   0.9342 B( 14-C , 32-H ) :   0.9267 B( 15-C , 33-H ) :   0.9429
B( 15-C , 34-H ) :   0.9352 B( 15-C , 35-H ) :   0.9337 B( 16-O , 17-C ) :   0.9003
B( 17-C , 18-C ) :   1.1617 B( 17-C , 36-H ) :   0.9062 B( 17-C , 37-H ) :   0.9314
B( 18-C , 38-H ) :   0.9409 B( 18-C , 39-H ) :   0.9416 B( 18-C , 40-H ) :   0.9480

Dispersion correction           -0.066220518
FINAL SINGLE POINT ENERGY     -2929.525970787028

DIPOLE MOMENT
-------------

Method             : SCF
Type of density    : Electron Density
Multiplicity       :   1
Irrep              :   0
Energy             : -2929.6438505251908282 Eh
Relativity type    :
Basis              : AO
                                X                 Y                 Z
Electronic contribution:     -2.174240517      11.293765374      -7.545762549
Nuclear contribution   :      2.400520121     -11.836817582       8.180368078
                        -----------------------------------------
Total Dipole Moment    :      0.226279604      -0.543052208       0.634605529
                        -----------------------------------------
Magnitude (a.u.)       :      0.865350991
Magnitude (Debye)      :      2.199547419

Rotational constants in cm-1:             0.012877             0.004943             0.004770
Rotational constants in MHz :           386.041404           148.173521           142.997085

                             ****ORCA TERMINATED NORMALLY****
TOTAL RUN TIME: 0 days 0 hours 0 minutes 21 seconds 307 msec
