                         Program Version 6.0.1  -  RELEASE   -
|  1> ! pbe def2-sv(p) def2/J RI DEFGRID1 loosescf d4 GCP(DFT/SV(P)) printgap
|  2> %output
|  3>     printlevel normal
|  4> end
|  5> * xyz 0 1
|  6> C 2.235059418 -4.5839059181 -0.1160354373
|  7> C 1.9968001248 -3.5702700435 -1.2199573868
|  8> O 1.7835506612 -2.2756042309 -0.6219935586
|  9> C 2.240667 -1.2064785071 -1.2370691002
| 10> O 2.8315833572 -1.2147954481 -2.2941500941
| 11> C 1.8978158403 0.0595482308 -0.4735048433
| 12> C 0.722029987 0.7449756401 -1.1715913996
| 13> H 0.9886429364 0.9543927507 -2.2127558674
| 14> C 0.3235741649 2.0493239425 -0.5007809228
| 15> O -0.8259788118 2.2988621642 -0.1983575779
| 16> O 1.3450207463 2.8406600636 -0.3349948965
| 17> C 1.1451682768 4.0965397622 0.3517904171
| 18> C 1.4277859649 3.9313846435 1.8355309646
| 19> S -0.7512405957 -0.3190583213 -1.2708235087
| 20> P -1.5821775337 -0.0743825698 0.6810834978
| 21> S -0.4415374329 0.4324080127 2.1890823031
| 22> O -2.9236916728 0.7521491107 0.5949213969
| 23> C -3.9411330327 0.4880382526 -0.389004471
| 24> O -2.2006770647 -1.5470613952 0.8712464171
| 25> C -1.3527808669 -2.6734602763 1.1100409002
| 26> H 2.3706445348 -5.5655333667 -0.5576060803
| 27> H 3.1244992492 -4.322066689 0.449850827
| 28> H 1.3855056175 -4.6088858977 0.5601996131
| 29> H 1.1004521032 -3.8121420922 -1.7982967152
| 30> H 2.84976167 -3.4990289644 -1.9011234876
| 31> H 2.7522554553 0.7364435111 -0.4961460075
| 32> H 1.6407305167 -0.1892252412 0.5573134743
| 33> H 1.8527335414 4.7801822908 -0.1175100657
| 34> H 0.117536548 4.4281620634 0.182588684
| 35> H 0.7504727609 3.1972953144 2.2689284221
| 36> H 2.4484491974 3.5941319645 1.9898582764
| 37> H 1.2836955324 4.8827946505 2.3362603147
| 38> H -4.712048903 1.2310396837 -0.2022139247
| 39> H -4.3304986866 -0.5202896428 -0.2594300694
| 40> H -3.5282488852 0.6068628649 -1.3907566632
| 41> H -0.718364528 -2.8538462677 0.2421877555
| 42> H -2.0220114624 -3.5123068323 1.2816842425
| 43> H -0.7304807796 -2.4909489642 1.9877540591
| 44> *
| 45>
| 46>                          ****END OF INPUT****

CARTESIAN COORDINATES (ANGSTROEM)
---------------------------------
  C      2.235059   -4.583906   -0.116035
  C      1.996800   -3.570270   -1.219957
  O      1.783551   -2.275604   -0.621994
  C      2.240667   -1.206479   -1.237069
  O      2.831583   -1.214795   -2.294150
  C      1.897816    0.059548   -0.473505
  C      0.722030    0.744976   -1.171591
  H      0.988643    0.954393   -2.212756
  C      0.323574    2.049324   -0.500781
  O     -0.825979    2.298862   -0.198358
  O      1.345021    2.840660   -0.334995
  C      1.145168    4.096540    0.351790
  C      1.427786    3.931385    1.835531
  S     -0.751241   -0.319058   -1.270824
  P     -1.582178   -0.074383    0.681083
  S     -0.441537    0.432408    2.189082
  O     -2.923692    0.752149    0.594921
  C     -3.941133    0.488038   -0.389004
  O     -2.200677   -1.547061    0.871246
  C     -1.352781   -2.673460    1.110041
  H      2.370645   -5.565533   -0.557606
  H      3.124499   -4.322067    0.449851
  H      1.385506   -4.608886    0.560200
  H      1.100452   -3.812142   -1.798297
  H      2.849762   -3.499029   -1.901123
  H      2.752255    0.736444   -0.496146
  H      1.640731   -0.189225    0.557313
  H      1.852734    4.780182   -0.117510
  H      0.117537    4.428162    0.182589
  H      0.750473    3.197295    2.268928
  H      2.448449    3.594132    1.989858
  H      1.283696    4.882795    2.336260
  H     -4.712049    1.231040   -0.202214
  H     -4.330499   -0.520290   -0.259430
  H     -3.528249    0.606863   -1.390757
  H     -0.718365   -2.853846    0.242188
  H     -2.022011   -3.512307    1.281684
  H     -0.730481   -2.490949    1.987754

 Total Charge           Charge          ....    0
 Multiplicity           Mult            ....    1
 Number of Electrons    NEL             ....  174
 Basis Dimension        Dim             ....  316

ORBITAL ENERGIES
----------------

  NO   OCC          E(Eh)            E(eV)
   0   2.0000     -88.039408     -2395.6741
   1   2.0000     -87.979710     -2394.0496
   2   2.0000     -76.424012     -2079.6031
   3   2.0000     -18.818332      -512.0728
   4   2.0000     -18.804691      -511.7017
   5   2.0000     -18.785530      -511.1803
   6   2.0000     -18.784561      -511.1539
   7   2.0000     -18.747511      -510.1457
   8   2.0000     -18.738556      -509.9020
   9   2.0000     -10.023967      -272.7660
  10   2.0000     -10.009561      -272.3740
  11   2.0000      -9.953913      -270.8597
  12   2.0000      -9.953335      -270.8440
  13   2.0000      -9.949677      -270.7445
  14   2.0000      -9.944136      -270.5937
  15   2.0000      -9.938086      -270.4291
  16   2.0000      -9.904503      -269.5152
  17   2.0000      -9.893084      -269.2045
  18   2.0000      -9.884330      -268.9663
  19   2.0000      -7.684002      -209.0923
  20   2.0000      -7.624834      -207.4823
  21   2.0000      -6.420172      -174.7018
  22   2.0000      -5.711979      -155.4309
  23   2.0000      -5.708526      -155.3369
  24   2.0000      -5.700891      -155.1291
  25   2.0000      -5.653972      -153.8524
  26   2.0000      -5.645511      -153.6222
  27   2.0000      -5.644603      -153.5974
  28   2.0000      -4.642942      -126.3409
  29   2.0000      -4.642203      -126.3208
  30   2.0000      -4.640544      -126.2756
  31   2.0000      -1.026678       -27.9373
  32   2.0000      -1.011970       -27.5371
  33   2.0000      -0.980185       -26.6722
  34   2.0000      -0.935529       -25.4570
  35   2.0000      -0.929167       -25.2839
  36   2.0000      -0.916078       -24.9278
  37   2.0000      -0.767252       -20.8780
  38   2.0000      -0.714662       -19.4469
  39   2.0000      -0.709817       -19.3151
  40   2.0000      -0.690448       -18.7880
  41   2.0000      -0.657491       -17.8912
  42   2.0000      -0.630337       -17.1523
  43   2.0000      -0.624941       -17.0055
  44   2.0000      -0.617823       -16.8118
  45   2.0000      -0.592045       -16.1104
  46   2.0000      -0.564878       -15.3711
  47   2.0000      -0.515115       -14.0170
  48   2.0000      -0.510019       -13.8783
  49   2.0000      -0.500816       -13.6279
  50   2.0000      -0.488167       -13.2837
  51   2.0000      -0.469333       -12.7712
  52   2.0000      -0.456204       -12.4139
  53   2.0000      -0.449889       -12.2421
  54   2.0000      -0.440187       -11.9781
  55   2.0000      -0.428446       -11.6586
  56   2.0000      -0.426679       -11.6105
  57   2.0000      -0.417395       -11.3579
  58   2.0000      -0.409652       -11.1472
  59   2.0000      -0.408995       -11.1293
  60   2.0000      -0.407788       -11.0965
  61   2.0000      -0.398694       -10.8490
  62   2.0000      -0.393708       -10.7133
  63   2.0000      -0.387553       -10.5459
  64   2.0000      -0.375948       -10.2301
  65   2.0000      -0.365260        -9.9392
  66   2.0000      -0.361019        -9.8238
  67   2.0000      -0.357118        -9.7177
  68   2.0000      -0.348826        -9.4920
  69   2.0000      -0.340530        -9.2663
  70   2.0000      -0.335364        -9.1257
  71   2.0000      -0.331502        -9.0206
  72   2.0000      -0.325022        -8.8443
  73   2.0000      -0.312392        -8.5006
  74   2.0000      -0.303070        -8.2470
  75   2.0000      -0.299788        -8.1577
  76   2.0000      -0.295919        -8.0524
  77   2.0000      -0.290177        -7.8961
  78   2.0000      -0.271734        -7.3943
  79   2.0000      -0.265280        -7.2186
  80   2.0000      -0.262730        -7.1492
  81   2.0000      -0.255012        -6.9392
  82   2.0000      -0.240164        -6.5352
  83   2.0000      -0.223340        -6.0774
  84   2.0000      -0.220223        -5.9926
  85   2.0000      -0.197646        -5.3782
  86   2.0000      -0.193641        -5.2692
  87   0.0000      -0.044467        -1.2100
  88   0.0000      -0.034539        -0.9399
  89   0.0000      -0.017327        -0.4715
  90   0.0000       0.002483         0.0676
  91   0.0000       0.022762         0.6194

MULLIKEN ATOMIC CHARGES
-----------------------
   0 C :   -0.285239
   1 C :   -0.027685
   2 O :   -0.225478
   3 C :    0.110993
   4 O :   -0.202428
   5 C :   -0.056758
   6 C :   -0.332637
   7 H :    0.159775
   8 C :    0.214841
   9 O :   -0.181727
  10 O :   -0.220768
  11 C :   -0.014166
  12 C :   -0.310672
  13 S :   -0.097733
  14 P :    0.620867
  15 S :   -0.317996
  16 O :   -0.352624
  17 C :   -0.103777
  18 O :   -0.392532
  19 C :   -0.120150
  20 H :    0.113665
  21 H :    0.117206
  22 H :    0.114076
  23 H :    0.107400
  24 H :    0.118958
  25 H :    0.116577
  26 H :    0.114558
  27 H :    0.106793
  28 H :    0.116870
  29 H :    0.146043
  30 H :    0.113191
  31 H :    0.112556
  32 H :    0.131020
  33 H :    0.121235
  34 H :    0.121180
  35 H :    0.128462
  36 H :    0.118790
  37 H :    0.117316
Sum of atomic charges:    0.0000000

LOEWDIN ATOMIC CHARGES
----------------------
   0 C :   -0.350232
   1 C :   -0.112006
   2 O :   -0.053950
   3 C :    0.021426
   4 O :   -0.169395
   5 C :   -0.255231
   6 C :   -0.257674
   7 H :    0.154576
   8 C :    0.012540
   9 O :   -0.159284
  10 O :   -0.037502
  11 C :   -0.105973
  12 C :   -0.358003
  13 S :    0.100887
  14 P :    0.591197
  15 S :   -0.305011
  16 O :   -0.229835
  17 C :   -0.208312
  18 O :   -0.265572
  19 C :   -0.223784
  20 H :    0.131280
  21 H :    0.128367
  22 H :    0.123916
  23 H :    0.116383
  24 H :    0.121605
  25 H :    0.144384
  26 H :    0.127347
  27 H :    0.119396
  28 H :    0.123955
  29 H :    0.131685
  30 H :    0.125007
  31 H :    0.131193
  32 H :    0.126491
  33 H :    0.114197
  34 H :    0.111225
  35 H :    0.105160
  36 H :    0.119136
  37 H :    0.110414

  Mayer bond orders larger than 0.100000
B(  0-C ,  1-C ) :   1.1657 B(  0-C , 20-H ) :   0.9440 B(  0-C , 21-H ) :   0.9498
B(  0-C , 22-H ) :   0.9496 B(  1-C ,  2-O ) :   0.8953 B(  1-C , 23-H ) :   0.9304
B(  1-C , 24-H ) :   0.9123 B(  2-O ,  3-C ) :   1.2233 B(  3-C ,  4-O ) :   2.0677
B(  3-C ,  5-C ) :   1.0004 B(  5-C ,  6-C ) :   1.0663 B(  5-C , 25-H ) :   0.8730
B(  5-C , 26-H ) :   0.8746 B(  6-C ,  7-H ) :   0.8570 B(  6-C ,  8-C ) :   0.9054
B(  6-C , 13-S ) :   1.0282 B(  8-C ,  9-O ) :   2.0068 B(  8-C , 10-O ) :   1.2736
B( 10-O , 11-C ) :   0.8950 B( 11-C , 12-C ) :   1.1805 B( 11-C , 27-H ) :   0.9365
B( 11-C , 28-H ) :   0.9105 B( 12-C , 29-H ) :   0.9310 B( 12-C , 30-H ) :   0.9491
B( 12-C , 31-H ) :   0.9414 B( 13-S , 14-P ) :   0.9373 B( 13-S , 15-S ) :   0.1133
B( 14-P , 15-S ) :   1.5960 B( 14-P , 16-O ) :   1.1411 B( 14-P , 18-O ) :   1.0537
B( 16-O , 17-C ) :   0.9213 B( 17-C , 32-H ) :   0.9597 B( 17-C , 33-H ) :   0.9466
B( 17-C , 34-H ) :   0.9398 B( 18-O , 19-C ) :   0.9370 B( 19-C , 35-H ) :   0.9332
B( 19-C , 36-H ) :   0.9560 B( 19-C , 37-H ) :   0.9367

Dispersion correction           -0.052743836
FINAL SINGLE POINT ENERGY     -1979.016339503983

DIPOLE MOMENT
-------------

Method             : SCF
Type of density    : Electron Density
Multiplicity       :   1
Irrep              :   0
Energy             : -1979.1457122278529823 Eh
Relativity type    :
Basis              : AO
                                X                 Y                 Z
Electronic contribution:     -7.705526931       6.096403195      -2.448880535
Nuclear contribution   :      7.662550597      -6.456626812       2.075690284
                        -----------------------------------------
Total Dipole Moment    :     -0.042976334      -0.360223618      -0.373190251
                        -----------------------------------------
Magnitude (a.u.)       :      0.520460357
Magnitude (Debye)      :      1.322905095

Rotational constants in cm-1:             0.011460             0.008257             0.006060
Rotational constants in MHz :           343.568135           247.527365           181.673765

                             ****ORCA TERMINATED NORMALLY****
TOTAL RUN TIME: 0 days 0 hours 0 minutes 44 seconds 363 msec
