                         Program Version 6.0.1  -  RELEASE   -
|  1> ! pbe def2-sv(p) def2/J RI DEFGRID1 loosescf d4 GCP(DFT/SV(P)) printgap
|  2> %output
|  3>     printlevel normal
|  4> end
|  5> * xyz 0 1
|  6> C 4.2197357127 -4.3545974416 -1.1316201888
|  7> C 3.9757216042 -2.9408889493 -0.6421060458
|  8> O 2.7996656774 -2.4340210796 -1.3090761932
|  9> C 2.2147402464 -1.3676519327 -0.8219118648
| 10> O 2.6004076994 -0.7590723315 0.1579860224
| 11> C 0.96806617 -0.9985847967 -1.5940073565
| 12> C 0.6311351725 0.4824965782 -1.4184357997
| 13> H 1.1617153888 1.1103850852 -2.1340467956
| 14> C 0.9057162041 0.978490168 -0.0134039868
| 15> O 0.2118783998 0.6067883618 0.9212757526
| 16> O 1.8260224742 1.893763164 0.0425272358
| 17> C 2.1331651474 2.481466104 1.326813453
| 18> C 1.1628153121 3.6029978287 1.6592372186
| 19> S -1.1531392345 0.7780200787 -1.6729278891
| 20> P -2.0395825411 0.3122747313 0.2055691781
| 21> S -2.3513317477 1.5840267214 1.6772034937
| 22> O -3.4090485978 0.0882519632 -0.6155151974
| 23> C -4.6712197905 -0.0909759398 0.0278979565
| 24> O -1.7553783105 -1.2119052277 0.6315983101
| 25> C -1.1289260087 -1.6116363276 1.8478712505
| 26> H 5.1138054647 -4.7471793926 -0.6590256914
| 27> H 3.3752216687 -4.9900395848 -0.8822844224
| 28> H 4.3533095215 -4.3557711471 -2.2089549583
| 29> H 4.8117055141 -2.2793866753 -0.8869191793
| 30> H 3.8069145845 -2.9014670131 0.4382917148
| 31> H 0.1565339813 -1.6136396615 -1.1919282194
| 32> H 1.0843579138 -1.2507459762 -2.6465109998
| 33> H 2.0988008627 1.6927670863 2.0824324718
| 34> H 3.1506606364 2.8533269061 1.2092574641
| 35> H 1.4643355903 4.0707296625 2.590427434
| 36> H 1.1623175208 4.3466774899 0.8671133127
| 37> H 0.1528175899 3.2139325872 1.7779444558
| 38> H -4.7619938187 0.5899021906 0.8776414503
| 39> H -4.7710322033 -1.1214360153 0.3677476254
| 40> H -5.4229527308 0.1392849421 -0.7230600559
| 41> H -1.3035583061 -0.8647511119 2.6241109506
| 42> H -0.0555615173 -1.7211218785 1.6958248911
| 43> H -1.5823894505 -2.5622662617 2.1191097072
| 44> *
| 45>
| 46>                          ****END OF INPUT****

CARTESIAN COORDINATES (ANGSTROEM)
---------------------------------
  C      4.219736   -4.354597   -1.131620
  C      3.975722   -2.940889   -0.642106
  O      2.799666   -2.434021   -1.309076
  C      2.214740   -1.367652   -0.821912
  O      2.600408   -0.759072    0.157986
  C      0.968066   -0.998585   -1.594007
  C      0.631135    0.482497   -1.418436
  H      1.161715    1.110385   -2.134047
  C      0.905716    0.978490   -0.013404
  O      0.211878    0.606788    0.921276
  O      1.826022    1.893763    0.042527
  C      2.133165    2.481466    1.326813
  C      1.162815    3.602998    1.659237
  S     -1.153139    0.778020   -1.672928
  P     -2.039583    0.312275    0.205569
  S     -2.351332    1.584027    1.677203
  O     -3.409049    0.088252   -0.615515
  C     -4.671220   -0.090976    0.027898
  O     -1.755378   -1.211905    0.631598
  C     -1.128926   -1.611636    1.847871
  H      5.113805   -4.747179   -0.659026
  H      3.375222   -4.990040   -0.882284
  H      4.353310   -4.355771   -2.208955
  H      4.811706   -2.279387   -0.886919
  H      3.806915   -2.901467    0.438292
  H      0.156534   -1.613640   -1.191928
  H      1.084358   -1.250746   -2.646511
  H      2.098801    1.692767    2.082432
  H      3.150661    2.853327    1.209257
  H      1.464336    4.070730    2.590427
  H      1.162318    4.346677    0.867113
  H      0.152818    3.213933    1.777944
  H     -4.761994    0.589902    0.877641
  H     -4.771032   -1.121436    0.367748
  H     -5.422953    0.139285   -0.723060
  H     -1.303558   -0.864751    2.624111
  H     -0.055562   -1.721122    1.695825
  H     -1.582389   -2.562266    2.119110

 Total Charge           Charge          ....    0
 Multiplicity           Mult            ....    1
 Number of Electrons    NEL             ....  174
 Basis Dimension        Dim             ....  316

ORBITAL ENERGIES
----------------

  NO   OCC          E(Eh)            E(eV)
   0   2.0000     -88.032503     -2395.4862
   1   2.0000     -87.962815     -2393.5899
   2   2.0000     -76.413381     -2079.3138
   3   2.0000     -18.821382      -512.1558
   4   2.0000     -18.811113      -511.8764
   5   2.0000     -18.778853      -510.9986
   6   2.0000     -18.764542      -510.6091
   7   2.0000     -18.758569      -510.4466
   8   2.0000     -18.753684      -510.3137
   9   2.0000     -10.027807      -272.8705
  10   2.0000     -10.023999      -272.7669
  11   2.0000      -9.962998      -271.1070
  12   2.0000      -9.948264      -270.7060
  13   2.0000      -9.946829      -270.6670
  14   2.0000      -9.928987      -270.1815
  15   2.0000      -9.924561      -270.0610
  16   2.0000      -9.919999      -269.9369
  17   2.0000      -9.900604      -269.4091
  18   2.0000      -9.875876      -268.7363
  19   2.0000      -7.677302      -208.9100
  20   2.0000      -7.607794      -207.0186
  21   2.0000      -6.408677      -174.3890
  22   2.0000      -5.705813      -155.2631
  23   2.0000      -5.701671      -155.1503
  24   2.0000      -5.693825      -154.9368
  25   2.0000      -5.636921      -153.3884
  26   2.0000      -5.628665      -153.1637
  27   2.0000      -5.627463      -153.1310
  28   2.0000      -4.631626      -126.0330
  29   2.0000      -4.630705      -126.0079
  30   2.0000      -4.629060      -125.9631
  31   2.0000      -1.031137       -28.0587
  32   2.0000      -1.022511       -27.8239
  33   2.0000      -0.963692       -26.2234
  34   2.0000      -0.935974       -25.4691
  35   2.0000      -0.930812       -25.3287
  36   2.0000      -0.920291       -25.0424
  37   2.0000      -0.765654       -20.8345
  38   2.0000      -0.726991       -19.7824
  39   2.0000      -0.703041       -19.1307
  40   2.0000      -0.689373       -18.7588
  41   2.0000      -0.655736       -17.8435
  42   2.0000      -0.620315       -16.8796
  43   2.0000      -0.611565       -16.6415
  44   2.0000      -0.608903       -16.5691
  45   2.0000      -0.598810       -16.2945
  46   2.0000      -0.560104       -15.2412
  47   2.0000      -0.525388       -14.2965
  48   2.0000      -0.505306       -13.7501
  49   2.0000      -0.496748       -13.5172
  50   2.0000      -0.484187       -13.1754
  51   2.0000      -0.470160       -12.7937
  52   2.0000      -0.460203       -12.5228
  53   2.0000      -0.448916       -12.2156
  54   2.0000      -0.444627       -12.0989
  55   2.0000      -0.435932       -11.8623
  56   2.0000      -0.431517       -11.7422
  57   2.0000      -0.418347       -11.3838
  58   2.0000      -0.415679       -11.3112
  59   2.0000      -0.407471       -11.0878
  60   2.0000      -0.395865       -10.7720
  61   2.0000      -0.395230       -10.7548
  62   2.0000      -0.386070       -10.5055
  63   2.0000      -0.380002       -10.3404
  64   2.0000      -0.371853       -10.1186
  65   2.0000      -0.370778       -10.0894
  66   2.0000      -0.368849       -10.0369
  67   2.0000      -0.356507        -9.7011
  68   2.0000      -0.350284        -9.5317
  69   2.0000      -0.340474        -9.2648
  70   2.0000      -0.333569        -9.0769
  71   2.0000      -0.329482        -8.9657
  72   2.0000      -0.324415        -8.8278
  73   2.0000      -0.316052        -8.6002
  74   2.0000      -0.299154        -8.1404
  75   2.0000      -0.295044        -8.0286
  76   2.0000      -0.289444        -7.8762
  77   2.0000      -0.281764        -7.6672
  78   2.0000      -0.269344        -7.3292
  79   2.0000      -0.264502        -7.1975
  80   2.0000      -0.256794        -6.9877
  81   2.0000      -0.251218        -6.8360
  82   2.0000      -0.242185        -6.5902
  83   2.0000      -0.237146        -6.4531
  84   2.0000      -0.213535        -5.8106
  85   2.0000      -0.182359        -4.9622
  86   2.0000      -0.174388        -4.7454
  87   0.0000      -0.052602        -1.4314
  88   0.0000      -0.041419        -1.1271
  89   0.0000      -0.016793        -0.4569
  90   0.0000       0.014106         0.3838
  91   0.0000       0.029073         0.7911

MULLIKEN ATOMIC CHARGES
-----------------------
   0 C :   -0.275015
   1 C :   -0.035389
   2 O :   -0.221872
   3 C :    0.125625
   4 O :   -0.209974
   5 C :   -0.062946
   6 C :   -0.298364
   7 H :    0.131590
   8 C :    0.224711
   9 O :   -0.225308
  10 O :   -0.204997
  11 C :   -0.006053
  12 C :   -0.322116
  13 S :   -0.064212
  14 P :    0.649376
  15 S :   -0.331068
  16 O :   -0.401904
  17 C :   -0.096059
  18 O :   -0.394482
  19 C :   -0.097825
  20 H :    0.116319
  21 H :    0.119375
  22 H :    0.118987
  23 H :    0.110886
  24 H :    0.115307
  25 H :    0.146081
  26 H :    0.121337
  27 H :    0.114752
  28 H :    0.102163
  29 H :    0.109454
  30 H :    0.110518
  31 H :    0.153143
  32 H :    0.113120
  33 H :    0.103690
  34 H :    0.116346
  35 H :    0.119390
  36 H :    0.112977
  37 H :    0.112438
Sum of atomic charges:    0.0000000

LOEWDIN ATOMIC CHARGES
----------------------
   0 C :   -0.349711
   1 C :   -0.105737
   2 O :   -0.052862
   3 C :    0.038132
   4 O :   -0.152595
   5 C :   -0.254619
   6 C :   -0.262626
   7 H :    0.141341
   8 C :    0.020205
   9 O :   -0.164980
  10 O :   -0.027382
  11 C :   -0.102249
  12 C :   -0.362405
  13 S :    0.127193
  14 P :    0.589769
  15 S :   -0.328102
  16 O :   -0.276620
  17 C :   -0.218288
  18 O :   -0.259636
  19 C :   -0.219678
  20 H :    0.133187
  21 H :    0.128801
  22 H :    0.128738
  23 H :    0.119689
  24 H :    0.120349
  25 H :    0.153977
  26 H :    0.144235
  27 H :    0.124280
  28 H :    0.118391
  29 H :    0.130258
  30 H :    0.124255
  31 H :    0.131665
  32 H :    0.104985
  33 H :    0.108006
  34 H :    0.117811
  35 H :    0.110729
  36 H :    0.107377
  37 H :    0.114116

  Mayer bond orders larger than 0.100000
B(  0-C ,  1-C ) :   1.1563 B(  0-C , 20-H ) :   0.9430 B(  0-C , 21-H ) :   0.9511
B(  0-C , 22-H ) :   0.9482 B(  1-C ,  2-O ) :   0.8962 B(  1-C , 23-H ) :   0.9355
B(  1-C , 24-H ) :   0.9253 B(  2-O ,  3-C ) :   1.2589 B(  3-C ,  4-O ) :   1.9555
B(  3-C ,  5-C ) :   1.0153 B(  4-O ,  8-C ) :   0.1233 B(  5-C ,  6-C ) :   0.9993
B(  5-C , 25-H ) :   0.8669 B(  5-C , 26-H ) :   0.9056 B(  6-C ,  7-H ) :   0.8841
B(  6-C ,  8-C ) :   0.9165 B(  6-C , 13-S ) :   1.0260 B(  8-C ,  9-O ) :   1.8155
B(  8-C , 10-O ) :   1.2986 B(  9-O , 14-P ) :   0.1806 B( 10-O , 11-C ) :   0.8963
B( 11-C , 12-C ) :   1.1740 B( 11-C , 27-H ) :   0.9171 B( 11-C , 28-H ) :   0.9381
B( 12-C , 29-H ) :   0.9416 B( 12-C , 30-H ) :   0.9467 B( 12-C , 31-H ) :   0.9230
B( 13-S , 14-P ) :   0.9226 B( 14-P , 15-S ) :   1.5694 B( 14-P , 16-O ) :   1.0491
B( 14-P , 18-O ) :   1.0542 B( 16-O , 17-C ) :   0.9435 B( 17-C , 32-H ) :   0.9260
B( 17-C , 33-H ) :   0.9532 B( 17-C , 34-H ) :   0.9605 B( 18-O , 19-C ) :   0.9314
B( 19-C , 35-H ) :   0.9320 B( 19-C , 36-H ) :   0.9462 B( 19-C , 37-H ) :   0.9535

Dispersion correction           -0.051621173
FINAL SINGLE POINT ENERGY     -1979.005183586172

DIPOLE MOMENT
-------------

Method             : SCF
Type of density    : Electron Density
Multiplicity       :   1
Irrep              :   0
Energy             : -1979.1382055738695271 Eh
Relativity type    :
Basis              : AO
                                X                 Y                 Z
Electronic contribution:    -13.255054374       8.760164814      -5.216293890
Nuclear contribution   :     15.087217115     -10.122645469       4.802080666
                        -----------------------------------------
Total Dipole Moment    :      1.832162741      -1.362480655      -0.414213223
                        -----------------------------------------
Magnitude (a.u.)       :      2.320505643
Magnitude (Debye)      :      5.898256602

Rotational constants in cm-1:             0.013742             0.006557             0.005398
Rotational constants in MHz :           411.988895           196.562555           161.835682

                             ****ORCA TERMINATED NORMALLY****
TOTAL RUN TIME: 0 days 0 hours 0 minutes 40 seconds 824 msec
