                         Program Version 6.0.1  -  RELEASE   -
|  1> ! pbe def2-sv(p) def2/J RI DEFGRID1 loosescf d4 GCP(DFT/SV(P)) printgap
|  2> %output
|  3>     printlevel normal
|  4> end
|  5> * xyz 0 1
|  6> C 4.0615837583 -3.23419183 -2.6169014554
|  7> C 2.8525805762 -3.2338198606 -1.7022083859
|  8> O 2.6963028486 -1.9045696836 -1.1671447346
|  9> C 1.8921769833 -1.7402566281 -0.1402194612
| 10> O 1.282474519 -2.6348610479 0.4036689327
| 11> C 1.7862887942 -0.2787280905 0.2553885729
| 12> C 0.93516908 0.4496523707 -0.788664941
| 13> H 1.4772868157 0.505693143 -1.7367755407
| 14> C 0.5586875571 1.853102527 -0.3423508273
| 15> O -0.5914847543 2.2427267072 -0.3246409206
| 16> O 1.6078012945 2.5528234848 -0.0150194292
| 17> C 1.4145131338 3.8837389811 0.5138382446
| 18> C 1.3156514402 3.8355667141 2.0293461115
| 19> S -0.6030727024 -0.4441804127 -1.1902016051
| 20> P -1.8343631195 0.0526389302 0.4748374279
| 21> S -1.0710531258 0.6104837693 2.1888810861
| 22> O -3.0121182889 0.9818772951 -0.0161739905
| 23> C -3.7616615056 0.7284561792 -1.219215482
| 24> O -2.641277627 -1.3352487747 0.607762179
| 25> C -2.0410031843 -2.4856100938 1.2070029677
| 26> H 3.9200178228 -2.5177993284 -3.4201951102
| 27> H 4.9534169225 -2.9649728555 -2.05889731
| 28> H 4.1902982093 -4.2250004778 -3.0394433184
| 29> H 2.9682344558 -3.9317979862 -0.8673782293
| 30> H 1.9357974349 -3.4882033253 -2.2427436996
| 31> H 2.7762971239 0.1753056085 0.2793879642
| 32> H 1.3203630987 -0.2172975335 1.2408677575
| 33> H 2.2945914947 4.4373753386 0.1868246171
| 34> H 0.5066139541 4.3061692577 0.0758446539
| 35> H 0.4680870969 3.2225156982 2.3323600941
| 36> H 2.2201443965 3.4096532661 2.4535250494
| 37> H 1.1773908549 4.8408074458 2.4128554737
| 38> H -4.2541040796 -0.2404168752 -1.1544658488
| 39> H -3.0965753344 0.7566777807 -2.0823428134
| 40> H -4.4899663543 1.5335987236 -1.2698284012
| 41> H -2.7882208857 -3.271853715 1.1445654797
| 42> H -1.7913369665 -2.2736041225 2.2475961024
| 43> H -1.1332703153 -2.7740020344 0.6743076637
| 44> *
| 45>
| 46>                          ****END OF INPUT****

CARTESIAN COORDINATES (ANGSTROEM)
---------------------------------
  C      4.061584   -3.234192   -2.616901
  C      2.852581   -3.233820   -1.702208
  O      2.696303   -1.904570   -1.167145
  C      1.892177   -1.740257   -0.140219
  O      1.282475   -2.634861    0.403669
  C      1.786289   -0.278728    0.255389
  C      0.935169    0.449652   -0.788665
  H      1.477287    0.505693   -1.736776
  C      0.558688    1.853103   -0.342351
  O     -0.591485    2.242727   -0.324641
  O      1.607801    2.552823   -0.015019
  C      1.414513    3.883739    0.513838
  C      1.315651    3.835567    2.029346
  S     -0.603073   -0.444180   -1.190202
  P     -1.834363    0.052639    0.474837
  S     -1.071053    0.610484    2.188881
  O     -3.012118    0.981877   -0.016174
  C     -3.761662    0.728456   -1.219215
  O     -2.641278   -1.335249    0.607762
  C     -2.041003   -2.485610    1.207003
  H      3.920018   -2.517799   -3.420195
  H      4.953417   -2.964973   -2.058897
  H      4.190298   -4.225000   -3.039443
  H      2.968234   -3.931798   -0.867378
  H      1.935797   -3.488203   -2.242744
  H      2.776297    0.175306    0.279388
  H      1.320363   -0.217298    1.240868
  H      2.294591    4.437375    0.186825
  H      0.506614    4.306169    0.075845
  H      0.468087    3.222516    2.332360
  H      2.220144    3.409653    2.453525
  H      1.177391    4.840807    2.412855
  H     -4.254104   -0.240417   -1.154466
  H     -3.096575    0.756678   -2.082343
  H     -4.489966    1.533599   -1.269828
  H     -2.788221   -3.271854    1.144565
  H     -1.791337   -2.273604    2.247596
  H     -1.133270   -2.774002    0.674308

 Total Charge           Charge          ....    0
 Multiplicity           Mult            ....    1
 Number of Electrons    NEL             ....  174
 Basis Dimension        Dim             ....  316

ORBITAL ENERGIES
----------------

  NO   OCC          E(Eh)            E(eV)
   0   2.0000     -88.036325     -2395.5902
   1   2.0000     -87.974709     -2393.9135
   2   2.0000     -76.418815     -2079.4617
   3   2.0000     -18.818061      -512.0655
   4   2.0000     -18.806991      -511.7642
   5   2.0000     -18.780622      -511.0467
   6   2.0000     -18.775442      -510.9057
   7   2.0000     -18.747264      -510.1390
   8   2.0000     -18.740247      -509.9480
   9   2.0000     -10.023060      -272.7413
  10   2.0000     -10.010694      -272.4048
  11   2.0000      -9.953961      -270.8611
  12   2.0000      -9.953337      -270.8441
  13   2.0000      -9.952550      -270.8227
  14   2.0000      -9.940645      -270.4987
  15   2.0000      -9.922947      -270.0171
  16   2.0000      -9.905409      -269.5399
  17   2.0000      -9.894060      -269.2310
  18   2.0000      -9.883861      -268.9535
  19   2.0000      -7.680996      -209.0105
  20   2.0000      -7.619858      -207.3469
  21   2.0000      -6.414992      -174.5608
  22   2.0000      -5.709006      -155.3499
  23   2.0000      -5.705566      -155.2563
  24   2.0000      -5.697774      -155.0443
  25   2.0000      -5.649039      -153.7182
  26   2.0000      -5.640598      -153.4885
  27   2.0000      -5.639523      -153.4592
  28   2.0000      -4.637692      -126.1980
  29   2.0000      -4.637038      -126.1802
  30   2.0000      -4.635426      -126.1364
  31   2.0000      -1.026313       -27.9274
  32   2.0000      -1.014931       -27.6177
  33   2.0000      -0.973213       -26.4825
  34   2.0000      -0.929931       -25.3047
  35   2.0000      -0.926369       -25.2078
  36   2.0000      -0.916426       -24.9372
  37   2.0000      -0.767090       -20.8736
  38   2.0000      -0.716256       -19.4903
  39   2.0000      -0.708955       -19.2917
  40   2.0000      -0.686363       -18.6769
  41   2.0000      -0.656093       -17.8532
  42   2.0000      -0.625245       -17.0138
  43   2.0000      -0.618353       -16.8262
  44   2.0000      -0.613198       -16.6860
  45   2.0000      -0.589718       -16.0470
  46   2.0000      -0.566185       -15.4067
  47   2.0000      -0.516017       -14.0415
  48   2.0000      -0.509100       -13.8533
  49   2.0000      -0.499404       -13.5895
  50   2.0000      -0.483839       -13.1659
  51   2.0000      -0.461612       -12.5611
  52   2.0000      -0.455276       -12.3887
  53   2.0000      -0.450433       -12.2569
  54   2.0000      -0.444720       -12.1014
  55   2.0000      -0.424897       -11.5620
  56   2.0000      -0.423324       -11.5192
  57   2.0000      -0.415486       -11.3060
  58   2.0000      -0.414904       -11.2901
  59   2.0000      -0.405092       -11.0231
  60   2.0000      -0.399058       -10.8589
  61   2.0000      -0.396086       -10.7780
  62   2.0000      -0.387615       -10.5475
  63   2.0000      -0.381592       -10.3836
  64   2.0000      -0.372020       -10.1232
  65   2.0000      -0.366939        -9.9849
  66   2.0000      -0.361017        -9.8238
  67   2.0000      -0.357467        -9.7272
  68   2.0000      -0.344506        -9.3745
  69   2.0000      -0.342669        -9.3245
  70   2.0000      -0.333595        -9.0776
  71   2.0000      -0.329750        -8.9729
  72   2.0000      -0.321542        -8.7496
  73   2.0000      -0.313053        -8.5186
  74   2.0000      -0.303690        -8.2638
  75   2.0000      -0.302187        -8.2229
  76   2.0000      -0.290356        -7.9010
  77   2.0000      -0.284474        -7.7409
  78   2.0000      -0.270162        -7.3515
  79   2.0000      -0.266076        -7.2403
  80   2.0000      -0.261807        -7.1241
  81   2.0000      -0.247054        -6.7227
  82   2.0000      -0.239484        -6.5167
  83   2.0000      -0.220128        -5.9900
  84   2.0000      -0.216198        -5.8831
  85   2.0000      -0.194538        -5.2936
  86   2.0000      -0.187982        -5.1153
  87   0.0000      -0.043491        -1.1835
  88   0.0000      -0.033877        -0.9218
  89   0.0000      -0.017288        -0.4704
  90   0.0000       0.005116         0.1392
  91   0.0000       0.026621         0.7244

MULLIKEN ATOMIC CHARGES
-----------------------
   0 C :   -0.275043
   1 C :   -0.029421
   2 O :   -0.236069
   3 C :    0.119174
   4 O :   -0.191272
   5 C :   -0.043438
   6 C :   -0.336485
   7 H :    0.151750
   8 C :    0.210672
   9 O :   -0.177334
  10 O :   -0.222560
  11 C :   -0.013321
  12 C :   -0.310944
  13 S :   -0.097122
  14 P :    0.624327
  15 S :   -0.319854
  16 O :   -0.355510
  17 C :   -0.103422
  18 O :   -0.395292
  19 C :   -0.121944
  20 H :    0.114093
  21 H :    0.116506
  22 H :    0.113725
  23 H :    0.112520
  24 H :    0.107312
  25 H :    0.110827
  26 H :    0.118201
  27 H :    0.104992
  28 H :    0.116552
  29 H :    0.147134
  30 H :    0.112351
  31 H :    0.112463
  32 H :    0.121496
  33 H :    0.119452
  34 H :    0.129394
  35 H :    0.111865
  36 H :    0.115800
  37 H :    0.138426
Sum of atomic charges:   -0.0000000

LOEWDIN ATOMIC CHARGES
----------------------
   0 C :   -0.350737
   1 C :   -0.107412
   2 O :   -0.064164
   3 C :    0.021191
   4 O :   -0.157336
   5 C :   -0.255007
   6 C :   -0.260401
   7 H :    0.149298
   8 C :    0.013015
   9 O :   -0.156233
  10 O :   -0.039975
  11 C :   -0.106303
  12 C :   -0.358148
  13 S :    0.103665
  14 P :    0.591700
  15 S :   -0.305442
  16 O :   -0.232236
  17 C :   -0.208952
  18 O :   -0.267750
  19 C :   -0.225718
  20 H :    0.126228
  21 H :    0.127334
  22 H :    0.131681
  23 H :    0.119480
  24 H :    0.117982
  25 H :    0.140294
  26 H :    0.133459
  27 H :    0.118544
  28 H :    0.123861
  29 H :    0.132536
  30 H :    0.124669
  31 H :    0.131155
  32 H :    0.114245
  33 H :    0.109866
  34 H :    0.125610
  35 H :    0.116214
  36 H :    0.110966
  37 H :    0.112819

  Mayer bond orders larger than 0.100000
B(  0-C ,  1-C ) :   1.1535 B(  0-C , 20-H ) :   0.9486 B(  0-C , 21-H ) :   0.9513
B(  0-C , 22-H ) :   0.9440 B(  1-C ,  2-O ) :   0.9034 B(  1-C , 23-H ) :   0.9252
B(  1-C , 24-H ) :   0.9337 B(  2-O ,  3-C ) :   1.2177 B(  3-C ,  4-O ) :   2.0187
B(  3-C ,  5-C ) :   1.0292 B(  5-C ,  6-C ) :   1.0502 B(  5-C , 25-H ) :   0.8737
B(  5-C , 26-H ) :   0.8707 B(  6-C ,  7-H ) :   0.8603 B(  6-C ,  8-C ) :   0.9068
B(  6-C , 13-S ) :   1.0360 B(  8-C ,  9-O ) :   2.0114 B(  8-C , 10-O ) :   1.2705
B( 10-O , 11-C ) :   0.8958 B( 11-C , 12-C ) :   1.1801 B( 11-C , 27-H ) :   0.9366
B( 11-C , 28-H ) :   0.9111 B( 12-C , 29-H ) :   0.9304 B( 12-C , 30-H ) :   0.9489
B( 12-C , 31-H ) :   0.9414 B( 13-S , 14-P ) :   0.9343 B( 13-S , 15-S ) :   0.1134
B( 14-P , 15-S ) :   1.5948 B( 14-P , 16-O ) :   1.1376 B( 14-P , 18-O ) :   1.0630
B( 16-O , 17-C ) :   0.9233 B( 17-C , 32-H ) :   0.9460 B( 17-C , 33-H ) :   0.9397
B( 17-C , 34-H ) :   0.9599 B( 18-O , 19-C ) :   0.9279 B( 19-C , 35-H ) :   0.9564
B( 19-C , 36-H ) :   0.9424 B( 19-C , 37-H ) :   0.9257

Dispersion correction           -0.052346037
FINAL SINGLE POINT ENERGY     -1979.016277038099

DIPOLE MOMENT
-------------

Method             : SCF
Type of density    : Electron Density
Multiplicity       :   1
Irrep              :   0
Energy             : -1979.1458194237147836 Eh
Relativity type    :
Basis              : AO
                                X                 Y                 Z
Electronic contribution:    -12.444274967       2.649942541       3.553783091
Nuclear contribution   :     13.550349397      -2.602441822      -4.986434825
                        -----------------------------------------
Total Dipole Moment    :      1.106074431       0.047500719      -1.432651734
                        -----------------------------------------
Magnitude (a.u.)       :      1.810565645
Magnitude (Debye)      :      4.602092137

Rotational constants in cm-1:             0.011353             0.007773             0.005760
Rotational constants in MHz :           340.343010           233.017838           172.682104

                             ****ORCA TERMINATED NORMALLY****
TOTAL RUN TIME: 0 days 0 hours 0 minutes 51 seconds 28 msec
