                         Program Version 6.0.0  -   RELEASE  -
|  1> ! pbe def2-sv(p) def2/J RI DEFGRID1 loosescf d4 GCP(DFT/SV(P)) printgap
|  2> %output
|  3>     printlevel normal
|  4> end
|  5> * xyz 0 1
|  6> C 4.827213806 -1.8912713607 -0.7772922283
|  7> C 4.3583588281 -1.3720999355 0.5651901272
|  8> O 3.6635460232 -0.1127578171 0.4680398892
|  9> P 2.4129182656 0.1725597505 -0.4702027548
| 10> S 2.7249906578 0.4765699138 -2.3763940748
| 11> O 1.8141337775 1.4789903366 0.1841897987
| 12> C 1.5272615142 1.6116140912 1.5952033747
| 13> C 2.6203715511 2.3984697804 2.2876591925
| 14> S 1.1009876509 -1.4305636337 0.0201078652
| 15> C -0.0328598976 -1.2166606838 -1.3710989505
| 16> S -0.7963180631 0.4352963366 -1.4672740198
| 17> P -2.2339804038 0.2616802483 0.0771210557
| 18> S -3.3566653135 1.8607374761 0.2180391975
| 19> O -1.3045560733 -0.1116397587 1.3018759149
| 20> C -1.7385962352 -0.8958180721 2.4387027616
| 21> C -2.8542252626 -0.2160262225 3.2026727754
| 22> O -2.9865018656 -1.1193188615 -0.1939123325
| 23> C -4.1610661738 -1.195399747 -1.0257872289
| 24> C -5.4143997526 -1.1737036154 -0.1730462155
| 25> H 3.9726404703 -2.1229991244 -1.4110467196
| 26> H 5.4332442762 -1.143443937 -1.2831916334
| 27> H 5.4146446349 -2.7917502789 -0.6298654116
| 28> H 5.2009365287 -1.1491305525 1.2220982123
| 29> H 3.690530641 -2.0920002488 1.0462992176
| 30> H 0.5678609892 2.1337120093 1.6367380437
| 31> H 1.4167915373 0.6146013311 2.0313796185
| 32> H 3.566112207 1.8677931274 2.2153940533
| 33> H 2.7292188541 3.372502139 1.8185456965
| 34> H 2.357432603 2.5302694799 3.3325224396
| 35> H -0.802038765 -1.9781746958 -1.2712724551
| 36> H 0.522128509 -1.3251253112 -2.3024595761
| 37> H -2.0483281986 -1.8788285283 2.0796934393
| 38> H -0.8342344729 -0.9912632533 3.0415716623
| 39> H -2.547429856 0.7774252768 3.5208090049
| 40> H -3.7333294575 -0.1146720148 2.5678900792
| 41> H -3.1101879134 -0.8102956078 4.0741366702
| 42> H -4.1594788305 -0.3614253047 -1.7331640082
| 43> H -4.0638966744 -2.1377890869 -1.5678524127
| 44> H -6.2816371764 -1.3138228565 -0.8100635236
| 45> H -5.3795054334 -1.9684546186 0.5667584901
| 46> H -5.5020954645 -0.2153947026 0.3346690999
| 47> *
| 48>
| 49>                          ****END OF INPUT****

CARTESIAN COORDINATES (ANGSTROEM)
---------------------------------
  C      4.827214   -1.891271   -0.777292
  C      4.358359   -1.372100    0.565190
  O      3.663546   -0.112758    0.468040
  P      2.412918    0.172560   -0.470203
  S      2.724991    0.476570   -2.376394
  O      1.814134    1.478990    0.184190
  C      1.527262    1.611614    1.595203
  C      2.620372    2.398470    2.287659
  S      1.100988   -1.430564    0.020108
  C     -0.032860   -1.216661   -1.371099
  S     -0.796318    0.435296   -1.467274
  P     -2.233980    0.261680    0.077121
  S     -3.356665    1.860737    0.218039
  O     -1.304556   -0.111640    1.301876
  C     -1.738596   -0.895818    2.438703
  C     -2.854225   -0.216026    3.202673
  O     -2.986502   -1.119319   -0.193912
  C     -4.161066   -1.195400   -1.025787
  C     -5.414400   -1.173704   -0.173046
  H      3.972640   -2.122999   -1.411047
  H      5.433244   -1.143444   -1.283192
  H      5.414645   -2.791750   -0.629865
  H      5.200937   -1.149131    1.222098
  H      3.690531   -2.092000    1.046299
  H      0.567861    2.133712    1.636738
  H      1.416792    0.614601    2.031380
  H      3.566112    1.867793    2.215394
  H      2.729219    3.372502    1.818546
  H      2.357433    2.530269    3.332522
  H     -0.802039   -1.978175   -1.271272
  H      0.522129   -1.325125   -2.302460
  H     -2.048328   -1.878829    2.079693
  H     -0.834234   -0.991263    3.041572
  H     -2.547430    0.777425    3.520809
  H     -3.733329   -0.114672    2.567890
  H     -3.110188   -0.810296    4.074137
  H     -4.159479   -0.361425   -1.733164
  H     -4.063897   -2.137789   -1.567852
  H     -6.281637   -1.313823   -0.810064
  H     -5.379505   -1.968455    0.566758
  H     -5.502095   -0.215395    0.334669

 Total Charge           Charge          ....    0
 Multiplicity           Mult            ....    1
 Number of Electrons    NEL             ....  202
 Basis Dimension        Dim             ....  334

ORBITAL ENERGIES
----------------

  NO   OCC          E(Eh)            E(eV)
   0   2.0000     -88.042920     -2395.7696
   1   2.0000     -88.039440     -2395.6750
   2   2.0000     -87.986086     -2394.2231
   3   2.0000     -87.980720     -2394.0771
   4   2.0000     -76.428095     -2079.7142
   5   2.0000     -76.425428     -2079.6416
   6   2.0000     -18.800540      -511.5887
   7   2.0000     -18.796931      -511.4905
   8   2.0000     -18.794888      -511.4349
   9   2.0000     -18.784968      -511.1650
  10   2.0000      -9.961263      -271.0598
  11   2.0000      -9.960971      -271.0518
  12   2.0000      -9.960159      -271.0297
  13   2.0000      -9.957031      -270.9446
  14   2.0000      -9.947840      -270.6945
  15   2.0000      -9.889908      -269.1181
  16   2.0000      -9.887960      -269.0651
  17   2.0000      -9.884516      -268.9714
  18   2.0000      -9.881552      -268.8907
  19   2.0000      -7.687889      -209.1981
  20   2.0000      -7.684254      -209.0992
  21   2.0000      -7.631319      -207.6588
  22   2.0000      -7.626079      -207.5162
  23   2.0000      -6.425506      -174.8469
  24   2.0000      -6.422366      -174.7615
  25   2.0000      -5.715594      -155.5292
  26   2.0000      -5.712522      -155.4456
  27   2.0000      -5.712370      -155.4415
  28   2.0000      -5.708492      -155.3360
  29   2.0000      -5.705066      -155.2427
  30   2.0000      -5.701170      -155.1367
  31   2.0000      -5.660271      -154.0238
  32   2.0000      -5.655222      -153.8864
  33   2.0000      -5.651740      -153.7917
  34   2.0000      -5.651669      -153.7897
  35   2.0000      -5.646599      -153.6518
  36   2.0000      -5.646080      -153.6376
  37   2.0000      -4.648546      -126.4934
  38   2.0000      -4.647287      -126.4591
  39   2.0000      -4.645565      -126.4123
  40   2.0000      -4.645241      -126.4034
  41   2.0000      -4.644433      -126.3814
  42   2.0000      -4.642374      -126.3254
  43   2.0000      -0.993120       -27.0242
  44   2.0000      -0.987222       -26.8637
  45   2.0000      -0.949648       -25.8412
  46   2.0000      -0.942416       -25.6444
  47   2.0000      -0.763020       -20.7628
  48   2.0000      -0.723547       -19.6887
  49   2.0000      -0.710564       -19.3354
  50   2.0000      -0.694380       -18.8950
  51   2.0000      -0.689996       -18.7757
  52   2.0000      -0.675610       -18.3843
  53   2.0000      -0.653631       -17.7862
  54   2.0000      -0.637667       -17.3518
  55   2.0000      -0.594679       -16.1820
  56   2.0000      -0.589552       -16.0425
  57   2.0000      -0.581601       -15.8262
  58   2.0000      -0.570433       -15.5223
  59   2.0000      -0.569054       -15.4848
  60   2.0000      -0.510161       -13.8822
  61   2.0000      -0.499347       -13.5879
  62   2.0000      -0.479716       -13.0537
  63   2.0000      -0.472951       -12.8696
  64   2.0000      -0.461653       -12.5622
  65   2.0000      -0.448728       -12.2105
  66   2.0000      -0.445279       -12.1166
  67   2.0000      -0.433468       -11.7953
  68   2.0000      -0.431439       -11.7401
  69   2.0000      -0.418552       -11.3894
  70   2.0000      -0.412247       -11.2178
  71   2.0000      -0.403240       -10.9727
  72   2.0000      -0.397782       -10.8242
  73   2.0000      -0.392664       -10.6849
  74   2.0000      -0.382253       -10.4016
  75   2.0000      -0.369641       -10.0584
  76   2.0000      -0.362994        -9.8776
  77   2.0000      -0.358019        -9.7422
  78   2.0000      -0.354422        -9.6443
  79   2.0000      -0.350255        -9.5309
  80   2.0000      -0.348654        -9.4874
  81   2.0000      -0.346701        -9.4342
  82   2.0000      -0.345114        -9.3910
  83   2.0000      -0.338442        -9.2095
  84   2.0000      -0.337386        -9.1807
  85   2.0000      -0.325822        -8.8661
  86   2.0000      -0.316966        -8.6251
  87   2.0000      -0.302991        -8.2448
  88   2.0000      -0.298194        -8.1143
  89   2.0000      -0.296466        -8.0673
  90   2.0000      -0.285432        -7.7670
  91   2.0000      -0.282899        -7.6981
  92   2.0000      -0.275435        -7.4950
  93   2.0000      -0.266512        -7.2522
  94   2.0000      -0.254978        -6.9383
  95   2.0000      -0.232577        -6.3288
  96   2.0000      -0.219676        -5.9777
  97   2.0000      -0.204469        -5.5639
  98   2.0000      -0.201561        -5.4848
  99   2.0000      -0.198071        -5.3898
 100   2.0000      -0.194588        -5.2950
 101   0.0000      -0.041567        -1.1311
 102   0.0000      -0.017821        -0.4849
 103   0.0000      -0.007599        -0.2068
 104   0.0000      -0.001527        -0.0416
 105   0.0000       0.004270         0.1162

MULLIKEN ATOMIC CHARGES
-----------------------
   0 C :   -0.307472
   1 C :   -0.010942
   2 O :   -0.380345
   3 P :    0.596251
   4 S :   -0.306728
   5 O :   -0.344313
   6 C :   -0.017272
   7 C :   -0.281365
   8 S :   -0.112187
   9 C :   -0.354864
  10 S :   -0.042384
  11 P :    0.609741
  12 S :   -0.317859
  13 O :   -0.371276
  14 C :   -0.002041
  15 C :   -0.317934
  16 O :   -0.395726
  17 C :   -0.007892
  18 C :   -0.298188
  19 H :    0.124500
  20 H :    0.128476
  21 H :    0.110485
  22 H :    0.108931
  23 H :    0.110755
  24 H :    0.117843
  25 H :    0.095857
  26 H :    0.115238
  27 H :    0.121148
  28 H :    0.104956
  29 H :    0.176707
  30 H :    0.193967
  31 H :    0.107072
  32 H :    0.106685
  33 H :    0.124151
  34 H :    0.133976
  35 H :    0.110851
  36 H :    0.109811
  37 H :    0.104588
  38 H :    0.112405
  39 H :    0.110060
  40 H :    0.134336
Sum of atomic charges:    0.0000000

LOEWDIN ATOMIC CHARGES
----------------------
   0 C :   -0.369119
   1 C :   -0.115166
   2 O :   -0.246086
   3 P :    0.566787
   4 S :   -0.307564
   5 O :   -0.228207
   6 C :   -0.116252
   7 C :   -0.358126
   8 S :    0.063568
   9 C :   -0.481202
  10 S :    0.108322
  11 P :    0.558793
  12 S :   -0.320508
  13 O :   -0.240646
  14 C :   -0.111560
  15 C :   -0.365911
  16 O :   -0.254822
  17 C :   -0.116256
  18 C :   -0.362922
  19 H :    0.120829
  20 H :    0.131351
  21 H :    0.129748
  22 H :    0.120841
  23 H :    0.106773
  24 H :    0.121242
  25 H :    0.099887
  26 H :    0.124088
  27 H :    0.129568
  28 H :    0.127123
  29 H :    0.129798
  30 H :    0.133639
  31 H :    0.111494
  32 H :    0.117203
  33 H :    0.130449
  34 H :    0.123551
  35 H :    0.129667
  36 H :    0.113002
  37 H :    0.116610
  38 H :    0.131260
  39 H :    0.122989
  40 H :    0.125768

  Mayer bond orders larger than 0.100000
B(  0-C ,  1-C ) :   1.1674 B(  0-C , 19-H ) :   0.9319 B(  0-C , 20-H ) :   0.9428
B(  0-C , 21-H ) :   0.9346 B(  1-C ,  2-O ) :   0.9131 B(  1-C , 22-H ) :   0.9330
B(  1-C , 23-H ) :   0.9260 B(  2-O ,  3-P ) :   1.0782 B(  3-P ,  4-S ) :   1.6461
B(  3-P ,  5-O ) :   1.1384 B(  3-P ,  8-S ) :   0.9479 B(  4-S ,  8-S ) :   0.1102
B(  5-O ,  6-C ) :   0.8940 B(  6-C ,  7-C ) :   1.1579 B(  6-C , 24-H ) :   0.9307
B(  6-C , 25-H ) :   0.9135 B(  7-C , 26-H ) :   0.9435 B(  7-C , 27-H ) :   0.9467
B(  7-C , 28-H ) :   0.9412 B(  8-S ,  9-C ) :   0.9996 B(  9-C , 10-S ) :   0.9900
B(  9-C , 29-H ) :   0.8979 B(  9-C , 30-H ) :   0.8852 B( 10-S , 11-P ) :   0.9882
B( 11-P , 12-S ) :   1.6558 B( 11-P , 13-O ) :   1.1051 B( 11-P , 16-O ) :   1.0416
B( 13-O , 14-C ) :   0.9021 B( 14-C , 15-C ) :   1.1679 B( 14-C , 31-H ) :   0.9282
B( 14-C , 32-H ) :   0.9308 B( 15-C , 33-H ) :   0.9447 B( 15-C , 34-H ) :   0.9332
B( 15-C , 35-H ) :   0.9359 B( 16-O , 17-C ) :   0.9004 B( 17-C , 18-C ) :   1.1714
B( 17-C , 36-H ) :   0.9121 B( 17-C , 37-H ) :   0.9340 B( 18-C , 38-H ) :   0.9392
B( 18-C , 39-H ) :   0.9467 B( 18-C , 40-H ) :   0.9303

Dispersion correction           -0.065534141
FINAL SINGLE POINT ENERGY     -2929.516693107467

DIPOLE MOMENT
-------------

Method             : SCF
Type of density    : Electron Density
Multiplicity       :   1
Irrep              :   0
Energy             : -2929.6368537700554953 Eh
Relativity type    :
Basis              : AO
                                X                 Y                 Z
Electronic contribution:      3.321252633       8.812835578     -16.250601032
Nuclear contribution   :     -3.501461294     -10.836921563      17.818689483
                        -----------------------------------------
Total Dipole Moment    :     -0.180208661      -2.024085986       1.568088450
                        -----------------------------------------
Magnitude (a.u.)       :      2.566768519
Magnitude (Debye)      :      6.524207087

Rotational constants in cm-1:             0.013585             0.004704             0.004412
Rotational constants in MHz :           407.263426           141.027885           132.255976

                             ****ORCA TERMINATED NORMALLY****
TOTAL RUN TIME: 0 days 0 hours 0 minutes 21 seconds 375 msec
