                         Program Version 6.0.0  -   RELEASE  -
|  1> ! pbe def2-sv(p) def2/J RI DEFGRID1 loosescf d4 GCP(DFT/SV(P)) printgap
|  2> %output
|  3>     printlevel normal
|  4> end
|  5> * xyz 0 1
|  6> C 5.0594030037 -0.4315841003 -1.8615408714
|  7> C 4.8189643631 -0.2119031338 -0.3833258665
|  8> O 3.6680117027 0.6148690636 -0.1201686651
|  9> P 2.1982420957 0.2912383454 -0.6163127629
| 10> S 1.7505210303 0.7116403188 -2.4792543443
| 11> O 1.3059740462 1.1454761085 0.367066574
| 12> C 1.6399401748 1.5381975654 1.7246734878
| 13> C 1.9552397506 0.3717411655 2.6375635805
| 14> S 1.911823898 -1.7636877714 -0.1260220127
| 15> C 0.1429582009 -1.7965980153 -0.4835302023
| 16> S -0.8337504298 -1.3240499474 0.9818060075
| 17> P -2.16841673 0.0626060422 0.133951934
| 18> S -1.6030181916 1.143604542 -1.3952025806
| 19> O -2.6290558979 0.9715084229 1.3470100052
| 20> C -3.2544076683 0.4463690516 2.5473608162
| 21> C -2.2496769025 0.3230493026 3.675090522
| 22> O -3.3641409784 -0.9580709041 -0.1847335076
| 23> C -4.39203094 -0.6469997313 -1.1419371922
| 24> C -5.3361203399 0.418678459 -0.6229403
| 25> H 5.1379561297 0.5211120111 -2.379874079
| 26> H 5.9775701609 -0.9936708639 -1.9977638286
| 27> H 4.2316216588 -0.9890623098 -2.2971024169
| 28> H 5.639634488 0.3407775812 0.0774924386
| 29> H 4.6753758888 -1.1677186884 0.1284618028
| 30> H 2.4816425161 2.2308750039 1.6685733587
| 31> H 0.7430157304 2.071116667 2.0474083414
| 32> H 1.1355255246 -0.3421194172 2.6505978593
| 33> H 2.8590784671 -0.136422446 2.310456658
| 34> H 2.1100263397 0.7534974152 3.6420449916
| 35> H -0.1090800467 -2.8174579101 -0.7564460256
| 36> H -0.0744628444 -1.0967322085 -1.2965626376
| 37> H -4.028030129 1.1781494696 2.7869778773
| 38> H -3.7123996366 -0.51827341 2.3169263731
| 39> H -1.507794793 -0.4376717684 3.4447875853
| 40> H -1.747699343 1.2735608376 3.8325452934
| 41> H -2.7740727219 0.0420097534 4.5829518164
| 42> H -3.9131060714 -0.3164125334 -2.0692664541
| 43> H -4.900146041 -1.5986277185 -1.3039853679
| 44> H -4.7880619875 1.3473125627 -0.4644142528
| 45> H -6.1178822336 0.5933364185 -1.3554843526
| 46> H -5.7858965739 0.1049296265 0.3154575851
| 47> *
| 48>
| 49>                          ****END OF INPUT****

CARTESIAN COORDINATES (ANGSTROEM)
---------------------------------
  C      5.059403   -0.431584   -1.861541
  C      4.818964   -0.211903   -0.383326
  O      3.668012    0.614869   -0.120169
  P      2.198242    0.291238   -0.616313
  S      1.750521    0.711640   -2.479254
  O      1.305974    1.145476    0.367067
  C      1.639940    1.538198    1.724673
  C      1.955240    0.371741    2.637564
  S      1.911824   -1.763688   -0.126022
  C      0.142958   -1.796598   -0.483530
  S     -0.833750   -1.324050    0.981806
  P     -2.168417    0.062606    0.133952
  S     -1.603018    1.143605   -1.395203
  O     -2.629056    0.971508    1.347010
  C     -3.254408    0.446369    2.547361
  C     -2.249677    0.323049    3.675091
  O     -3.364141   -0.958071   -0.184734
  C     -4.392031   -0.647000   -1.141937
  C     -5.336120    0.418678   -0.622940
  H      5.137956    0.521112   -2.379874
  H      5.977570   -0.993671   -1.997764
  H      4.231622   -0.989062   -2.297102
  H      5.639634    0.340778    0.077492
  H      4.675376   -1.167719    0.128462
  H      2.481643    2.230875    1.668573
  H      0.743016    2.071117    2.047408
  H      1.135526   -0.342119    2.650598
  H      2.859078   -0.136422    2.310457
  H      2.110026    0.753497    3.642045
  H     -0.109080   -2.817458   -0.756446
  H     -0.074463   -1.096732   -1.296563
  H     -4.028030    1.178149    2.786978
  H     -3.712400   -0.518273    2.316926
  H     -1.507795   -0.437672    3.444788
  H     -1.747699    1.273561    3.832545
  H     -2.774073    0.042010    4.582952
  H     -3.913106   -0.316413   -2.069266
  H     -4.900146   -1.598628   -1.303985
  H     -4.788062    1.347313   -0.464414
  H     -6.117882    0.593336   -1.355484
  H     -5.785897    0.104930    0.315458

 Total Charge           Charge          ....    0
 Multiplicity           Mult            ....    1
 Number of Electrons    NEL             ....  202
 Basis Dimension        Dim             ....  334

ORBITAL ENERGIES
----------------

  NO   OCC          E(Eh)            E(eV)
   0   2.0000     -88.041002     -2395.7174
   1   2.0000     -88.039677     -2395.6814
   2   2.0000     -87.978063     -2394.0048
   3   2.0000     -87.969051     -2393.7596
   4   2.0000     -76.420717     -2079.5134
   5   2.0000     -76.419450     -2079.4790
   6   2.0000     -18.794749      -511.4311
   7   2.0000     -18.794425      -511.4223
   8   2.0000     -18.785169      -511.1704
   9   2.0000     -18.781725      -511.0767
  10   2.0000      -9.961649      -271.0702
  11   2.0000      -9.960975      -271.0519
  12   2.0000      -9.955288      -270.8972
  13   2.0000      -9.950169      -270.7579
  14   2.0000      -9.946844      -270.6674
  15   2.0000      -9.894326      -269.2383
  16   2.0000      -9.884217      -268.9632
  17   2.0000      -9.881872      -268.8994
  18   2.0000      -9.881677      -268.8941
  19   2.0000      -7.686158      -209.1510
  20   2.0000      -7.685005      -209.1196
  21   2.0000      -7.623053      -207.4338
  22   2.0000      -7.614283      -207.1952
  23   2.0000      -6.417698      -174.6344
  24   2.0000      -6.417636      -174.6328
  25   2.0000      -5.713854      -155.4819
  26   2.0000      -5.712894      -155.4557
  27   2.0000      -5.710766      -155.3978
  28   2.0000      -5.709518      -155.3639
  29   2.0000      -5.703204      -155.1921
  30   2.0000      -5.701873      -155.1559
  31   2.0000      -5.652158      -153.8030
  32   2.0000      -5.643729      -153.5737
  33   2.0000      -5.643514      -153.5678
  34   2.0000      -5.642961      -153.5528
  35   2.0000      -5.634815      -153.3311
  36   2.0000      -5.634217      -153.3148
  37   2.0000      -4.640933      -126.2862
  38   2.0000      -4.640650      -126.2785
  39   2.0000      -4.639675      -126.2520
  40   2.0000      -4.638955      -126.2324
  41   2.0000      -4.638029      -126.2072
  42   2.0000      -4.637391      -126.1898
  43   2.0000      -0.985163       -26.8076
  44   2.0000      -0.982820       -26.7439
  45   2.0000      -0.941643       -25.6234
  46   2.0000      -0.939142       -25.5553
  47   2.0000      -0.761560       -20.7231
  48   2.0000      -0.720663       -19.6102
  49   2.0000      -0.710050       -19.3214
  50   2.0000      -0.693511       -18.8714
  51   2.0000      -0.689537       -18.7633
  52   2.0000      -0.673820       -18.3356
  53   2.0000      -0.647153       -17.6099
  54   2.0000      -0.629496       -17.1295
  55   2.0000      -0.590493       -16.0681
  56   2.0000      -0.583886       -15.8883
  57   2.0000      -0.580761       -15.8033
  58   2.0000      -0.578209       -15.7339
  59   2.0000      -0.559489       -15.2245
  60   2.0000      -0.500805       -13.6276
  61   2.0000      -0.495127       -13.4731
  62   2.0000      -0.476775       -12.9737
  63   2.0000      -0.467218       -12.7136
  64   2.0000      -0.456323       -12.4172
  65   2.0000      -0.451705       -12.2915
  66   2.0000      -0.439735       -11.9658
  67   2.0000      -0.432590       -11.7714
  68   2.0000      -0.429707       -11.6929
  69   2.0000      -0.416671       -11.3382
  70   2.0000      -0.408285       -11.1100
  71   2.0000      -0.403013       -10.9665
  72   2.0000      -0.397488       -10.8162
  73   2.0000      -0.389680       -10.6037
  74   2.0000      -0.381735       -10.3875
  75   2.0000      -0.368602       -10.0302
  76   2.0000      -0.362432        -9.8623
  77   2.0000      -0.357857        -9.7378
  78   2.0000      -0.349805        -9.5187
  79   2.0000      -0.349717        -9.5163
  80   2.0000      -0.344469        -9.3735
  81   2.0000      -0.342489        -9.3196
  82   2.0000      -0.342411        -9.3175
  83   2.0000      -0.338755        -9.2180
  84   2.0000      -0.333304        -9.0697
  85   2.0000      -0.323361        -8.7991
  86   2.0000      -0.315035        -8.5725
  87   2.0000      -0.305558        -8.3147
  88   2.0000      -0.295800        -8.0491
  89   2.0000      -0.287308        -7.8180
  90   2.0000      -0.274677        -7.4743
  91   2.0000      -0.274078        -7.4580
  92   2.0000      -0.270473        -7.3599
  93   2.0000      -0.266496        -7.2517
  94   2.0000      -0.254191        -6.9169
  95   2.0000      -0.230216        -6.2645
  96   2.0000      -0.215084        -5.8527
  97   2.0000      -0.208295        -5.6680
  98   2.0000      -0.194675        -5.2974
  99   2.0000      -0.181735        -4.9453
 100   2.0000      -0.176138        -4.7930
 101   0.0000      -0.039892        -1.0855
 102   0.0000      -0.028906        -0.7866
 103   0.0000      -0.018508        -0.5036
 104   0.0000       0.011884         0.3234
 105   0.0000       0.018322         0.4986

MULLIKEN ATOMIC CHARGES
-----------------------
   0 C :   -0.303719
   1 C :   -0.020561
   2 O :   -0.381448
   3 P :    0.596493
   4 S :   -0.288039
   5 O :   -0.355163
   6 C :    0.013459
   7 C :   -0.338627
   8 S :   -0.122505
   9 C :   -0.325531
  10 S :   -0.125850
  11 P :    0.605007
  12 S :   -0.264271
  13 O :   -0.371040
  14 C :   -0.035219
  15 C :   -0.304245
  16 O :   -0.388970
  17 C :   -0.005868
  18 C :   -0.318273
  19 H :    0.127950
  20 H :    0.109838
  21 H :    0.129577
  22 H :    0.110408
  23 H :    0.115621
  24 H :    0.107018
  25 H :    0.110805
  26 H :    0.143985
  27 H :    0.116863
  28 H :    0.107155
  29 H :    0.185782
  30 H :    0.197484
  31 H :    0.112747
  32 H :    0.112159
  33 H :    0.141589
  34 H :    0.123943
  35 H :    0.112672
  36 H :    0.112531
  37 H :    0.101720
  38 H :    0.130689
  39 H :    0.113998
  40 H :    0.109835
Sum of atomic charges:   -0.0000000

LOEWDIN ATOMIC CHARGES
----------------------
   0 C :   -0.369154
   1 C :   -0.114391
   2 O :   -0.244004
   3 P :    0.572841
   4 S :   -0.303620
   5 O :   -0.233691
   6 C :   -0.105588
   7 C :   -0.377044
   8 S :    0.058515
   9 C :   -0.469926
  10 S :    0.078468
  11 P :    0.558025
  12 S :   -0.270311
  13 O :   -0.243868
  14 C :   -0.118585
  15 C :   -0.361808
  16 O :   -0.262224
  17 C :   -0.122911
  18 C :   -0.366554
  19 H :    0.131870
  20 H :    0.129528
  21 H :    0.123434
  22 H :    0.121646
  23 H :    0.107209
  24 H :    0.114962
  25 H :    0.121339
  26 H :    0.117462
  27 H :    0.117256
  28 H :    0.128768
  29 H :    0.137238
  30 H :    0.126497
  31 H :    0.121563
  32 H :    0.110750
  33 H :    0.120341
  34 H :    0.128881
  35 H :    0.132027
  36 H :    0.110107
  37 H :    0.116564
  38 H :    0.126143
  39 H :    0.131484
  40 H :    0.120760

  Mayer bond orders larger than 0.100000
B(  0-C ,  1-C ) :   1.1682 B(  0-C , 19-H ) :   0.9429 B(  0-C , 20-H ) :   0.9341
B(  0-C , 21-H ) :   0.9306 B(  1-C ,  2-O ) :   0.9100 B(  1-C , 22-H ) :   0.9341
B(  1-C , 23-H ) :   0.9240 B(  2-O ,  3-P ) :   1.0743 B(  3-P ,  4-S ) :   1.6756
B(  3-P ,  5-O ) :   1.1359 B(  3-P ,  8-S ) :   0.9194 B(  4-S ,  8-S ) :   0.1077
B(  5-O ,  6-C ) :   0.8950 B(  6-C ,  7-C ) :   1.1676 B(  6-C , 24-H ) :   0.9319
B(  6-C , 25-H ) :   0.9313 B(  7-C , 26-H ) :   0.9255 B(  7-C , 27-H ) :   0.9394
B(  7-C , 28-H ) :   0.9348 B(  8-S ,  9-C ) :   1.0218 B(  9-C , 10-S ) :   0.9839
B(  9-C , 29-H ) :   0.9123 B(  9-C , 30-H ) :   0.8423 B( 10-S , 11-P ) :   0.9522
B( 10-S , 12-S ) :   0.1099 B( 11-P , 12-S ) :   1.6670 B( 11-P , 13-O ) :   1.1062
B( 11-P , 16-O ) :   1.0620 B( 13-O , 14-C ) :   0.9016 B( 14-C , 15-C ) :   1.1685
B( 14-C , 31-H ) :   0.9339 B( 14-C , 32-H ) :   0.9132 B( 15-C , 33-H ) :   0.9320
B( 15-C , 34-H ) :   0.9448 B( 15-C , 35-H ) :   0.9372 B( 16-O , 17-C ) :   0.9155
B( 17-C , 18-C ) :   1.1610 B( 17-C , 36-H ) :   0.9112 B( 17-C , 37-H ) :   0.9345
B( 18-C , 38-H ) :   0.9354 B( 18-C , 39-H ) :   0.9397 B( 18-C , 40-H ) :   0.9465

Dispersion correction           -0.067029879
FINAL SINGLE POINT ENERGY     -2929.504022001558

DIPOLE MOMENT
-------------

Method             : SCF
Type of density    : Electron Density
Multiplicity       :   1
Irrep              :   0
Energy             : -2929.6230468689600457 Eh
Relativity type    :
Basis              : AO
                                X                 Y                 Z
Electronic contribution:      4.025458533      -0.553372678     -13.542278682
Nuclear contribution   :     -4.268208272      -0.214334625      15.440961264
                        -----------------------------------------
Total Dipole Moment    :     -0.242749739      -0.767707303       1.898682582
                        -----------------------------------------
Magnitude (a.u.)       :      2.062352416
Magnitude (Debye)      :      5.242083246

Rotational constants in cm-1:             0.014015             0.005015             0.004447
Rotational constants in MHz :           420.173449           150.336535           133.326293

                             ****ORCA TERMINATED NORMALLY****
TOTAL RUN TIME: 0 days 0 hours 0 minutes 18 seconds 520 msec
