                         Program Version 6.0.0  -   RELEASE  -
|  1> ! pbe def2-sv(p) def2/J RI DEFGRID1 loosescf d4 GCP(DFT/SV(P)) printgap
|  2> %output
|  3>     printlevel normal
|  4> end
|  5> * xyz 0 1
|  6> C 3.8684010913 -1.8269166747 -1.815294993
|  7> C 4.1405553652 -0.3356635615 -1.8270203712
|  8> O 3.594017757 0.3319059338 -0.6809315166
|  9> P 2.029086581 0.4978949831 -0.4148716168
| 10> S 1.0218962979 0.8668673066 -2.0541548067
| 11> O 2.0321489523 1.7043497128 0.5906286779
| 12> C 2.2798914975 1.6477017154 2.0147681282
| 13> C 3.5955388572 0.9818893278 2.3512057985
| 14> S 1.4641457863 -1.2433052562 0.6764102793
| 15> C 0.2430353435 -1.9679960503 -0.4607350623
| 16> S -1.4128346795 -2.1470952727 0.259007399
| 17> P -2.1067897379 -0.1664668615 0.1683681979
| 18> S -1.091257242 1.2781630061 1.0378202913
| 19> O -3.5978946334 -0.2973955692 0.7001320439
| 20> C -3.9399331006 -0.1378502256 2.0875790096
| 21> C -3.3822587429 -1.2578883911 2.9417430465
| 22> O -2.3075501829 -0.0435278978 -1.3969804072
| 23> C -2.5045215688 1.215368526 -2.0672371598
| 24> C -3.8205133348 1.8597756164 -1.6885416268
| 25> H 4.1632185038 -2.2578621257 -0.8620380576
| 26> H 2.8081043845 -2.0131034448 -1.9783147229
| 27> H 4.4325201837 -2.2982831413 -2.6136979195
| 28> H 3.7233346136 0.1248054544 -2.7286735126
| 29> H 5.2087468887 -0.1225770793 -1.7648713777
| 30> H 2.2661195077 2.698531782 2.3075727043
| 31> H 1.4371902849 1.1318208679 2.4833052278
| 32> H 4.4094174094 1.4727301351 1.8239166698
| 33> H 3.7627014132 1.0513245813 3.4215292668
| 34> H 3.5696715383 -0.0682891949 2.0641322218
| 35> H 0.5641691007 -2.9802790326 -0.6917964982
| 36> H 0.1854213842 -1.3458066015 -1.3587014737
| 37> H -3.5593714577 0.830817459 2.4280850577
| 38> H -5.0306213264 -0.1314828584 2.0890770332
| 39> H -2.2941360737 -1.2037181114 2.9599801559
| 40> H -3.7570007811 -1.1588030127 3.9554316788
| 41> H -3.6765921433 -2.2232677282 2.5378751454
| 42> H -1.6616794363 1.8727553516 -1.8287378642
| 43> H -2.4640429949 0.9535695155 -3.1255114997
| 44> H -3.8016920313 2.153676802 -0.6396353523
| 45> H -3.9748105758 2.7435142015 -2.2997622206
| 46> H -4.6377922918 1.1605307528 -1.8446313724
| 47> *
| 48>
| 49>                          ****END OF INPUT****

CARTESIAN COORDINATES (ANGSTROEM)
---------------------------------
  C      3.868401   -1.826917   -1.815295
  C      4.140555   -0.335664   -1.827020
  O      3.594018    0.331906   -0.680932
  P      2.029087    0.497895   -0.414872
  S      1.021896    0.866867   -2.054155
  O      2.032149    1.704350    0.590629
  C      2.279891    1.647702    2.014768
  C      3.595539    0.981889    2.351206
  S      1.464146   -1.243305    0.676410
  C      0.243035   -1.967996   -0.460735
  S     -1.412835   -2.147095    0.259007
  P     -2.106790   -0.166467    0.168368
  S     -1.091257    1.278163    1.037820
  O     -3.597895   -0.297396    0.700132
  C     -3.939933   -0.137850    2.087579
  C     -3.382259   -1.257888    2.941743
  O     -2.307550   -0.043528   -1.396980
  C     -2.504522    1.215369   -2.067237
  C     -3.820513    1.859776   -1.688542
  H      4.163219   -2.257862   -0.862038
  H      2.808104   -2.013103   -1.978315
  H      4.432520   -2.298283   -2.613698
  H      3.723335    0.124805   -2.728674
  H      5.208747   -0.122577   -1.764871
  H      2.266120    2.698532    2.307573
  H      1.437190    1.131821    2.483305
  H      4.409417    1.472730    1.823917
  H      3.762701    1.051325    3.421529
  H      3.569672   -0.068289    2.064132
  H      0.564169   -2.980279   -0.691796
  H      0.185421   -1.345807   -1.358701
  H     -3.559371    0.830817    2.428085
  H     -5.030621   -0.131483    2.089077
  H     -2.294136   -1.203718    2.959980
  H     -3.757001   -1.158803    3.955432
  H     -3.676592   -2.223268    2.537875
  H     -1.661679    1.872755   -1.828738
  H     -2.464043    0.953570   -3.125511
  H     -3.801692    2.153677   -0.639635
  H     -3.974811    2.743514   -2.299762
  H     -4.637792    1.160531   -1.844631

 Total Charge           Charge          ....    0
 Multiplicity           Mult            ....    1
 Number of Electrons    NEL             ....  202
 Basis Dimension        Dim             ....  334

ORBITAL ENERGIES
----------------

  NO   OCC          E(Eh)            E(eV)
   0   2.0000     -88.041552     -2395.7324
   1   2.0000     -88.040799     -2395.7119
   2   2.0000     -87.983117     -2394.1423
   3   2.0000     -87.981830     -2394.1073
   4   2.0000     -76.423845     -2079.5985
   5   2.0000     -76.421614     -2079.5378
   6   2.0000     -18.788813      -511.2696
   7   2.0000     -18.787077      -511.2223
   8   2.0000     -18.782909      -511.1090
   9   2.0000     -18.782729      -511.1040
  10   2.0000      -9.956008      -270.9167
  11   2.0000      -9.951490      -270.7938
  12   2.0000      -9.950336      -270.7624
  13   2.0000      -9.948899      -270.7233
  14   2.0000      -9.939823      -270.4763
  15   2.0000      -9.886597      -269.0280
  16   2.0000      -9.884836      -268.9801
  17   2.0000      -9.883292      -268.9381
  18   2.0000      -9.876392      -268.7503
  19   2.0000      -7.686461      -209.1592
  20   2.0000      -7.686222      -209.1527
  21   2.0000      -7.628062      -207.5701
  22   2.0000      -7.626321      -207.5228
  23   2.0000      -6.420928      -174.7223
  24   2.0000      -6.419211      -174.6756
  25   2.0000      -5.714296      -155.4939
  26   2.0000      -5.714152      -155.4900
  27   2.0000      -5.710960      -155.4031
  28   2.0000      -5.710750      -155.3974
  29   2.0000      -5.703352      -155.1961
  30   2.0000      -5.703190      -155.1917
  31   2.0000      -5.656978      -153.9342
  32   2.0000      -5.655108      -153.8833
  33   2.0000      -5.648951      -153.7158
  34   2.0000      -5.647874      -153.6865
  35   2.0000      -5.646961      -153.6616
  36   2.0000      -5.646672      -153.6538
  37   2.0000      -4.643506      -126.3562
  38   2.0000      -4.642685      -126.3339
  39   2.0000      -4.641679      -126.3065
  40   2.0000      -4.641477      -126.3010
  41   2.0000      -4.640989      -126.2877
  42   2.0000      -4.639752      -126.2541
  43   2.0000      -0.981916       -26.7193
  44   2.0000      -0.981693       -26.7132
  45   2.0000      -0.940987       -25.6056
  46   2.0000      -0.938959       -25.5504
  47   2.0000      -0.760463       -20.6932
  48   2.0000      -0.717662       -19.5286
  49   2.0000      -0.706707       -19.2305
  50   2.0000      -0.687574       -18.7098
  51   2.0000      -0.684131       -18.6162
  52   2.0000      -0.673075       -18.3153
  53   2.0000      -0.649813       -17.6823
  54   2.0000      -0.633567       -17.2402
  55   2.0000      -0.600848       -16.3499
  56   2.0000      -0.591505       -16.0957
  57   2.0000      -0.572349       -15.5744
  58   2.0000      -0.568030       -15.4569
  59   2.0000      -0.561522       -15.2798
  60   2.0000      -0.492611       -13.4046
  61   2.0000      -0.485614       -13.2142
  62   2.0000      -0.468184       -12.7399
  63   2.0000      -0.467071       -12.7097
  64   2.0000      -0.451584       -12.2882
  65   2.0000      -0.446155       -12.1405
  66   2.0000      -0.437839       -11.9142
  67   2.0000      -0.434433       -11.8215
  68   2.0000      -0.428583       -11.6623
  69   2.0000      -0.416771       -11.3409
  70   2.0000      -0.410647       -11.1743
  71   2.0000      -0.396527       -10.7900
  72   2.0000      -0.388058       -10.5596
  73   2.0000      -0.387321       -10.5395
  74   2.0000      -0.379303       -10.3214
  75   2.0000      -0.373937       -10.1753
  76   2.0000      -0.365987        -9.9590
  77   2.0000      -0.355520        -9.6742
  78   2.0000      -0.352370        -9.5885
  79   2.0000      -0.351132        -9.5548
  80   2.0000      -0.345045        -9.3891
  81   2.0000      -0.343920        -9.3586
  82   2.0000      -0.340170        -9.2565
  83   2.0000      -0.334644        -9.1061
  84   2.0000      -0.331512        -9.0209
  85   2.0000      -0.309508        -8.4221
  86   2.0000      -0.307791        -8.3754
  87   2.0000      -0.292410        -7.9569
  88   2.0000      -0.290471        -7.9041
  89   2.0000      -0.287457        -7.8221
  90   2.0000      -0.276566        -7.5258
  91   2.0000      -0.270113        -7.3501
  92   2.0000      -0.266881        -7.2622
  93   2.0000      -0.260554        -7.0900
  94   2.0000      -0.257010        -6.9936
  95   2.0000      -0.238916        -6.5012
  96   2.0000      -0.217743        -5.9251
  97   2.0000      -0.205917        -5.6033
  98   2.0000      -0.202753        -5.5172
  99   2.0000      -0.194113        -5.2821
 100   2.0000      -0.186651        -5.0790
 101   0.0000      -0.039003        -1.0613
 102   0.0000      -0.030952        -0.8422
 103   0.0000      -0.013128        -0.3572
 104   0.0000       0.003661         0.0996
 105   0.0000       0.021573         0.5870

MULLIKEN ATOMIC CHARGES
-----------------------
   0 C :   -0.320175
   1 C :    0.003311
   2 O :   -0.373615
   3 P :    0.607256
   4 S :   -0.310955
   5 O :   -0.352482
   6 C :   -0.007691
   7 C :   -0.315315
   8 S :   -0.108987
   9 C :   -0.357482
  10 S :   -0.078882
  11 P :    0.614685
  12 S :   -0.326754
  13 O :   -0.372351
  14 C :   -0.002796
  15 C :   -0.322184
  16 O :   -0.365645
  17 C :   -0.011385
  18 C :   -0.303881
  19 H :    0.118344
  20 H :    0.121151
  21 H :    0.111734
  22 H :    0.110448
  23 H :    0.102407
  24 H :    0.110716
  25 H :    0.124989
  26 H :    0.123807
  27 H :    0.114733
  28 H :    0.125684
  29 H :    0.185078
  30 H :    0.202145
  31 H :    0.109741
  32 H :    0.105026
  33 H :    0.129297
  34 H :    0.113375
  35 H :    0.119837
  36 H :    0.130677
  37 H :    0.102184
  38 H :    0.119752
  39 H :    0.110427
  40 H :    0.113775
Sum of atomic charges:   -0.0000000

LOEWDIN ATOMIC CHARGES
----------------------
   0 C :   -0.369490
   1 C :   -0.118666
   2 O :   -0.249172
   3 P :    0.577099
   4 S :   -0.295563
   5 O :   -0.224299
   6 C :   -0.115588
   7 C :   -0.367130
   8 S :    0.070833
   9 C :   -0.483038
  10 S :    0.093435
  11 P :    0.569193
  12 S :   -0.313771
  13 O :   -0.242932
  14 C :   -0.120623
  15 C :   -0.371654
  16 O :   -0.236945
  17 C :   -0.120865
  18 C :   -0.365465
  19 H :    0.124168
  20 H :    0.118993
  21 H :    0.130032
  22 H :    0.110018
  23 H :    0.117766
  24 H :    0.123875
  25 H :    0.110092
  26 H :    0.129627
  27 H :    0.132295
  28 H :    0.116033
  29 H :    0.136734
  30 H :    0.123802
  31 H :    0.109430
  32 H :    0.118607
  33 H :    0.122020
  34 H :    0.131370
  35 H :    0.124428
  36 H :    0.111211
  37 H :    0.118337
  38 H :    0.121315
  39 H :    0.129818
  40 H :    0.124670

  Mayer bond orders larger than 0.100000
B(  0-C ,  1-C ) :   1.1625 B(  0-C , 19-H ) :   0.9430 B(  0-C , 20-H ) :   0.9381
B(  0-C , 21-H ) :   0.9377 B(  1-C ,  2-O ) :   0.9232 B(  1-C , 22-H ) :   0.9149
B(  1-C , 23-H ) :   0.9344 B(  2-O ,  3-P ) :   1.0763 B(  3-P ,  4-S ) :   1.5975
B(  3-P ,  5-O ) :   1.1579 B(  3-P ,  8-S ) :   0.9444 B(  4-S ,  8-S ) :   0.1125
B(  4-S , 30-H ) :   0.1141 B(  5-O ,  6-C ) :   0.8964 B(  6-C ,  7-C ) :   1.1665
B(  6-C , 24-H ) :   0.9343 B(  6-C , 25-H ) :   0.9138 B(  7-C , 26-H ) :   0.9417
B(  7-C , 27-H ) :   0.9355 B(  7-C , 28-H ) :   0.9367 B(  8-S ,  9-C ) :   1.0011
B(  9-C , 10-S ) :   0.9988 B(  9-C , 29-H ) :   0.9077 B(  9-C , 30-H ) :   0.8423
B( 10-S , 11-P ) :   0.9684 B( 10-S , 12-S ) :   0.1150 B( 11-P , 12-S ) :   1.6068
B( 11-P , 13-O ) :   1.0998 B( 11-P , 16-O ) :   1.1335 B( 13-O , 14-C ) :   0.9082
B( 14-C , 15-C ) :   1.1661 B( 14-C , 31-H ) :   0.9132 B( 14-C , 32-H ) :   0.9331
B( 15-C , 33-H ) :   0.9336 B( 15-C , 34-H ) :   0.9379 B( 15-C , 35-H ) :   0.9438
B( 16-O , 17-C ) :   0.8989 B( 17-C , 18-C ) :   1.1609 B( 17-C , 36-H ) :   0.9083
B( 17-C , 37-H ) :   0.9365 B( 18-C , 38-H ) :   0.9375 B( 18-C , 39-H ) :   0.9394
B( 18-C , 40-H ) :   0.9451

Dispersion correction           -0.068464688
FINAL SINGLE POINT ENERGY     -2929.517543477848

DIPOLE MOMENT
-------------

Method             : SCF
Type of density    : Electron Density
Multiplicity       :   1
Irrep              :   0
Energy             : -2929.6348984613673565 Eh
Relativity type    :
Basis              : AO
                                X                 Y                 Z
Electronic contribution:     -1.373512805      -0.670397587      -3.774229555
Nuclear contribution   :      1.635259672       0.131479686       4.277473576
                        -----------------------------------------
Total Dipole Moment    :      0.261746867      -0.538917901       0.503244021
                        -----------------------------------------
Magnitude (a.u.)       :      0.782431128
Magnitude (Debye)      :      1.988781877

Rotational constants in cm-1:             0.012286             0.005400             0.005109
Rotational constants in MHz :           368.333134           161.894390           153.175729

                             ****ORCA TERMINATED NORMALLY****
TOTAL RUN TIME: 0 days 0 hours 0 minutes 22 seconds 828 msec
