                         Program Version 6.0.0  -   RELEASE  -
|  1> ! pbe def2-sv(p) def2/J RI DEFGRID1 loosescf d4 GCP(DFT/SV(P)) printgap
|  2> %output
|  3>     printlevel normal
|  4> end
|  5> * xyz 0 1
|  6> C 4.0142952702 -1.9993601266 -2.2247727709
|  7> C 4.4239004478 -0.5539832149 -2.0301838823
|  8> O 3.9399765983 -0.006041105 -0.7904326449
|  9> P 2.3923149085 0.2035947845 -0.4812404594
| 10> S 1.3123723874 0.8452005786 -1.9788015071
| 11> O 2.4449858009 1.2463819272 0.7006968843
| 12> C 3.2585207501 1.0683936123 1.8915335172
| 13> C 2.3865670978 0.747477207 3.088583051
| 14> S 1.8178768991 -1.6614964198 0.3792640301
| 15> C 0.0389698644 -1.4500691334 0.2159828978
| 16> S -0.543161471 -0.0764695944 1.2894483516
| 17> P -2.3584909426 0.3330313334 0.3124168263
| 18> S -3.4191405474 1.822091252 1.0127335974
| 19> O -3.1239938046 -1.067844632 0.2350054997
| 20> C -4.0674178575 -1.4707468494 1.2416047757
| 21> C -3.3918734225 -1.7881604946 2.5608094777
| 22> O -1.8267075671 0.4732317188 -1.1737579195
| 23> C -2.5501825512 1.1914888319 -2.1897782651
| 24> C -3.802569721 0.4532387072 -2.6120391964
| 25> H 4.5193616952 -2.3974975071 -3.0989917066
| 26> H 4.2804215192 -2.5903174968 -1.3521178678
| 27> H 2.9386627659 -2.0641610774 -2.3800024375
| 28> H 4.0481145855 0.0666119952 -2.8494946755
| 29> H 5.5068909447 -0.4483675262 -1.9516403188
| 30> H 3.9921173549 0.2811116842 1.7076924509
| 31> H 3.7692103011 2.024200966 2.0188192673
| 32> H 1.6095047882 1.4993798308 3.1970374279
| 33> H 1.9093394822 -0.222406909 2.9717453132
| 34> H 3.0040322535 0.7364478861 3.9809835912
| 35> H -0.4219892002 -2.3815243665 0.5326111121
| 36> H -0.2026273367 -1.2029098176 -0.8168524226
| 37> H -4.7973851943 -0.6654841801 1.3720869761
| 38> H -4.552963045 -2.3483327518 0.8126914238
| 39> H -2.6291617974 -2.5509524994 2.4281982448
| 40> H -2.925587204 -0.8891143215 2.9634652306
| 41> H -4.1351224013 -2.1442840693 3.2669042932
| 42> H -2.7957880405 2.1858968222 -1.8031821269
| 43> H -1.827440902 1.2817136741 -3.0031170664
| 44> H -3.5575900856 -0.5622938506 -2.9115040161
| 45> H -4.5071460795 0.4189149762 -1.781973023
| 46> H -4.2619528755 0.9759512301 -3.4449606958
| 47> *
| 48>
| 49>                          ****END OF INPUT****

CARTESIAN COORDINATES (ANGSTROEM)
---------------------------------
  C      4.014295   -1.999360   -2.224773
  C      4.423900   -0.553983   -2.030184
  O      3.939977   -0.006041   -0.790433
  P      2.392315    0.203595   -0.481240
  S      1.312372    0.845201   -1.978802
  O      2.444986    1.246382    0.700697
  C      3.258521    1.068394    1.891534
  C      2.386567    0.747477    3.088583
  S      1.817877   -1.661496    0.379264
  C      0.038970   -1.450069    0.215983
  S     -0.543161   -0.076470    1.289448
  P     -2.358491    0.333031    0.312417
  S     -3.419141    1.822091    1.012734
  O     -3.123994   -1.067845    0.235005
  C     -4.067418   -1.470747    1.241605
  C     -3.391873   -1.788160    2.560809
  O     -1.826708    0.473232   -1.173758
  C     -2.550183    1.191489   -2.189778
  C     -3.802570    0.453239   -2.612039
  H      4.519362   -2.397498   -3.098992
  H      4.280422   -2.590317   -1.352118
  H      2.938663   -2.064161   -2.380002
  H      4.048115    0.066612   -2.849495
  H      5.506891   -0.448368   -1.951640
  H      3.992117    0.281112    1.707692
  H      3.769210    2.024201    2.018819
  H      1.609505    1.499380    3.197037
  H      1.909339   -0.222407    2.971745
  H      3.004032    0.736448    3.980984
  H     -0.421989   -2.381524    0.532611
  H     -0.202627   -1.202910   -0.816852
  H     -4.797385   -0.665484    1.372087
  H     -4.552963   -2.348333    0.812691
  H     -2.629162   -2.550952    2.428198
  H     -2.925587   -0.889114    2.963465
  H     -4.135122   -2.144284    3.266904
  H     -2.795788    2.185897   -1.803182
  H     -1.827441    1.281714   -3.003117
  H     -3.557590   -0.562294   -2.911504
  H     -4.507146    0.418915   -1.781973
  H     -4.261953    0.975951   -3.444961

 Total Charge           Charge          ....    0
 Multiplicity           Mult            ....    1
 Number of Electrons    NEL             ....  202
 Basis Dimension        Dim             ....  334

ORBITAL ENERGIES
----------------

  NO   OCC          E(Eh)            E(eV)
   0   2.0000     -88.050493     -2395.9757
   1   2.0000     -88.038539     -2395.6504
   2   2.0000     -87.985204     -2394.1991
   3   2.0000     -87.985179     -2394.1984
   4   2.0000     -76.427126     -2079.6878
   5   2.0000     -76.421740     -2079.5413
   6   2.0000     -18.795190      -511.4431
   7   2.0000     -18.788533      -511.2620
   8   2.0000     -18.788438      -511.2594
   9   2.0000     -18.783479      -511.1244
  10   2.0000      -9.956219      -270.9225
  11   2.0000      -9.955862      -270.9128
  12   2.0000      -9.955301      -270.8975
  13   2.0000      -9.950861      -270.7767
  14   2.0000      -9.944885      -270.6141
  15   2.0000      -9.887260      -269.0460
  16   2.0000      -9.884478      -268.9703
  17   2.0000      -9.882667      -268.9210
  18   2.0000      -9.879453      -268.8336
  19   2.0000      -7.695294      -209.3996
  20   2.0000      -7.683399      -209.0759
  21   2.0000      -7.630349      -207.6323
  22   2.0000      -7.630310      -207.6313
  23   2.0000      -6.424459      -174.8184
  24   2.0000      -6.419587      -174.6858
  25   2.0000      -5.723033      -155.7316
  26   2.0000      -5.719820      -155.6442
  27   2.0000      -5.712430      -155.4431
  28   2.0000      -5.711799      -155.4259
  29   2.0000      -5.707791      -155.3169
  30   2.0000      -5.699979      -155.1043
  31   2.0000      -5.659359      -153.9990
  32   2.0000      -5.659248      -153.9960
  33   2.0000      -5.650966      -153.7706
  34   2.0000      -5.650746      -153.7646
  35   2.0000      -5.650612      -153.7610
  36   2.0000      -5.650435      -153.7562
  37   2.0000      -4.647298      -126.4594
  38   2.0000      -4.646178      -126.4289
  39   2.0000      -4.644761      -126.3904
  40   2.0000      -4.641878      -126.3119
  41   2.0000      -4.641544      -126.3028
  42   2.0000      -4.640123      -126.2642
  43   2.0000      -0.988085       -26.8872
  44   2.0000      -0.981872       -26.7181
  45   2.0000      -0.943955       -25.6863
  46   2.0000      -0.940876       -25.6025
  47   2.0000      -0.764546       -20.8044
  48   2.0000      -0.720367       -19.6022
  49   2.0000      -0.708821       -19.2880
  50   2.0000      -0.690335       -18.7850
  51   2.0000      -0.684794       -18.6342
  52   2.0000      -0.673370       -18.3233
  53   2.0000      -0.652114       -17.7449
  54   2.0000      -0.637792       -17.3552
  55   2.0000      -0.597711       -16.2645
  56   2.0000      -0.591520       -16.0961
  57   2.0000      -0.575455       -15.6589
  58   2.0000      -0.568462       -15.4686
  59   2.0000      -0.561259       -15.2726
  60   2.0000      -0.502773       -13.6812
  61   2.0000      -0.490200       -13.3390
  62   2.0000      -0.472686       -12.8624
  63   2.0000      -0.469136       -12.7658
  64   2.0000      -0.452443       -12.3116
  65   2.0000      -0.447054       -12.1649
  66   2.0000      -0.443810       -12.0767
  67   2.0000      -0.435866       -11.8605
  68   2.0000      -0.431552       -11.7431
  69   2.0000      -0.421204       -11.4615
  70   2.0000      -0.410924       -11.1818
  71   2.0000      -0.395624       -10.7655
  72   2.0000      -0.390851       -10.6356
  73   2.0000      -0.387586       -10.5468
  74   2.0000      -0.381200       -10.3730
  75   2.0000      -0.371474       -10.1083
  76   2.0000      -0.368818       -10.0360
  77   2.0000      -0.356061        -9.6889
  78   2.0000      -0.354471        -9.6456
  79   2.0000      -0.351442        -9.5632
  80   2.0000      -0.345702        -9.4070
  81   2.0000      -0.343681        -9.3520
  82   2.0000      -0.341318        -9.2877
  83   2.0000      -0.336158        -9.1473
  84   2.0000      -0.328157        -8.9296
  85   2.0000      -0.320111        -8.7107
  86   2.0000      -0.311936        -8.4882
  87   2.0000      -0.300284        -8.1711
  88   2.0000      -0.295649        -8.0450
  89   2.0000      -0.292650        -7.9634
  90   2.0000      -0.282161        -7.6780
  91   2.0000      -0.271393        -7.3850
  92   2.0000      -0.266774        -7.2593
  93   2.0000      -0.264428        -7.1955
  94   2.0000      -0.259315        -7.0563
  95   2.0000      -0.233445        -6.3524
  96   2.0000      -0.216233        -5.8840
  97   2.0000      -0.205842        -5.6012
  98   2.0000      -0.203531        -5.5384
  99   2.0000      -0.201774        -5.4905
 100   2.0000      -0.199084        -5.4173
 101   0.0000      -0.044992        -1.2243
 102   0.0000      -0.023356        -0.6355
 103   0.0000      -0.016111        -0.4384
 104   0.0000       0.002304         0.0627
 105   0.0000       0.011329         0.3083

MULLIKEN ATOMIC CHARGES
-----------------------
   0 C :   -0.319132
   1 C :    0.001460
   2 O :   -0.381972
   3 P :    0.603735
   4 S :   -0.300910
   5 O :   -0.348912
   6 C :   -0.017200
   7 C :   -0.289040
   8 S :   -0.109869
   9 C :   -0.352652
  10 S :   -0.082915
  11 P :    0.621605
  12 S :   -0.321945
  13 O :   -0.386162
  14 C :   -0.007850
  15 C :   -0.312263
  16 O :   -0.367000
  17 C :   -0.000729
  18 C :   -0.305774
  19 H :    0.114941
  20 H :    0.117067
  21 H :    0.127803
  22 H :    0.112859
  23 H :    0.105498
  24 H :    0.104872
  25 H :    0.112743
  26 H :    0.128586
  27 H :    0.120343
  28 H :    0.108264
  29 H :    0.180326
  30 H :    0.209877
  31 H :    0.111300
  32 H :    0.103400
  33 H :    0.112007
  34 H :    0.128145
  35 H :    0.112444
  36 H :    0.112952
  37 H :    0.109248
  38 H :    0.114243
  39 H :    0.119584
  40 H :    0.111022
Sum of atomic charges:    0.0000000

LOEWDIN ATOMIC CHARGES
----------------------
   0 C :   -0.371599
   1 C :   -0.115656
   2 O :   -0.250036
   3 P :    0.569216
   4 S :   -0.297718
   5 O :   -0.233940
   6 C :   -0.111193
   7 C :   -0.363614
   8 S :    0.082761
   9 C :   -0.474296
  10 S :    0.091311
  11 P :    0.568879
  12 S :   -0.320454
  13 O :   -0.252989
  14 C :   -0.122010
  15 C :   -0.367580
  16 O :   -0.233543
  17 C :   -0.114186
  18 C :   -0.364616
  19 H :    0.132014
  20 H :    0.122671
  21 H :    0.121371
  22 H :    0.113364
  23 H :    0.118999
  24 H :    0.108193
  25 H :    0.123124
  26 H :    0.130889
  27 H :    0.113435
  28 H :    0.128773
  29 H :    0.130481
  30 H :    0.128661
  31 H :    0.109842
  32 H :    0.117371
  33 H :    0.121496
  34 H :    0.122161
  35 H :    0.130771
  36 H :    0.112226
  37 H :    0.118740
  38 H :    0.125226
  39 H :    0.121587
  40 H :    0.129867

  Mayer bond orders larger than 0.100000
B(  0-C ,  1-C ) :   1.1663 B(  0-C , 19-H ) :   0.9371 B(  0-C , 20-H ) :   0.9434
B(  0-C , 21-H ) :   0.9349 B(  1-C ,  2-O ) :   0.9061 B(  1-C , 22-H ) :   0.9181
B(  1-C , 23-H ) :   0.9344 B(  2-O ,  3-P ) :   1.0866 B(  3-P ,  4-S ) :   1.6556
B(  3-P ,  5-O ) :   1.1447 B(  3-P ,  8-S ) :   0.9218 B(  4-S ,  8-S ) :   0.1100
B(  5-O ,  6-C ) :   0.8929 B(  6-C ,  7-C ) :   1.1655 B(  6-C , 24-H ) :   0.9189
B(  6-C , 25-H ) :   0.9340 B(  7-C , 26-H ) :   0.9433 B(  7-C , 27-H ) :   0.9321
B(  7-C , 28-H ) :   0.9381 B(  8-S ,  9-C ) :   1.0235 B(  9-C , 10-S ) :   0.9634
B(  9-C , 29-H ) :   0.9043 B(  9-C , 30-H ) :   0.8650 B( 10-S , 11-P ) :   0.9796
B( 11-P , 12-S ) :   1.6329 B( 11-P , 13-O ) :   1.0605 B( 11-P , 16-O ) :   1.1152
B( 13-O , 14-C ) :   0.9165 B( 14-C , 15-C ) :   1.1637 B( 14-C , 31-H ) :   0.9137
B( 14-C , 32-H ) :   0.9341 B( 15-C , 33-H ) :   0.9454 B( 15-C , 34-H ) :   0.9348
B( 15-C , 35-H ) :   0.9383 B( 16-O , 17-C ) :   0.9060 B( 17-C , 18-C ) :   1.1615
B( 17-C , 36-H ) :   0.9186 B( 17-C , 37-H ) :   0.9314 B( 18-C , 38-H ) :   0.9469
B( 18-C , 39-H ) :   0.9376 B( 18-C , 40-H ) :   0.9395

Dispersion correction           -0.064914684
FINAL SINGLE POINT ENERGY     -2929.517234416825

DIPOLE MOMENT
-------------

Method             : SCF
Type of density    : Electron Density
Multiplicity       :   1
Irrep              :   0
Energy             : -2929.6377724199123804 Eh
Relativity type    :
Basis              : AO
                                X                 Y                 Z
Electronic contribution:      1.719263891       9.357532449       0.025106970
Nuclear contribution   :     -0.957871083     -10.814283037      -0.017572962
                        -----------------------------------------
Total Dipole Moment    :      0.761392807      -1.456750588       0.007534008
                        -----------------------------------------
Magnitude (a.u.)       :      1.643745127
Magnitude (Debye)      :      4.178068077

Rotational constants in cm-1:             0.012340             0.004836             0.004362
Rotational constants in MHz :           369.956250           144.993605           130.770752

                             ****ORCA TERMINATED NORMALLY****
TOTAL RUN TIME: 0 days 0 hours 0 minutes 20 seconds 781 msec
