                         Program Version 6.0.0  -   RELEASE  -
|  1> ! pbe def2-sv(p) def2/J RI DEFGRID1 loosescf d4 GCP(DFT/SV(P)) printgap
|  2> %output
|  3>     printlevel normal
|  4> end
|  5> * xyz 0 1
|  6> C 2.2393406739 -3.1921829966 -0.9156932797
|  7> C 2.9443367052 -2.1840265367 -1.7995807539
|  8> O 3.444314319 -1.0465499065 -1.0569832007
|  9> P 2.5548954786 0.0122885616 -0.2806829453
| 10> S 3.6056195395 1.6105179811 0.1186684783
| 11> O 1.9301767793 -0.7202261424 0.9967266076
| 12> C 2.5717461772 -0.688464416 2.2895450645
| 13> C 1.9666656445 0.3828815722 3.1738344031
| 14> S 0.8482770886 0.2437803852 -1.4952032589
| 15> C 0.1966948104 1.7026022663 -0.6426661791
| 16> S -0.6172254 1.3057107322 0.9230602117
| 17> P -2.1865776718 0.1715213659 0.0694507843
| 18> S -2.9064056825 0.8448066661 -1.6324063933
| 19> O -3.1978686779 -0.0341607245 1.2749331174
| 20> C -3.7227306087 1.0035882084 2.1226753685
| 21> C -4.3592203646 2.1363722483 1.3441564922
| 22> O -1.558195666 -1.2815970768 -0.0132793619
| 23> C -1.9102319329 -2.2132626441 -1.0536392721
| 24> C -3.3027028377 -2.7679610312 -0.8388945377
| 25> H 1.3497486684 -2.7481447676 -0.4732969736
| 26> H 1.9494461099 -4.047733315 -1.5179194522
| 27> H 2.901044676 -3.523036074 -0.1190868986
| 28> H 2.2764574132 -1.8145943052 -2.5823772018
| 29> H 3.8447320211 -2.604026117 -2.2509114294
| 30> H 2.4060991899 -1.6848500702 2.702690679
| 31> H 3.6439678091 -0.51791854 2.153295186
| 32> H 2.4300991597 0.3380521897 4.154097322
| 33> H 2.1411046029 1.366819095 2.7436052604
| 34> H 0.8955293059 0.2310148465 3.2703792585
| 35> H -0.5270773134 2.1558017422 -1.3204603754
| 36> H 1.015883218 2.3862099386 -0.4168555185
| 37> H -4.4566328019 0.4822793955 2.7400811826
| 38> H -2.9078202564 1.3760181725 2.7497876294
| 39> H -5.1198169207 1.752948248 0.668088881
| 40> H -4.8144591326 2.8376492197 2.0361034719
| 41> H -3.6060222585 2.6583003242 0.7553697858
| 42> H -1.8371807337 -1.7049619508 -2.020812827
| 43> H -1.1486093894 -2.9910644294 -0.987358235
| 44> H -3.5240400676 -3.5011582502 -1.607941405
| 45> H -3.376195059 -3.2319366586 0.1408545864
| 46> H -4.02995786 -1.9587195646 -0.8986511461
| 47> *
| 48>
| 49>                          ****END OF INPUT****

CARTESIAN COORDINATES (ANGSTROEM)
---------------------------------
  C      2.239341   -3.192183   -0.915693
  C      2.944337   -2.184027   -1.799581
  O      3.444314   -1.046550   -1.056983
  P      2.554895    0.012289   -0.280683
  S      3.605620    1.610518    0.118668
  O      1.930177   -0.720226    0.996727
  C      2.571746   -0.688464    2.289545
  C      1.966666    0.382882    3.173834
  S      0.848277    0.243780   -1.495203
  C      0.196695    1.702602   -0.642666
  S     -0.617225    1.305711    0.923060
  P     -2.186578    0.171521    0.069451
  S     -2.906406    0.844807   -1.632406
  O     -3.197869   -0.034161    1.274933
  C     -3.722731    1.003588    2.122675
  C     -4.359220    2.136372    1.344156
  O     -1.558196   -1.281597   -0.013279
  C     -1.910232   -2.213263   -1.053639
  C     -3.302703   -2.767961   -0.838895
  H      1.349749   -2.748145   -0.473297
  H      1.949446   -4.047733   -1.517919
  H      2.901045   -3.523036   -0.119087
  H      2.276457   -1.814594   -2.582377
  H      3.844732   -2.604026   -2.250911
  H      2.406099   -1.684850    2.702691
  H      3.643968   -0.517919    2.153295
  H      2.430099    0.338052    4.154097
  H      2.141105    1.366819    2.743605
  H      0.895529    0.231015    3.270379
  H     -0.527077    2.155802   -1.320460
  H      1.015883    2.386210   -0.416856
  H     -4.456633    0.482279    2.740081
  H     -2.907820    1.376018    2.749788
  H     -5.119817    1.752948    0.668089
  H     -4.814459    2.837649    2.036103
  H     -3.606022    2.658300    0.755370
  H     -1.837181   -1.704962   -2.020813
  H     -1.148609   -2.991064   -0.987358
  H     -3.524040   -3.501158   -1.607941
  H     -3.376195   -3.231937    0.140855
  H     -4.029958   -1.958720   -0.898651

 Total Charge           Charge          ....    0
 Multiplicity           Mult            ....    1
 Number of Electrons    NEL             ....  202
 Basis Dimension        Dim             ....  334

ORBITAL ENERGIES
----------------

  NO   OCC          E(Eh)            E(eV)
   0   2.0000     -88.045223     -2395.8323
   1   2.0000     -88.045017     -2395.8267
   2   2.0000     -87.990575     -2394.3453
   3   2.0000     -87.983140     -2394.1430
   4   2.0000     -76.430304     -2079.7743
   5   2.0000     -76.425135     -2079.6337
   6   2.0000     -18.796944      -511.4908
   7   2.0000     -18.795061      -511.4396
   8   2.0000     -18.788807      -511.2694
   9   2.0000     -18.787244      -511.2269
  10   2.0000      -9.962650      -271.0975
  11   2.0000      -9.961795      -271.0742
  12   2.0000      -9.956983      -270.9433
  13   2.0000      -9.950832      -270.7759
  14   2.0000      -9.950179      -270.7581
  15   2.0000      -9.892757      -269.1956
  16   2.0000      -9.886219      -269.0177
  17   2.0000      -9.883060      -268.9317
  18   2.0000      -9.877049      -268.7682
  19   2.0000      -7.690365      -209.2655
  20   2.0000      -7.690221      -209.2616
  21   2.0000      -7.635444      -207.7710
  22   2.0000      -7.628504      -207.5821
  23   2.0000      -6.427448      -174.8998
  24   2.0000      -6.423066      -174.7805
  25   2.0000      -5.718100      -155.5974
  26   2.0000      -5.718000      -155.5947
  27   2.0000      -5.714930      -155.5111
  28   2.0000      -5.714891      -155.5101
  29   2.0000      -5.707360      -155.3052
  30   2.0000      -5.707073      -155.2973
  31   2.0000      -5.664268      -154.1326
  32   2.0000      -5.657577      -153.9505
  33   2.0000      -5.656134      -153.9112
  34   2.0000      -5.655664      -153.8984
  35   2.0000      -5.649415      -153.7284
  36   2.0000      -5.648138      -153.6936
  37   2.0000      -4.649899      -126.5302
  38   2.0000      -4.649356      -126.5154
  39   2.0000      -4.647952      -126.4772
  40   2.0000      -4.646003      -126.4242
  41   2.0000      -4.644565      -126.3850
  42   2.0000      -4.643431      -126.3542
  43   2.0000      -0.989059       -26.9137
  44   2.0000      -0.983091       -26.7513
  45   2.0000      -0.947170       -25.7738
  46   2.0000      -0.943814       -25.6825
  47   2.0000      -0.768730       -20.9182
  48   2.0000      -0.723833       -19.6965
  49   2.0000      -0.712073       -19.3765
  50   2.0000      -0.693031       -18.8583
  51   2.0000      -0.688071       -18.7234
  52   2.0000      -0.675770       -18.3886
  53   2.0000      -0.653455       -17.7814
  54   2.0000      -0.640623       -17.4322
  55   2.0000      -0.600640       -16.3443
  56   2.0000      -0.592183       -16.1141
  57   2.0000      -0.581227       -15.8160
  58   2.0000      -0.574383       -15.6297
  59   2.0000      -0.562048       -15.2941
  60   2.0000      -0.503205       -13.6929
  61   2.0000      -0.494604       -13.4589
  62   2.0000      -0.478108       -13.0100
  63   2.0000      -0.472589       -12.8598
  64   2.0000      -0.462419       -12.5831
  65   2.0000      -0.449559       -12.2331
  66   2.0000      -0.441167       -12.0048
  67   2.0000      -0.436895       -11.8885
  68   2.0000      -0.431348       -11.7376
  69   2.0000      -0.420040       -11.4299
  70   2.0000      -0.407685       -11.0937
  71   2.0000      -0.400990       -10.9115
  72   2.0000      -0.392304       -10.6751
  73   2.0000      -0.389694       -10.6041
  74   2.0000      -0.386349       -10.5131
  75   2.0000      -0.377228       -10.2649
  76   2.0000      -0.365126        -9.9356
  77   2.0000      -0.358764        -9.7625
  78   2.0000      -0.354960        -9.6589
  79   2.0000      -0.350069        -9.5259
  80   2.0000      -0.348830        -9.4921
  81   2.0000      -0.348274        -9.4770
  82   2.0000      -0.343815        -9.3557
  83   2.0000      -0.343221        -9.3395
  84   2.0000      -0.336095        -9.1456
  85   2.0000      -0.319664        -8.6985
  86   2.0000      -0.312756        -8.5105
  87   2.0000      -0.306679        -8.3452
  88   2.0000      -0.299774        -8.1573
  89   2.0000      -0.288615        -7.8536
  90   2.0000      -0.279778        -7.6131
  91   2.0000      -0.277850        -7.5607
  92   2.0000      -0.277203        -7.5431
  93   2.0000      -0.269584        -7.3357
  94   2.0000      -0.257312        -7.0018
  95   2.0000      -0.232501        -6.3267
  96   2.0000      -0.221871        -6.0374
  97   2.0000      -0.211720        -5.7612
  98   2.0000      -0.205034        -5.5793
  99   2.0000      -0.202120        -5.5000
 100   2.0000      -0.196028        -5.3342
 101   0.0000      -0.047638        -1.2963
 102   0.0000      -0.025797        -0.7020
 103   0.0000      -0.009655        -0.2627
 104   0.0000       0.000379         0.0103
 105   0.0000       0.008650         0.2354

MULLIKEN ATOMIC CHARGES
-----------------------
   0 C :   -0.333795
   1 C :   -0.024333
   2 O :   -0.370183
   3 P :    0.614198
   4 S :   -0.314472
   5 O :   -0.374784
   6 C :   -0.009026
   7 C :   -0.289168
   8 S :   -0.089791
   9 C :   -0.360084
  10 S :   -0.079711
  11 P :    0.606471
  12 S :   -0.332284
  13 O :   -0.370093
  14 C :   -0.012063
  15 C :   -0.310594
  16 O :   -0.352962
  17 C :   -0.015681
  18 C :   -0.297022
  19 H :    0.155585
  20 H :    0.114010
  21 H :    0.118497
  22 H :    0.122385
  23 H :    0.116307
  24 H :    0.101051
  25 H :    0.105135
  26 H :    0.105471
  27 H :    0.118932
  28 H :    0.117747
  29 H :    0.197426
  30 H :    0.189449
  31 H :    0.110697
  32 H :    0.114437
  33 H :    0.126303
  34 H :    0.112785
  35 H :    0.126522
  36 H :    0.111907
  37 H :    0.103822
  38 H :    0.109506
  39 H :    0.114220
  40 H :    0.123185
Sum of atomic charges:    0.0000000

LOEWDIN ATOMIC CHARGES
----------------------
   0 C :   -0.369840
   1 C :   -0.114156
   2 O :   -0.245867
   3 P :    0.571455
   4 S :   -0.314241
   5 O :   -0.251876
   6 C :   -0.116277
   7 C :   -0.364938
   8 S :    0.092914
   9 C :   -0.480550
  10 S :    0.096359
  11 P :    0.573767
  12 S :   -0.317385
  13 O :   -0.242619
  14 C :   -0.113480
  15 C :   -0.369247
  16 O :   -0.236193
  17 C :   -0.122594
  18 C :   -0.363669
  19 H :    0.127950
  20 H :    0.130636
  21 H :    0.127965
  22 H :    0.109637
  23 H :    0.124828
  24 H :    0.115938
  25 H :    0.108575
  26 H :    0.127351
  27 H :    0.120974
  28 H :    0.119601
  29 H :    0.131519
  30 H :    0.130094
  31 H :    0.122178
  32 H :    0.109884
  33 H :    0.129897
  34 H :    0.130725
  35 H :    0.121705
  36 H :    0.107048
  37 H :    0.114417
  38 H :    0.129453
  39 H :    0.125414
  40 H :    0.122650

  Mayer bond orders larger than 0.100000
B(  0-C ,  1-C ) :   1.1616 B(  0-C , 19-H ) :   0.9232 B(  0-C , 20-H ) :   0.9366
B(  0-C , 21-H ) :   0.9438 B(  1-C ,  2-O ) :   0.9098 B(  1-C , 22-H ) :   0.9200
B(  1-C , 23-H ) :   0.9349 B(  2-O ,  3-P ) :   1.1251 B(  3-P ,  4-S ) :   1.6230
B(  3-P ,  5-O ) :   1.0849 B(  3-P ,  8-S ) :   0.9633 B(  5-O ,  6-C ) :   0.9012
B(  6-C ,  7-C ) :   1.1722 B(  6-C , 24-H ) :   0.9318 B(  6-C , 25-H ) :   0.9138
B(  7-C , 26-H ) :   0.9385 B(  7-C , 27-H ) :   0.9371 B(  7-C , 28-H ) :   0.9417
B(  8-S ,  9-C ) :   1.0116 B(  9-C , 10-S ) :   1.0094 B(  9-C , 29-H ) :   0.8779
B(  9-C , 30-H ) :   0.8714 B( 10-S , 11-P ) :   0.9560 B( 10-S , 12-S ) :   0.1084
B( 11-P , 12-S ) :   1.5864 B( 11-P , 13-O ) :   1.1204 B( 11-P , 16-O ) :   1.1292
B( 13-O , 14-C ) :   0.9132 B( 14-C , 15-C ) :   1.1640 B( 14-C , 31-H ) :   0.9342
B( 14-C , 32-H ) :   0.9278 B( 15-C , 33-H ) :   0.9430 B( 15-C , 34-H ) :   0.9351
B( 15-C , 35-H ) :   0.9335 B( 16-O , 17-C ) :   0.9056 B( 17-C , 18-C ) :   1.1668
B( 17-C , 36-H ) :   0.9108 B( 17-C , 37-H ) :   0.9263 B( 18-C , 38-H ) :   0.9400
B( 18-C , 39-H ) :   0.9466 B( 18-C , 40-H ) :   0.9348

Dispersion correction           -0.066406992
FINAL SINGLE POINT ENERGY     -2929.516820414887

DIPOLE MOMENT
-------------

Method             : SCF
Type of density    : Electron Density
Multiplicity       :   1
Irrep              :   0
Energy             : -2929.6354764291891115 Eh
Relativity type    :
Basis              : AO
                                X                 Y                 Z
Electronic contribution:      9.500961778      12.740932605      -8.780809852
Nuclear contribution   :    -10.191756530     -14.157331012       9.572337985
                        -----------------------------------------
Total Dipole Moment    :     -0.690794752      -1.416398408       0.791528133
                        -----------------------------------------
Magnitude (a.u.)       :      1.763490466
Magnitude (Debye)      :      4.482436539

Rotational constants in cm-1:             0.011774             0.005421             0.004762
Rotational constants in MHz :           352.972137           162.503404           142.770661

                             ****ORCA TERMINATED NORMALLY****
TOTAL RUN TIME: 0 days 0 hours 0 minutes 21 seconds 736 msec
