                         Program Version 6.0.1  -  RELEASE   -
|  1> ! pbe def2-sv(p) def2/J RI DEFGRID1 loosescf d4 GCP(DFT/SV(P)) printgap
|  2> %output
|  3>     printlevel normal
|  4> end
|  5> * xyz 0 1
|  6> C 5.4011457777 -0.5746741697 -1.9298497859
|  7> C 4.6766867737 -0.8771763223 -0.6332478641
|  8> O 3.2819033602 -1.0763338274 -0.9363168195
|  9> C 2.4856951212 -1.4296876075 0.0506303121
| 10> O 2.8537018368 -1.6200444937 1.1879929015
| 11> C 1.0480270904 -1.5805482952 -0.4161019602
| 12> C 0.5548291546 -0.2805984176 -1.0570515443
| 13> H 1.1836826679 -0.0300881789 -1.9146293604
| 14> C 0.5791105865 0.8540704418 -0.0553440669
| 15> O -0.4386937113 1.4058653738 0.3218362518
| 16> O 1.7809434183 1.1347587601 0.3545280663
| 17> C 1.9486384523 2.1666884018 1.3555243301
| 18> C 2.0775600249 3.5320859748 0.7026558443
| 19> S -1.1450340323 -0.4264723007 -1.6999184397
| 20> P -2.3038773514 -0.1604929444 0.0474141428
| 21> S -1.7712196635 -0.7209831242 1.8641815111
| 22> O -3.1523366692 1.1930239715 -0.0268995056
| 23> C -2.9850878897 2.3455491072 0.797044527
| 24> O -3.4124244391 -1.1555700195 -0.5579923052
| 25> C -4.6090782759 -1.4646950196 0.159458745
| 26> H 6.4567021586 -0.4308078771 -1.7249081868
| 27> H 5.2811070603 -1.4001101329 -2.6248914869
| 28> H 4.9979949616 0.3260677723 -2.3820283675
| 29> H 4.754658922 -0.0515228446 0.080290167
| 30> H 5.0587829331 -1.7830705368 -0.1526890658
| 31> H 0.4320528083 -1.8499035042 0.4447470576
| 32> H 0.9969895588 -2.3761806638 -1.1600408253
| 33> H 1.094972188 2.129627314 2.0372667719
| 34> H 2.859755733 1.8820790917 1.8823119166
| 35> H 2.2597290362 4.2755082294 1.47145072
| 36> H 2.9040843704 3.5354740019 -0.0021585825
| 37> H 1.1603596575 3.7864345687 0.1767937859
| 38> H -2.3275989726 3.0555662968 0.300098137
| 39> H -2.5598949862 2.0610328292 1.7605499727
| 40> H -3.9802807172 2.7652088327 0.9280385852
| 41> H -5.0380286318 -2.3288812459 -0.3414726197
| 42> H -5.2960935395 -0.6197763461 0.1240326696
| 43> H -4.3717163692 -1.7060053888 1.1980689184
| 44> *
| 45>
| 46>                          ****END OF INPUT****

CARTESIAN COORDINATES (ANGSTROEM)
---------------------------------
  C      5.401146   -0.574674   -1.929850
  C      4.676687   -0.877176   -0.633248
  O      3.281903   -1.076334   -0.936317
  C      2.485695   -1.429688    0.050630
  O      2.853702   -1.620044    1.187993
  C      1.048027   -1.580548   -0.416102
  C      0.554829   -0.280598   -1.057052
  H      1.183683   -0.030088   -1.914629
  C      0.579111    0.854070   -0.055344
  O     -0.438694    1.405865    0.321836
  O      1.780943    1.134759    0.354528
  C      1.948638    2.166688    1.355524
  C      2.077560    3.532086    0.702656
  S     -1.145034   -0.426472   -1.699918
  P     -2.303877   -0.160493    0.047414
  S     -1.771220   -0.720983    1.864182
  O     -3.152337    1.193024   -0.026900
  C     -2.985088    2.345549    0.797045
  O     -3.412424   -1.155570   -0.557992
  C     -4.609078   -1.464695    0.159459
  H      6.456702   -0.430808   -1.724908
  H      5.281107   -1.400110   -2.624891
  H      4.997995    0.326068   -2.382028
  H      4.754659   -0.051523    0.080290
  H      5.058783   -1.783071   -0.152689
  H      0.432053   -1.849904    0.444747
  H      0.996990   -2.376181   -1.160041
  H      1.094972    2.129627    2.037267
  H      2.859756    1.882079    1.882312
  H      2.259729    4.275508    1.471451
  H      2.904084    3.535474   -0.002159
  H      1.160360    3.786435    0.176794
  H     -2.327599    3.055566    0.300098
  H     -2.559895    2.061033    1.760550
  H     -3.980281    2.765209    0.928039
  H     -5.038029   -2.328881   -0.341473
  H     -5.296094   -0.619776    0.124033
  H     -4.371716   -1.706005    1.198069

 Total Charge           Charge          ....    0
 Multiplicity           Mult            ....    1
 Number of Electrons    NEL             ....  174
 Basis Dimension        Dim             ....  316

ORBITAL ENERGIES
----------------

  NO   OCC          E(Eh)            E(eV)
   0   2.0000     -88.033129     -2395.5032
   1   2.0000     -87.969023     -2393.7588
   2   2.0000     -76.416663     -2079.4031
   3   2.0000     -18.833412      -512.4832
   4   2.0000     -18.804796      -511.7045
   5   2.0000     -18.779211      -511.0083
   6   2.0000     -18.768918      -510.7282
   7   2.0000     -18.767720      -510.6956
   8   2.0000     -18.737088      -509.8621
   9   2.0000     -10.037291      -273.1286
  10   2.0000     -10.009001      -272.3588
  11   2.0000      -9.964659      -271.1522
  12   2.0000      -9.954266      -270.8694
  13   2.0000      -9.953566      -270.8503
  14   2.0000      -9.932335      -270.2726
  15   2.0000      -9.927884      -270.1514
  16   2.0000      -9.907102      -269.5859
  17   2.0000      -9.902371      -269.4572
  18   2.0000      -9.895119      -269.2599
  19   2.0000      -7.678485      -208.9422
  20   2.0000      -7.613981      -207.1870
  21   2.0000      -6.412240      -174.4859
  22   2.0000      -5.706790      -155.2896
  23   2.0000      -5.703145      -155.1905
  24   2.0000      -5.694762      -154.9624
  25   2.0000      -5.643194      -153.5591
  26   2.0000      -5.634895      -153.3333
  27   2.0000      -5.633572      -153.2973
  28   2.0000      -4.634916      -126.1225
  29   2.0000      -4.634219      -126.1035
  30   2.0000      -4.632875      -126.0669
  31   2.0000      -1.043126       -28.3849
  32   2.0000      -1.012886       -27.5620
  33   2.0000      -0.967855       -26.3367
  34   2.0000      -0.947479       -25.7822
  35   2.0000      -0.922422       -25.1004
  36   2.0000      -0.913903       -24.8686
  37   2.0000      -0.770415       -20.9641
  38   2.0000      -0.721728       -19.6392
  39   2.0000      -0.716039       -19.4844
  40   2.0000      -0.688418       -18.7328
  41   2.0000      -0.651914       -17.7395
  42   2.0000      -0.631696       -17.1893
  43   2.0000      -0.618718       -16.8362
  44   2.0000      -0.614328       -16.7167
  45   2.0000      -0.589956       -16.0535
  46   2.0000      -0.569144       -15.4872
  47   2.0000      -0.518502       -14.1091
  48   2.0000      -0.516324       -14.0499
  49   2.0000      -0.505099       -13.7444
  50   2.0000      -0.488965       -13.3054
  51   2.0000      -0.468854       -12.7582
  52   2.0000      -0.457660       -12.4536
  53   2.0000      -0.457482       -12.4487
  54   2.0000      -0.446117       -12.1395
  55   2.0000      -0.434608       -11.8263
  56   2.0000      -0.433397       -11.7933
  57   2.0000      -0.415082       -11.2950
  58   2.0000      -0.410521       -11.1708
  59   2.0000      -0.402448       -10.9512
  60   2.0000      -0.402145       -10.9429
  61   2.0000      -0.397037       -10.8039
  62   2.0000      -0.388900       -10.5825
  63   2.0000      -0.382330       -10.4037
  64   2.0000      -0.372887       -10.1468
  65   2.0000      -0.368389       -10.0244
  66   2.0000      -0.366359        -9.9691
  67   2.0000      -0.357741        -9.7346
  68   2.0000      -0.357313        -9.7230
  69   2.0000      -0.350761        -9.5447
  70   2.0000      -0.343290        -9.3414
  71   2.0000      -0.332900        -9.0587
  72   2.0000      -0.324084        -8.8188
  73   2.0000      -0.312723        -8.5096
  74   2.0000      -0.311089        -8.4652
  75   2.0000      -0.300258        -8.1704
  76   2.0000      -0.292167        -7.9503
  77   2.0000      -0.288815        -7.8590
  78   2.0000      -0.274942        -7.4816
  79   2.0000      -0.263151        -7.1607
  80   2.0000      -0.260735        -7.0950
  81   2.0000      -0.257045        -6.9945
  82   2.0000      -0.245749        -6.6872
  83   2.0000      -0.224227        -6.1015
  84   2.0000      -0.208136        -5.6637
  85   2.0000      -0.188929        -5.1410
  86   2.0000      -0.181778        -4.9464
  87   0.0000      -0.052027        -1.4157
  88   0.0000      -0.040311        -1.0969
  89   0.0000      -0.020641        -0.5617
  90   0.0000       0.012669         0.3448
  91   0.0000       0.019214         0.5228

MULLIKEN ATOMIC CHARGES
-----------------------
   0 C :   -0.273738
   1 C :   -0.028263
   2 O :   -0.243348
   3 C :    0.096466
   4 O :   -0.195625
   5 C :   -0.034449
   6 C :   -0.338346
   7 H :    0.154963
   8 C :    0.236053
   9 O :   -0.201137
  10 O :   -0.215130
  11 C :   -0.013239
  12 C :   -0.309715
  13 S :   -0.057088
  14 P :    0.645586
  15 S :   -0.348928
  16 O :   -0.391010
  17 C :   -0.084967
  18 O :   -0.394244
  19 C :   -0.095044
  20 H :    0.112823
  21 H :    0.117766
  22 H :    0.112564
  23 H :    0.100329
  24 H :    0.110527
  25 H :    0.124632
  26 H :    0.122611
  27 H :    0.126579
  28 H :    0.119406
  29 H :    0.122658
  30 H :    0.117044
  31 H :    0.128531
  32 H :    0.110427
  33 H :    0.113808
  34 H :    0.114394
  35 H :    0.119220
  36 H :    0.105805
  37 H :    0.112080
Sum of atomic charges:   -0.0000000

LOEWDIN ATOMIC CHARGES
----------------------
   0 C :   -0.350897
   1 C :   -0.105738
   2 O :   -0.067768
   3 C :    0.017785
   4 O :   -0.158589
   5 C :   -0.247015
   6 C :   -0.269596
   7 H :    0.148886
   8 C :    0.035696
   9 O :   -0.149747
  10 O :   -0.023183
  11 C :   -0.103378
  12 C :   -0.354821
  13 S :    0.123816
  14 P :    0.588143
  15 S :   -0.344673
  16 O :   -0.252915
  17 C :   -0.212198
  18 O :   -0.271600
  19 C :   -0.216354
  20 H :    0.131323
  21 H :    0.128025
  22 H :    0.125217
  23 H :    0.113868
  24 H :    0.118984
  25 H :    0.137885
  26 H :    0.144828
  27 H :    0.128665
  28 H :    0.125334
  29 H :    0.135825
  30 H :    0.126493
  31 H :    0.130341
  32 H :    0.109859
  33 H :    0.107941
  34 H :    0.114922
  35 H :    0.119281
  36 H :    0.108206
  37 H :    0.107148

  Mayer bond orders larger than 0.100000
B(  0-C ,  1-C ) :   1.1505 B(  0-C , 20-H ) :   0.9441 B(  0-C , 21-H ) :   0.9500
B(  0-C , 22-H ) :   0.9497 B(  1-C ,  2-O ) :   0.9092 B(  1-C , 23-H ) :   0.9311
B(  1-C , 24-H ) :   0.9306 B(  2-O ,  3-C ) :   1.1916 B(  3-C ,  4-O ) :   2.0753
B(  3-C ,  5-C ) :   1.0235 B(  5-C ,  6-C ) :   1.0204 B(  5-C , 25-H ) :   0.8777
B(  5-C , 26-H ) :   0.8865 B(  6-C ,  7-H ) :   0.8675 B(  6-C ,  8-C ) :   0.9070
B(  6-C , 13-S ) :   1.0439 B(  8-C ,  9-O ) :   1.8970 B(  8-C , 10-O ) :   1.2793
B(  9-O , 14-P ) :   0.1369 B( 10-O , 11-C ) :   0.8873 B( 11-C , 12-C ) :   1.1730
B( 11-C , 27-H ) :   0.9152 B( 11-C , 28-H ) :   0.9327 B( 12-C , 29-H ) :   0.9434
B( 12-C , 30-H ) :   0.9477 B( 12-C , 31-H ) :   0.9456 B( 13-S , 14-P ) :   0.9312
B( 13-S , 15-S ) :   0.1095 B( 14-P , 15-S ) :   1.5553 B( 14-P , 16-O ) :   1.0895
B( 14-P , 18-O ) :   1.0708 B( 16-O , 17-C ) :   0.9338 B( 17-C , 32-H ) :   0.9538
B( 17-C , 33-H ) :   0.9340 B( 17-C , 34-H ) :   0.9544 B( 18-O , 19-C ) :   0.9423
B( 19-C , 35-H ) :   0.9609 B( 19-C , 36-H ) :   0.9511 B( 19-C , 37-H ) :   0.9321

Dispersion correction           -0.051368558
FINAL SINGLE POINT ENERGY     -1979.010576822944

DIPOLE MOMENT
-------------

Method             : SCF
Type of density    : Electron Density
Multiplicity       :   1
Irrep              :   0
Energy             : -1979.1425169798276329 Eh
Relativity type    :
Basis              : AO
                                X                 Y                 Z
Electronic contribution:    -15.853204164      -9.297860596      -0.723934885
Nuclear contribution   :     17.042681380      10.720524517       0.052557854
                        -----------------------------------------
Total Dipole Moment    :      1.189477216       1.422663921      -0.671377030
                        -----------------------------------------
Magnitude (a.u.)       :      1.972200749
Magnitude (Debye)      :      5.012935920

Rotational constants in cm-1:             0.016532             0.006043             0.005317
Rotational constants in MHz :           495.620939           181.175338           159.393235

                             ****ORCA TERMINATED NORMALLY****
TOTAL RUN TIME: 0 days 0 hours 0 minutes 28 seconds 216 msec
