                         Program Version 6.0.0  -   RELEASE  -
|  1> ! pbe def2-sv(p) def2/J RI DEFGRID1 loosescf d4 GCP(DFT/SV(P)) printgap
|  2> %output
|  3>     printlevel normal
|  4> end
|  5> * xyz 0 1
|  6> C 5.2254898648 -2.4787305143 -0.9927875659
|  7> C 4.1369025442 -1.4912004361 -1.3604007354
|  8> O 3.3776839188 -1.2061988559 -0.1658089898
|  9> P 2.398877856 0.0407755746 -0.0969297498
| 10> S 3.1770868269 1.7738565561 -0.5539886449
| 11> O 1.8711406668 -0.0085069859 1.3828851996
| 12> C 1.3511170084 -1.2148123784 1.9966917317
| 13> C 2.3994801048 -1.8433103424 2.8904861842
| 14> S 0.7816319759 -0.5813671426 -1.3529190273
| 15> C 0.0566333942 1.0600123415 -1.5392630097
| 16> S -0.6343444822 1.6965187882 0.0134672272
| 17> P -2.3570825427 0.4801570521 0.0053507655
| 18> S -3.2391193651 0.2401768082 -1.733219519
| 19> O -3.2793925446 1.1133036623 1.1331975783
| 20> C -4.1259762863 2.2549110098 0.8882234318
| 21> C -5.2875069125 2.1943748681 1.859892146
| 22> O -1.8419193079 -0.8329465064 0.7168349723
| 23> C -2.574491039 -2.0822201519 0.6269075049
| 24> C -1.5914065103 -3.2202948465 0.4461407591
| 25> H 4.7847891437 -3.3908342268 -0.6012750897
| 26> H 5.8061598139 -2.7125362572 -1.8789419865
| 27> H 5.8801705016 -2.0494776458 -0.239563937
| 28> H 3.45390919 -1.905433429 -2.1067613063
| 29> H 4.5549595695 -0.5526417374 -1.7382314133
| 30> H 0.479204557 -0.8826223826 2.5642931769
| 31> H 1.036531237 -1.9028874369 1.2078027856
| 32> H 1.9709964414 -2.7051321393 3.3925558915
| 33> H 3.2544862259 -2.1588414593 2.2984641347
| 34> H 2.7337716576 -1.1242435275 3.6332543112
| 35> H -0.7355845731 0.9819898444 -2.2845988107
| 36> H 0.8314198414 1.7624085579 -1.8475032626
| 37> H -3.5261905183 3.1564752936 1.0360058642
| 38> H -4.4713321021 2.2184655394 -0.1506169917
| 39> H -5.9179711121 3.0653979093 1.7145661011
| 40> H -5.8728538196 1.295485176 1.6878497665
| 41> H -4.9161766278 2.1843145983 2.8805168612
| 42> H -3.1455667938 -2.1846394366 1.5513983158
| 43> H -3.2640958994 -2.0217388952 -0.2217752406
| 44> H -0.9864708112 -3.0515352551 -0.4417792161
| 45> H -0.9421353257 -3.300079656 1.3128294013
| 46> H -2.1453931301 -4.1460583583 0.3276549742
| 47> *
| 48>
| 49>                          ****END OF INPUT****

CARTESIAN COORDINATES (ANGSTROEM)
---------------------------------
  C      5.225490   -2.478731   -0.992788
  C      4.136903   -1.491200   -1.360401
  O      3.377684   -1.206199   -0.165809
  P      2.398878    0.040776   -0.096930
  S      3.177087    1.773857   -0.553989
  O      1.871141   -0.008507    1.382885
  C      1.351117   -1.214812    1.996692
  C      2.399480   -1.843310    2.890486
  S      0.781632   -0.581367   -1.352919
  C      0.056633    1.060012   -1.539263
  S     -0.634344    1.696519    0.013467
  P     -2.357083    0.480157    0.005351
  S     -3.239119    0.240177   -1.733220
  O     -3.279393    1.113304    1.133198
  C     -4.125976    2.254911    0.888223
  C     -5.287507    2.194375    1.859892
  O     -1.841919   -0.832947    0.716835
  C     -2.574491   -2.082220    0.626908
  C     -1.591407   -3.220295    0.446141
  H      4.784789   -3.390834   -0.601275
  H      5.806160   -2.712536   -1.878942
  H      5.880171   -2.049478   -0.239564
  H      3.453909   -1.905433   -2.106761
  H      4.554960   -0.552642   -1.738231
  H      0.479205   -0.882622    2.564293
  H      1.036531   -1.902887    1.207803
  H      1.970996   -2.705132    3.392556
  H      3.254486   -2.158841    2.298464
  H      2.733772   -1.124244    3.633254
  H     -0.735585    0.981990   -2.284599
  H      0.831420    1.762409   -1.847503
  H     -3.526191    3.156475    1.036006
  H     -4.471332    2.218466   -0.150617
  H     -5.917971    3.065398    1.714566
  H     -5.872854    1.295485    1.687850
  H     -4.916177    2.184315    2.880517
  H     -3.145567   -2.184639    1.551398
  H     -3.264096   -2.021739   -0.221775
  H     -0.986471   -3.051535   -0.441779
  H     -0.942135   -3.300080    1.312829
  H     -2.145393   -4.146058    0.327655

 Total Charge           Charge          ....    0
 Multiplicity           Mult            ....    1
 Number of Electrons    NEL             ....  202
 Basis Dimension        Dim             ....  334

ORBITAL ENERGIES
----------------

  NO   OCC          E(Eh)            E(eV)
   0   2.0000     -88.041139     -2395.7212
   1   2.0000     -88.039816     -2395.6852
   2   2.0000     -87.988305     -2394.2835
   3   2.0000     -87.984146     -2394.1703
   4   2.0000     -76.426712     -2079.6766
   5   2.0000     -76.425564     -2079.6453
   6   2.0000     -18.798474      -511.5325
   7   2.0000     -18.794495      -511.4242
   8   2.0000     -18.794442      -511.4228
   9   2.0000     -18.791558      -511.3443
  10   2.0000      -9.956688      -270.9353
  11   2.0000      -9.955002      -270.8894
  12   2.0000      -9.953420      -270.8463
  13   2.0000      -9.953374      -270.8451
  14   2.0000      -9.949993      -270.7531
  15   2.0000      -9.892158      -269.1793
  16   2.0000      -9.890249      -269.1274
  17   2.0000      -9.889173      -269.0981
  18   2.0000      -9.886277      -269.0193
  19   2.0000      -7.686513      -209.1606
  20   2.0000      -7.684773      -209.1133
  21   2.0000      -7.633318      -207.7131
  22   2.0000      -7.629518      -207.6097
  23   2.0000      -6.424750      -174.8263
  24   2.0000      -6.423227      -174.7849
  25   2.0000      -5.714329      -155.4948
  26   2.0000      -5.712434      -155.4432
  27   2.0000      -5.711139      -155.4080
  28   2.0000      -5.709379      -155.3601
  29   2.0000      -5.703390      -155.1971
  30   2.0000      -5.701906      -155.1567
  31   2.0000      -5.662008      -154.0711
  32   2.0000      -5.658492      -153.9754
  33   2.0000      -5.653970      -153.8523
  34   2.0000      -5.653662      -153.8440
  35   2.0000      -5.650045      -153.7455
  36   2.0000      -5.649662      -153.7351
  37   2.0000      -4.647235      -126.4577
  38   2.0000      -4.646485      -126.4373
  39   2.0000      -4.646156      -126.4283
  40   2.0000      -4.645195      -126.4022
  41   2.0000      -4.644988      -126.3966
  42   2.0000      -4.643332      -126.3515
  43   2.0000      -0.991270       -26.9738
  44   2.0000      -0.988833       -26.9075
  45   2.0000      -0.947693       -25.7880
  46   2.0000      -0.947328       -25.7781
  47   2.0000      -0.764115       -20.7926
  48   2.0000      -0.724575       -19.7167
  49   2.0000      -0.713379       -19.4120
  50   2.0000      -0.694369       -18.8947
  51   2.0000      -0.691631       -18.8202
  52   2.0000      -0.674273       -18.3479
  53   2.0000      -0.647958       -17.6318
  54   2.0000      -0.637126       -17.3371
  55   2.0000      -0.596901       -16.2425
  56   2.0000      -0.589013       -16.0279
  57   2.0000      -0.572426       -15.5765
  58   2.0000      -0.569611       -15.4999
  59   2.0000      -0.561333       -15.2747
  60   2.0000      -0.514584       -14.0025
  61   2.0000      -0.505719       -13.7613
  62   2.0000      -0.484844       -13.1933
  63   2.0000      -0.481530       -13.1031
  64   2.0000      -0.457170       -12.4402
  65   2.0000      -0.446460       -12.1488
  66   2.0000      -0.443332       -12.0637
  67   2.0000      -0.437050       -11.8927
  68   2.0000      -0.434973       -11.8362
  69   2.0000      -0.415903       -11.3173
  70   2.0000      -0.404061       -10.9951
  71   2.0000      -0.395151       -10.7526
  72   2.0000      -0.390591       -10.6285
  73   2.0000      -0.383196       -10.4273
  74   2.0000      -0.381290       -10.3754
  75   2.0000      -0.378582       -10.3017
  76   2.0000      -0.366454        -9.9717
  77   2.0000      -0.360407        -9.8072
  78   2.0000      -0.359034        -9.7698
  79   2.0000      -0.355834        -9.6827
  80   2.0000      -0.352271        -9.5858
  81   2.0000      -0.348182        -9.4745
  82   2.0000      -0.344631        -9.3779
  83   2.0000      -0.343414        -9.3448
  84   2.0000      -0.336044        -9.1442
  85   2.0000      -0.320883        -8.7317
  86   2.0000      -0.313966        -8.5434
  87   2.0000      -0.303772        -8.2660
  88   2.0000      -0.301102        -8.1934
  89   2.0000      -0.293819        -7.9952
  90   2.0000      -0.291515        -7.9325
  91   2.0000      -0.281699        -7.6654
  92   2.0000      -0.272271        -7.4089
  93   2.0000      -0.264667        -7.2020
  94   2.0000      -0.258055        -7.0220
  95   2.0000      -0.235057        -6.3962
  96   2.0000      -0.219855        -5.9826
  97   2.0000      -0.211724        -5.7613
  98   2.0000      -0.203699        -5.5429
  99   2.0000      -0.201194        -5.4748
 100   2.0000      -0.198875        -5.4117
 101   0.0000      -0.043210        -1.1758
 102   0.0000      -0.022217        -0.6046
 103   0.0000      -0.001544        -0.0420
 104   0.0000       0.002338         0.0636
 105   0.0000       0.011740         0.3195

MULLIKEN ATOMIC CHARGES
-----------------------
   0 C :   -0.282650
   1 C :   -0.012057
   2 O :   -0.384834
   3 P :    0.596255
   4 S :   -0.312583
   5 O :   -0.344462
   6 C :   -0.023550
   7 C :   -0.287654
   8 S :   -0.097992
   9 C :   -0.382698
  10 S :   -0.061575
  11 P :    0.612335
  12 S :   -0.341693
  13 O :   -0.380178
  14 C :   -0.010360
  15 C :   -0.281738
  16 O :   -0.362864
  17 C :   -0.012841
  18 C :   -0.293350
  19 H :    0.115372
  20 H :    0.114672
  21 H :    0.123326
  22 H :    0.105524
  23 H :    0.108634
  24 H :    0.114116
  25 H :    0.111387
  26 H :    0.106878
  27 H :    0.118716
  28 H :    0.120619
  29 H :    0.193957
  30 H :    0.196910
  31 H :    0.105517
  32 H :    0.107806
  33 H :    0.113228
  34 H :    0.116544
  35 H :    0.117148
  36 H :    0.104909
  37 H :    0.109518
  38 H :    0.129825
  39 H :    0.118071
  40 H :    0.111812
Sum of atomic charges:   -0.0000000

LOEWDIN ATOMIC CHARGES
----------------------
   0 C :   -0.350487
   1 C :   -0.119416
   2 O :   -0.250038
   3 P :    0.566984
   4 S :   -0.309321
   5 O :   -0.227193
   6 C :   -0.114737
   7 C :   -0.358053
   8 S :    0.064187
   9 C :   -0.488364
  10 S :    0.094568
  11 P :    0.568283
  12 S :   -0.325551
  13 O :   -0.250886
  14 C :   -0.119299
  15 C :   -0.350541
  16 O :   -0.241643
  17 C :   -0.116554
  18 C :   -0.354596
  19 H :    0.125584
  20 H :    0.132278
  21 H :    0.129859
  22 H :    0.109400
  23 H :    0.111545
  24 H :    0.120614
  25 H :    0.104858
  26 H :    0.127796
  27 H :    0.125102
  28 H :    0.129163
  29 H :    0.127926
  30 H :    0.129400
  31 H :    0.112981
  32 H :    0.108173
  33 H :    0.131401
  34 H :    0.127232
  35 H :    0.126950
  36 H :    0.114898
  37 H :    0.107812
  38 H :    0.127133
  39 H :    0.121544
  40 H :    0.131010

  Mayer bond orders larger than 0.100000
B(  0-C ,  1-C ) :   1.1596 B(  0-C , 19-H ) :   0.9509 B(  0-C , 20-H ) :   0.9416
B(  0-C , 21-H ) :   0.9506 B(  1-C ,  2-O ) :   0.9024 B(  1-C , 22-H ) :   0.9277
B(  1-C , 23-H ) :   0.9114 B(  2-O ,  3-P ) :   1.0778 B(  3-P ,  4-S ) :   1.6526
B(  3-P ,  5-O ) :   1.1516 B(  3-P ,  8-S ) :   0.9460 B(  4-S ,  8-S ) :   0.1098
B(  5-O ,  6-C ) :   0.8872 B(  6-C ,  7-C ) :   1.1591 B(  6-C , 24-H ) :   0.9324
B(  6-C , 25-H ) :   0.9058 B(  7-C , 26-H ) :   0.9411 B(  7-C , 27-H ) :   0.9425
B(  7-C , 28-H ) :   0.9466 B(  8-S ,  9-C ) :   1.0070 B(  9-C , 10-S ) :   1.0042
B(  9-C , 29-H ) :   0.8696 B(  9-C , 30-H ) :   0.8721 B( 10-S , 11-P ) :   0.9797
B( 10-S , 12-S ) :   0.1081 B( 11-P , 12-S ) :   1.6018 B( 11-P , 13-O ) :   1.1137
B( 11-P , 16-O ) :   1.1318 B( 13-O , 14-C ) :   0.9032 B( 14-C , 15-C ) :   1.1616
B( 14-C , 31-H ) :   0.9313 B( 14-C , 32-H ) :   0.9067 B( 15-C , 33-H ) :   0.9418
B( 15-C , 34-H ) :   0.9512 B( 15-C , 35-H ) :   0.9508 B( 16-O , 17-C ) :   0.8932
B( 17-C , 18-C ) :   1.1695 B( 17-C , 36-H ) :   0.9326 B( 17-C , 37-H ) :   0.9009
B( 18-C , 38-H ) :   0.9418 B( 18-C , 39-H ) :   0.9419 B( 18-C , 40-H ) :   0.9385

Dispersion correction           -0.062765494
FINAL SINGLE POINT ENERGY     -2929.524648514066

DIPOLE MOMENT
-------------

Method             : SCF
Type of density    : Electron Density
Multiplicity       :   1
Irrep              :   0
Energy             : -2929.6456707349511817 Eh
Relativity type    :
Basis              : AO
                                X                 Y                 Z
Electronic contribution:      0.748598558      17.358742737     -10.828875675
Nuclear contribution   :     -1.104974625     -18.793078924      11.580494037
                        -----------------------------------------
Total Dipole Moment    :     -0.356376067      -1.434336187       0.751618362
                        -----------------------------------------
Magnitude (a.u.)       :      1.658087561
Magnitude (Debye)      :      4.214523646

Rotational constants in cm-1:             0.013079             0.004486             0.004220
Rotational constants in MHz :           392.086742           134.491734           126.511101

                             ****ORCA TERMINATED NORMALLY****
TOTAL RUN TIME: 0 days 0 hours 0 minutes 20 seconds 923 msec
