                         Program Version 6.0.0  -   RELEASE  -
|  1> ! pbe def2-sv(p) def2/J RI DEFGRID1 loosescf d4 GCP(DFT/SV(P)) printgap
|  2> %output
|  3>     printlevel normal
|  4> end
|  5> * xyz 0 1
|  6> C 4.8421220672 -1.4759896445 -0.0561911731
|  7> C 4.0940830616 -1.5579703206 -1.3686945923
|  8> O 3.2745377573 -0.391696475 -1.6233609504
|  9> P 2.1356484109 0.1854670716 -0.6958857238
| 10> S 1.0002200058 1.3955775033 -1.7340819031
| 11> O 2.9579773347 0.8468715816 0.4870593246
| 12> C 2.4748434658 1.8877055623 1.3510832681
| 13> C 3.6601411635 2.7358668109 1.7646657692
| 14> S 1.1993312604 -1.5338214556 0.1437203261
| 15> C -0.2332054404 -1.6557141286 -0.9812630352
| 16> S -1.8072374736 -1.829018914 -0.1132119313
| 17> P -2.0944842234 0.2100872052 0.4346607898
| 18> S -0.7414852748 0.9777385521 1.6249881858
| 19> O -3.5776611234 0.2465700674 0.9982761619
| 20> C -3.8815721164 -0.011509254 2.3816635581
| 21> C -3.5528081238 -1.434026813 2.7838531269
| 22> O -2.2034378921 1.0158895892 -0.9156916924
| 23> C -3.3836729901 1.144926858 -1.7455069482
| 24> C -3.8504796821 -0.1766702304 -2.3182398679
| 25> H 5.4256884444 -0.5604571097 -0.0105363847
| 26> H 4.1402322772 -1.4879041432 0.7758932572
| 27> H 5.5051941993 -2.3314498472 0.0281912735
| 28> H 3.4488494067 -2.4400382847 -1.3902019288
| 29> H 4.7732358337 -1.5723155364 -2.2223064252
| 30> H 1.7248661072 2.4787925637 0.8143685339
| 31> H 1.9916387841 1.4209286849 2.2135301376
| 32> H 4.1187332328 3.1879835114 0.8892605207
| 33> H 3.3172735308 3.5171039475 2.4348677938
| 34> H 4.3957809116 2.120270304 2.2738590566
| 35> H -0.1232952114 -2.5558430466 -1.5796936966
| 36> H -0.2517992141 -0.755674873 -1.6032237339
| 37> H -3.321826322 0.7006206107 2.9958118547
| 38> H -4.9506133935 0.1935658859 2.4529907152
| 39> H -3.9074019251 -1.6118535498 3.7939749741
| 40> H -4.0230103628 -2.1405927765 2.1046061996
| 41> H -2.4745439634 -1.5868255073 2.757576674
| 42> H -4.1685518702 1.6104707292 -1.1466500145
| 43> H -3.0547956123 1.8305634827 -2.5285391254
| 44> H -3.0452668138 -0.6604710662 -2.8656808288
| 45> H -4.1868681142 -0.8380673144 -1.5229525721
| 46> H -4.6769460049 0.0105829134 -2.9968857535
| 47> *
| 48>
| 49>                          ****END OF INPUT****

CARTESIAN COORDINATES (ANGSTROEM)
---------------------------------
  C      4.842122   -1.475990   -0.056191
  C      4.094083   -1.557970   -1.368695
  O      3.274538   -0.391696   -1.623361
  P      2.135648    0.185467   -0.695886
  S      1.000220    1.395578   -1.734082
  O      2.957977    0.846872    0.487059
  C      2.474843    1.887706    1.351083
  C      3.660141    2.735867    1.764666
  S      1.199331   -1.533821    0.143720
  C     -0.233205   -1.655714   -0.981263
  S     -1.807237   -1.829019   -0.113212
  P     -2.094484    0.210087    0.434661
  S     -0.741485    0.977739    1.624988
  O     -3.577661    0.246570    0.998276
  C     -3.881572   -0.011509    2.381664
  C     -3.552808   -1.434027    2.783853
  O     -2.203438    1.015890   -0.915692
  C     -3.383673    1.144927   -1.745507
  C     -3.850480   -0.176670   -2.318240
  H      5.425688   -0.560457   -0.010536
  H      4.140232   -1.487904    0.775893
  H      5.505194   -2.331450    0.028191
  H      3.448849   -2.440038   -1.390202
  H      4.773236   -1.572316   -2.222306
  H      1.724866    2.478793    0.814369
  H      1.991639    1.420929    2.213530
  H      4.118733    3.187984    0.889261
  H      3.317274    3.517104    2.434868
  H      4.395781    2.120270    2.273859
  H     -0.123295   -2.555843   -1.579694
  H     -0.251799   -0.755675   -1.603224
  H     -3.321826    0.700621    2.995812
  H     -4.950613    0.193566    2.452991
  H     -3.907402   -1.611854    3.793975
  H     -4.023010   -2.140593    2.104606
  H     -2.474544   -1.586826    2.757577
  H     -4.168552    1.610471   -1.146650
  H     -3.054796    1.830563   -2.528539
  H     -3.045267   -0.660471   -2.865681
  H     -4.186868   -0.838067   -1.522953
  H     -4.676946    0.010583   -2.996886

 Total Charge           Charge          ....    0
 Multiplicity           Mult            ....    1
 Number of Electrons    NEL             ....  202
 Basis Dimension        Dim             ....  334

ORBITAL ENERGIES
----------------

  NO   OCC          E(Eh)            E(eV)
   0   2.0000     -88.040701     -2395.7093
   1   2.0000     -88.034573     -2395.5425
   2   2.0000     -87.976907     -2393.9733
   3   2.0000     -87.973561     -2393.8823
   4   2.0000     -76.423940     -2079.6011
   5   2.0000     -76.417008     -2079.4125
   6   2.0000     -18.795715      -511.4574
   7   2.0000     -18.786326      -511.2019
   8   2.0000     -18.785099      -511.1685
   9   2.0000     -18.779663      -511.0206
  10   2.0000      -9.955321      -270.8981
  11   2.0000      -9.954132      -270.8657
  12   2.0000      -9.952232      -270.8140
  13   2.0000      -9.950584      -270.7692
  14   2.0000      -9.939940      -270.4795
  15   2.0000      -9.886152      -269.0159
  16   2.0000      -9.886052      -269.0132
  17   2.0000      -9.883941      -268.9557
  18   2.0000      -9.878898      -268.8185
  19   2.0000      -7.685647      -209.1371
  20   2.0000      -7.679356      -208.9659
  21   2.0000      -7.621922      -207.4030
  22   2.0000      -7.618834      -207.3190
  23   2.0000      -6.421153      -174.7285
  24   2.0000      -6.414502      -174.5475
  25   2.0000      -5.713343      -155.4680
  26   2.0000      -5.710268      -155.3843
  27   2.0000      -5.707196      -155.3007
  28   2.0000      -5.703946      -155.2123
  29   2.0000      -5.702692      -155.1781
  30   2.0000      -5.696336      -155.0052
  31   2.0000      -5.650872      -153.7680
  32   2.0000      -5.647891      -153.6869
  33   2.0000      -5.642685      -153.5453
  34   2.0000      -5.641877      -153.5233
  35   2.0000      -5.639656      -153.4628
  36   2.0000      -5.638577      -153.4335
  37   2.0000      -4.644425      -126.3812
  38   2.0000      -4.642767      -126.3361
  39   2.0000      -4.641154      -126.2922
  40   2.0000      -4.637174      -126.1839
  41   2.0000      -4.636277      -126.1595
  42   2.0000      -4.634877      -126.1214
  43   2.0000      -0.987831       -26.8803
  44   2.0000      -0.977741       -26.6057
  45   2.0000      -0.943776       -25.6815
  46   2.0000      -0.936114       -25.4730
  47   2.0000      -0.757450       -20.6113
  48   2.0000      -0.717126       -19.5140
  49   2.0000      -0.708300       -19.2738
  50   2.0000      -0.691622       -18.8200
  51   2.0000      -0.685896       -18.6642
  52   2.0000      -0.672791       -18.3076
  53   2.0000      -0.646433       -17.5903
  54   2.0000      -0.628334       -17.0978
  55   2.0000      -0.594847       -16.1866
  56   2.0000      -0.587004       -15.9732
  57   2.0000      -0.579471       -15.7682
  58   2.0000      -0.563526       -15.3343
  59   2.0000      -0.555930       -15.1276
  60   2.0000      -0.498145       -13.5552
  61   2.0000      -0.492886       -13.4121
  62   2.0000      -0.470569       -12.8048
  63   2.0000      -0.469693       -12.7810
  64   2.0000      -0.454075       -12.3560
  65   2.0000      -0.446681       -12.1548
  66   2.0000      -0.442080       -12.0296
  67   2.0000      -0.426906       -11.6167
  68   2.0000      -0.425425       -11.5764
  69   2.0000      -0.420549       -11.4437
  70   2.0000      -0.408132       -11.1058
  71   2.0000      -0.399271       -10.8647
  72   2.0000      -0.397301       -10.8111
  73   2.0000      -0.379549       -10.3280
  74   2.0000      -0.374534       -10.1916
  75   2.0000      -0.367865       -10.0101
  76   2.0000      -0.358370        -9.7517
  77   2.0000      -0.356120        -9.6905
  78   2.0000      -0.352120        -9.5817
  79   2.0000      -0.350125        -9.5274
  80   2.0000      -0.345354        -9.3976
  81   2.0000      -0.341926        -9.3043
  82   2.0000      -0.341412        -9.2903
  83   2.0000      -0.336646        -9.1606
  84   2.0000      -0.331144        -9.0109
  85   2.0000      -0.319204        -8.6860
  86   2.0000      -0.304235        -8.2787
  87   2.0000      -0.296358        -8.0643
  88   2.0000      -0.293359        -7.9827
  89   2.0000      -0.285096        -7.7579
  90   2.0000      -0.283065        -7.7026
  91   2.0000      -0.270842        -7.3700
  92   2.0000      -0.265737        -7.2311
  93   2.0000      -0.258060        -7.0222
  94   2.0000      -0.253131        -6.8881
  95   2.0000      -0.237012        -6.4494
  96   2.0000      -0.218983        -5.9588
  97   2.0000      -0.200227        -5.4485
  98   2.0000      -0.194273        -5.2864
  99   2.0000      -0.184202        -5.0124
 100   2.0000      -0.180354        -4.9077
 101   0.0000      -0.037443        -1.0189
 102   0.0000      -0.028118        -0.7651
 103   0.0000      -0.012432        -0.3383
 104   0.0000       0.003635         0.0989
 105   0.0000       0.031916         0.8685

MULLIKEN ATOMIC CHARGES
-----------------------
   0 C :   -0.307841
   1 C :   -0.000229
   2 O :   -0.361294
   3 P :    0.608811
   4 S :   -0.303264
   5 O :   -0.379312
   6 C :   -0.029621
   7 C :   -0.273681
   8 S :   -0.107221
   9 C :   -0.349397
  10 S :   -0.106893
  11 P :    0.619628
  12 S :   -0.320026
  13 O :   -0.384922
  14 C :    0.001752
  15 C :   -0.328526
  16 O :   -0.354134
  17 C :    0.008547
  18 C :   -0.318659
  19 H :    0.122363
  20 H :    0.121349
  21 H :    0.111065
  22 H :    0.102426
  23 H :    0.107676
  24 H :    0.123654
  25 H :    0.116377
  26 H :    0.116115
  27 H :    0.111067
  28 H :    0.109991
  29 H :    0.179167
  30 H :    0.195375
  31 H :    0.114327
  32 H :    0.104300
  33 H :    0.116299
  34 H :    0.118505
  35 H :    0.136047
  36 H :    0.107728
  37 H :    0.114220
  38 H :    0.122247
  39 H :    0.123658
  40 H :    0.112327
Sum of atomic charges:   -0.0000000

LOEWDIN ATOMIC CHARGES
----------------------
   0 C :   -0.366060
   1 C :   -0.116605
   2 O :   -0.242516
   3 P :    0.568793
   4 S :   -0.300010
   5 O :   -0.239331
   6 C :   -0.121810
   7 C :   -0.351849
   8 S :    0.063307
   9 C :   -0.483604
  10 S :    0.077418
  11 P :    0.575422
  12 S :   -0.307431
  13 O :   -0.246914
  14 C :   -0.117151
  15 C :   -0.373503
  16 O :   -0.230461
  17 C :   -0.106499
  18 C :   -0.369181
  19 H :    0.128683
  20 H :    0.119094
  21 H :    0.129954
  22 H :    0.104906
  23 H :    0.120992
  24 H :    0.110901
  25 H :    0.109773
  26 H :    0.127017
  27 H :    0.130611
  28 H :    0.123287
  29 H :    0.134585
  30 H :    0.121162
  31 H :    0.113720
  32 H :    0.118257
  33 H :    0.133139
  34 H :    0.123157
  35 H :    0.124557
  36 H :    0.114303
  37 H :    0.124521
  38 H :    0.126334
  39 H :    0.118366
  40 H :    0.130666

  Mayer bond orders larger than 0.100000
B(  0-C ,  1-C ) :   1.1706 B(  0-C , 19-H ) :   0.9441 B(  0-C , 20-H ) :   0.9378
B(  0-C , 21-H ) :   0.9360 B(  1-C ,  2-O ) :   0.9102 B(  1-C , 22-H ) :   0.9173
B(  1-C , 23-H ) :   0.9338 B(  2-O ,  3-P ) :   1.1302 B(  3-P ,  4-S ) :   1.6347
B(  3-P ,  5-O ) :   1.1072 B(  3-P ,  8-S ) :   0.9401 B(  4-S ,  8-S ) :   0.1139
B(  4-S , 30-H ) :   0.1167 B(  5-O ,  6-C ) :   0.8969 B(  6-C ,  7-C ) :   1.1516
B(  6-C , 24-H ) :   0.9090 B(  6-C , 25-H ) :   0.9273 B(  7-C , 26-H ) :   0.9497
B(  7-C , 27-H ) :   0.9425 B(  7-C , 28-H ) :   0.9506 B(  8-S ,  9-C ) :   0.9922
B(  9-C , 10-S ) :   1.0029 B(  9-C , 29-H ) :   0.9123 B(  9-C , 30-H ) :   0.8440
B( 10-S , 11-P ) :   0.9441 B( 10-S , 12-S ) :   0.1130 B( 11-P , 12-S ) :   1.6549
B( 11-P , 13-O ) :   1.0741 B( 11-P , 16-O ) :   1.1319 B( 13-O , 14-C ) :   0.9020
B( 14-C , 15-C ) :   1.1659 B( 14-C , 31-H ) :   0.9161 B( 14-C , 32-H ) :   0.9336
B( 15-C , 33-H ) :   0.9368 B( 15-C , 34-H ) :   0.9434 B( 15-C , 35-H ) :   0.9306
B( 16-O , 17-C ) :   0.8989 B( 17-C , 18-C ) :   1.1701 B( 17-C , 36-H ) :   0.9281
B( 17-C , 37-H ) :   0.9335 B( 18-C , 38-H ) :   0.9448 B( 18-C , 39-H ) :   0.9384
B( 18-C , 40-H ) :   0.9357

Dispersion correction           -0.066224039
FINAL SINGLE POINT ENERGY     -2929.508645835996

DIPOLE MOMENT
-------------

Method             : SCF
Type of density    : Electron Density
Multiplicity       :   1
Irrep              :   0
Energy             : -2929.6276637207342901 Eh
Relativity type    :
Basis              : AO
                                X                 Y                 Z
Electronic contribution:     -1.186806130       0.839335323      -5.294754868
Nuclear contribution   :      0.595991738      -1.679032580       5.537877219
                        -----------------------------------------
Total Dipole Moment    :     -0.590814392      -0.839697257       0.243122351
                        -----------------------------------------
Magnitude (a.u.)       :      1.055112130
Magnitude (Debye)      :      2.681881901

Rotational constants in cm-1:             0.012485             0.004983             0.004763
Rotational constants in MHz :           374.287031           149.377506           142.798305

                             ****ORCA TERMINATED NORMALLY****
TOTAL RUN TIME: 0 days 0 hours 0 minutes 21 seconds 224 msec
