                         Program Version 6.0.0  -   RELEASE  -
|  1> ! pbe def2-sv(p) def2/J RI DEFGRID1 loosescf d4 GCP(DFT/SV(P)) printgap
|  2> %output
|  3>     printlevel normal
|  4> end
|  5> * xyz 0 1
|  6> C 4.5980030698 -1.4310153885 -1.2618239922
|  7> C 4.7182686276 0.0053922741 -0.7953592547
|  8> O 3.678240717 0.3625108665 0.1305503065
|  9> P 2.1460000327 0.4581215245 -0.2977487998
| 10> S 1.8856887445 1.2272849839 -2.0871274238
| 11> O 1.5647621585 1.2554145145 0.9442145672
| 12> C 1.7622470928 2.6806948155 1.0680852845
| 13> C 0.8778670657 3.1759279029 2.1929253855
| 14> S 1.36261987 -1.4484473397 0.0996601541
| 15> C 0.0957638049 -1.5723840916 -1.2180592961
| 16> S -1.519206525 -2.0857121031 -0.5925730761
| 17> P -2.2100308209 -0.2642886075 0.2681478065
| 18> S -1.3378132163 1.3565213927 -0.4288325435
| 19> O -2.2533183339 -0.4236960163 1.8380003264
| 20> C -1.0918457934 -0.3810301278 2.6896291301
| 21> C -0.6750958143 -1.7825544074 3.0923918986
| 22> O -3.7726820447 -0.3367025697 0.0694840572
| 23> C -4.3558001796 -0.1667597457 -1.2393847204
| 24> C -5.8274203895 0.1423026598 -1.0532235155
| 25> H 4.5277579905 -2.1014217419 -0.409013295
| 26> H 3.7060952794 -1.545594084 -1.8766453948
| 27> H 5.4690209329 -1.6895171985 -1.8552913377
| 28> H 4.6703073482 0.6909696829 -1.6475079376
| 29> H 5.6376531323 0.1728569776 -0.2327850993
| 30> H 2.8201960928 2.8619780723 1.2744860043
| 31> H 1.4938507452 3.1488339481 0.1145331016
| 32> H -0.1652562372 2.9878481605 1.9503779059
| 33> H 1.1276713522 2.6622151927 3.116696337
| 34> H 1.0266110398 4.243328154 2.3182507513
| 35> H 0.4016685585 -2.3489831804 -1.9137779008
| 36> H 0.0178794599 -0.6014961896 -1.714288102
| 37> H -0.2796009478 0.1490927916 2.1812939234
| 38> H -1.4075138723 0.2003678157 3.5585245242
| 39> H -1.5152946497 -2.2991764163 3.5472583574
| 40> H -0.3378750939 -2.3498751425 2.2276865624
| 41> H 0.1396036514 -1.7180436444 3.8063616287
| 42> H -3.8372754825 0.6501179247 -1.7541290389
| 43> H -4.2113509129 -1.0936903214 -1.8014018715
| 44> H -5.9468449591 1.0640058644 -0.4909041098
| 45> H -6.2951584589 0.2513216516 -2.0261486585
| 46> H -6.3068819748 -0.6658181128 -0.5089845273
| 47> *
| 48>
| 49>                          ****END OF INPUT****

CARTESIAN COORDINATES (ANGSTROEM)
---------------------------------
  C      4.598003   -1.431015   -1.261824
  C      4.718269    0.005392   -0.795359
  O      3.678241    0.362511    0.130550
  P      2.146000    0.458122   -0.297749
  S      1.885689    1.227285   -2.087127
  O      1.564762    1.255415    0.944215
  C      1.762247    2.680695    1.068085
  C      0.877867    3.175928    2.192925
  S      1.362620   -1.448447    0.099660
  C      0.095764   -1.572384   -1.218059
  S     -1.519207   -2.085712   -0.592573
  P     -2.210031   -0.264289    0.268148
  S     -1.337813    1.356521   -0.428833
  O     -2.253318   -0.423696    1.838000
  C     -1.091846   -0.381030    2.689629
  C     -0.675096   -1.782554    3.092392
  O     -3.772682   -0.336703    0.069484
  C     -4.355800   -0.166760   -1.239385
  C     -5.827420    0.142303   -1.053224
  H      4.527758   -2.101422   -0.409013
  H      3.706095   -1.545594   -1.876645
  H      5.469021   -1.689517   -1.855291
  H      4.670307    0.690970   -1.647508
  H      5.637653    0.172857   -0.232785
  H      2.820196    2.861978    1.274486
  H      1.493851    3.148834    0.114533
  H     -0.165256    2.987848    1.950378
  H      1.127671    2.662215    3.116696
  H      1.026611    4.243328    2.318251
  H      0.401669   -2.348983   -1.913778
  H      0.017879   -0.601496   -1.714288
  H     -0.279601    0.149093    2.181294
  H     -1.407514    0.200368    3.558525
  H     -1.515295   -2.299176    3.547258
  H     -0.337875   -2.349875    2.227687
  H      0.139604   -1.718044    3.806362
  H     -3.837275    0.650118   -1.754129
  H     -4.211351   -1.093690   -1.801402
  H     -5.946845    1.064006   -0.490904
  H     -6.295158    0.251322   -2.026149
  H     -6.306882   -0.665818   -0.508985

 Total Charge           Charge          ....    0
 Multiplicity           Mult            ....    1
 Number of Electrons    NEL             ....  202
 Basis Dimension        Dim             ....  334

ORBITAL ENERGIES
----------------

  NO   OCC          E(Eh)            E(eV)
   0   2.0000     -88.046875     -2395.8773
   1   2.0000     -88.046515     -2395.8675
   2   2.0000     -87.986035     -2394.2217
   3   2.0000     -87.984358     -2394.1761
   4   2.0000     -76.425388     -2079.6405
   5   2.0000     -76.424667     -2079.6209
   6   2.0000     -18.790537      -511.3165
   7   2.0000     -18.790348      -511.3114
   8   2.0000     -18.787839      -511.2431
   9   2.0000     -18.786549      -511.2080
  10   2.0000      -9.957077      -270.9459
  11   2.0000      -9.951523      -270.7947
  12   2.0000      -9.950694      -270.7721
  13   2.0000      -9.947301      -270.6798
  14   2.0000      -9.946471      -270.6572
  15   2.0000      -9.886159      -269.0161
  16   2.0000      -9.883943      -268.9558
  17   2.0000      -9.880826      -268.8709
  18   2.0000      -9.877764      -268.7876
  19   2.0000      -7.691872      -209.3065
  20   2.0000      -7.691441      -209.2947
  21   2.0000      -7.630999      -207.6500
  22   2.0000      -7.628971      -207.5948
  23   2.0000      -6.422967      -174.7778
  24   2.0000      -6.422173      -174.7562
  25   2.0000      -5.719801      -155.6437
  26   2.0000      -5.719309      -155.6303
  27   2.0000      -5.716065      -155.5420
  28   2.0000      -5.715960      -155.5392
  29   2.0000      -5.709150      -155.3539
  30   2.0000      -5.708362      -155.3324
  31   2.0000      -5.659870      -154.0129
  32   2.0000      -5.657776      -153.9559
  33   2.0000      -5.651761      -153.7922
  34   2.0000      -5.651066      -153.7733
  35   2.0000      -5.649574      -153.7327
  36   2.0000      -5.649287      -153.7249
  37   2.0000      -4.645305      -126.4052
  38   2.0000      -4.644625      -126.3867
  39   2.0000      -4.644384      -126.3801
  40   2.0000      -4.644321      -126.3784
  41   2.0000      -4.643721      -126.3621
  42   2.0000      -4.642517      -126.3293
  43   2.0000      -0.988101       -26.8876
  44   2.0000      -0.985051       -26.8046
  45   2.0000      -0.942749       -25.6535
  46   2.0000      -0.941773       -25.6270
  47   2.0000      -0.763433       -20.7741
  48   2.0000      -0.722111       -19.6497
  49   2.0000      -0.710695       -19.3390
  50   2.0000      -0.685556       -18.6549
  51   2.0000      -0.682184       -18.5632
  52   2.0000      -0.676045       -18.3961
  53   2.0000      -0.648212       -17.6387
  54   2.0000      -0.633615       -17.2415
  55   2.0000      -0.599624       -16.3166
  56   2.0000      -0.591958       -16.1080
  57   2.0000      -0.570346       -15.5199
  58   2.0000      -0.561177       -15.2704
  59   2.0000      -0.555721       -15.1219
  60   2.0000      -0.505424       -13.7533
  61   2.0000      -0.500165       -13.6102
  62   2.0000      -0.473289       -12.8788
  63   2.0000      -0.470802       -12.8112
  64   2.0000      -0.452203       -12.3051
  65   2.0000      -0.445483       -12.1222
  66   2.0000      -0.438111       -11.9216
  67   2.0000      -0.436357       -11.8739
  68   2.0000      -0.425968       -11.5912
  69   2.0000      -0.422632       -11.5004
  70   2.0000      -0.407218       -11.0810
  71   2.0000      -0.395853       -10.7717
  72   2.0000      -0.393035       -10.6950
  73   2.0000      -0.388173       -10.5627
  74   2.0000      -0.373885       -10.1739
  75   2.0000      -0.371229       -10.1017
  76   2.0000      -0.365942        -9.9578
  77   2.0000      -0.356130        -9.6908
  78   2.0000      -0.352582        -9.5942
  79   2.0000      -0.350475        -9.5369
  80   2.0000      -0.345461        -9.4005
  81   2.0000      -0.341382        -9.2895
  82   2.0000      -0.337487        -9.1835
  83   2.0000      -0.333291        -9.0693
  84   2.0000      -0.330433        -8.9916
  85   2.0000      -0.317056        -8.6275
  86   2.0000      -0.311908        -8.4875
  87   2.0000      -0.301139        -8.1944
  88   2.0000      -0.296462        -8.0671
  89   2.0000      -0.292314        -7.9543
  90   2.0000      -0.283738        -7.7209
  91   2.0000      -0.270146        -7.3510
  92   2.0000      -0.265939        -7.2366
  93   2.0000      -0.264610        -7.2004
  94   2.0000      -0.258220        -7.0265
  95   2.0000      -0.238547        -6.4912
  96   2.0000      -0.221475        -6.0266
  97   2.0000      -0.215692        -5.8693
  98   2.0000      -0.205100        -5.5810
  99   2.0000      -0.199146        -5.4190
 100   2.0000      -0.189002        -5.1430
 101   0.0000      -0.044749        -1.2177
 102   0.0000      -0.037518        -1.0209
 103   0.0000      -0.013909        -0.3785
 104   0.0000       0.010102         0.2749
 105   0.0000       0.015965         0.4344

MULLIKEN ATOMIC CHARGES
-----------------------
   0 C :   -0.311854
   1 C :   -0.002408
   2 O :   -0.379460
   3 P :    0.623732
   4 S :   -0.317514
   5 O :   -0.360063
   6 C :   -0.006360
   7 C :   -0.290551
   8 S :   -0.101323
   9 C :   -0.347379
  10 S :   -0.115461
  11 P :    0.589849
  12 S :   -0.310970
  13 O :   -0.352179
  14 C :   -0.044760
  15 C :   -0.290324
  16 O :   -0.359545
  17 C :   -0.012210
  18 C :   -0.278344
  19 H :    0.117815
  20 H :    0.118970
  21 H :    0.112440
  22 H :    0.110309
  23 H :    0.103241
  24 H :    0.099298
  25 H :    0.110036
  26 H :    0.133660
  27 H :    0.109915
  28 H :    0.110147
  29 H :    0.182380
  30 H :    0.212776
  31 H :    0.142653
  32 H :    0.104401
  33 H :    0.110913
  34 H :    0.124273
  35 H :    0.105694
  36 H :    0.105796
  37 H :    0.101905
  38 H :    0.121631
  39 H :    0.111421
  40 H :    0.117451
Sum of atomic charges:    0.0000000

LOEWDIN ATOMIC CHARGES
----------------------
   0 C :   -0.368998
   1 C :   -0.120542
   2 O :   -0.249209
   3 P :    0.571525
   4 S :   -0.308036
   5 O :   -0.239281
   6 C :   -0.116495
   7 C :   -0.354675
   8 S :    0.092748
   9 C :   -0.477532
  10 S :    0.071433
  11 P :    0.560108
  12 S :   -0.299567
  13 O :   -0.232610
  14 C :   -0.121937
  15 C :   -0.361892
  16 O :   -0.236269
  17 C :   -0.121214
  18 C :   -0.349662
  19 H :    0.124018
  20 H :    0.118854
  21 H :    0.130389
  22 H :    0.109684
  23 H :    0.117729
  24 H :    0.109655
  25 H :    0.111248
  26 H :    0.127731
  27 H :    0.122842
  28 H :    0.129932
  29 H :    0.135895
  30 H :    0.126119
  31 H :    0.110575
  32 H :    0.118092
  33 H :    0.124120
  34 H :    0.112069
  35 H :    0.128729
  36 H :    0.108707
  37 H :    0.107999
  38 H :    0.129648
  39 H :    0.130548
  40 H :    0.127522

  Mayer bond orders larger than 0.100000
B(  0-C ,  1-C ) :   1.1650 B(  0-C , 19-H ) :   0.9443 B(  0-C , 20-H ) :   0.9369
B(  0-C , 21-H ) :   0.9382 B(  1-C ,  2-O ) :   0.9139 B(  1-C , 22-H ) :   0.9144
B(  1-C , 23-H ) :   0.9338 B(  2-O ,  3-P ) :   1.0960 B(  3-P ,  4-S ) :   1.6090
B(  3-P ,  5-O ) :   1.1210 B(  3-P ,  8-S ) :   0.9688 B(  4-S ,  8-S ) :   0.1168
B(  5-O ,  6-C ) :   0.9000 B(  6-C ,  7-C ) :   1.1633 B(  6-C , 24-H ) :   0.9297
B(  6-C , 25-H ) :   0.9150 B(  7-C , 26-H ) :   0.9399 B(  7-C , 27-H ) :   0.9488
B(  7-C , 28-H ) :   0.9413 B(  8-S ,  9-C ) :   0.9835 B(  9-C , 10-S ) :   1.0182
B(  9-C , 29-H ) :   0.9079 B(  9-C , 30-H ) :   0.8458 B( 10-S , 11-P ) :   0.9207
B( 10-S , 12-S ) :   0.1188 B( 11-P , 12-S ) :   1.6424 B( 11-P , 13-O ) :   1.1421
B( 11-P , 16-O ) :   1.1286 B( 13-O , 14-C ) :   0.8999 B( 14-C , 15-C ) :   1.1685
B( 14-C , 31-H ) :   0.8906 B( 14-C , 32-H ) :   0.9346 B( 15-C , 33-H ) :   0.9460
B( 15-C , 34-H ) :   0.9319 B( 15-C , 35-H ) :   0.9408 B( 16-O , 17-C ) :   0.9072
B( 17-C , 18-C ) :   1.1616 B( 17-C , 36-H ) :   0.9090 B( 17-C , 37-H ) :   0.9274
B( 18-C , 38-H ) :   0.9510 B( 18-C , 39-H ) :   0.9420 B( 18-C , 40-H ) :   0.9507

Dispersion correction           -0.065885686
FINAL SINGLE POINT ENERGY     -2929.524732277566

DIPOLE MOMENT
-------------

Method             : SCF
Type of density    : Electron Density
Multiplicity       :   1
Irrep              :   0
Energy             : -2929.6431036028593553 Eh
Relativity type    :
Basis              : AO
                                X                 Y                 Z
Electronic contribution:     -0.354843637      -2.763287864      -7.151658610
Nuclear contribution   :      0.724091853       2.371300429       7.536053124
                        -----------------------------------------
Total Dipole Moment    :      0.369248216      -0.391987435       0.384394514
                        -----------------------------------------
Magnitude (a.u.)       :      0.661632479
Magnitude (Debye)      :      1.681736111

Rotational constants in cm-1:             0.012150             0.005050             0.004873
Rotational constants in MHz :           364.240552           151.390421           146.076798

                             ****ORCA TERMINATED NORMALLY****
TOTAL RUN TIME: 0 days 0 hours 0 minutes 21 seconds 21 msec
