                         Program Version 6.0.0  -   RELEASE  -
|  1> ! pbe def2-sv(p) def2/J RI DEFGRID1 loosescf d4 GCP(DFT/SV(P)) printgap
|  2> %output
|  3>     printlevel normal
|  4> end
|  5> * xyz 0 1
|  6> C 5.6765086074 -0.3043661229 0.3388070747
|  7> C 4.4968922798 -1.1205866906 -0.1475023414
|  8> O 3.7169042802 -0.373114967 -1.1159999914
|  9> P 2.4252513248 0.4463403552 -0.7403749321
| 10> S 1.7138192139 1.3358138918 -2.3321335423
| 11> O 2.9366349845 1.3714383461 0.4412176791
| 12> C 2.0652539485 2.1920874256 1.2482645867
| 13> C 1.9514808671 1.597956668 2.6387631741
| 14> S 1.1292828959 -0.946781107 0.2180223367
| 15> C 0.0873593976 -1.3451170427 -1.2224908094
| 16> S -1.5313586388 -1.9482807019 -0.7225162546
| 17> P -2.4140861529 -0.124120614 -0.0110840103
| 18> S -1.3644246327 1.5122299762 -0.2285711591
| 19> O -2.8753310396 -0.5093963601 1.4606472854
| 20> C -1.9415711589 -0.7637730723 2.530358708
| 21> C -1.6555817758 0.5048809272 3.3091976091
| 22> O -3.781335134 -0.014396698 -0.7776203899
| 23> C -4.7704111791 -1.0757480404 -0.8032221659
| 24> C -5.8381263325 -0.8396908488 0.2448866158
| 25> H 6.2708039308 -0.908760785 1.0169540001
| 26> H 6.2907446276 -0.0003052494 -0.5043448886
| 27> H 5.3314754174 0.5862519932 0.8567481696
| 28> H 3.8453349654 -1.4131078172 0.6809948836
| 29> H 4.8251042547 -2.007809088 -0.6917554296
| 30> H 2.5357052844 3.176734782 1.2709418005
| 31> H 1.0876879621 2.2766907704 0.7642994305
| 32> H 1.5001826601 0.6097335318 2.5893881417
| 33> H 2.9363972524 1.5157642006 3.0891201963
| 34> H 1.3299019062 2.2447393367 3.2491956548
| 35> H 0.5484146601 -2.1494064507 -1.790955483
| 36> H -0.0127299407 -0.4390831062 -1.8265397512
| 37> H -2.4368040147 -1.5112476554 3.1527683117
| 38> H -1.0209940628 -1.1872520316 2.1157155296
| 39> H -1.2035071401 1.24875678 2.6573098757
| 40> H -2.578362941 0.912334172 3.7122970924
| 41> H -0.9743177865 0.2803166701 4.1232474211
| 42> H -5.1857029799 -1.0343016149 -1.8117388872
| 43> H -4.2650658899 -2.0335361398 -0.6513462177
| 44> H -6.5975337685 -1.6102786364 0.1562500043
| 45> H -5.4043334238 -0.8735331462 1.24025637
| 46> H -6.2958470937 0.1343620133 0.0952022801
| 47> *
| 48>
| 49>                          ****END OF INPUT****

CARTESIAN COORDINATES (ANGSTROEM)
---------------------------------
  C      5.676509   -0.304366    0.338807
  C      4.496892   -1.120587   -0.147502
  O      3.716904   -0.373115   -1.116000
  P      2.425251    0.446340   -0.740375
  S      1.713819    1.335814   -2.332134
  O      2.936635    1.371438    0.441218
  C      2.065254    2.192087    1.248265
  C      1.951481    1.597957    2.638763
  S      1.129283   -0.946781    0.218022
  C      0.087359   -1.345117   -1.222491
  S     -1.531359   -1.948281   -0.722516
  P     -2.414086   -0.124121   -0.011084
  S     -1.364425    1.512230   -0.228571
  O     -2.875331   -0.509396    1.460647
  C     -1.941571   -0.763773    2.530359
  C     -1.655582    0.504881    3.309198
  O     -3.781335   -0.014397   -0.777620
  C     -4.770411   -1.075748   -0.803222
  C     -5.838126   -0.839691    0.244887
  H      6.270804   -0.908761    1.016954
  H      6.290745   -0.000305   -0.504345
  H      5.331475    0.586252    0.856748
  H      3.845335   -1.413108    0.680995
  H      4.825104   -2.007809   -0.691755
  H      2.535705    3.176735    1.270942
  H      1.087688    2.276691    0.764299
  H      1.500183    0.609734    2.589388
  H      2.936397    1.515764    3.089120
  H      1.329902    2.244739    3.249196
  H      0.548415   -2.149406   -1.790955
  H     -0.012730   -0.439083   -1.826540
  H     -2.436804   -1.511248    3.152768
  H     -1.020994   -1.187252    2.115716
  H     -1.203507    1.248757    2.657310
  H     -2.578363    0.912334    3.712297
  H     -0.974318    0.280317    4.123247
  H     -5.185703   -1.034302   -1.811739
  H     -4.265066   -2.033536   -0.651346
  H     -6.597534   -1.610279    0.156250
  H     -5.404333   -0.873533    1.240256
  H     -6.295847    0.134362    0.095202

 Total Charge           Charge          ....    0
 Multiplicity           Mult            ....    1
 Number of Electrons    NEL             ....  202
 Basis Dimension        Dim             ....  334

ORBITAL ENERGIES
----------------

  NO   OCC          E(Eh)            E(eV)
   0   2.0000     -88.046281     -2395.8611
   1   2.0000     -88.040403     -2395.7012
   2   2.0000     -87.984617     -2394.1832
   3   2.0000     -87.976955     -2393.9747
   4   2.0000     -76.427011     -2079.6847
   5   2.0000     -76.421384     -2079.5316
   6   2.0000     -18.794424      -511.4223
   7   2.0000     -18.793888      -511.4077
   8   2.0000     -18.792546      -511.3712
   9   2.0000     -18.787000      -511.2203
  10   2.0000      -9.961327      -271.0615
  11   2.0000      -9.956912      -270.9414
  12   2.0000      -9.954639      -270.8795
  13   2.0000      -9.951888      -270.8046
  14   2.0000      -9.951669      -270.7987
  15   2.0000      -9.889271      -269.1007
  16   2.0000      -9.888415      -269.0774
  17   2.0000      -9.885128      -268.9880
  18   2.0000      -9.884265      -268.9645
  19   2.0000      -7.691127      -209.2862
  20   2.0000      -7.684796      -209.1139
  21   2.0000      -7.629404      -207.6066
  22   2.0000      -7.622250      -207.4120
  23   2.0000      -6.424524      -174.8202
  24   2.0000      -6.418962      -174.6688
  25   2.0000      -5.719035      -155.6229
  26   2.0000      -5.715499      -155.5266
  27   2.0000      -5.712553      -155.4465
  28   2.0000      -5.709447      -155.3619
  29   2.0000      -5.708287      -155.3304
  30   2.0000      -5.701899      -155.1566
  31   2.0000      -5.658522      -153.9762
  32   2.0000      -5.651345      -153.7809
  33   2.0000      -5.649769      -153.7380
  34   2.0000      -5.649609      -153.7337
  35   2.0000      -5.642715      -153.5461
  36   2.0000      -5.642352      -153.5362
  37   2.0000      -4.647274      -126.4587
  38   2.0000      -4.646358      -126.4338
  39   2.0000      -4.644760      -126.3903
  40   2.0000      -4.641825      -126.3105
  41   2.0000      -4.640853      -126.2840
  42   2.0000      -4.639007      -126.2338
  43   2.0000      -0.991038       -26.9675
  44   2.0000      -0.986171       -26.8351
  45   2.0000      -0.947745       -25.7895
  46   2.0000      -0.942741       -25.6533
  47   2.0000      -0.761211       -20.7136
  48   2.0000      -0.721645       -19.6370
  49   2.0000      -0.713147       -19.4057
  50   2.0000      -0.693523       -18.8717
  51   2.0000      -0.690893       -18.8002
  52   2.0000      -0.674905       -18.3651
  53   2.0000      -0.649599       -17.6765
  54   2.0000      -0.632768       -17.2185
  55   2.0000      -0.592544       -16.1239
  56   2.0000      -0.587304       -15.9814
  57   2.0000      -0.576569       -15.6892
  58   2.0000      -0.571753       -15.5582
  59   2.0000      -0.565606       -15.3909
  60   2.0000      -0.510251       -13.8846
  61   2.0000      -0.499515       -13.5925
  62   2.0000      -0.483278       -13.1507
  63   2.0000      -0.479609       -13.0508
  64   2.0000      -0.452019       -12.3001
  65   2.0000      -0.449075       -12.2200
  66   2.0000      -0.441280       -12.0078
  67   2.0000      -0.439506       -11.9596
  68   2.0000      -0.431822       -11.7505
  69   2.0000      -0.417926       -11.3723
  70   2.0000      -0.409041       -11.1306
  71   2.0000      -0.395534       -10.7630
  72   2.0000      -0.393048       -10.6954
  73   2.0000      -0.387716       -10.5503
  74   2.0000      -0.386269       -10.5109
  75   2.0000      -0.370692       -10.0870
  76   2.0000      -0.362192        -9.8557
  77   2.0000      -0.359563        -9.7842
  78   2.0000      -0.355172        -9.6647
  79   2.0000      -0.354762        -9.6536
  80   2.0000      -0.351172        -9.5559
  81   2.0000      -0.347672        -9.4606
  82   2.0000      -0.344609        -9.3773
  83   2.0000      -0.337897        -9.1946
  84   2.0000      -0.335150        -9.1199
  85   2.0000      -0.320318        -8.7163
  86   2.0000      -0.317291        -8.6339
  87   2.0000      -0.298071        -8.1109
  88   2.0000      -0.295420        -8.0388
  89   2.0000      -0.292282        -7.9534
  90   2.0000      -0.287962        -7.8359
  91   2.0000      -0.279645        -7.6095
  92   2.0000      -0.274773        -7.4769
  93   2.0000      -0.264962        -7.2100
  94   2.0000      -0.257985        -7.0201
  95   2.0000      -0.239974        -6.5300
  96   2.0000      -0.220799        -6.0083
  97   2.0000      -0.208245        -5.6666
  98   2.0000      -0.195388        -5.3168
  99   2.0000      -0.193606        -5.2683
 100   2.0000      -0.186284        -5.0691
 101   0.0000      -0.046968        -1.2781
 102   0.0000      -0.031386        -0.8541
 103   0.0000      -0.014280        -0.3886
 104   0.0000       0.005379         0.1464
 105   0.0000       0.011576         0.3150

MULLIKEN ATOMIC CHARGES
-----------------------
   0 C :   -0.290297
   1 C :   -0.010615
   2 O :   -0.355292
   3 P :    0.599990
   4 S :   -0.291974
   5 O :   -0.381396
   6 C :   -0.023662
   7 C :   -0.308282
   8 S :   -0.143798
   9 C :   -0.323418
  10 S :   -0.130960
  11 P :    0.593295
  12 S :   -0.287648
  13 O :   -0.378595
  14 C :   -0.019306
  15 C :   -0.300489
  16 O :   -0.351061
  17 C :   -0.018970
  18 C :   -0.289168
  19 H :    0.107311
  20 H :    0.120835
  21 H :    0.122849
  22 H :    0.096339
  23 H :    0.108380
  24 H :    0.110290
  25 H :    0.140273
  26 H :    0.127750
  27 H :    0.113095
  28 H :    0.117294
  29 H :    0.180668
  30 H :    0.212242
  31 H :    0.104121
  32 H :    0.113788
  33 H :    0.134891
  34 H :    0.113265
  35 H :    0.107809
  36 H :    0.115984
  37 H :    0.107883
  38 H :    0.110395
  39 H :    0.123198
  40 H :    0.122984
Sum of atomic charges:   -0.0000000

LOEWDIN ATOMIC CHARGES
----------------------
   0 C :   -0.360201
   1 C :   -0.115515
   2 O :   -0.238663
   3 P :    0.563352
   4 S :   -0.292000
   5 O :   -0.243796
   6 C :   -0.116916
   7 C :   -0.359853
   8 S :    0.052154
   9 C :   -0.479016
  10 S :    0.060236
  11 P :    0.562771
  12 S :   -0.279310
  13 O :   -0.248116
  14 C :   -0.117433
  15 C :   -0.363704
  16 O :   -0.232654
  17 C :   -0.111643
  18 C :   -0.359147
  19 H :    0.128113
  20 H :    0.129440
  21 H :    0.125588
  22 H :    0.100549
  23 H :    0.120621
  24 H :    0.121466
  25 H :    0.110535
  26 H :    0.118088
  27 H :    0.123888
  28 H :    0.131418
  29 H :    0.135316
  30 H :    0.124591
  31 H :    0.117307
  32 H :    0.099309
  33 H :    0.123662
  34 H :    0.126115
  35 H :    0.127267
  36 H :    0.124130
  37 H :    0.104802
  38 H :    0.129788
  39 H :    0.126817
  40 H :    0.130643

  Mayer bond orders larger than 0.100000
B(  0-C ,  1-C ) :   1.1632 B(  0-C , 19-H ) :   0.9400 B(  0-C , 20-H ) :   0.9466
B(  0-C , 21-H ) :   0.9409 B(  1-C ,  2-O ) :   0.8982 B(  1-C , 22-H ) :   0.9118
B(  1-C , 23-H ) :   0.9366 B(  2-O ,  3-P ) :   1.1336 B(  3-P ,  4-S ) :   1.6758
B(  3-P ,  5-O ) :   1.0908 B(  3-P ,  8-S ) :   0.9344 B(  4-S ,  8-S ) :   0.1174
B(  5-O ,  6-C ) :   0.8878 B(  6-C ,  7-C ) :   1.1671 B(  6-C , 24-H ) :   0.9328
B(  6-C , 25-H ) :   0.9001 B(  7-C , 26-H ) :   0.9358 B(  7-C , 27-H ) :   0.9457
B(  7-C , 28-H ) :   0.9372 B(  8-S ,  9-C ) :   0.9774 B(  9-C , 10-S ) :   1.0146
B(  9-C , 29-H ) :   0.9086 B(  9-C , 30-H ) :   0.8477 B( 10-S , 11-P ) :   0.9288
B( 10-S , 12-S ) :   0.1165 B( 11-P , 12-S ) :   1.6689 B( 11-P , 13-O ) :   1.0753
B( 11-P , 16-O ) :   1.1487 B( 13-O , 14-C ) :   0.9029 B( 14-C , 15-C ) :   1.1697
B( 14-C , 31-H ) :   0.9354 B( 14-C , 32-H ) :   0.9037 B( 15-C , 33-H ) :   0.9246
B( 15-C , 34-H ) :   0.9448 B( 15-C , 35-H ) :   0.9373 B( 16-O , 17-C ) :   0.8915
B( 17-C , 18-C ) :   1.1652 B( 17-C , 36-H ) :   0.9354 B( 17-C , 37-H ) :   0.9160
B( 18-C , 38-H ) :   0.9393 B( 18-C , 39-H ) :   0.9412 B( 18-C , 40-H ) :   0.9464

Dispersion correction           -0.064745996
FINAL SINGLE POINT ENERGY     -2929.514190612999

DIPOLE MOMENT
-------------

Method             : SCF
Type of density    : Electron Density
Multiplicity       :   1
Irrep              :   0
Energy             : -2929.6344071344410622 Eh
Relativity type    :
Basis              : AO
                                X                 Y                 Z
Electronic contribution:     -0.717038002       0.982055276     -21.018788013
Nuclear contribution   :      0.485500489      -2.327486536      22.801699944
                        -----------------------------------------
Total Dipole Moment    :     -0.231537513      -1.345431260       1.782911931
                        -----------------------------------------
Magnitude (a.u.)       :      2.245566710
Magnitude (Debye)      :      5.707776973

Rotational constants in cm-1:             0.014155             0.004555             0.004249
Rotational constants in MHz :           424.346068           136.558774           127.392813

                             ****ORCA TERMINATED NORMALLY****
TOTAL RUN TIME: 0 days 0 hours 0 minutes 21 seconds 8 msec
