                         Program Version 6.0.0  -   RELEASE  -
|  1> ! pbe def2-sv(p) def2/J RI DEFGRID1 loosescf d4 GCP(DFT/SV(P)) printgap
|  2> %output
|  3>     printlevel normal
|  4> end
|  5> * xyz 0 1
|  6> C 5.7043944758 0.531098961 -1.0480640885
|  7> C 4.2654398936 0.1481450813 -1.3277717076
|  8> O 3.5550696217 0.1574570771 -0.0721684252
|  9> P 1.9699162289 0.1062487196 -0.0233261696
| 10> S 1.0449623234 1.5023949 -1.0426054836
| 11> O 1.6647977794 0.1975239655 1.5178774108
| 12> C 2.2501660127 -0.6977391201 2.5021414268
| 13> C 3.4458112792 -0.0481338783 3.1660451424
| 14> S 1.5718731955 -1.8985991439 -0.6173694138
| 15> C -0.1967391545 -1.7272039491 -0.9393250716
| 16> S -1.1144170415 -1.1471553216 0.5216275407
| 17> P -2.2805956166 0.4145715813 -0.3425149501
| 18> S -2.2522271925 0.5578855409 -2.2933884295
| 19> O -1.8809986465 1.7555458906 0.3791748732
| 20> C -1.4247468454 1.9177302059 1.741623783
| 21> C -2.3570051946 1.2879378532 2.7532274396
| 22> O -3.7377129044 0.167354012 0.25383188
| 23> C -4.7139706117 -0.6673450009 -0.3896598082
| 24> C -4.2939898581 -2.1226943709 -0.4375474312
| 25> H 5.7482937206 1.5242850659 -0.6100366152
| 26> H 6.1510638175 -0.1802358849 -0.3596345513
| 27> H 6.2605156699 0.5265147179 -1.9796655357
| 28> H 4.1938972367 -0.8564221536 -1.7533449621
| 29> H 3.7824178562 0.8594533905 -2.0057553857
| 30> H 1.4437676951 -0.8826443098 3.2138515989
| 31> H 2.5276876603 -1.6324451885 2.007836683
| 32> H 4.2259618601 0.1405739794 2.433610343
| 33> H 3.1556634095 0.8956815046 3.6191927936
| 34> H 3.8276342086 -0.7128478846 3.9345216805
| 35> H -0.54737237 -2.7216900029 -1.2044826207
| 36> H -0.365124976 -1.017738898 -1.7550316857
| 37> H -0.4162449087 1.498746501 1.8126835044
| 38> H -1.3723911717 3.0018505798 1.8551638555
| 39> H -2.0019588196 1.5194546877 3.7526753165
| 40> H -3.3638337938 1.6773296785 2.6267355766
| 41> H -2.378504822 0.2067231994 2.6242665174
| 42> H -5.6118288678 -0.5263737154 0.2136776834
| 43> H -4.8807284845 -0.2845419781 -1.4014422182
| 44> H -3.4461793111 -2.2388329353 -1.1113901786
| 45> H -4.0129069156 -2.4708595214 0.5530156335
| 46> H -5.1201954356 -2.7198525489 -0.8096797276
| 47> *
| 48>
| 49>                          ****END OF INPUT****

CARTESIAN COORDINATES (ANGSTROEM)
---------------------------------
  C      5.704394    0.531099   -1.048064
  C      4.265440    0.148145   -1.327772
  O      3.555070    0.157457   -0.072168
  P      1.969916    0.106249   -0.023326
  S      1.044962    1.502395   -1.042605
  O      1.664798    0.197524    1.517877
  C      2.250166   -0.697739    2.502141
  C      3.445811   -0.048134    3.166045
  S      1.571873   -1.898599   -0.617369
  C     -0.196739   -1.727204   -0.939325
  S     -1.114417   -1.147155    0.521628
  P     -2.280596    0.414572   -0.342515
  S     -2.252227    0.557886   -2.293388
  O     -1.880999    1.755546    0.379175
  C     -1.424747    1.917730    1.741624
  C     -2.357005    1.287938    2.753227
  O     -3.737713    0.167354    0.253832
  C     -4.713971   -0.667345   -0.389660
  C     -4.293990   -2.122694   -0.437547
  H      5.748294    1.524285   -0.610037
  H      6.151064   -0.180236   -0.359635
  H      6.260516    0.526515   -1.979666
  H      4.193897   -0.856422   -1.753345
  H      3.782418    0.859453   -2.005755
  H      1.443768   -0.882644    3.213852
  H      2.527688   -1.632445    2.007837
  H      4.225962    0.140574    2.433610
  H      3.155663    0.895682    3.619193
  H      3.827634   -0.712848    3.934522
  H     -0.547372   -2.721690   -1.204483
  H     -0.365125   -1.017739   -1.755032
  H     -0.416245    1.498747    1.812684
  H     -1.372391    3.001851    1.855164
  H     -2.001959    1.519455    3.752675
  H     -3.363834    1.677330    2.626736
  H     -2.378505    0.206723    2.624267
  H     -5.611829   -0.526374    0.213678
  H     -4.880728   -0.284542   -1.401442
  H     -3.446179   -2.238833   -1.111390
  H     -4.012907   -2.470860    0.553016
  H     -5.120195   -2.719853   -0.809680

 Total Charge           Charge          ....    0
 Multiplicity           Mult            ....    1
 Number of Electrons    NEL             ....  202
 Basis Dimension        Dim             ....  334

ORBITAL ENERGIES
----------------

  NO   OCC          E(Eh)            E(eV)
   0   2.0000     -88.044654     -2395.8168
   1   2.0000     -88.040614     -2395.7069
   2   2.0000     -87.980236     -2394.0639
   3   2.0000     -87.976886     -2393.9728
   4   2.0000     -76.425451     -2079.6422
   5   2.0000     -76.419765     -2079.4875
   6   2.0000     -18.796536      -511.4798
   7   2.0000     -18.796201      -511.4706
   8   2.0000     -18.782062      -511.0859
   9   2.0000     -18.780542      -511.0445
  10   2.0000      -9.959790      -271.0197
  11   2.0000      -9.956258      -270.9236
  12   2.0000      -9.953210      -270.8406
  13   2.0000      -9.946078      -270.6465
  14   2.0000      -9.944397      -270.6008
  15   2.0000      -9.891981      -269.1745
  16   2.0000      -9.890571      -269.1361
  17   2.0000      -9.883230      -268.9364
  18   2.0000      -9.880432      -268.8602
  19   2.0000      -7.689815      -209.2505
  20   2.0000      -7.684814      -209.1144
  21   2.0000      -7.624991      -207.4865
  22   2.0000      -7.622136      -207.4089
  23   2.0000      -6.422900      -174.7760
  24   2.0000      -6.416744      -174.6085
  25   2.0000      -5.717629      -155.5846
  26   2.0000      -5.714134      -155.4895
  27   2.0000      -5.712694      -155.4503
  28   2.0000      -5.709365      -155.3597
  29   2.0000      -5.707071      -155.2973
  30   2.0000      -5.701840      -155.1550
  31   2.0000      -5.654128      -153.8567
  32   2.0000      -5.651149      -153.7756
  33   2.0000      -5.645463      -153.6209
  34   2.0000      -5.645131      -153.6118
  35   2.0000      -5.642821      -153.5490
  36   2.0000      -5.642070      -153.5285
  37   2.0000      -4.645765      -126.4177
  38   2.0000      -4.644825      -126.3921
  39   2.0000      -4.642890      -126.3395
  40   2.0000      -4.639379      -126.2439
  41   2.0000      -4.638525      -126.2207
  42   2.0000      -4.637239      -126.1857
  43   2.0000      -0.992430       -27.0054
  44   2.0000      -0.977167       -26.5901
  45   2.0000      -0.949604       -25.8401
  46   2.0000      -0.934742       -25.4356
  47   2.0000      -0.761510       -20.7218
  48   2.0000      -0.720658       -19.6101
  49   2.0000      -0.708177       -19.2705
  50   2.0000      -0.696450       -18.9514
  51   2.0000      -0.683775       -18.6065
  52   2.0000      -0.675898       -18.3921
  53   2.0000      -0.646772       -17.5996
  54   2.0000      -0.631311       -17.1788
  55   2.0000      -0.594418       -16.1749
  56   2.0000      -0.588766       -16.0211
  57   2.0000      -0.573740       -15.6123
  58   2.0000      -0.569151       -15.4874
  59   2.0000      -0.564150       -15.3513
  60   2.0000      -0.511179       -13.9099
  61   2.0000      -0.487052       -13.2533
  62   2.0000      -0.484228       -13.1765
  63   2.0000      -0.462239       -12.5782
  64   2.0000      -0.449485       -12.2311
  65   2.0000      -0.446715       -12.1557
  66   2.0000      -0.444446       -12.0940
  67   2.0000      -0.434488       -11.8230
  68   2.0000      -0.433721       -11.8021
  69   2.0000      -0.420437       -11.4407
  70   2.0000      -0.408613       -11.1189
  71   2.0000      -0.393787       -10.7155
  72   2.0000      -0.390345       -10.6218
  73   2.0000      -0.386884       -10.5277
  74   2.0000      -0.384271       -10.4565
  75   2.0000      -0.365557        -9.9473
  76   2.0000      -0.362872        -9.8742
  77   2.0000      -0.359467        -9.7816
  78   2.0000      -0.356285        -9.6950
  79   2.0000      -0.352045        -9.5796
  80   2.0000      -0.349717        -9.5163
  81   2.0000      -0.347030        -9.4432
  82   2.0000      -0.342060        -9.3079
  83   2.0000      -0.340654        -9.2697
  84   2.0000      -0.332065        -9.0360
  85   2.0000      -0.320454        -8.7200
  86   2.0000      -0.304185        -8.2773
  87   2.0000      -0.302210        -8.2236
  88   2.0000      -0.297019        -8.0823
  89   2.0000      -0.287577        -7.8254
  90   2.0000      -0.283055        -7.7023
  91   2.0000      -0.278688        -7.5835
  92   2.0000      -0.265405        -7.2220
  93   2.0000      -0.261220        -7.1082
  94   2.0000      -0.254397        -6.9225
  95   2.0000      -0.236458        -6.4344
  96   2.0000      -0.216377        -5.8879
  97   2.0000      -0.207654        -5.6506
  98   2.0000      -0.197660        -5.3786
  99   2.0000      -0.193910        -5.2765
 100   2.0000      -0.181914        -4.9501
 101   0.0000      -0.043433        -1.1819
 102   0.0000      -0.031958        -0.8696
 103   0.0000      -0.006442        -0.1753
 104   0.0000       0.010971         0.2985
 105   0.0000       0.018339         0.4990

MULLIKEN ATOMIC CHARGES
-----------------------
   0 C :   -0.283186
   1 C :   -0.012028
   2 O :   -0.381880
   3 P :    0.583336
   4 S :   -0.280201
   5 O :   -0.348758
   6 C :   -0.008897
   7 C :   -0.290596
   8 S :   -0.115524
   9 C :   -0.337426
  10 S :   -0.137682
  11 P :    0.610694
  12 S :   -0.298816
  13 O :   -0.351240
  14 C :   -0.019464
  15 C :   -0.315076
  16 O :   -0.375698
  17 C :    0.003292
  18 C :   -0.313473
  19 H :    0.123227
  20 H :    0.115093
  21 H :    0.115182
  22 H :    0.105212
  23 H :    0.109860
  24 H :    0.108243
  25 H :    0.102717
  26 H :    0.124294
  27 H :    0.118400
  28 H :    0.110694
  29 H :    0.179724
  30 H :    0.209400
  31 H :    0.135167
  32 H :    0.107572
  33 H :    0.109924
  34 H :    0.122302
  35 H :    0.120171
  36 H :    0.101235
  37 H :    0.111138
  38 H :    0.117299
  39 H :    0.115564
  40 H :    0.110203
Sum of atomic charges:    0.0000000

LOEWDIN ATOMIC CHARGES
----------------------
   0 C :   -0.350647
   1 C :   -0.119959
   2 O :   -0.250197
   3 P :    0.556036
   4 S :   -0.287464
   5 O :   -0.229925
   6 C :   -0.115026
   7 C :   -0.359403
   8 S :    0.060913
   9 C :   -0.479116
  10 S :    0.062942
  11 P :    0.576695
  12 S :   -0.296992
  13 O :   -0.225895
  14 C :   -0.118480
  15 C :   -0.367229
  16 O :   -0.248285
  17 C :   -0.118179
  18 C :   -0.371058
  19 H :    0.129888
  20 H :    0.125251
  21 H :    0.132493
  22 H :    0.108827
  23 H :    0.112400
  24 H :    0.119094
  25 H :    0.104317
  26 H :    0.126963
  27 H :    0.128111
  28 H :    0.129982
  29 H :    0.133552
  30 H :    0.125990
  31 H :    0.112193
  32 H :    0.122927
  33 H :    0.129626
  34 H :    0.128473
  35 H :    0.113941
  36 H :    0.116997
  37 H :    0.111261
  38 H :    0.117849
  39 H :    0.122009
  40 H :    0.129129

  Mayer bond orders larger than 0.100000
B(  0-C ,  1-C ) :   1.1595 B(  0-C , 19-H ) :   0.9508 B(  0-C , 20-H ) :   0.9507
B(  0-C , 21-H ) :   0.9417 B(  1-C ,  2-O ) :   0.9023 B(  1-C , 22-H ) :   0.9275
B(  1-C , 23-H ) :   0.9111 B(  2-O ,  3-P ) :   1.0783 B(  3-P ,  4-S ) :   1.6822
B(  3-P ,  5-O ) :   1.1126 B(  3-P ,  8-S ) :   0.9443 B(  4-S ,  8-S ) :   0.1096
B(  5-O ,  6-C ) :   0.8848 B(  6-C ,  7-C ) :   1.1657 B(  6-C , 24-H ) :   0.9346
B(  6-C , 25-H ) :   0.9108 B(  7-C , 26-H ) :   0.9410 B(  7-C , 27-H ) :   0.9474
B(  7-C , 28-H ) :   0.9398 B(  8-S ,  9-C ) :   0.9975 B(  9-C , 10-S ) :   0.9988
B(  9-C , 29-H ) :   0.9082 B(  9-C , 30-H ) :   0.8441 B( 10-S , 11-P ) :   0.9292
B( 10-S , 12-S ) :   0.1142 B( 11-P , 12-S ) :   1.6166 B( 11-P , 13-O ) :   1.1551
B( 11-P , 16-O ) :   1.0804 B( 12-S , 30-H ) :   0.1033 B( 13-O , 14-C ) :   0.8959
B( 14-C , 15-C ) :   1.1643 B( 14-C , 31-H ) :   0.9067 B( 14-C , 32-H ) :   0.9336
B( 15-C , 33-H ) :   0.9365 B( 15-C , 34-H ) :   0.9418 B( 15-C , 35-H ) :   0.9375
B( 16-O , 17-C ) :   0.9177 B( 17-C , 18-C ) :   1.1643 B( 17-C , 36-H ) :   0.9344
B( 17-C , 37-H ) :   0.9162 B( 18-C , 38-H ) :   0.9365 B( 18-C , 39-H ) :   0.9428
B( 18-C , 40-H ) :   0.9377

Dispersion correction           -0.066799576
FINAL SINGLE POINT ENERGY     -2929.516145999752

DIPOLE MOMENT
-------------

Method             : SCF
Type of density    : Electron Density
Multiplicity       :   1
Irrep              :   0
Energy             : -2929.6351496190691250 Eh
Relativity type    :
Basis              : AO
                                X                 Y                 Z
Electronic contribution:     -6.766527089       3.388731934     -13.661701137
Nuclear contribution   :      7.610787602      -4.525299636      15.145744379
                        -----------------------------------------
Total Dipole Moment    :      0.844260513      -1.136567702       1.484043242
                        -----------------------------------------
Magnitude (a.u.)       :      2.051084177
Magnitude (Debye)      :      5.213441659

Rotational constants in cm-1:             0.013406             0.005014             0.004684
Rotational constants in MHz :           401.907218           150.303741           140.422516

                             ****ORCA TERMINATED NORMALLY****
TOTAL RUN TIME: 0 days 0 hours 0 minutes 21 seconds 409 msec
