                         Program Version 6.0.0  -   RELEASE  -
|  1> ! pbe def2-sv(p) def2/J RI DEFGRID1 loosescf d4 GCP(DFT/SV(P)) printgap
|  2> %output
|  3>     printlevel normal
|  4> end
|  5> * xyz 0 1
|  6> C 1.3617822041 -0.3706874376 -3.0375488012
|  7> C 2.4278233892 0.2820899819 -2.1806136311
|  8> O 2.8186393645 -0.5914566105 -1.1075136842
|  9> P 2.3305317658 -0.4434046148 0.4006102457
| 10> S 2.433861676 1.3849142323 1.1135915962
| 11> O 3.2528991532 -1.5210824979 1.1032508417
| 12> C 4.6555949933 -1.2741193047 1.3563424693
| 13> C 4.8642047316 -0.852425317 2.7972981204
| 14> S 0.5119166278 -1.482009809 0.5674445267
| 15> C -0.3316742511 -0.3930907188 1.7752099832
| 16> S -2.1044210018 -0.3358664182 1.4874797838
| 17> P -2.0542326855 0.5158785607 -0.4723304995
| 18> S -0.6504909166 1.8346905083 -0.8214107812
| 19> O -3.5657389668 0.9489597659 -0.6936971124
| 20> C -4.3522790513 1.7298449592 0.2260131879
| 21> C -3.6845632603 3.0338532449 0.6081348137
| 22> O -1.9038540589 -0.6808131849 -1.4863770861
| 23> C -2.7959307375 -1.8228634734 -1.5170367382
| 24> C -3.7985828708 -1.6787767739 -2.643419992
| 25> H 1.697951689 -1.3494663761 -3.3678302176
| 26> H 0.4370839361 -0.4841083099 -2.4747699022
| 27> H 1.1670462809 0.2589756 -3.8997447731
| 28> H 2.0752958608 1.232698017 -1.7658001104
| 29> H 3.3429967542 0.4527123042 -2.7510787142
| 30> H 5.1467427417 -2.2245478614 1.1413603124
| 31> H 5.0183920458 -0.5091648441 0.6647200637
| 32> H 5.9265518563 -0.7373308155 2.9870214636
| 33> H 4.3644074382 0.0955140724 2.9855237902
| 34> H 4.4565121286 -1.6041642102 3.4670516721
| 35> H 0.0937658882 0.611004863 1.6851621328
| 36> H -0.1958381694 -0.7919955139 2.7773552449
| 37> H -5.2834628764 1.904093757 -0.3159015045
| 38> H -4.544044521 1.119271887 1.1124259364
| 39> H -3.4357920292 3.6089298138 -0.2808759225
| 40> H -4.3540661766 3.6131155937 1.2357193397
| 41> H -2.7643970221 2.8391466413 1.1577785306
| 42> H -2.1391265332 -2.6813410834 -1.6695065487
| 43> H -3.2948667022 -1.9112452053 -0.5481148013
| 44> H -4.422725603 -0.8040934868 -2.4810207259
| 45> H -3.2804120994 -1.5667116897 -3.5916634815
| 46> H -4.4234409405 -2.5656149568 -2.6780344802
| 47> *
| 48>
| 49>                          ****END OF INPUT****

CARTESIAN COORDINATES (ANGSTROEM)
---------------------------------
  C      1.361782   -0.370687   -3.037549
  C      2.427823    0.282090   -2.180614
  O      2.818639   -0.591457   -1.107514
  P      2.330532   -0.443405    0.400610
  S      2.433862    1.384914    1.113592
  O      3.252899   -1.521082    1.103251
  C      4.655595   -1.274119    1.356342
  C      4.864205   -0.852425    2.797298
  S      0.511917   -1.482010    0.567445
  C     -0.331674   -0.393091    1.775210
  S     -2.104421   -0.335866    1.487480
  P     -2.054233    0.515879   -0.472330
  S     -0.650491    1.834691   -0.821411
  O     -3.565739    0.948960   -0.693697
  C     -4.352279    1.729845    0.226013
  C     -3.684563    3.033853    0.608135
  O     -1.903854   -0.680813   -1.486377
  C     -2.795931   -1.822863   -1.517037
  C     -3.798583   -1.678777   -2.643420
  H      1.697952   -1.349466   -3.367830
  H      0.437084   -0.484108   -2.474770
  H      1.167046    0.258976   -3.899745
  H      2.075296    1.232698   -1.765800
  H      3.342997    0.452712   -2.751079
  H      5.146743   -2.224548    1.141360
  H      5.018392   -0.509165    0.664720
  H      5.926552   -0.737331    2.987021
  H      4.364407    0.095514    2.985524
  H      4.456512   -1.604164    3.467052
  H      0.093766    0.611005    1.685162
  H     -0.195838   -0.791996    2.777355
  H     -5.283463    1.904094   -0.315902
  H     -4.544045    1.119272    1.112426
  H     -3.435792    3.608930   -0.280876
  H     -4.354066    3.613116    1.235719
  H     -2.764397    2.839147    1.157779
  H     -2.139127   -2.681341   -1.669507
  H     -3.294867   -1.911245   -0.548115
  H     -4.422726   -0.804093   -2.481021
  H     -3.280412   -1.566712   -3.591663
  H     -4.423441   -2.565615   -2.678034

 Total Charge           Charge          ....    0
 Multiplicity           Mult            ....    1
 Number of Electrons    NEL             ....  202
 Basis Dimension        Dim             ....  334

ORBITAL ENERGIES
----------------

  NO   OCC          E(Eh)            E(eV)
   0   2.0000     -88.049669     -2395.9533
   1   2.0000     -88.038481     -2395.6489
   2   2.0000     -87.981720     -2394.1043
   3   2.0000     -87.980875     -2394.0813
   4   2.0000     -76.428404     -2079.7226
   5   2.0000     -76.419412     -2079.4779
   6   2.0000     -18.799361      -511.5566
   7   2.0000     -18.793216      -511.3894
   8   2.0000     -18.783541      -511.1261
   9   2.0000     -18.781184      -511.0620
  10   2.0000      -9.962645      -271.0974
  11   2.0000      -9.956528      -270.9309
  12   2.0000      -9.953587      -270.8509
  13   2.0000      -9.947902      -270.6962
  14   2.0000      -9.937968      -270.4259
  15   2.0000      -9.888149      -269.0702
  16   2.0000      -9.885124      -268.9879
  17   2.0000      -9.876741      -268.7598
  18   2.0000      -9.867040      -268.4958
  19   2.0000      -7.694493      -209.3778
  20   2.0000      -7.683681      -209.0836
  21   2.0000      -7.626640      -207.5314
  22   2.0000      -7.625829      -207.5094
  23   2.0000      -6.425392      -174.8438
  24   2.0000      -6.417199      -174.6209
  25   2.0000      -5.722281      -155.7112
  26   2.0000      -5.718779      -155.6159
  27   2.0000      -5.711855      -155.4275
  28   2.0000      -5.711541      -155.4189
  29   2.0000      -5.708420      -155.3340
  30   2.0000      -5.700376      -155.1151
  31   2.0000      -5.655768      -153.9013
  32   2.0000      -5.654674      -153.8715
  33   2.0000      -5.647084      -153.6650
  34   2.0000      -5.646753      -153.6560
  35   2.0000      -5.646632      -153.6527
  36   2.0000      -5.645862      -153.6317
  37   2.0000      -4.648227      -126.4847
  38   2.0000      -4.647519      -126.4654
  39   2.0000      -4.645331      -126.4059
  40   2.0000      -4.639631      -126.2508
  41   2.0000      -4.638806      -126.2283
  42   2.0000      -4.637916      -126.2041
  43   2.0000      -0.992465       -27.0063
  44   2.0000      -0.978261       -26.6198
  45   2.0000      -0.948847       -25.8194
  46   2.0000      -0.934800       -25.4372
  47   2.0000      -0.763543       -20.7770
  48   2.0000      -0.721066       -19.6212
  49   2.0000      -0.708493       -19.2791
  50   2.0000      -0.693876       -18.8813
  51   2.0000      -0.676178       -18.3997
  52   2.0000      -0.672920       -18.3111
  53   2.0000      -0.650016       -17.6878
  54   2.0000      -0.631665       -17.1885
  55   2.0000      -0.592697       -16.1281
  56   2.0000      -0.587740       -15.9932
  57   2.0000      -0.577021       -15.7015
  58   2.0000      -0.563265       -15.3272
  59   2.0000      -0.561612       -15.2822
  60   2.0000      -0.505058       -13.7433
  61   2.0000      -0.494169       -13.4470
  62   2.0000      -0.477738       -12.9999
  63   2.0000      -0.465594       -12.6695
  64   2.0000      -0.454739       -12.3741
  65   2.0000      -0.446918       -12.1613
  66   2.0000      -0.440546       -11.9879
  67   2.0000      -0.432370       -11.7654
  68   2.0000      -0.427133       -11.6229
  69   2.0000      -0.413523       -11.2525
  70   2.0000      -0.408961       -11.1284
  71   2.0000      -0.399900       -10.8818
  72   2.0000      -0.390438       -10.6244
  73   2.0000      -0.386735       -10.5236
  74   2.0000      -0.374229       -10.1833
  75   2.0000      -0.368428       -10.0254
  76   2.0000      -0.359430        -9.7806
  77   2.0000      -0.358660        -9.7596
  78   2.0000      -0.351030        -9.5520
  79   2.0000      -0.349204        -9.5023
  80   2.0000      -0.345338        -9.3971
  81   2.0000      -0.342345        -9.3157
  82   2.0000      -0.336777        -9.1642
  83   2.0000      -0.334221        -9.0946
  84   2.0000      -0.322757        -8.7827
  85   2.0000      -0.321450        -8.7471
  86   2.0000      -0.303838        -8.2678
  87   2.0000      -0.300190        -8.1686
  88   2.0000      -0.293390        -7.9835
  89   2.0000      -0.285941        -7.7808
  90   2.0000      -0.281925        -7.6716
  91   2.0000      -0.279517        -7.6060
  92   2.0000      -0.267961        -7.2916
  93   2.0000      -0.265119        -7.2142
  94   2.0000      -0.257107        -6.9962
  95   2.0000      -0.234582        -6.3833
  96   2.0000      -0.221208        -6.0194
  97   2.0000      -0.210407        -5.7255
  98   2.0000      -0.197480        -5.3737
  99   2.0000      -0.194611        -5.2956
 100   2.0000      -0.185879        -5.0580
 101   0.0000      -0.044146        -1.2013
 102   0.0000      -0.031705        -0.8627
 103   0.0000      -0.013455        -0.3661
 104   0.0000       0.011690         0.3181
 105   0.0000       0.018218         0.4957

MULLIKEN ATOMIC CHARGES
-----------------------
   0 C :   -0.312531
   1 C :   -0.009538
   2 O :   -0.377708
   3 P :    0.624374
   4 S :   -0.321599
   5 O :   -0.370691
   6 C :   -0.001436
   7 C :   -0.289090
   8 S :   -0.100570
   9 C :   -0.348540
  10 S :   -0.121375
  11 P :    0.590779
  12 S :   -0.292522
  13 O :   -0.377158
  14 C :   -0.012430
  15 C :   -0.310055
  16 O :   -0.342837
  17 C :   -0.007445
  18 C :   -0.287169
  19 H :    0.101117
  20 H :    0.146142
  21 H :    0.103939
  22 H :    0.119068
  23 H :    0.096646
  24 H :    0.105137
  25 H :    0.103014
  26 H :    0.105620
  27 H :    0.124976
  28 H :    0.110832
  29 H :    0.214837
  30 H :    0.182273
  31 H :    0.109996
  32 H :    0.113897
  33 H :    0.128681
  34 H :    0.112332
  35 H :    0.130302
  36 H :    0.111778
  37 H :    0.097125
  38 H :    0.119602
  39 H :    0.120586
  40 H :    0.109642
Sum of atomic charges:    0.0000000

LOEWDIN ATOMIC CHARGES
----------------------
   0 C :   -0.367893
   1 C :   -0.117988
   2 O :   -0.245773
   3 P :    0.567129
   4 S :   -0.304464
   5 O :   -0.249448
   6 C :   -0.112243
   7 C :   -0.361457
   8 S :    0.079370
   9 C :   -0.478233
  10 S :    0.066556
  11 P :    0.563926
  12 S :   -0.286212
  13 O :   -0.245146
  14 C :   -0.115212
  15 C :   -0.368739
  16 O :   -0.227290
  17 C :   -0.116421
  18 C :   -0.357865
  19 H :    0.119281
  20 H :    0.122402
  21 H :    0.128496
  22 H :    0.107172
  23 H :    0.113722
  24 H :    0.118068
  25 H :    0.110163
  26 H :    0.127447
  27 H :    0.124550
  28 H :    0.124699
  29 H :    0.124110
  30 H :    0.135057
  31 H :    0.121464
  32 H :    0.108219
  33 H :    0.131494
  34 H :    0.130686
  35 H :    0.123054
  36 H :    0.120819
  37 H :    0.101994
  38 H :    0.126112
  39 H :    0.129103
  40 H :    0.129292

  Mayer bond orders larger than 0.100000
B(  0-C ,  1-C ) :   1.1711 B(  0-C , 19-H ) :   0.9461 B(  0-C , 20-H ) :   0.9237
B(  0-C , 21-H ) :   0.9404 B(  1-C ,  2-O ) :   0.9001 B(  1-C , 22-H ) :   0.9038
B(  1-C , 23-H ) :   0.9348 B(  2-O ,  3-P ) :   1.1171 B(  3-P ,  4-S ) :   1.6121
B(  3-P ,  5-O ) :   1.1295 B(  3-P ,  8-S ) :   0.9600 B(  4-S ,  8-S ) :   0.1211
B(  5-O ,  6-C ) :   0.8946 B(  6-C ,  7-C ) :   1.1681 B(  6-C , 24-H ) :   0.9353
B(  6-C , 25-H ) :   0.9157 B(  7-C , 26-H ) :   0.9408 B(  7-C , 27-H ) :   0.9351
B(  7-C , 28-H ) :   0.9475 B(  8-S ,  9-C ) :   0.9916 B(  9-C , 10-S ) :   1.0079
B(  9-C , 29-H ) :   0.8449 B(  9-C , 30-H ) :   0.9088 B( 10-S , 11-P ) :   0.9310
B( 10-S , 12-S ) :   0.1096 B( 11-P , 12-S ) :   1.6626 B( 11-P , 13-O ) :   1.0821
B( 11-P , 16-O ) :   1.1190 B( 13-O , 14-C ) :   0.9103 B( 14-C , 15-C ) :   1.1674
B( 14-C , 31-H ) :   0.9329 B( 14-C , 32-H ) :   0.9264 B( 15-C , 33-H ) :   0.9427
B( 15-C , 34-H ) :   0.9346 B( 15-C , 35-H ) :   0.9320 B( 16-O , 17-C ) :   0.8882
B( 17-C , 18-C ) :   1.1651 B( 17-C , 36-H ) :   0.9339 B( 17-C , 37-H ) :   0.9122
B( 18-C , 38-H ) :   0.9435 B( 18-C , 39-H ) :   0.9476 B( 18-C , 40-H ) :   0.9405

Dispersion correction           -0.065580319
FINAL SINGLE POINT ENERGY     -2929.518945192550

DIPOLE MOMENT
-------------

Method             : SCF
Type of density    : Electron Density
Multiplicity       :   1
Irrep              :   0
Energy             : -2929.6379152614599661 Eh
Relativity type    :
Basis              : AO
                                X                 Y                 Z
Electronic contribution:      3.351510765       0.713845913       6.211196532
Nuclear contribution   :     -4.382160409      -1.534578393      -6.237734769
                        -----------------------------------------
Total Dipole Moment    :     -1.030649644      -0.820732479      -0.026538237
                        -----------------------------------------
Magnitude (a.u.)       :      1.317780243
Magnitude (Debye)      :      3.349531187

Rotational constants in cm-1:             0.013195             0.004810             0.004531
Rotational constants in MHz :           395.570961           144.195792           135.845249

                             ****ORCA TERMINATED NORMALLY****
TOTAL RUN TIME: 0 days 0 hours 0 minutes 21 seconds 23 msec
