                         Program Version 6.0.1  -  RELEASE   -
|  1> ! pbe def2-sv(p) def2/J RI DEFGRID1 loosescf d4 GCP(DFT/SV(P)) printgap
|  2> %output
|  3>     printlevel normal
|  4> end
|  5> * xyz 0 1
|  6> C 5.2476205503 -0.6842244389 -0.6438409992
|  7> C 4.245247508 -0.8677566901 0.4838305902
|  8> O 2.8941090945 -0.7597135263 -0.0106698665
|  9> C 2.2954753345 -1.8558087148 -0.4511753766
| 10> O 2.8002762515 -2.9549004805 -0.4468577009
| 11> C 0.8854582505 -1.5873624538 -0.930132047
| 12> C 0.6293117817 -0.1185488735 -1.2249788286
| 13> H 1.2112538576 0.2403189234 -2.0747062404
| 14> C 0.8651239447 0.777132179 -0.0285920107
| 15> O 0.3664486582 0.5583148658 1.0573214309
| 16> O 1.5937224594 1.8186881832 -0.3317930216
| 17> C 1.7867849075 2.8396563798 0.6697874559
| 18> C 0.7175548028 3.9114194414 0.5294845155
| 19> S -1.1191227603 0.190188149 -1.6824428149
| 20> P -2.1551615926 -0.0455166164 0.1373017092
| 21> S -1.8926409766 -1.6020050419 1.3149090124
| 22> O -2.1281056598 1.4130735227 0.7754784245
| 23> C -2.3657605671 1.6097233583 2.1779238844
| 24> O -3.6550828197 -0.0102461473 -0.4303426163
| 25> C -4.2654399515 -1.1570485783 -1.0297191894
| 26> H 6.251978128 -0.7004078944 -0.2338878935
| 27> H 5.1476809836 -1.4913784234 -1.3655786376
| 28> H 5.0785822558 0.2647013119 -1.1452093055
| 29> H 4.3297525351 -0.074912189 1.2276520858
| 30> H 4.3640987 -1.8461359166 0.9574955951
| 31> H 0.2220164007 -1.9322080354 -0.1275075082
| 32> H 0.6868858481 -2.2005180735 -1.8094141965
| 33> H 1.7502530995 2.3716478715 1.6571047152
| 34> H 2.7811900275 3.239331778 0.4719574412
| 35> H 0.767604594 4.3627246724 -0.4573759624
| 36> H -0.2694298315 3.4723709067 0.6623042531
| 37> H 0.8711154257 4.6760726061 1.2835823728
| 38> H -3.3754216613 1.2941587014 2.4374452389
| 39> H -2.2411378703 2.6761966363 2.3473667173
| 40> H -1.6370122914 1.0400314877 2.7560501617
| 41> H -5.3349835549 -0.9633874216 -1.0165001658
| 42> H -4.0325333416 -2.0511991293 -0.4481095807
| 43> H -3.9090651099 -1.2735994159 -2.0524928846
| 44> *
| 45>
| 46>                          ****END OF INPUT****

CARTESIAN COORDINATES (ANGSTROEM)
---------------------------------
  C      5.247621   -0.684224   -0.643841
  C      4.245248   -0.867757    0.483831
  O      2.894109   -0.759714   -0.010670
  C      2.295475   -1.855809   -0.451175
  O      2.800276   -2.954900   -0.446858
  C      0.885458   -1.587362   -0.930132
  C      0.629312   -0.118549   -1.224979
  H      1.211254    0.240319   -2.074706
  C      0.865124    0.777132   -0.028592
  O      0.366449    0.558315    1.057321
  O      1.593722    1.818688   -0.331793
  C      1.786785    2.839656    0.669787
  C      0.717555    3.911419    0.529485
  S     -1.119123    0.190188   -1.682443
  P     -2.155162   -0.045517    0.137302
  S     -1.892641   -1.602005    1.314909
  O     -2.128106    1.413074    0.775478
  C     -2.365761    1.609723    2.177924
  O     -3.655083   -0.010246   -0.430343
  C     -4.265440   -1.157049   -1.029719
  H      6.251978   -0.700408   -0.233888
  H      5.147681   -1.491378   -1.365579
  H      5.078582    0.264701   -1.145209
  H      4.329753   -0.074912    1.227652
  H      4.364099   -1.846136    0.957496
  H      0.222016   -1.932208   -0.127508
  H      0.686886   -2.200518   -1.809414
  H      1.750253    2.371648    1.657105
  H      2.781190    3.239332    0.471957
  H      0.767605    4.362725   -0.457376
  H     -0.269430    3.472371    0.662304
  H      0.871115    4.676073    1.283582
  H     -3.375422    1.294159    2.437445
  H     -2.241138    2.676197    2.347367
  H     -1.637012    1.040031    2.756050
  H     -5.334984   -0.963387   -1.016500
  H     -4.032533   -2.051199   -0.448110
  H     -3.909065   -1.273599   -2.052493

 Total Charge           Charge          ....    0
 Multiplicity           Mult            ....    1
 Number of Electrons    NEL             ....  174
 Basis Dimension        Dim             ....  316

ORBITAL ENERGIES
----------------

  NO   OCC          E(Eh)            E(eV)
   0   2.0000     -88.045664     -2395.8443
   1   2.0000     -87.977515     -2393.9899
   2   2.0000     -76.424050     -2079.6041
   3   2.0000     -18.811492      -511.8867
   4   2.0000     -18.809796      -511.8406
   5   2.0000     -18.788539      -511.2621
   6   2.0000     -18.785268      -511.1731
   7   2.0000     -18.744321      -510.0589
   8   2.0000     -18.735068      -509.8071
   9   2.0000     -10.020671      -272.6763
  10   2.0000     -10.011629      -272.4303
  11   2.0000      -9.955105      -270.8922
  12   2.0000      -9.952592      -270.8238
  13   2.0000      -9.950168      -270.7578
  14   2.0000      -9.940017      -270.4816
  15   2.0000      -9.938026      -270.4274
  16   2.0000      -9.904955      -269.5275
  17   2.0000      -9.891985      -269.1746
  18   2.0000      -9.891707      -269.1670
  19   2.0000      -7.690638      -209.2729
  20   2.0000      -7.622561      -207.4204
  21   2.0000      -6.420676      -174.7155
  22   2.0000      -5.718567      -155.6101
  23   2.0000      -5.715155      -155.5173
  24   2.0000      -5.707533      -155.3099
  25   2.0000      -5.651654      -153.7893
  26   2.0000      -5.643346      -153.5632
  27   2.0000      -5.642348      -153.5361
  28   2.0000      -4.643077      -126.3446
  29   2.0000      -4.642562      -126.3305
  30   2.0000      -4.641374      -126.2982
  31   2.0000      -1.022587       -27.8260
  32   2.0000      -1.012865       -27.5615
  33   2.0000      -0.979600       -26.6563
  34   2.0000      -0.937368       -25.5071
  35   2.0000      -0.924577       -25.1590
  36   2.0000      -0.915604       -24.9149
  37   2.0000      -0.768829       -20.9209
  38   2.0000      -0.715380       -19.4665
  39   2.0000      -0.711306       -19.3556
  40   2.0000      -0.690118       -18.7791
  41   2.0000      -0.657191       -17.8831
  42   2.0000      -0.628374       -17.0989
  43   2.0000      -0.623980       -16.9793
  44   2.0000      -0.618294       -16.8246
  45   2.0000      -0.598583       -16.2883
  46   2.0000      -0.569136       -15.4870
  47   2.0000      -0.513707       -13.9787
  48   2.0000      -0.504611       -13.7312
  49   2.0000      -0.502205       -13.6657
  50   2.0000      -0.482837       -13.1387
  51   2.0000      -0.467931       -12.7330
  52   2.0000      -0.461831       -12.5671
  53   2.0000      -0.443542       -12.0694
  54   2.0000      -0.442835       -12.0502
  55   2.0000      -0.437354       -11.9010
  56   2.0000      -0.426397       -11.6028
  57   2.0000      -0.419824       -11.4240
  58   2.0000      -0.409501       -11.1431
  59   2.0000      -0.407272       -11.0824
  60   2.0000      -0.403881       -10.9902
  61   2.0000      -0.396097       -10.7783
  62   2.0000      -0.392134       -10.6705
  63   2.0000      -0.386876       -10.5274
  64   2.0000      -0.378535       -10.3005
  65   2.0000      -0.366404        -9.9704
  66   2.0000      -0.362044        -9.8517
  67   2.0000      -0.358974        -9.7682
  68   2.0000      -0.353855        -9.6289
  69   2.0000      -0.347126        -9.4458
  70   2.0000      -0.333825        -9.0838
  71   2.0000      -0.332437        -9.0461
  72   2.0000      -0.322659        -8.7800
  73   2.0000      -0.310668        -8.4537
  74   2.0000      -0.301886        -8.2147
  75   2.0000      -0.299777        -8.1574
  76   2.0000      -0.295376        -8.0376
  77   2.0000      -0.286474        -7.7953
  78   2.0000      -0.276720        -7.5299
  79   2.0000      -0.264467        -7.1965
  80   2.0000      -0.258810        -7.0426
  81   2.0000      -0.254311        -6.9202
  82   2.0000      -0.245670        -6.6850
  83   2.0000      -0.232524        -6.3273
  84   2.0000      -0.218055        -5.9336
  85   2.0000      -0.195927        -5.3314
  86   2.0000      -0.187924        -5.1137
  87   0.0000      -0.053655        -1.4600
  88   0.0000      -0.023806        -0.6478
  89   0.0000      -0.020105        -0.5471
  90   0.0000       0.011373         0.3095
  91   0.0000       0.023575         0.6415

MULLIKEN ATOMIC CHARGES
-----------------------
   0 C :   -0.303995
   1 C :   -0.011403
   2 O :   -0.249241
   3 C :    0.132046
   4 O :   -0.197263
   5 C :   -0.080787
   6 C :   -0.306508
   7 H :    0.129699
   8 C :    0.208963
   9 O :   -0.201799
  10 O :   -0.216635
  11 C :   -0.020653
  12 C :   -0.315869
  13 S :   -0.078367
  14 P :    0.613845
  15 S :   -0.316717
  16 O :   -0.373428
  17 C :   -0.098311
  18 O :   -0.380042
  19 C :   -0.102250
  20 H :    0.115113
  21 H :    0.127096
  22 H :    0.113491
  23 H :    0.103394
  24 H :    0.115894
  25 H :    0.157747
  26 H :    0.120265
  27 H :    0.113024
  28 H :    0.103800
  29 H :    0.116864
  30 H :    0.142030
  31 H :    0.112276
  32 H :    0.119338
  33 H :    0.119372
  34 H :    0.136729
  35 H :    0.122815
  36 H :    0.117473
  37 H :    0.111995
Sum of atomic charges:   -0.0000000

LOEWDIN ATOMIC CHARGES
----------------------
   0 C :   -0.355443
   1 C :   -0.108775
   2 O :   -0.055122
   3 C :    0.040029
   4 O :   -0.161592
   5 C :   -0.261459
   6 C :   -0.260053
   7 H :    0.139236
   8 C :    0.003249
   9 O :   -0.168873
  10 O :   -0.042059
  11 C :   -0.109533
  12 C :   -0.357068
  13 S :    0.121267
  14 P :    0.578606
  15 S :   -0.304915
  16 O :   -0.247291
  17 C :   -0.209436
  18 O :   -0.261902
  19 C :   -0.219389
  20 H :    0.131819
  21 H :    0.131130
  22 H :    0.124290
  23 H :    0.117841
  24 H :    0.124067
  25 H :    0.147967
  26 H :    0.145594
  27 H :    0.120901
  28 H :    0.117912
  29 H :    0.127212
  30 H :    0.133028
  31 H :    0.130092
  32 H :    0.113534
  33 H :    0.116979
  34 H :    0.119380
  35 H :    0.121219
  36 H :    0.108292
  37 H :    0.109264

  Mayer bond orders larger than 0.100000
B(  0-C ,  1-C ) :   1.1747 B(  0-C , 20-H ) :   0.9440 B(  0-C , 21-H ) :   0.9460
B(  0-C , 22-H ) :   0.9490 B(  1-C ,  2-O ) :   0.9085 B(  1-C , 23-H ) :   0.9360
B(  1-C , 24-H ) :   0.9130 B(  2-O ,  3-C ) :   1.1967 B(  3-C ,  4-O ) :   2.0629
B(  3-C ,  5-C ) :   1.0243 B(  5-C ,  6-C ) :   1.0045 B(  5-C , 25-H ) :   0.8359
B(  5-C , 26-H ) :   0.9003 B(  6-C ,  7-H ) :   0.8858 B(  6-C ,  8-C ) :   0.8919
B(  6-C , 13-S ) :   1.0000 B(  8-C ,  9-O ) :   1.9628 B(  8-C , 10-O ) :   1.2670
B( 10-O , 11-C ) :   0.9084 B( 11-C , 12-C ) :   1.1747 B( 11-C , 27-H ) :   0.9104
B( 11-C , 28-H ) :   0.9363 B( 12-C , 29-H ) :   0.9475 B( 12-C , 30-H ) :   0.9345
B( 12-C , 31-H ) :   0.9431 B( 13-S , 14-P ) :   0.9705 B( 13-S , 15-S ) :   0.1194
B( 14-P , 15-S ) :   1.5997 B( 14-P , 16-O ) :   1.1016 B( 14-P , 18-O ) :   1.0849
B( 16-O , 17-C ) :   0.9152 B( 17-C , 32-H ) :   0.9517 B( 17-C , 33-H ) :   0.9533
B( 17-C , 34-H ) :   0.9399 B( 18-O , 19-C ) :   0.9347 B( 19-C , 35-H ) :   0.9594
B( 19-C , 36-H ) :   0.9277 B( 19-C , 37-H ) :   0.9509

Dispersion correction           -0.052519719
FINAL SINGLE POINT ENERGY     -1979.016814676449

DIPOLE MOMENT
-------------

Method             : SCF
Type of density    : Electron Density
Multiplicity       :   1
Irrep              :   0
Energy             : -1979.1478822492499603 Eh
Relativity type    :
Basis              : AO
                                X                 Y                 Z
Electronic contribution:    -13.301763632      -8.878111440      -2.970901274
Nuclear contribution   :     13.920454956      10.499780436       2.777391507
                        -----------------------------------------
Total Dipole Moment    :      0.618691324       1.621668995      -0.193509768
                        -----------------------------------------
Magnitude (a.u.)       :      1.746435030
Magnitude (Debye)      :      4.439085067

Rotational constants in cm-1:             0.014384             0.007021             0.005707
Rotational constants in MHz :           431.212490           210.485342           171.096942

                             ****ORCA TERMINATED NORMALLY****
TOTAL RUN TIME: 0 days 0 hours 0 minutes 32 seconds 896 msec
