                         Program Version 6.0.1  -  RELEASE   -
|  1> ! pbe def2-sv(p) def2/J RI DEFGRID1 loosescf d4 GCP(DFT/SV(P)) printgap
|  2> %output
|  3>     printlevel normal
|  4> end
|  5> * xyz 0 1
|  6> C 3.9419537049 -3.5373664431 -0.4565144878
|  7> C 4.4261035616 -2.2476367634 -1.0998352888
|  8> O 3.3697230421 -1.6281678446 -1.8608428691
|  9> C 2.5213942127 -0.8451200814 -1.2326811183
| 10> O 2.5763089603 -0.5709988224 -0.0513629444
| 11> C 1.4638335106 -0.2930689889 -2.1661170415
| 12> C 0.3373343193 0.3157265906 -1.3424676041
| 13> H -0.3651848515 0.8582006901 -1.9829923702
| 14> C 0.9184573693 1.306832072 -0.3450166412
| 15> O 1.7491914172 2.1255419583 -0.6690784338
| 16> O 0.3548161789 1.2203767723 0.8394001114
| 17> C 0.8445289781 2.0435618398 1.915522706
| 18> C 1.5658779271 1.1664851728 2.9236139568
| 19> S -0.5934832673 -1.0219861453 -0.5045391194
| 20> P -2.1118495295 0.1274928474 0.3651374787
| 21> S -2.4850922614 1.9103361062 -0.3873060654
| 22> O -3.392805279 -0.8355867775 0.2829049216
| 23> C -4.1274008344 -1.0042302683 -0.9338367345
| 24> O -1.8257115246 0.0329381533 1.9236513138
| 25> C -2.7527743939 0.6076649911 2.8602588788
| 26> H 3.5616025436 -4.2141415164 -1.2163222941
| 27> H 4.7673421776 -4.0101447658 0.0653242338
| 28> H 3.1480682219 -3.3239718134 0.2559856935
| 29> H 5.2123782397 -2.435847726 -1.8306996148
| 30> H 4.7713564122 -1.5397590115 -0.3409895566
| 31> H 1.0991807044 -1.083573562 -2.8200528619
| 32> H 1.9289937011 0.4870458636 -2.7730977163
| 33> H 1.5078923887 2.8006779049 1.4884172445
| 34> H -0.0376484258 2.519780479 2.3485678583
| 35> H 2.3991785053 0.6633625503 2.4380296581
| 36> H 1.9365253478 1.7803929889 3.7374322505
| 37> H 0.8858757232 0.413314745 3.3125843366
| 38> H -5.0711565 -1.461386753 -0.6476620802
| 39> H -3.575410301 -1.6538009586 -1.6122593565
| 40> H -4.3004322314 -0.0338210159 -1.403076267
| 41> H -3.0284913961 1.616943099 2.5484972289
| 42> H -2.2298461169 0.6320008966 3.8130977047
| 43> H -3.644896757 -0.0137838093 2.9255255688
| 44> *
| 45>
| 46>                          ****END OF INPUT****

CARTESIAN COORDINATES (ANGSTROEM)
---------------------------------
  C      3.941954   -3.537366   -0.456514
  C      4.426104   -2.247637   -1.099835
  O      3.369723   -1.628168   -1.860843
  C      2.521394   -0.845120   -1.232681
  O      2.576309   -0.570999   -0.051363
  C      1.463834   -0.293069   -2.166117
  C      0.337334    0.315727   -1.342468
  H     -0.365185    0.858201   -1.982992
  C      0.918457    1.306832   -0.345017
  O      1.749191    2.125542   -0.669078
  O      0.354816    1.220377    0.839400
  C      0.844529    2.043562    1.915523
  C      1.565878    1.166485    2.923614
  S     -0.593483   -1.021986   -0.504539
  P     -2.111850    0.127493    0.365137
  S     -2.485092    1.910336   -0.387306
  O     -3.392805   -0.835587    0.282905
  C     -4.127401   -1.004230   -0.933837
  O     -1.825712    0.032938    1.923651
  C     -2.752774    0.607665    2.860259
  H      3.561603   -4.214142   -1.216322
  H      4.767342   -4.010145    0.065324
  H      3.148068   -3.323972    0.255986
  H      5.212378   -2.435848   -1.830700
  H      4.771356   -1.539759   -0.340990
  H      1.099181   -1.083574   -2.820053
  H      1.928994    0.487046   -2.773098
  H      1.507892    2.800678    1.488417
  H     -0.037648    2.519780    2.348568
  H      2.399179    0.663363    2.438030
  H      1.936525    1.780393    3.737432
  H      0.885876    0.413315    3.312584
  H     -5.071156   -1.461387   -0.647662
  H     -3.575410   -1.653801   -1.612259
  H     -4.300432   -0.033821   -1.403076
  H     -3.028491    1.616943    2.548497
  H     -2.229846    0.632001    3.813098
  H     -3.644897   -0.013784    2.925526

 Total Charge           Charge          ....    0
 Multiplicity           Mult            ....    1
 Number of Electrons    NEL             ....  174
 Basis Dimension        Dim             ....  316

ORBITAL ENERGIES
----------------

  NO   OCC          E(Eh)            E(eV)
   0   2.0000     -88.039251     -2395.6698
   1   2.0000     -87.979946     -2394.0560
   2   2.0000     -76.423550     -2079.5905
   3   2.0000     -18.810834      -511.8688
   4   2.0000     -18.795620      -511.4548
   5   2.0000     -18.789532      -511.2892
   6   2.0000     -18.786942      -511.2187
   7   2.0000     -18.750886      -510.2375
   8   2.0000     -18.724671      -509.5242
   9   2.0000     -10.019540      -272.6455
  10   2.0000     -10.007241      -272.3109
  11   2.0000      -9.954482      -270.8752
  12   2.0000      -9.945725      -270.6369
  13   2.0000      -9.943972      -270.5892
  14   2.0000      -9.940719      -270.5007
  15   2.0000      -9.936806      -270.3942
  16   2.0000      -9.918253      -269.8894
  17   2.0000      -9.891910      -269.1726
  18   2.0000      -9.874766      -268.7060
  19   2.0000      -7.684279      -209.0999
  20   2.0000      -7.624962      -207.4858
  21   2.0000      -6.420545      -174.7119
  22   2.0000      -5.712154      -155.4356
  23   2.0000      -5.708987      -155.3494
  24   2.0000      -5.701060      -155.1337
  25   2.0000      -5.653868      -153.8496
  26   2.0000      -5.645855      -153.6315
  27   2.0000      -5.644871      -153.6047
  28   2.0000      -4.643119      -126.3457
  29   2.0000      -4.642348      -126.3247
  30   2.0000      -4.641063      -126.2897
  31   2.0000      -1.020570       -27.7711
  32   2.0000      -1.003258       -27.3000
  33   2.0000      -0.982289       -26.7294
  34   2.0000      -0.938311       -25.5327
  35   2.0000      -0.927419       -25.2363
  36   2.0000      -0.906995       -24.6806
  37   2.0000      -0.764968       -20.8158
  38   2.0000      -0.718769       -19.5587
  39   2.0000      -0.696717       -18.9586
  40   2.0000      -0.692175       -18.8350
  41   2.0000      -0.654552       -17.8113
  42   2.0000      -0.631108       -17.1733
  43   2.0000      -0.625287       -17.0149
  44   2.0000      -0.613695       -16.6995
  45   2.0000      -0.596147       -16.2220
  46   2.0000      -0.559636       -15.2285
  47   2.0000      -0.511239       -13.9115
  48   2.0000      -0.505646       -13.7593
  49   2.0000      -0.493517       -13.4293
  50   2.0000      -0.481112       -13.0917
  51   2.0000      -0.469889       -12.7863
  52   2.0000      -0.464793       -12.6477
  53   2.0000      -0.442873       -12.0512
  54   2.0000      -0.439449       -11.9580
  55   2.0000      -0.426815       -11.6142
  56   2.0000      -0.424854       -11.5609
  57   2.0000      -0.422612       -11.4999
  58   2.0000      -0.411380       -11.1942
  59   2.0000      -0.408877       -11.1261
  60   2.0000      -0.399803       -10.8792
  61   2.0000      -0.394352       -10.7309
  62   2.0000      -0.390513       -10.6264
  63   2.0000      -0.379083       -10.3154
  64   2.0000      -0.371340       -10.1047
  65   2.0000      -0.370595       -10.0844
  66   2.0000      -0.364537        -9.9196
  67   2.0000      -0.349615        -9.5135
  68   2.0000      -0.347027        -9.4431
  69   2.0000      -0.338889        -9.2216
  70   2.0000      -0.329580        -8.9683
  71   2.0000      -0.327780        -8.9193
  72   2.0000      -0.318651        -8.6709
  73   2.0000      -0.310461        -8.4481
  74   2.0000      -0.302254        -8.2248
  75   2.0000      -0.301704        -8.2098
  76   2.0000      -0.295072        -8.0293
  77   2.0000      -0.282548        -7.6885
  78   2.0000      -0.270980        -7.3737
  79   2.0000      -0.267090        -7.2679
  80   2.0000      -0.258484        -7.0337
  81   2.0000      -0.248450        -6.7607
  82   2.0000      -0.238438        -6.4882
  83   2.0000      -0.232070        -6.3150
  84   2.0000      -0.206083        -5.6078
  85   2.0000      -0.201364        -5.4794
  86   2.0000      -0.193907        -5.2765
  87   0.0000      -0.041706        -1.1349
  88   0.0000      -0.026842        -0.7304
  89   0.0000      -0.011498        -0.3129
  90   0.0000       0.009545         0.2597
  91   0.0000       0.021623         0.5884

MULLIKEN ATOMIC CHARGES
-----------------------
   0 C :   -0.307959
   1 C :   -0.013242
   2 O :   -0.224472
   3 C :    0.119934
   4 O :   -0.193104
   5 C :   -0.100023
   6 C :   -0.314918
   7 H :    0.152366
   8 C :    0.240391
   9 O :   -0.205242
  10 O :   -0.230856
  11 C :   -0.014047
  12 C :   -0.296207
  13 S :   -0.074744
  14 P :    0.638770
  15 S :   -0.348320
  16 O :   -0.390208
  17 C :   -0.099342
  18 O :   -0.370505
  19 C :   -0.102221
  20 H :    0.115819
  21 H :    0.115991
  22 H :    0.131993
  23 H :    0.106811
  24 H :    0.113285
  25 H :    0.127414
  26 H :    0.147649
  27 H :    0.114172
  28 H :    0.099044
  29 H :    0.128411
  30 H :    0.103617
  31 H :    0.115069
  32 H :    0.122007
  33 H :    0.109848
  34 H :    0.116772
  35 H :    0.118985
  36 H :    0.125678
  37 H :    0.121385
Sum of atomic charges:    0.0000000

LOEWDIN ATOMIC CHARGES
----------------------
   0 C :   -0.355967
   1 C :   -0.108742
   2 O :   -0.053160
   3 C :    0.040208
   4 O :   -0.149666
   5 C :   -0.249397
   6 C :   -0.264227
   7 H :    0.143810
   8 C :    0.018915
   9 O :   -0.169654
  10 O :   -0.050647
  11 C :   -0.106370
  12 C :   -0.354155
  13 S :    0.111249
  14 P :    0.581580
  15 S :   -0.335598
  16 O :   -0.264756
  17 C :   -0.218208
  18 O :   -0.245464
  19 C :   -0.210846
  20 H :    0.125801
  21 H :    0.132163
  22 H :    0.132491
  23 H :    0.119873
  24 H :    0.121922
  25 H :    0.142004
  26 H :    0.161970
  27 H :    0.121679
  28 H :    0.113904
  29 H :    0.132637
  30 H :    0.125080
  31 H :    0.124542
  32 H :    0.120732
  33 H :    0.108876
  34 H :    0.108717
  35 H :    0.112091
  36 H :    0.121077
  37 H :    0.115538

  Mayer bond orders larger than 0.100000
B(  0-C ,  1-C ) :   1.1735 B(  0-C , 20-H ) :   0.9485 B(  0-C , 21-H ) :   0.9438
B(  0-C , 22-H ) :   0.9454 B(  1-C ,  2-O ) :   0.9092 B(  1-C , 23-H ) :   0.9369
B(  1-C , 24-H ) :   0.9156 B(  2-O ,  3-C ) :   1.2540 B(  3-C ,  4-O ) :   1.9808
B(  3-C ,  5-C ) :   0.9963 B(  5-C ,  6-C ) :   1.0665 B(  5-C , 25-H ) :   0.9033
B(  5-C , 26-H ) :   0.8695 B(  6-C ,  7-H ) :   0.8532 B(  6-C ,  8-C ) :   0.8590
B(  6-C , 13-S ) :   1.0173 B(  8-C ,  9-O ) :   2.0607 B(  8-C , 10-O ) :   1.2349
B( 10-O , 11-C ) :   0.8995 B( 11-C , 12-C ) :   1.1768 B( 11-C , 27-H ) :   0.9078
B( 11-C , 28-H ) :   0.9313 B( 12-C , 29-H ) :   0.9404 B( 12-C , 30-H ) :   0.9444
B( 12-C , 31-H ) :   0.9481 B( 13-S , 14-P ) :   0.9877 B( 13-S , 15-S ) :   0.1187
B( 14-P , 15-S ) :   1.6043 B( 14-P , 16-O ) :   1.0701 B( 14-P , 18-O ) :   1.1121
B( 16-O , 17-C ) :   0.9360 B( 17-C , 32-H ) :   0.9591 B( 17-C , 33-H ) :   0.9493
B( 17-C , 34-H ) :   0.9302 B( 18-O , 19-C ) :   0.9265 B( 19-C , 35-H ) :   0.9330
B( 19-C , 36-H ) :   0.9574 B( 19-C , 37-H ) :   0.9510

Dispersion correction           -0.052680636
FINAL SINGLE POINT ENERGY     -1979.021696642757

DIPOLE MOMENT
-------------

Method             : SCF
Type of density    : Electron Density
Multiplicity       :   1
Irrep              :   0
Energy             : -1979.1516963111644145 Eh
Relativity type    :
Basis              : AO
                                X                 Y                 Z
Electronic contribution:    -10.297626668       6.327323911      -7.269422193
Nuclear contribution   :     10.429020176      -7.638510594       7.499188565
                        -----------------------------------------
Total Dipole Moment    :      0.131393508      -1.311186683       0.229766372
                        -----------------------------------------
Magnitude (a.u.)       :      1.337634987
Magnitude (Debye)      :      3.399997935

Rotational constants in cm-1:             0.015133             0.006431             0.005783
Rotational constants in MHz :           453.670650           192.806898           173.363754

                             ****ORCA TERMINATED NORMALLY****
TOTAL RUN TIME: 0 days 0 hours 0 minutes 37 seconds 670 msec
