                         Program Version 6.0.1  -  RELEASE   -
|  1> ! pbe def2-sv(p) def2/J RI DEFGRID1 loosescf d4 GCP(DFT/SV(P)) printgap
|  2> %output
|  3>     printlevel normal
|  4> end
|  5> * xyz 0 1
|  6> C 3.6203762788 -4.0854649835 -0.4765909734
|  7> C 2.1890527146 -3.6856471284 -0.7970728591
|  8> O 1.8915390544 -2.3709085489 -0.2879411916
|  9> C 2.2393339642 -1.3279330095 -1.0147103311
| 10> O 2.7696221913 -1.3867476843 -2.1005485637
| 11> C 1.8476913044 -0.026768706 -0.337587442
| 12> C 0.7473653146 0.6402522067 -1.1655244775
| 13> H 1.1149159454 0.8234421564 -2.1792790991
| 14> C 0.2943701594 1.9459945126 -0.5427141163
| 15> O -0.8573508407 2.1363227256 -0.2008986914
| 16> O 1.2672843026 2.8008218208 -0.4297917459
| 17> C 1.0101050145 4.0537280297 0.2460445561
| 18> C 1.2190796417 3.8959894756 1.7429051403
| 19> S -0.7144855202 -0.4320295907 -1.3709874467
| 20> P -1.7332136539 -0.1378119769 0.4773310459
| 21> S -0.7589319278 0.3061641476 2.1297056615
| 22> O -3.1116328139 0.5913251352 0.1984260051
| 23> C -3.4861394825 1.8833394511 0.6801745061
| 24> O -2.4087317785 -1.588939869 0.5862781027
| 25> C -1.6178088455 -2.7451873191 0.8672299371
| 26> H 3.7953287534 -4.0226363779 0.5938940517
| 27> H 3.7897208399 -5.1044698618 -0.8082571821
| 28> H 4.3164909926 -3.4266616586 -0.9903329763
| 29> H 1.4738641816 -4.340004874 -0.2982397579
| 30> H 2.0186597642 -3.6849084116 -1.8774491605
| 31> H 2.7115874145 0.6387067762 -0.3115198824
| 32> H 1.5027827707 -0.2336172772 0.6764919824
| 33> H 1.7291038516 4.7473233091 -0.1890348979
| 34> H -0.0123550071 4.368538114 0.02386287
| 35> H 1.0203443126 4.8421640074 2.2347622301
| 36> H 0.5432610879 3.1415462822 2.1424672328
| 37> H 2.2403234909 3.5910713609 1.9515005401
| 38> H -3.3208945102 2.6205645692 -0.1030996878
| 39> H -2.9009073313 2.1466985775 1.5625780304
| 40> H -4.5421352809 1.8134076868 0.9319541482
| 41> H -1.015837727 -2.5799399136 1.7633172465
| 42> H -0.965244156 -2.9709538881 0.0228392403
| 43> H -2.327122037 -3.5526583336 1.0287236386
| 44> *
| 45>
| 46>                          ****END OF INPUT****

CARTESIAN COORDINATES (ANGSTROEM)
---------------------------------
  C      3.620376   -4.085465   -0.476591
  C      2.189053   -3.685647   -0.797073
  O      1.891539   -2.370909   -0.287941
  C      2.239334   -1.327933   -1.014710
  O      2.769622   -1.386748   -2.100549
  C      1.847691   -0.026769   -0.337587
  C      0.747365    0.640252   -1.165524
  H      1.114916    0.823442   -2.179279
  C      0.294370    1.945995   -0.542714
  O     -0.857351    2.136323   -0.200899
  O      1.267284    2.800822   -0.429792
  C      1.010105    4.053728    0.246045
  C      1.219080    3.895989    1.742905
  S     -0.714486   -0.432030   -1.370987
  P     -1.733214   -0.137812    0.477331
  S     -0.758932    0.306164    2.129706
  O     -3.111633    0.591325    0.198426
  C     -3.486139    1.883339    0.680175
  O     -2.408732   -1.588940    0.586278
  C     -1.617809   -2.745187    0.867230
  H      3.795329   -4.022636    0.593894
  H      3.789721   -5.104470   -0.808257
  H      4.316491   -3.426662   -0.990333
  H      1.473864   -4.340005   -0.298240
  H      2.018660   -3.684908   -1.877449
  H      2.711587    0.638707   -0.311520
  H      1.502783   -0.233617    0.676492
  H      1.729104    4.747323   -0.189035
  H     -0.012355    4.368538    0.023863
  H      1.020344    4.842164    2.234762
  H      0.543261    3.141546    2.142467
  H      2.240323    3.591071    1.951501
  H     -3.320895    2.620565   -0.103100
  H     -2.900907    2.146699    1.562578
  H     -4.542135    1.813408    0.931954
  H     -1.015838   -2.579940    1.763317
  H     -0.965244   -2.970954    0.022839
  H     -2.327122   -3.552658    1.028724

 Total Charge           Charge          ....    0
 Multiplicity           Mult            ....    1
 Number of Electrons    NEL             ....  174
 Basis Dimension        Dim             ....  316

ORBITAL ENERGIES
----------------

  NO   OCC          E(Eh)            E(eV)
   0   2.0000     -88.036709     -2395.6006
   1   2.0000     -87.977502     -2393.9895
   2   2.0000     -76.422414     -2079.5596
   3   2.0000     -18.828069      -512.3378
   4   2.0000     -18.805862      -511.7335
   5   2.0000     -18.781474      -511.0699
   6   2.0000     -18.775079      -510.8959
   7   2.0000     -18.763620      -510.5841
   8   2.0000     -18.740207      -509.9470
   9   2.0000     -10.033951      -273.0377
  10   2.0000     -10.011644      -272.4307
  11   2.0000      -9.962294      -271.0878
  12   2.0000      -9.954987      -270.8890
  13   2.0000      -9.950003      -270.7533
  14   2.0000      -9.934201      -270.3234
  15   2.0000      -9.931848      -270.2593
  16   2.0000      -9.907587      -269.5991
  17   2.0000      -9.891907      -269.1725
  18   2.0000      -9.888612      -269.0828
  19   2.0000      -7.681436      -209.0225
  20   2.0000      -7.622502      -207.4188
  21   2.0000      -6.417960      -174.6416
  22   2.0000      -5.709543      -155.3646
  23   2.0000      -5.705999      -155.2681
  24   2.0000      -5.698138      -155.0542
  25   2.0000      -5.651495      -153.7850
  26   2.0000      -5.643436      -153.5657
  27   2.0000      -5.642207      -153.5323
  28   2.0000      -4.640372      -126.2709
  29   2.0000      -4.640134      -126.2645
  30   2.0000      -4.638591      -126.2225
  31   2.0000      -1.038130       -28.2490
  32   2.0000      -1.012940       -27.5635
  33   2.0000      -0.974572       -26.5195
  34   2.0000      -0.943078       -25.6625
  35   2.0000      -0.928550       -25.2671
  36   2.0000      -0.918309       -24.9885
  37   2.0000      -0.768900       -20.9228
  38   2.0000      -0.718274       -19.5452
  39   2.0000      -0.709446       -19.3050
  40   2.0000      -0.688572       -18.7370
  41   2.0000      -0.654308       -17.8046
  42   2.0000      -0.631074       -17.1724
  43   2.0000      -0.624867       -17.0035
  44   2.0000      -0.612175       -16.6581
  45   2.0000      -0.598956       -16.2984
  46   2.0000      -0.569225       -15.4894
  47   2.0000      -0.513932       -13.9848
  48   2.0000      -0.508071       -13.8253
  49   2.0000      -0.498689       -13.5700
  50   2.0000      -0.490213       -13.3394
  51   2.0000      -0.466233       -12.6868
  52   2.0000      -0.462710       -12.5910
  53   2.0000      -0.450501       -12.2588
  54   2.0000      -0.442303       -12.0357
  55   2.0000      -0.430546       -11.7158
  56   2.0000      -0.423699       -11.5294
  57   2.0000      -0.418340       -11.3836
  58   2.0000      -0.415454       -11.3051
  59   2.0000      -0.406019       -11.0483
  60   2.0000      -0.400110       -10.8876
  61   2.0000      -0.399134       -10.8610
  62   2.0000      -0.390180       -10.6173
  63   2.0000      -0.387270       -10.5381
  64   2.0000      -0.382696       -10.4137
  65   2.0000      -0.370916       -10.0931
  66   2.0000      -0.362724        -9.8702
  67   2.0000      -0.359359        -9.7787
  68   2.0000      -0.352382        -9.5888
  69   2.0000      -0.341150        -9.2832
  70   2.0000      -0.337919        -9.1952
  71   2.0000      -0.335121        -9.1191
  72   2.0000      -0.328815        -8.9475
  73   2.0000      -0.311127        -8.4662
  74   2.0000      -0.305060        -8.3011
  75   2.0000      -0.297407        -8.0929
  76   2.0000      -0.295343        -8.0367
  77   2.0000      -0.287107        -7.8126
  78   2.0000      -0.278293        -7.5728
  79   2.0000      -0.265373        -7.2212
  80   2.0000      -0.261276        -7.1097
  81   2.0000      -0.249066        -6.7774
  82   2.0000      -0.246020        -6.6945
  83   2.0000      -0.226515        -6.1638
  84   2.0000      -0.220137        -5.9902
  85   2.0000      -0.196597        -5.3497
  86   2.0000      -0.190311        -5.1786
  87   0.0000      -0.051580        -1.4036
  88   0.0000      -0.038954        -1.0600
  89   0.0000      -0.019345        -0.5264
  90   0.0000       0.003497         0.0952
  91   0.0000       0.029033         0.7900

MULLIKEN ATOMIC CHARGES
-----------------------
   0 C :   -0.303198
   1 C :   -0.016830
   2 O :   -0.219376
   3 C :    0.124608
   4 O :   -0.205990
   5 C :   -0.069779
   6 C :   -0.334647
   7 H :    0.158973
   8 C :    0.236429
   9 O :   -0.194391
  10 O :   -0.215723
  11 C :   -0.013739
  12 C :   -0.315543
  13 S :   -0.084981
  14 P :    0.624808
  15 S :   -0.346180
  16 O :   -0.365528
  17 C :   -0.085475
  18 O :   -0.372377
  19 C :   -0.109787
  20 H :    0.115730
  21 H :    0.113655
  22 H :    0.128468
  23 H :    0.104003
  24 H :    0.109891
  25 H :    0.117308
  26 H :    0.116982
  27 H :    0.110798
  28 H :    0.113767
  29 H :    0.115399
  30 H :    0.145001
  31 H :    0.116747
  32 H :    0.116863
  33 H :    0.114628
  34 H :    0.119632
  35 H :    0.112343
  36 H :    0.117589
  37 H :    0.119921
Sum of atomic charges:   -0.0000000

LOEWDIN ATOMIC CHARGES
----------------------
   0 C :   -0.356115
   1 C :   -0.111326
   2 O :   -0.050646
   3 C :    0.024702
   4 O :   -0.169906
   5 C :   -0.255890
   6 C :   -0.258223
   7 H :    0.154450
   8 C :    0.028028
   9 O :   -0.156003
  10 O :   -0.031877
  11 C :   -0.105039
  12 C :   -0.359024
  13 S :    0.110014
  14 P :    0.590905
  15 S :   -0.332183
  16 O :   -0.235921
  17 C :   -0.207233
  18 O :   -0.257051
  19 C :   -0.223471
  20 H :    0.125721
  21 H :    0.131262
  22 H :    0.130932
  23 H :    0.116344
  24 H :    0.121016
  25 H :    0.143618
  26 H :    0.128833
  27 H :    0.121742
  28 H :    0.122191
  29 H :    0.132644
  30 H :    0.131951
  31 H :    0.126803
  32 H :    0.113167
  33 H :    0.108394
  34 H :    0.117715
  35 H :    0.107214
  36 H :    0.102528
  37 H :    0.119734

  Mayer bond orders larger than 0.100000
B(  0-C ,  1-C ) :   1.1744 B(  0-C , 20-H ) :   0.9482 B(  0-C , 21-H ) :   0.9440
B(  0-C , 22-H ) :   0.9453 B(  1-C ,  2-O ) :   0.9159 B(  1-C , 23-H ) :   0.9331
B(  1-C , 24-H ) :   0.9155 B(  2-O ,  3-C ) :   1.2352 B(  3-C ,  4-O ) :   2.0409
B(  3-C ,  5-C ) :   1.0048 B(  5-C ,  6-C ) :   1.0575 B(  5-C , 25-H ) :   0.8740
B(  5-C , 26-H ) :   0.8761 B(  6-C ,  7-H ) :   0.8568 B(  6-C ,  8-C ) :   0.9185
B(  6-C , 13-S ) :   1.0309 B(  8-C ,  9-O ) :   1.9313 B(  8-C , 10-O ) :   1.2891
B(  9-O , 14-P ) :   0.1132 B( 10-O , 11-C ) :   0.8927 B( 11-C , 12-C ) :   1.1780
B( 11-C , 27-H ) :   0.9361 B( 11-C , 28-H ) :   0.9144 B( 12-C , 29-H ) :   0.9410
B( 12-C , 30-H ) :   0.9302 B( 12-C , 31-H ) :   0.9482 B( 13-S , 14-P ) :   0.9267
B( 13-S , 15-S ) :   0.1176 B( 14-P , 15-S ) :   1.5433 B( 14-P , 16-O ) :   1.1434
B( 14-P , 18-O ) :   1.0853 B( 16-O , 17-C ) :   0.9279 B( 17-C , 32-H ) :   0.9537
B( 17-C , 33-H ) :   0.9358 B( 17-C , 34-H ) :   0.9543 B( 18-O , 19-C ) :   0.9452
B( 19-C , 35-H ) :   0.9350 B( 19-C , 36-H ) :   0.9370 B( 19-C , 37-H ) :   0.9576

Dispersion correction           -0.052802541
FINAL SINGLE POINT ENERGY     -1979.017390112665

DIPOLE MOMENT
-------------

Method             : SCF
Type of density    : Electron Density
Multiplicity       :   1
Irrep              :   0
Energy             : -1979.1475262434842080 Eh
Relativity type    :
Basis              : AO
                                X                 Y                 Z
Electronic contribution:    -11.477667027       1.505605556      -5.200728790
Nuclear contribution   :     12.065781726      -0.979809154       5.311820390
                        -----------------------------------------
Total Dipole Moment    :      0.588114699       0.525796402       0.111091600
                        -----------------------------------------
Magnitude (a.u.)       :      0.796669379
Magnitude (Debye)      :      2.024972634

Rotational constants in cm-1:             0.012338             0.007824             0.005808
Rotational constants in MHz :           369.871781           234.566702           174.105958

                             ****ORCA TERMINATED NORMALLY****
TOTAL RUN TIME: 0 days 0 hours 0 minutes 44 seconds 89 msec
