                         Program Version 6.0.0  -   RELEASE  -
|  1> ! pbe def2-sv(p) def2/J RI DEFGRID1 loosescf d4 GCP(DFT/SV(P)) printgap
|  2> %output
|  3>     printlevel normal
|  4> end
|  5> * xyz 0 1
|  6> C 4.5882170934 -0.2160454401 -1.8787467276
|  7> C 4.4588613484 0.8864480564 -0.8475049763
|  8> O 3.5892921353 0.5206240587 0.2366132132
|  9> P 2.0285472404 0.2996782732 0.0453182409
| 10> S 1.1710088552 1.5707953429 -1.1773864305
| 11> O 1.4667746429 0.4480182258 1.5125096387
| 12> C 1.6387783064 -0.4879911387 2.6102735392
| 13> C 3.0865852588 -0.83617884 2.8745126493
| 14> S 1.8490551105 -1.7586354437 -0.4582726552
| 15> C 0.1175991602 -1.741289778 -0.9659927217
| 16> S -1.0188184412 -1.447250656 0.4259706794
| 17> P -2.1305703709 0.2141506804 -0.3102553464
| 18> S -2.1265522291 0.458506121 -2.2495253456
| 19> O -1.6191550301 1.5087583631 0.4270531958
| 20> C -1.5800641609 1.6443959759 1.8676128046
| 21> C -2.7429144962 2.484862167 2.3524510214
| 22> O -3.5334684956 -0.0035428303 0.4091530465
| 23> C -4.3159929632 -1.2123166035 0.3833844896
| 24> C -4.6370435018 -1.6802221918 -1.0202457802
| 25> H 5.3542608662 0.0548449744 -2.5982237796
| 26> H 4.8567025615 -1.1544666616 -1.4004003503
| 27> H 3.6436620475 -0.3454600295 -2.4052451139
| 28> H 4.0709328956 1.8000032205 -1.309203122
| 29> H 5.4110360992 1.0933931732 -0.3570289217
| 30> H 1.1918407142 0.0400045177 3.4540161658
| 31> H 1.0547263116 -1.3852099315 2.3852076158
| 32> H 3.1413116822 -1.4472960251 3.7702107771
| 33> H 3.5006086087 -1.3954854089 2.0384306178
| 34> H 3.6726066667 0.067631226 3.0182234525
| 35> H -0.0890033518 -2.7288538939 -1.3705599917
| 36> H -0.0524864928 -0.9630100424 -1.7160898127
| 37> H -1.5927932892 0.647680408 2.3188224515
| 38> H -0.6213034036 2.1266591917 2.0716363746
| 39> H -2.6613907866 2.6182803804 3.4265659943
| 40> H -2.7253482942 3.4562724837 1.8658169385
| 41> H -3.6837499202 1.9938199909 2.1182078374
| 42> H -3.7704664849 -1.9837965013 0.9338123678
| 43> H -5.2221447241 -0.9396486215 0.9273652997
| 44> H -3.7250930125 -1.9637881292 -1.5431083623
| 45> H -5.2999454692 -2.5379450684 -0.970050664
| 46> H -5.1173662363 -0.8847204315 -1.5849737595
| 47> *
| 48>
| 49>                          ****END OF INPUT****

CARTESIAN COORDINATES (ANGSTROEM)
---------------------------------
  C      4.588217   -0.216045   -1.878747
  C      4.458861    0.886448   -0.847505
  O      3.589292    0.520624    0.236613
  P      2.028547    0.299678    0.045318
  S      1.171009    1.570795   -1.177386
  O      1.466775    0.448018    1.512510
  C      1.638778   -0.487991    2.610274
  C      3.086585   -0.836179    2.874513
  S      1.849055   -1.758635   -0.458273
  C      0.117599   -1.741290   -0.965993
  S     -1.018818   -1.447251    0.425971
  P     -2.130570    0.214151   -0.310255
  S     -2.126552    0.458506   -2.249525
  O     -1.619155    1.508758    0.427053
  C     -1.580064    1.644396    1.867613
  C     -2.742914    2.484862    2.352451
  O     -3.533468   -0.003543    0.409153
  C     -4.315993   -1.212317    0.383384
  C     -4.637044   -1.680222   -1.020246
  H      5.354261    0.054845   -2.598224
  H      4.856703   -1.154467   -1.400400
  H      3.643662   -0.345460   -2.405245
  H      4.070933    1.800003   -1.309203
  H      5.411036    1.093393   -0.357029
  H      1.191841    0.040005    3.454016
  H      1.054726   -1.385210    2.385208
  H      3.141312   -1.447296    3.770211
  H      3.500609   -1.395485    2.038431
  H      3.672607    0.067631    3.018223
  H     -0.089003   -2.728854   -1.370560
  H     -0.052486   -0.963010   -1.716090
  H     -1.592793    0.647680    2.318822
  H     -0.621303    2.126659    2.071636
  H     -2.661391    2.618280    3.426566
  H     -2.725348    3.456272    1.865817
  H     -3.683750    1.993820    2.118208
  H     -3.770466   -1.983797    0.933812
  H     -5.222145   -0.939649    0.927365
  H     -3.725093   -1.963788   -1.543108
  H     -5.299945   -2.537945   -0.970051
  H     -5.117366   -0.884720   -1.584974

 Total Charge           Charge          ....    0
 Multiplicity           Mult            ....    1
 Number of Electrons    NEL             ....  202
 Basis Dimension        Dim             ....  334

ORBITAL ENERGIES
----------------

  NO   OCC          E(Eh)            E(eV)
   0   2.0000     -88.046187     -2395.8586
   1   2.0000     -88.043449     -2395.7841
   2   2.0000     -87.977109     -2393.9788
   3   2.0000     -87.976773     -2393.9697
   4   2.0000     -76.423589     -2079.5916
   5   2.0000     -76.421380     -2079.5315
   6   2.0000     -18.791853      -511.3523
   7   2.0000     -18.791516      -511.3431
   8   2.0000     -18.790992      -511.3289
   9   2.0000     -18.780844      -511.0527
  10   2.0000      -9.956656      -270.9344
  11   2.0000      -9.955691      -270.9081
  12   2.0000      -9.955219      -270.8953
  13   2.0000      -9.951749      -270.8009
  14   2.0000      -9.947515      -270.6856
  15   2.0000      -9.888996      -269.0933
  16   2.0000      -9.883387      -268.9406
  17   2.0000      -9.880978      -268.8751
  18   2.0000      -9.880688      -268.8672
  19   2.0000      -7.691026      -209.2835
  20   2.0000      -7.687914      -209.1988
  21   2.0000      -7.622060      -207.4068
  22   2.0000      -7.622006      -207.4053
  23   2.0000      -6.420845      -174.7201
  24   2.0000      -6.418480      -174.6557
  25   2.0000      -5.718844      -155.6177
  26   2.0000      -5.715683      -155.5316
  27   2.0000      -5.715368      -155.5231
  28   2.0000      -5.712279      -155.4390
  29   2.0000      -5.708261      -155.3297
  30   2.0000      -5.705217      -155.2468
  31   2.0000      -5.651235      -153.7779
  32   2.0000      -5.651058      -153.7731
  33   2.0000      -5.642634      -153.5439
  34   2.0000      -5.642469      -153.5394
  35   2.0000      -5.642221      -153.5326
  36   2.0000      -5.641942      -153.5250
  37   2.0000      -4.643654      -126.3602
  38   2.0000      -4.642722      -126.3349
  39   2.0000      -4.641214      -126.2938
  40   2.0000      -4.640981      -126.2875
  41   2.0000      -4.640516      -126.2749
  42   2.0000      -4.638613      -126.2231
  43   2.0000      -0.986009       -26.8307
  44   2.0000      -0.983327       -26.7577
  45   2.0000      -0.944879       -25.7115
  46   2.0000      -0.937882       -25.5211
  47   2.0000      -0.762738       -20.7552
  48   2.0000      -0.718304       -19.5461
  49   2.0000      -0.709919       -19.3179
  50   2.0000      -0.690822       -18.7982
  51   2.0000      -0.687169       -18.6988
  52   2.0000      -0.677258       -18.4291
  53   2.0000      -0.647706       -17.6250
  54   2.0000      -0.632449       -17.2098
  55   2.0000      -0.595974       -16.2173
  56   2.0000      -0.586027       -15.9466
  57   2.0000      -0.578037       -15.7292
  58   2.0000      -0.568527       -15.4704
  59   2.0000      -0.565244       -15.3811
  60   2.0000      -0.501890       -13.6571
  61   2.0000      -0.490706       -13.3528
  62   2.0000      -0.472197       -12.8491
  63   2.0000      -0.468710       -12.7543
  64   2.0000      -0.450542       -12.2599
  65   2.0000      -0.449304       -12.2262
  66   2.0000      -0.442223       -12.0335
  67   2.0000      -0.435409       -11.8481
  68   2.0000      -0.431199       -11.7335
  69   2.0000      -0.419323       -11.4104
  70   2.0000      -0.409719       -11.1490
  71   2.0000      -0.404810       -11.0154
  72   2.0000      -0.399561       -10.8726
  73   2.0000      -0.381496       -10.3810
  74   2.0000      -0.379336       -10.3223
  75   2.0000      -0.365766        -9.9530
  76   2.0000      -0.361896        -9.8477
  77   2.0000      -0.355130        -9.6636
  78   2.0000      -0.354135        -9.6365
  79   2.0000      -0.350449        -9.5362
  80   2.0000      -0.346757        -9.4357
  81   2.0000      -0.344910        -9.3855
  82   2.0000      -0.340145        -9.2558
  83   2.0000      -0.336142        -9.1469
  84   2.0000      -0.333985        -9.0882
  85   2.0000      -0.315735        -8.5916
  86   2.0000      -0.313233        -8.5235
  87   2.0000      -0.294670        -8.0184
  88   2.0000      -0.293548        -7.9878
  89   2.0000      -0.290155        -7.8955
  90   2.0000      -0.283043        -7.7020
  91   2.0000      -0.274202        -7.4614
  92   2.0000      -0.269948        -7.3456
  93   2.0000      -0.260888        -7.0991
  94   2.0000      -0.257052        -6.9947
  95   2.0000      -0.237459        -6.4616
  96   2.0000      -0.221860        -6.0371
  97   2.0000      -0.208186        -5.6650
  98   2.0000      -0.197019        -5.3612
  99   2.0000      -0.188911        -5.1405
 100   2.0000      -0.180370        -4.9081
 101   0.0000      -0.041567        -1.1311
 102   0.0000      -0.031853        -0.8668
 103   0.0000      -0.010345        -0.2815
 104   0.0000       0.007785         0.2118
 105   0.0000       0.019804         0.5389

MULLIKEN ATOMIC CHARGES
-----------------------
   0 C :   -0.320247
   1 C :    0.000109
   2 O :   -0.374912
   3 P :    0.584858
   4 S :   -0.277883
   5 O :   -0.358224
   6 C :   -0.007335
   7 C :   -0.299684
   8 S :   -0.115771
   9 C :   -0.335895
  10 S :   -0.140726
  11 P :    0.603414
  12 S :   -0.286037
  13 O :   -0.336806
  14 C :   -0.018391
  15 C :   -0.281700
  16 O :   -0.382905
  17 C :   -0.006135
  18 C :   -0.305356
  19 H :    0.114517
  20 H :    0.114521
  21 H :    0.131594
  22 H :    0.113970
  23 H :    0.103226
  24 H :    0.103665
  25 H :    0.112636
  26 H :    0.112195
  27 H :    0.118916
  28 H :    0.121865
  29 H :    0.180633
  30 H :    0.209520
  31 H :    0.091512
  32 H :    0.119925
  33 H :    0.103600
  34 H :    0.122287
  35 H :    0.116623
  36 H :    0.107582
  37 H :    0.105458
  38 H :    0.120650
  39 H :    0.108254
  40 H :    0.126474
Sum of atomic charges:    0.0000000

LOEWDIN ATOMIC CHARGES
----------------------
   0 C :   -0.371453
   1 C :   -0.118234
   2 O :   -0.243004
   3 P :    0.562205
   4 S :   -0.286803
   5 O :   -0.235638
   6 C :   -0.117211
   7 C :   -0.366162
   8 S :    0.073603
   9 C :   -0.478511
  10 S :    0.057746
  11 P :    0.568300
  12 S :   -0.289030
  13 O :   -0.222458
  14 C :   -0.115019
  15 C :   -0.358242
  16 O :   -0.247224
  17 C :   -0.117289
  18 C :   -0.368865
  19 H :    0.131861
  20 H :    0.121890
  21 H :    0.123091
  22 H :    0.113148
  23 H :    0.117862
  24 H :    0.118414
  25 H :    0.101626
  26 H :    0.131026
  27 H :    0.118196
  28 H :    0.128642
  29 H :    0.136291
  30 H :    0.126550
  31 H :    0.098675
  32 H :    0.121749
  33 H :    0.126452
  34 H :    0.130195
  35 H :    0.124814
  36 H :    0.104931
  37 H :    0.119072
  38 H :    0.119779
  39 H :    0.128478
  40 H :    0.130548

  Mayer bond orders larger than 0.100000
B(  0-C ,  1-C ) :   1.1657 B(  0-C , 19-H ) :   0.9376 B(  0-C , 20-H ) :   0.9449
B(  0-C , 21-H ) :   0.9337 B(  1-C ,  2-O ) :   0.9053 B(  1-C , 22-H ) :   0.9145
B(  1-C , 23-H ) :   0.9338 B(  2-O ,  3-P ) :   1.0876 B(  3-P ,  4-S ) :   1.6643
B(  3-P ,  5-O ) :   1.1266 B(  3-P ,  8-S ) :   0.9275 B(  4-S ,  8-S ) :   0.1071
B(  5-O ,  6-C ) :   0.8975 B(  6-C ,  7-C ) :   1.1737 B(  6-C , 24-H ) :   0.9329
B(  6-C , 25-H ) :   0.9096 B(  7-C , 26-H ) :   0.9353 B(  7-C , 27-H ) :   0.9377
B(  7-C , 28-H ) :   0.9427 B(  8-S ,  9-C ) :   1.0055 B(  9-C , 10-S ) :   0.9929
B(  9-C , 29-H ) :   0.9107 B(  9-C , 30-H ) :   0.8426 B( 10-S , 11-P ) :   0.9321
B( 10-S , 12-S ) :   0.1138 B( 11-P , 12-S ) :   1.6500 B( 11-P , 13-O ) :   1.1452
B( 11-P , 16-O ) :   1.0695 B( 13-O , 14-C ) :   0.8969 B( 14-C , 15-C ) :   1.1586
B( 14-C , 31-H ) :   0.9162 B( 14-C , 32-H ) :   0.9274 B( 15-C , 33-H ) :   0.9409
B( 15-C , 34-H ) :   0.9468 B( 15-C , 35-H ) :   0.9429 B( 16-O , 17-C ) :   0.9159
B( 17-C , 18-C ) :   1.1674 B( 17-C , 36-H ) :   0.9237 B( 17-C , 37-H ) :   0.9331
B( 18-C , 38-H ) :   0.9331 B( 18-C , 39-H ) :   0.9349 B( 18-C , 40-H ) :   0.9438

Dispersion correction           -0.068225448
FINAL SINGLE POINT ENERGY     -2929.513648035279

DIPOLE MOMENT
-------------

Method             : SCF
Type of density    : Electron Density
Multiplicity       :   1
Irrep              :   0
Energy             : -2929.6321185132696883 Eh
Relativity type    :
Basis              : AO
                                X                 Y                 Z
Electronic contribution:     -0.954263871       2.815848245     -10.935194552
Nuclear contribution   :      1.347313117      -3.982633447      12.640271919
                        -----------------------------------------
Total Dipole Moment    :      0.393049246      -1.166785201       1.705077366
                        -----------------------------------------
Magnitude (a.u.)       :      2.103132007
Magnitude (Debye)      :      5.345736730

Rotational constants in cm-1:             0.012815             0.005301             0.005006
Rotational constants in MHz :           384.195555           158.916585           150.089394

                             ****ORCA TERMINATED NORMALLY****
TOTAL RUN TIME: 0 days 0 hours 0 minutes 21 seconds 299 msec
