                         Program Version 6.0.0  -   RELEASE  -
|  1> ! pbe def2-sv(p) def2/J RI DEFGRID1 loosescf d4 GCP(DFT/SV(P)) printgap
|  2> %output
|  3>     printlevel normal
|  4> end
|  5> * xyz 0 1
|  6> C -2.4398519108 -0.0006406811 0.0062172673
|  7> C -0.9413619153 -0.0033466662 -0.0085109193
|  8> C -0.2291494274 -1.196057835 -0.0049209886
|  9> C 1.1549287519 -1.1949721893 0.0015130551
| 10> C 1.8490594538 0.002669356 0.0047084854
| 11> C 1.1497788731 1.1980480182 0.0015722872
| 12> C -0.23347246 1.1931763724 -0.0049569841
| 13> H -2.8331131764 -0.9425845893 -0.3670699458
| 14> H -2.7995715 0.1387753874 1.0255890863
| 15> H -2.829476395 0.8131314295 -0.6008041761
| 16> H -0.7638223243 -2.1352452957 -0.0087966655
| 17> H 1.6930591467 -2.1315941333 0.0025055349
| 18> H 2.9288745549 0.0049835652 0.0074507154
| 19> H 1.6844138898 2.1366706811 0.002146481
| 20> H -0.7735413751 2.1292521977 -0.0088547052
| 21> *
| 22>
| 23>                          ****END OF INPUT****

CARTESIAN COORDINATES (ANGSTROEM)
---------------------------------
  C     -2.439852   -0.000641    0.006217
  C     -0.941362   -0.003347   -0.008511
  C     -0.229149   -1.196058   -0.004921
  C      1.154929   -1.194972    0.001513
  C      1.849059    0.002669    0.004708
  C      1.149779    1.198048    0.001572
  C     -0.233472    1.193176   -0.004957
  H     -2.833113   -0.942585   -0.367070
  H     -2.799571    0.138775    1.025589
  H     -2.829476    0.813131   -0.600804
  H     -0.763822   -2.135245   -0.008797
  H      1.693059   -2.131594    0.002506
  H      2.928875    0.004984    0.007451
  H      1.684414    2.136671    0.002146
  H     -0.773541    2.129252   -0.008855

 Total Charge           Charge          ....    0
 Multiplicity           Mult            ....    1
 Number of Electrons    NEL             ....   50
 Basis Dimension        Dim             ....  114

ORBITAL ENERGIES
----------------

  NO   OCC          E(Eh)            E(eV)
   0   2.0000      -9.900559      -269.4079
   1   2.0000      -9.887988      -269.0658
   2   2.0000      -9.887837      -269.0617
   3   2.0000      -9.886496      -269.0252
   4   2.0000      -9.886371      -269.0218
   5   2.0000      -9.885930      -269.0098
   6   2.0000      -9.882632      -268.9201
   7   2.0000      -0.774461       -21.0741
   8   2.0000      -0.693863       -18.8810
   9   2.0000      -0.665792       -18.1171
  10   2.0000      -0.611805       -16.6481
  11   2.0000      -0.539537       -14.6816
  12   2.0000      -0.519334       -14.1318
  13   2.0000      -0.459222       -12.4961
  14   2.0000      -0.411377       -11.1941
  15   2.0000      -0.398106       -10.8330
  16   2.0000      -0.377902       -10.2832
  17   2.0000      -0.370998       -10.0954
  18   2.0000      -0.360499        -9.8097
  19   2.0000      -0.340036        -9.2528
  20   2.0000      -0.317731        -8.6459
  21   2.0000      -0.296490        -8.0679
  22   2.0000      -0.293698        -7.9919
  23   2.0000      -0.225802        -6.1444
  24   2.0000      -0.216705        -5.8968
  25   0.0000      -0.031486        -0.8568
  26   0.0000      -0.028839        -0.7848
  27   0.0000       0.043533         1.1846
  28   0.0000       0.062966         1.7134
  29   0.0000       0.076453         2.0804

MULLIKEN ATOMIC CHARGES
-----------------------
   0 C :   -0.226292
   1 C :    0.043248
   2 C :   -0.113422
   3 C :   -0.048003
   4 C :   -0.052543
   5 C :   -0.048511
   6 C :   -0.110845
   7 H :    0.104279
   8 H :    0.120612
   9 H :    0.108917
  10 H :    0.035780
  11 H :    0.050065
  12 H :    0.050943
  13 H :    0.050516
  14 H :    0.035257
Sum of atomic charges:   -0.0000000

LOEWDIN ATOMIC CHARGES
----------------------
   0 C :   -0.323137
   1 C :   -0.047695
   2 C :   -0.126220
   3 C :   -0.121398
   4 C :   -0.130413
   5 C :   -0.121227
   6 C :   -0.124927
   7 H :    0.125310
   8 H :    0.134670
   9 H :    0.127991
  10 H :    0.120028
  11 H :    0.122468
  12 H :    0.122128
  13 H :    0.122448
  14 H :    0.119974

  Mayer bond orders larger than 0.100000
B(  0-C ,  1-C ) :   1.0974 B(  0-C ,  7-H ) :   0.9440 B(  0-C ,  8-H ) :   0.9326
B(  0-C ,  9-H ) :   0.9414 B(  1-C ,  2-C ) :   1.4014 B(  1-C ,  6-C ) :   1.3911
B(  2-C ,  3-C ) :   1.3750 B(  2-C , 10-H ) :   0.9615 B(  3-C ,  4-C ) :   1.3843
B(  3-C , 11-H ) :   0.9631 B(  4-C ,  5-C ) :   1.3782 B(  4-C , 12-H ) :   0.9653
B(  5-C ,  6-C ) :   1.3819 B(  5-C , 13-H ) :   0.9635 B(  6-C , 14-H ) :   0.9648

Dispersion correction           -0.014056548
FINAL SINGLE POINT ENERGY      -270.941907226923

DIPOLE MOMENT
-------------

Method             : SCF
Type of density    : Electron Density
Multiplicity       :   1
Irrep              :   0
Energy             :  -270.9826618017131068 Eh
Relativity type    :
Basis              : AO
                                X                 Y                 Z
Electronic contribution:      3.316216525      -0.002543038      -0.026031594
Nuclear contribution   :     -3.464840574       0.012561431       0.048941058
                        -----------------------------------------
Total Dipole Moment    :     -0.148624050       0.010018393       0.022909464
                        -----------------------------------------
Magnitude (a.u.)       :      0.150712706
Magnitude (Debye)      :      0.383081255

Rotational constants in cm-1:             0.186965             0.085310             0.059223
Rotational constants in MHz :          5605.072248          2557.519521          1775.471510

                             ****ORCA TERMINATED NORMALLY****
TOTAL RUN TIME: 0 days 0 hours 0 minutes 29 seconds 182 msec
