                         Program Version 6.0.1  -  RELEASE   -
|  1> ! pbe def2-sv(p) def2/J RI DEFGRID1 loosescf d4 GCP(DFT/SV(P)) printgap
|  2> %output
|  3>     printlevel normal
|  4> end
|  5> * xyz 0 1
|  6> C 2.0830795358 -3.3689166431 -2.4127562874
|  7> C 3.2466609246 -2.8668763485 -1.5727687854
|  8> O 2.9332157 -1.5910031528 -0.9839854573
|  9> C 2.2645778278 -1.5710859045 0.1508101195
| 10> O 1.959754317 -2.5495464192 0.7939383902
| 11> C 1.9179505062 -0.150101145 0.5631330427
| 12> C 1.1486515086 0.5437621878 -0.5645124657
| 13> H 1.8154389573 0.7477924562 -1.4046553768
| 14> C 0.5139558703 1.8271301601 -0.0669869608
| 15> O -0.6954539373 1.9588127077 0.0051969861
| 16> O 1.3955502277 2.7127363929 0.2756319623
| 17> C 0.9683839343 3.9929533367 0.8003313831
| 18> C 1.7511983956 5.0873575081 0.0987889399
| 19> S -0.1848690173 -0.5028577005 -1.2488605945
| 20> P -1.6662625065 -0.3156256904 0.2408845202
| 21> S -1.3425813366 0.0304708217 2.1553229887
| 22> O -2.9660271476 0.3961592033 -0.3589597869
| 23> C -3.4523800712 1.6922098664 -0.0114983372
| 24> O -2.1047912411 -1.8432271728 -0.0052812123
| 25> C -3.1709689401 -2.4422945537 0.7339642205
| 26> H 1.2128653628 -3.5379856928 -1.7819243747
| 27> H 1.8216001265 -2.634155017 -3.1690088252
| 28> H 2.3598091343 -4.3017079522 -2.8924559967
| 29> H 4.1276362079 -2.6751192901 -2.1850520777
| 30> H 3.4814687405 -3.5744386329 -0.7725156451
| 31> H 2.8346003671 0.4056072773 0.7646881565
| 32> H 1.3176413694 -0.2033578462 1.4739447166
| 33> H -0.1086147628 4.0950148323 0.6484780454
| 34> H 1.1849882417 3.9728370612 1.8708659685
| 35> H 1.5236449518 5.0976117523 -0.9633357624
| 36> H 1.482203552 6.0465574872 0.5283196372
| 37> H 2.8162587091 4.9229127449 0.2296499441
| 38> H -4.5361003059 1.6333413917 -0.0856395135
| 39> H -3.0544511887 2.4270441399 -0.7078707887
| 40> H -3.1502243653 1.9458864948 1.0056151634
| 41> H -3.0615355853 -2.219251132 1.7977030374
| 42> H -3.0840213059 -3.5122096584 0.562248756
| 43> H -4.1300244938 -2.0707131491 0.374065435
| 44> *
| 45>
| 46>                          ****END OF INPUT****

CARTESIAN COORDINATES (ANGSTROEM)
---------------------------------
  C      2.083080   -3.368917   -2.412756
  C      3.246661   -2.866876   -1.572769
  O      2.933216   -1.591003   -0.983985
  C      2.264578   -1.571086    0.150810
  O      1.959754   -2.549546    0.793938
  C      1.917951   -0.150101    0.563133
  C      1.148652    0.543762   -0.564512
  H      1.815439    0.747792   -1.404655
  C      0.513956    1.827130   -0.066987
  O     -0.695454    1.958813    0.005197
  O      1.395550    2.712736    0.275632
  C      0.968384    3.992953    0.800331
  C      1.751198    5.087358    0.098789
  S     -0.184869   -0.502858   -1.248861
  P     -1.666263   -0.315626    0.240885
  S     -1.342581    0.030471    2.155323
  O     -2.966027    0.396159   -0.358960
  C     -3.452380    1.692210   -0.011498
  O     -2.104791   -1.843227   -0.005281
  C     -3.170969   -2.442295    0.733964
  H      1.212865   -3.537986   -1.781924
  H      1.821600   -2.634155   -3.169009
  H      2.359809   -4.301708   -2.892456
  H      4.127636   -2.675119   -2.185052
  H      3.481469   -3.574439   -0.772516
  H      2.834600    0.405607    0.764688
  H      1.317641   -0.203358    1.473945
  H     -0.108615    4.095015    0.648478
  H      1.184988    3.972837    1.870866
  H      1.523645    5.097612   -0.963336
  H      1.482204    6.046557    0.528320
  H      2.816259    4.922913    0.229650
  H     -4.536100    1.633341   -0.085640
  H     -3.054451    2.427044   -0.707871
  H     -3.150224    1.945886    1.005615
  H     -3.061536   -2.219251    1.797703
  H     -3.084021   -3.512210    0.562249
  H     -4.130024   -2.070713    0.374065

 Total Charge           Charge          ....    0
 Multiplicity           Mult            ....    1
 Number of Electrons    NEL             ....  174
 Basis Dimension        Dim             ....  316

ORBITAL ENERGIES
----------------

  NO   OCC          E(Eh)            E(eV)
   0   2.0000     -88.034059     -2395.5285
   1   2.0000     -87.968399     -2393.7418
   2   2.0000     -76.415645     -2079.3754
   3   2.0000     -18.832237      -512.4512
   4   2.0000     -18.799046      -511.5480
   5   2.0000     -18.778514      -510.9893
   6   2.0000     -18.766713      -510.6682
   7   2.0000     -18.765073      -510.6236
   8   2.0000     -18.731761      -509.7171
   9   2.0000     -10.035677      -273.0847
  10   2.0000     -10.004801      -272.2445
  11   2.0000      -9.965905      -271.1861
  12   2.0000      -9.953363      -270.8448
  13   2.0000      -9.944481      -270.6031
  14   2.0000      -9.930702      -270.2281
  15   2.0000      -9.925904      -270.0976
  16   2.0000      -9.905044      -269.5300
  17   2.0000      -9.903848      -269.4974
  18   2.0000      -9.879871      -268.8450
  19   2.0000      -7.678990      -208.9559
  20   2.0000      -7.613487      -207.1735
  21   2.0000      -6.411413      -174.4634
  22   2.0000      -5.707238      -155.3018
  23   2.0000      -5.703689      -155.2053
  24   2.0000      -5.695336      -154.9780
  25   2.0000      -5.642656      -153.5445
  26   2.0000      -5.634369      -153.3190
  27   2.0000      -5.633105      -153.2846
  28   2.0000      -4.634029      -126.0983
  29   2.0000      -4.633429      -126.0820
  30   2.0000      -4.632030      -126.0439
  31   2.0000      -1.041130       -28.3306
  32   2.0000      -1.006731       -27.3945
  33   2.0000      -0.966579       -26.3020
  34   2.0000      -0.944752       -25.7080
  35   2.0000      -0.921316       -25.0703
  36   2.0000      -0.909020       -24.7357
  37   2.0000      -0.768691       -20.9171
  38   2.0000      -0.725995       -19.7553
  39   2.0000      -0.705398       -19.1949
  40   2.0000      -0.684737       -18.6326
  41   2.0000      -0.646774       -17.5996
  42   2.0000      -0.630518       -17.1573
  43   2.0000      -0.617310       -16.7979
  44   2.0000      -0.613223       -16.6866
  45   2.0000      -0.592202       -16.1146
  46   2.0000      -0.566050       -15.4030
  47   2.0000      -0.525697       -14.3049
  48   2.0000      -0.503734       -13.7073
  49   2.0000      -0.495385       -13.4801
  50   2.0000      -0.487165       -13.2564
  51   2.0000      -0.465405       -12.6643
  52   2.0000      -0.455423       -12.3927
  53   2.0000      -0.450465       -12.2578
  54   2.0000      -0.449828       -12.2404
  55   2.0000      -0.432858       -11.7787
  56   2.0000      -0.426431       -11.6038
  57   2.0000      -0.412273       -11.2185
  58   2.0000      -0.406080       -11.0500
  59   2.0000      -0.402135       -10.9426
  60   2.0000      -0.396123       -10.7791
  61   2.0000      -0.390223       -10.6185
  62   2.0000      -0.386039       -10.5047
  63   2.0000      -0.381963       -10.3938
  64   2.0000      -0.374934       -10.2025
  65   2.0000      -0.371594       -10.1116
  66   2.0000      -0.369542       -10.0558
  67   2.0000      -0.353668        -9.6238
  68   2.0000      -0.349370        -9.5068
  69   2.0000      -0.345362        -9.3978
  70   2.0000      -0.333787        -9.0828
  71   2.0000      -0.329248        -8.9593
  72   2.0000      -0.321095        -8.7374
  73   2.0000      -0.316819        -8.6211
  74   2.0000      -0.303611        -8.2617
  75   2.0000      -0.291206        -7.9241
  76   2.0000      -0.290162        -7.8957
  77   2.0000      -0.287093        -7.8122
  78   2.0000      -0.273708        -7.4480
  79   2.0000      -0.260270        -7.0823
  80   2.0000      -0.256075        -6.9682
  81   2.0000      -0.254113        -6.9148
  82   2.0000      -0.244841        -6.6625
  83   2.0000      -0.214821        -5.8456
  84   2.0000      -0.211119        -5.7448
  85   2.0000      -0.189119        -5.1462
  86   2.0000      -0.181451        -4.9375
  87   0.0000      -0.049136        -1.3371
  88   0.0000      -0.039373        -1.0714
  89   0.0000      -0.013079        -0.3559
  90   0.0000       0.008076         0.2198
  91   0.0000       0.029609         0.8057

MULLIKEN ATOMIC CHARGES
-----------------------
   0 C :   -0.304837
   1 C :   -0.012787
   2 O :   -0.242147
   3 C :    0.122290
   4 O :   -0.178513
   5 C :   -0.071778
   6 C :   -0.333970
   7 H :    0.149127
   8 C :    0.231944
   9 O :   -0.194706
  10 O :   -0.216790
  11 C :   -0.027488
  12 C :   -0.288823
  13 S :   -0.062220
  14 P :    0.652390
  15 S :   -0.351735
  16 O :   -0.391030
  17 C :   -0.084155
  18 O :   -0.391068
  19 C :   -0.094870
  20 H :    0.139005
  21 H :    0.110704
  22 H :    0.109650
  23 H :    0.098982
  24 H :    0.109266
  25 H :    0.115272
  26 H :    0.124225
  27 H :    0.125652
  28 H :    0.121443
  29 H :    0.118132
  30 H :    0.120473
  31 H :    0.121700
  32 H :    0.113685
  33 H :    0.111099
  34 H :    0.112923
  35 H :    0.113763
  36 H :    0.120551
  37 H :    0.104642
Sum of atomic charges:   -0.0000000

LOEWDIN ATOMIC CHARGES
----------------------
   0 C :   -0.357909
   1 C :   -0.110696
   2 O :   -0.066737
   3 C :    0.021587
   4 O :   -0.150392
   5 C :   -0.254796
   6 C :   -0.263326
   7 H :    0.148283
   8 C :    0.029791
   9 O :   -0.154508
  10 O :   -0.032166
  11 C :   -0.103801
  12 C :   -0.350665
  13 S :    0.133504
  14 P :    0.590499
  15 S :   -0.339671
  16 O :   -0.253178
  17 C :   -0.212321
  18 O :   -0.268946
  19 C :   -0.215845
  20 H :    0.134125
  21 H :    0.122244
  22 H :    0.128664
  23 H :    0.115602
  24 H :    0.120389
  25 H :    0.141882
  26 H :    0.136125
  27 H :    0.124997
  28 H :    0.126458
  29 H :    0.128502
  30 H :    0.134846
  31 H :    0.129229
  32 H :    0.114541
  33 H :    0.110522
  34 H :    0.107570
  35 H :    0.107967
  36 H :    0.120023
  37 H :    0.107606

  Mayer bond orders larger than 0.100000
B(  0-C ,  1-C ) :   1.1762 B(  0-C , 20-H ) :   0.9416 B(  0-C , 21-H ) :   0.9480
B(  0-C , 22-H ) :   0.9427 B(  1-C ,  2-O ) :   0.9160 B(  1-C , 23-H ) :   0.9377
B(  1-C , 24-H ) :   0.9139 B(  2-O ,  3-C ) :   1.1992 B(  3-C ,  4-O ) :   2.0863
B(  3-C ,  5-C ) :   1.0198 B(  5-C ,  6-C ) :   1.0319 B(  5-C , 25-H ) :   0.8749
B(  5-C , 26-H ) :   0.8773 B(  6-C ,  7-H ) :   0.8616 B(  6-C ,  8-C ) :   0.9147
B(  6-C , 13-S ) :   1.0477 B(  8-C ,  9-O ) :   1.9234 B(  8-C , 10-O ) :   1.2876
B(  9-O , 14-P ) :   0.1262 B( 10-O , 11-C ) :   0.8832 B( 11-C , 12-C ) :   1.1683
B( 11-C , 27-H ) :   0.9119 B( 11-C , 28-H ) :   0.9332 B( 12-C , 29-H ) :   0.9506
B( 12-C , 30-H ) :   0.9429 B( 12-C , 31-H ) :   0.9483 B( 13-S , 14-P ) :   0.9255
B( 13-S , 15-S ) :   0.1096 B( 14-P , 15-S ) :   1.5577 B( 14-P , 16-O ) :   1.0928
B( 14-P , 18-O ) :   1.0779 B( 16-O , 17-C ) :   0.9332 B( 17-C , 32-H ) :   0.9546
B( 17-C , 33-H ) :   0.9537 B( 17-C , 34-H ) :   0.9335 B( 18-O , 19-C ) :   0.9415
B( 19-C , 35-H ) :   0.9326 B( 19-C , 36-H ) :   0.9608 B( 19-C , 37-H ) :   0.9511

Dispersion correction           -0.051853595
FINAL SINGLE POINT ENERGY     -1979.010363302574

DIPOLE MOMENT
-------------

Method             : SCF
Type of density    : Electron Density
Multiplicity       :   1
Irrep              :   0
Energy             : -1979.1405401254492062 Eh
Relativity type    :
Basis              : AO
                                X                 Y                 Z
Electronic contribution:     -5.451953656      -4.829768987       3.735206767
Nuclear contribution   :      6.093886401       6.441842407      -4.661382285
                        -----------------------------------------
Total Dipole Moment    :      0.641932744       1.612073421      -0.926175518
                        -----------------------------------------
Magnitude (a.u.)       :      1.966890809
Magnitude (Debye)      :      4.999439124

Rotational constants in cm-1:             0.010423             0.008644             0.005673
Rotational constants in MHz :           312.467421           259.145831           170.070487

                             ****ORCA TERMINATED NORMALLY****
TOTAL RUN TIME: 0 days 0 hours 0 minutes 30 seconds 881 msec
