                         Program Version 6.0.0  -   RELEASE  -
|  1> ! pbe def2-sv(p) def2/J RI DEFGRID1 loosescf d4 GCP(DFT/SV(P)) printgap
|  2> %output
|  3>     printlevel normal
|  4> end
|  5> * xyz 0 1
|  6> C 1.4141070216 -0.6118595992 2.9802516243
|  7> C 2.1218305423 0.5887372025 2.3872996184
|  8> O 3.063639687 0.2341737372 1.3592742342
|  9> P 2.7226779235 -0.6144290982 0.0571900385
| 10> S 2.5459669709 -2.5533691066 0.2292769361
| 11> O 3.9481590208 -0.2842482078 -0.8748089779
| 12> C 4.359170524 1.0615492018 -1.2193895605
| 13> C 5.5061859489 1.5136331475 -0.3387490883
| 14> S 1.0541727001 0.4325800583 -0.8092153598
| 15> C -0.056521709 -0.9707316807 -1.0708779498
| 16> S -1.326469512 -1.1104995604 0.2072178358
| 17> P -2.5326552104 0.5041172311 -0.5027701376
| 18> S -2.6489631815 0.6969062228 -2.4450221183
| 19> O -1.9276375955 1.7957276974 0.1673117819
| 20> C -1.6653590442 1.953348891 1.5831514611
| 21> C -2.8712003399 2.5078634682 2.3132446479
| 22> O -3.9152132635 0.3121068196 0.2577723463
| 23> C -4.9821694136 -0.4964889287 -0.2696493008
| 24> C -4.6219247105 -1.9670728983 -0.3196671177
| 25> H 0.7756706134 -1.0879636022 2.2362490961
| 26> H 2.1391012193 -1.3458848668 3.3235342842
| 27> H 0.8029262483 -0.2927174366 3.8184913762
| 28> H 2.7352859374 1.0962366218 3.1338233531
| 29> H 1.4017564129 1.2923027577 1.9592936525
| 30> H 4.663893807 0.9950307076 -2.2654283744
| 31> H 3.4980342851 1.7301470784 -1.1310877203
| 32> H 5.832671238 2.4982802881 -0.6584846679
| 33> H 5.1911888456 1.5574748531 0.7001132043
| 34> H 6.3344048425 0.8155332806 -0.4231542378
| 35> H 0.5242614127 -1.8951936376 -1.0444907757
| 36> H -0.5437109014 -0.8250120262 -2.0354840274
| 37> H -1.366444185 0.9855946349 1.9963403834
| 38> H -0.8270470279 2.6519680205 1.6162666067
| 39> H -2.5994555791 2.701689705 3.3462441476
| 40> H -3.1949022878 3.4347164229 1.847631603
| 41> H -3.6914864389 1.7962390089 2.2857391001
| 42> H -5.8122496698 -0.3090993985 0.4129195465
| 43> H -5.2318968754 -0.1275243896 -1.2691603114
| 44> H -5.5011618046 -2.5417549076 -0.5926822675
| 45> H -3.847098016 -2.1372979194 -1.0657855662
| 46> H -4.257210636 -2.3023870954 0.6480877004
| 47> *
| 48>
| 49>                          ****END OF INPUT****

CARTESIAN COORDINATES (ANGSTROEM)
---------------------------------
  C      1.414107   -0.611860    2.980252
  C      2.121831    0.588737    2.387300
  O      3.063640    0.234174    1.359274
  P      2.722678   -0.614429    0.057190
  S      2.545967   -2.553369    0.229277
  O      3.948159   -0.284248   -0.874809
  C      4.359171    1.061549   -1.219390
  C      5.506186    1.513633   -0.338749
  S      1.054173    0.432580   -0.809215
  C     -0.056522   -0.970732   -1.070878
  S     -1.326470   -1.110500    0.207218
  P     -2.532655    0.504117   -0.502770
  S     -2.648963    0.696906   -2.445022
  O     -1.927638    1.795728    0.167312
  C     -1.665359    1.953349    1.583151
  C     -2.871200    2.507863    2.313245
  O     -3.915213    0.312107    0.257772
  C     -4.982169   -0.496489   -0.269649
  C     -4.621925   -1.967073   -0.319667
  H      0.775671   -1.087964    2.236249
  H      2.139101   -1.345885    3.323534
  H      0.802926   -0.292717    3.818491
  H      2.735286    1.096237    3.133823
  H      1.401756    1.292303    1.959294
  H      4.663894    0.995031   -2.265428
  H      3.498034    1.730147   -1.131088
  H      5.832671    2.498280   -0.658485
  H      5.191189    1.557475    0.700113
  H      6.334405    0.815533   -0.423154
  H      0.524261   -1.895194   -1.044491
  H     -0.543711   -0.825012   -2.035484
  H     -1.366444    0.985595    1.996340
  H     -0.827047    2.651968    1.616267
  H     -2.599456    2.701690    3.346244
  H     -3.194902    3.434716    1.847632
  H     -3.691486    1.796239    2.285739
  H     -5.812250   -0.309099    0.412920
  H     -5.231897   -0.127524   -1.269160
  H     -5.501162   -2.541755   -0.592682
  H     -3.847098   -2.137298   -1.065786
  H     -4.257211   -2.302387    0.648088

 Total Charge           Charge          ....    0
 Multiplicity           Mult            ....    1
 Number of Electrons    NEL             ....  202
 Basis Dimension        Dim             ....  334

ORBITAL ENERGIES
----------------

  NO   OCC          E(Eh)            E(eV)
   0   2.0000     -88.045948     -2395.8521
   1   2.0000     -88.043488     -2395.7851
   2   2.0000     -87.989169     -2394.3070
   3   2.0000     -87.987913     -2394.2728
   4   2.0000     -76.429662     -2079.7568
   5   2.0000     -76.428250     -2079.7184
   6   2.0000     -18.799484      -511.5600
   7   2.0000     -18.797698      -511.5114
   8   2.0000     -18.795578      -511.4537
   9   2.0000     -18.791724      -511.3488
  10   2.0000      -9.961044      -271.0538
  11   2.0000      -9.960963      -271.0516
  12   2.0000      -9.959149      -271.0022
  13   2.0000      -9.957463      -270.9564
  14   2.0000      -9.950146      -270.7572
  15   2.0000      -9.890743      -269.1408
  16   2.0000      -9.888345      -269.0755
  17   2.0000      -9.886911      -269.0365
  18   2.0000      -9.885465      -268.9972
  19   2.0000      -7.690343      -209.2649
  20   2.0000      -7.688047      -209.2024
  21   2.0000      -7.634415      -207.7430
  22   2.0000      -7.633167      -207.7090
  23   2.0000      -6.427305      -174.8959
  24   2.0000      -6.425655      -174.8510
  25   2.0000      -5.717949      -155.5933
  26   2.0000      -5.715794      -155.5347
  27   2.0000      -5.714935      -155.5113
  28   2.0000      -5.712567      -155.4468
  29   2.0000      -5.707604      -155.3118
  30   2.0000      -5.705251      -155.2478
  31   2.0000      -5.663407      -154.1092
  32   2.0000      -5.662243      -154.0775
  33   2.0000      -5.654913      -153.8780
  34   2.0000      -5.654592      -153.8693
  35   2.0000      -5.653784      -153.8473
  36   2.0000      -5.653120      -153.8292
  37   2.0000      -4.650207      -126.5386
  38   2.0000      -4.648986      -126.5053
  39   2.0000      -4.648372      -126.4886
  40   2.0000      -4.647559      -126.4665
  41   2.0000      -4.647525      -126.4656
  42   2.0000      -4.645867      -126.4205
  43   2.0000      -0.992663       -27.0117
  44   2.0000      -0.991077       -26.9686
  45   2.0000      -0.950896       -25.8752
  46   2.0000      -0.947669       -25.7874
  47   2.0000      -0.763383       -20.7727
  48   2.0000      -0.724673       -19.7194
  49   2.0000      -0.715514       -19.4701
  50   2.0000      -0.694701       -18.9038
  51   2.0000      -0.693651       -18.8752
  52   2.0000      -0.678852       -18.4725
  53   2.0000      -0.653173       -17.7737
  54   2.0000      -0.641464       -17.4551
  55   2.0000      -0.599788       -16.3211
  56   2.0000      -0.593278       -16.1439
  57   2.0000      -0.581002       -15.8099
  58   2.0000      -0.578069       -15.7301
  59   2.0000      -0.564127       -15.3507
  60   2.0000      -0.508287       -13.8312
  61   2.0000      -0.500254       -13.6126
  62   2.0000      -0.479671       -13.0525
  63   2.0000      -0.476785       -12.9740
  64   2.0000      -0.459974       -12.5165
  65   2.0000      -0.452660       -12.3175
  66   2.0000      -0.446728       -12.1561
  67   2.0000      -0.438273       -11.9260
  68   2.0000      -0.434566       -11.8251
  69   2.0000      -0.426084       -11.5943
  70   2.0000      -0.413274       -11.2458
  71   2.0000      -0.405846       -11.0436
  72   2.0000      -0.397702       -10.8220
  73   2.0000      -0.388318       -10.5667
  74   2.0000      -0.380619       -10.3572
  75   2.0000      -0.371646       -10.1130
  76   2.0000      -0.366178        -9.9642
  77   2.0000      -0.361127        -9.8268
  78   2.0000      -0.357970        -9.7409
  79   2.0000      -0.354734        -9.6528
  80   2.0000      -0.353917        -9.6306
  81   2.0000      -0.350600        -9.5403
  82   2.0000      -0.346419        -9.4265
  83   2.0000      -0.342993        -9.3333
  84   2.0000      -0.338626        -9.2145
  85   2.0000      -0.322977        -8.7887
  86   2.0000      -0.317996        -8.6531
  87   2.0000      -0.301983        -8.2174
  88   2.0000      -0.299827        -8.1587
  89   2.0000      -0.295421        -8.0388
  90   2.0000      -0.290044        -7.8925
  91   2.0000      -0.280758        -7.6398
  92   2.0000      -0.277305        -7.5459
  93   2.0000      -0.267200        -7.2709
  94   2.0000      -0.259349        -7.0573
  95   2.0000      -0.237783        -6.4704
  96   2.0000      -0.220690        -6.0053
  97   2.0000      -0.212796        -5.7905
  98   2.0000      -0.204984        -5.5779
  99   2.0000      -0.204512        -5.5651
 100   2.0000      -0.201755        -5.4900
 101   0.0000      -0.045142        -1.2284
 102   0.0000      -0.032576        -0.8864
 103   0.0000      -0.012903        -0.3511
 104   0.0000       0.001532         0.0417
 105   0.0000       0.011380         0.3097

MULLIKEN ATOMIC CHARGES
-----------------------
   0 C :   -0.322442
   1 C :   -0.016484
   2 O :   -0.379741
   3 P :    0.592552
   4 S :   -0.299079
   5 O :   -0.350597
   6 C :   -0.015314
   7 C :   -0.287596
   8 S :   -0.111002
   9 C :   -0.360088
  10 S :   -0.096537
  11 P :    0.604903
  12 S :   -0.310193
  13 O :   -0.349393
  14 C :   -0.043390
  15 C :   -0.283712
  16 O :   -0.381666
  17 C :   -0.001657
  18 C :   -0.318653
  19 H :    0.136945
  20 H :    0.127406
  21 H :    0.108005
  22 H :    0.106343
  23 H :    0.114276
  24 H :    0.114952
  25 H :    0.104338
  26 H :    0.110015
  27 H :    0.120888
  28 H :    0.122096
  29 H :    0.195664
  30 H :    0.197019
  31 H :    0.113547
  32 H :    0.120894
  33 H :    0.108153
  34 H :    0.120269
  35 H :    0.123870
  36 H :    0.105819
  37 H :    0.115188
  38 H :    0.115771
  39 H :    0.130676
  40 H :    0.117956
Sum of atomic charges:    0.0000000

LOEWDIN ATOMIC CHARGES
----------------------
   0 C :   -0.372811
   1 C :   -0.118084
   2 O :   -0.244812
   3 P :    0.567900
   4 S :   -0.291901
   5 O :   -0.235035
   6 C :   -0.112563
   7 C :   -0.358685
   8 S :    0.063761
   9 C :   -0.490941
  10 S :    0.088282
  11 P :    0.570631
  12 S :   -0.305340
  13 O :   -0.232829
  14 C :   -0.119581
  15 C :   -0.360596
  16 O :   -0.246183
  17 C :   -0.116507
  18 C :   -0.370840
  19 H :    0.114362
  20 H :    0.131113
  21 H :    0.127769
  22 H :    0.119711
  23 H :    0.105180
  24 H :    0.123788
  25 H :    0.104049
  26 H :    0.129397
  27 H :    0.126107
  28 H :    0.130218
  29 H :    0.126667
  30 H :    0.128005
  31 H :    0.103353
  32 H :    0.119587
  33 H :    0.129022
  34 H :    0.129532
  35 H :    0.126386
  36 H :    0.118765
  37 H :    0.114087
  38 H :    0.132524
  39 H :    0.122754
  40 H :    0.123755

  Mayer bond orders larger than 0.100000
B(  0-C ,  1-C ) :   1.1692 B(  0-C , 19-H ) :   0.9208 B(  0-C , 20-H ) :   0.9405
B(  0-C , 21-H ) :   0.9334 B(  1-C ,  2-O ) :   0.9123 B(  1-C , 22-H ) :   0.9320
B(  1-C , 23-H ) :   0.9166 B(  2-O ,  3-P ) :   1.0768 B(  3-P ,  4-S ) :   1.6458
B(  3-P ,  5-O ) :   1.1440 B(  3-P ,  8-S ) :   0.9392 B(  4-S ,  8-S ) :   0.1168
B(  4-S , 29-H ) :   0.1127 B(  5-O ,  6-C ) :   0.8934 B(  6-C ,  7-C ) :   1.1639
B(  6-C , 24-H ) :   0.9357 B(  6-C , 25-H ) :   0.9164 B(  7-C , 26-H ) :   0.9399
B(  7-C , 27-H ) :   0.9425 B(  7-C , 28-H ) :   0.9466 B(  8-S ,  9-C ) :   1.0071
B(  9-C , 10-S ) :   1.0059 B(  9-C , 29-H ) :   0.8516 B(  9-C , 30-H ) :   0.8656
B( 10-S , 11-P ) :   0.9457 B( 10-S , 12-S ) :   0.1079 B( 11-P , 12-S ) :   1.6362
B( 11-P , 13-O ) :   1.1431 B( 11-P , 16-O ) :   1.0887 B( 13-O , 14-C ) :   0.8988
B( 14-C , 15-C ) :   1.1574 B( 14-C , 31-H ) :   0.9062 B( 14-C , 32-H ) :   0.9283
B( 15-C , 33-H ) :   0.9394 B( 15-C , 34-H ) :   0.9461 B( 15-C , 35-H ) :   0.9387
B( 16-O , 17-C ) :   0.9028 B( 17-C , 18-C ) :   1.1660 B( 17-C , 36-H ) :   0.9339
B( 17-C , 37-H ) :   0.9183 B( 18-C , 38-H ) :   0.9369 B( 18-C , 39-H ) :   0.9348
B( 18-C , 40-H ) :   0.9437

Dispersion correction           -0.063920547
FINAL SINGLE POINT ENERGY     -2929.518264338291

DIPOLE MOMENT
-------------

Method             : SCF
Type of density    : Electron Density
Multiplicity       :   1
Irrep              :   0
Energy             : -2929.6395522148432065 Eh
Relativity type    :
Basis              : AO
                                X                 Y                 Z
Electronic contribution:      2.587080013      -7.249190448     -14.867347357
Nuclear contribution   :     -2.931234662       8.355471137      16.291017202
                        -----------------------------------------
Total Dipole Moment    :     -0.344154649       1.106280689       1.423669845
                        -----------------------------------------
Magnitude (a.u.)       :      1.835520420
Magnitude (Debye)      :      4.665522133

Rotational constants in cm-1:             0.013084             0.004280             0.004174
Rotational constants in MHz :           392.236849           128.323686           125.120831

                             ****ORCA TERMINATED NORMALLY****
TOTAL RUN TIME: 0 days 0 hours 0 minutes 20 seconds 759 msec
