                         Program Version 6.0.1  -  RELEASE   -
|  1> ! pbe def2-sv(p) def2/J RI DEFGRID1 loosescf d4 GCP(DFT/SV(P)) printgap
|  2> %output
|  3>     printlevel normal
|  4> end
|  5> * xyz 0 1
|  6> C 3.5553120184 -0.980176685 1.9789318241
|  7> C 2.7859578928 -1.9446129822 1.0910285328
|  8> O 2.5435370361 -1.3655499927 -0.2073988193
|  9> C 1.5342728077 -0.5544069267 -0.3609579654
| 10> O 0.7596810212 -0.2245579124 0.5273373707
| 11> C 1.3955742105 -0.0259483866 -1.766003857
| 12> C 0.2698919985 0.997361196 -1.7777315454
| 13> H 0.2604057684 1.5594535803 -2.7150692751
| 14> C 0.3876079628 1.9758084946 -0.6168265077
| 15> O -0.5507356185 2.4169396225 0.0048095397
| 16> O 1.643878687 2.322708221 -0.4171131941
| 17> C 1.9151822814 3.2532939961 0.6503584082
| 18> C 3.3895601654 3.6009702477 0.6059623532
| 19> S -1.393196441 0.2425809352 -1.750155205
| 20> P -1.7400237518 -0.7999709509 0.064278548
| 21> S -0.9401084031 -2.5638452495 0.433642481
| 22> O -1.8973890058 0.2193401115 1.2643514604
| 23> C -1.2063371037 0.1572349456 2.5086604145
| 24> O -3.3183996994 -0.9804368944 -0.1718553231
| 25> C -3.8377267974 -1.8965481285 -1.1386690318
| 26> H 2.9630402322 -0.0864252277 2.1638361288
| 27> H 3.7685019416 -1.4609950393 2.9276607201
| 28> H 4.4893056329 -0.6972657205 1.5012537586
| 29> H 1.8249061218 -2.2169633445 1.5365243813
| 30> H 3.3648494071 -2.8427054897 0.8780951084
| 31> H 1.1777614981 -0.8524524327 -2.4444698201
| 32> H 2.3394164571 0.4303718676 -2.0670571893
| 33> H 1.2798850949 4.1331844193 0.5103827394
| 34> H 1.6351789858 2.7767461626 1.5958424137
| 35> H 3.636471773 4.0512479553 -0.3504773663
| 36> H 3.6133912047 4.3035492732 1.4016077771
| 37> H 3.9896925714 2.7059161406 0.7399516631
| 38> H -0.7567819803 -0.8276804889 2.6490481605
| 39> H -1.9476400527 0.352343176 3.2807296353
| 40> H -0.431923809 0.9229749704 2.5155068445
| 41> H -3.7254240702 -1.4874791381 -2.1426446487
| 42> H -4.8891217197 -2.018695192 -0.8902469798
| 43> H -3.3166362477 -2.8536057291 -1.0646784812
| 44> *
| 45>
| 46>                          ****END OF INPUT****

CARTESIAN COORDINATES (ANGSTROEM)
---------------------------------
  C      3.555312   -0.980177    1.978932
  C      2.785958   -1.944613    1.091029
  O      2.543537   -1.365550   -0.207399
  C      1.534273   -0.554407   -0.360958
  O      0.759681   -0.224558    0.527337
  C      1.395574   -0.025948   -1.766004
  C      0.269892    0.997361   -1.777732
  H      0.260406    1.559454   -2.715069
  C      0.387608    1.975808   -0.616827
  O     -0.550736    2.416940    0.004810
  O      1.643879    2.322708   -0.417113
  C      1.915182    3.253294    0.650358
  C      3.389560    3.600970    0.605962
  S     -1.393196    0.242581   -1.750155
  P     -1.740024   -0.799971    0.064279
  S     -0.940108   -2.563845    0.433642
  O     -1.897389    0.219340    1.264351
  C     -1.206337    0.157235    2.508660
  O     -3.318400   -0.980437   -0.171855
  C     -3.837727   -1.896548   -1.138669
  H      2.963040   -0.086425    2.163836
  H      3.768502   -1.460995    2.927661
  H      4.489306   -0.697266    1.501254
  H      1.824906   -2.216963    1.536524
  H      3.364849   -2.842705    0.878095
  H      1.177761   -0.852452   -2.444470
  H      2.339416    0.430372   -2.067057
  H      1.279885    4.133184    0.510383
  H      1.635179    2.776746    1.595842
  H      3.636472    4.051248   -0.350477
  H      3.613391    4.303549    1.401608
  H      3.989693    2.705916    0.739952
  H     -0.756782   -0.827680    2.649048
  H     -1.947640    0.352343    3.280730
  H     -0.431924    0.922975    2.515507
  H     -3.725424   -1.487479   -2.142645
  H     -4.889122   -2.018695   -0.890247
  H     -3.316636   -2.853606   -1.064678

 Total Charge           Charge          ....    0
 Multiplicity           Mult            ....    1
 Number of Electrons    NEL             ....  174
 Basis Dimension        Dim             ....  316

ORBITAL ENERGIES
----------------

  NO   OCC          E(Eh)            E(eV)
   0   2.0000     -88.029614     -2395.4076
   1   2.0000     -87.965683     -2393.6679
   2   2.0000     -76.414733     -2079.3506
   3   2.0000     -18.817954      -512.0626
   4   2.0000     -18.809861      -511.8423
   5   2.0000     -18.774704      -510.8857
   6   2.0000     -18.769810      -510.7525
   7   2.0000     -18.758371      -510.4412
   8   2.0000     -18.734125      -509.7815
   9   2.0000     -10.026497      -272.8349
  10   2.0000     -10.014459      -272.5073
  11   2.0000      -9.955362      -270.8992
  12   2.0000      -9.953351      -270.8444
  13   2.0000      -9.950903      -270.7778
  14   2.0000      -9.927863      -270.1509
  15   2.0000      -9.927588      -270.1434
  16   2.0000      -9.919060      -269.9114
  17   2.0000      -9.896788      -269.3053
  18   2.0000      -9.895510      -269.2705
  19   2.0000      -7.674504      -208.8339
  20   2.0000      -7.610930      -207.1039
  21   2.0000      -6.410627      -174.4420
  22   2.0000      -5.703009      -155.1868
  23   2.0000      -5.698751      -155.0709
  24   2.0000      -5.691074      -154.8620
  25   2.0000      -5.639980      -153.4717
  26   2.0000      -5.631623      -153.2443
  27   2.0000      -5.630799      -153.2218
  28   2.0000      -4.633123      -126.0737
  29   2.0000      -4.632891      -126.0674
  30   2.0000      -4.631027      -126.0167
  31   2.0000      -1.028114       -27.9764
  32   2.0000      -1.015705       -27.6387
  33   2.0000      -0.967606       -26.3299
  34   2.0000      -0.934414       -25.4267
  35   2.0000      -0.923425       -25.1277
  36   2.0000      -0.915685       -24.9171
  37   2.0000      -0.765703       -20.8358
  38   2.0000      -0.718993       -19.5648
  39   2.0000      -0.711531       -19.3617
  40   2.0000      -0.686888       -18.6912
  41   2.0000      -0.655915       -17.8483
  42   2.0000      -0.623033       -16.9536
  43   2.0000      -0.614943       -16.7335
  44   2.0000      -0.607925       -16.5425
  45   2.0000      -0.601179       -16.3589
  46   2.0000      -0.565901       -15.3989
  47   2.0000      -0.519624       -14.1397
  48   2.0000      -0.507611       -13.8128
  49   2.0000      -0.493814       -13.4374
  50   2.0000      -0.489425       -13.3179
  51   2.0000      -0.464587       -12.6420
  52   2.0000      -0.457732       -12.4555
  53   2.0000      -0.451217       -12.2782
  54   2.0000      -0.442532       -12.0419
  55   2.0000      -0.439117       -11.9490
  56   2.0000      -0.419783       -11.4229
  57   2.0000      -0.415622       -11.3096
  58   2.0000      -0.407903       -11.0996
  59   2.0000      -0.404496       -11.0069
  60   2.0000      -0.396425       -10.7873
  61   2.0000      -0.393209       -10.6998
  62   2.0000      -0.391543       -10.6544
  63   2.0000      -0.383739       -10.4421
  64   2.0000      -0.379992       -10.3401
  65   2.0000      -0.367140        -9.9904
  66   2.0000      -0.366131        -9.9629
  67   2.0000      -0.360098        -9.7988
  68   2.0000      -0.355664        -9.6781
  69   2.0000      -0.344495        -9.3742
  70   2.0000      -0.339256        -9.2316
  71   2.0000      -0.330260        -8.9868
  72   2.0000      -0.322980        -8.7887
  73   2.0000      -0.310357        -8.4452
  74   2.0000      -0.303606        -8.2615
  75   2.0000      -0.300238        -8.1699
  76   2.0000      -0.286003        -7.7825
  77   2.0000      -0.276980        -7.5370
  78   2.0000      -0.271252        -7.3812
  79   2.0000      -0.265321        -7.2198
  80   2.0000      -0.249876        -6.7995
  81   2.0000      -0.246860        -6.7174
  82   2.0000      -0.239593        -6.5197
  83   2.0000      -0.224692        -6.1142
  84   2.0000      -0.214396        -5.8340
  85   2.0000      -0.184447        -5.0191
  86   2.0000      -0.177895        -4.8408
  87   0.0000      -0.049052        -1.3348
  88   0.0000      -0.026193        -0.7128
  89   0.0000      -0.021963        -0.5976
  90   0.0000      -0.004061        -0.1105
  91   0.0000       0.015422         0.4197

MULLIKEN ATOMIC CHARGES
-----------------------
   0 C :   -0.318639
   1 C :   -0.021075
   2 O :   -0.208396
   3 C :    0.146927
   4 O :   -0.233795
   5 C :   -0.054512
   6 C :   -0.302755
   7 H :    0.146417
   8 C :    0.191123
   9 O :   -0.171753
  10 O :   -0.249214
  11 C :   -0.035343
  12 C :   -0.276542
  13 S :   -0.091096
  14 P :    0.637265
  15 S :   -0.370269
  16 O :   -0.349377
  17 C :   -0.090627
  18 O :   -0.374842
  19 C :   -0.103756
  20 H :    0.127136
  21 H :    0.118615
  22 H :    0.115025
  23 H :    0.133847
  24 H :    0.107956
  25 H :    0.137284
  26 H :    0.124327
  27 H :    0.111632
  28 H :    0.117276
  29 H :    0.115900
  30 H :    0.114247
  31 H :    0.114465
  32 H :    0.113594
  33 H :    0.116239
  34 H :    0.116998
  35 H :    0.112792
  36 H :    0.120667
  37 H :    0.112259
Sum of atomic charges:    0.0000000

LOEWDIN ATOMIC CHARGES
----------------------
   0 C :   -0.358159
   1 C :   -0.109279
   2 O :   -0.031585
   3 C :    0.044946
   4 O :   -0.164668
   5 C :   -0.253648
   6 C :   -0.264153
   7 H :    0.151965
   8 C :    0.005033
   9 O :   -0.146649
  10 O :   -0.068279
  11 C :   -0.105151
  12 C :   -0.350868
  13 S :    0.113398
  14 P :    0.582966
  15 S :   -0.350362
  16 O :   -0.220772
  17 C :   -0.208055
  18 O :   -0.257810
  19 C :   -0.220972
  20 H :    0.127059
  21 H :    0.133842
  22 H :    0.124253
  23 H :    0.123295
  24 H :    0.121671
  25 H :    0.150597
  26 H :    0.148025
  27 H :    0.119588
  28 H :    0.117136
  29 H :    0.127261
  30 H :    0.132337
  31 H :    0.125119
  32 H :    0.105198
  33 H :    0.116595
  34 H :    0.108774
  35 H :    0.105456
  36 H :    0.120169
  37 H :    0.105729

  Mayer bond orders larger than 0.100000
B(  0-C ,  1-C ) :   1.1665 B(  0-C , 20-H ) :   0.9437 B(  0-C , 21-H ) :   0.9430
B(  0-C , 22-H ) :   0.9467 B(  1-C ,  2-O ) :   0.9004 B(  1-C , 23-H ) :   0.9077
B(  1-C , 24-H ) :   0.9379 B(  2-O ,  3-C ) :   1.2989 B(  3-C ,  4-O ) :   1.8406
B(  3-C ,  5-C ) :   1.0146 B(  5-C ,  6-C ) :   1.0303 B(  5-C , 25-H ) :   0.8809
B(  5-C , 26-H ) :   0.8733 B(  6-C ,  7-H ) :   0.8647 B(  6-C ,  8-C ) :   0.8788
B(  6-C , 13-S ) :   1.0593 B(  8-C ,  9-O ) :   2.1018 B(  8-C , 10-O ) :   1.2117
B( 10-O , 11-C ) :   0.9033 B( 11-C , 12-C ) :   1.1524 B( 11-C , 27-H ) :   0.9289
B( 11-C , 28-H ) :   0.9272 B( 12-C , 29-H ) :   0.9497 B( 12-C , 30-H ) :   0.9433
B( 12-C , 31-H ) :   0.9488 B( 13-S , 14-P ) :   0.9600 B( 13-S , 15-S ) :   0.1125
B( 14-P , 15-S ) :   1.5547 B( 14-P , 16-O ) :   1.1451 B( 14-P , 18-O ) :   1.0700
B( 16-O , 17-C ) :   0.9322 B( 17-C , 32-H ) :   0.9310 B( 17-C , 33-H ) :   0.9535
B( 17-C , 34-H ) :   0.9490 B( 18-O , 19-C ) :   0.9451 B( 19-C , 35-H ) :   0.9474
B( 19-C , 36-H ) :   0.9597 B( 19-C , 37-H ) :   0.9285

Dispersion correction           -0.054771544
FINAL SINGLE POINT ENERGY     -1979.004980283454

DIPOLE MOMENT
-------------

Method             : SCF
Type of density    : Electron Density
Multiplicity       :   1
Irrep              :   0
Energy             : -1979.1351476134614131 Eh
Relativity type    :
Basis              : AO
                                X                 Y                 Z
Electronic contribution:    -17.762634601      -5.766627861      -9.438105233
Nuclear contribution   :     19.693646868       6.344604963       9.401404051
                        -----------------------------------------
Total Dipole Moment    :      1.931012267       0.577977102      -0.036701182
                        -----------------------------------------
Magnitude (a.u.)       :      2.015989306
Magnitude (Debye)      :      5.124237586

Rotational constants in cm-1:             0.013925             0.008175             0.006760
Rotational constants in MHz :           417.471455           245.079681           202.657329

                             ****ORCA TERMINATED NORMALLY****
TOTAL RUN TIME: 0 days 0 hours 0 minutes 37 seconds 428 msec
