                         Program Version 6.0.1  -  RELEASE   -
|  1> ! r2scan-3c def2/J RI DEFGRID2 scfconv6 printgap
|  2> %output
|  3>     printlevel normal
|  4> end
|  5> * xyz 0 1
|  6> C 4.8610071141 -3.1198758993 -1.7605223953
|  7> C 4.9557579999 -2.0834349933 -0.6523306631
|  8> O 3.7505737759 -2.0655367461 0.1382513034
|  9> C 2.7561503335 -1.2911790933 -0.2411148737
| 10> O 2.7787745629 -0.5598753594 -1.210009074
| 11> C 1.5753885349 -1.4034543963 0.7007411322
| 12> C 0.4150613017 -0.6132503709 0.127647259
| 13> H 0.0428009488 -1.0467521906 -0.8068051961
| 14> C 0.7340579842 0.8444392992 -0.1270471442
| 15> O 0.1176590123 1.5047059875 -0.9383191013
| 16> O 1.6574394512 1.3134874136 0.6802825664
| 17> C 1.9910660857 2.7135698528 0.5887141529
| 18> C 0.9690696198 3.5704959218 1.3180027805
| 19> S -0.989874992 -0.5465006095 1.2900687938
| 20> P -2.4357134038 0.2228668839 -0.0747431658
| 21> S -2.3220609248 -0.4206163142 -1.9169494353
| 22> O -3.7943671053 -0.1721907426 0.6694093425
| 23> C -4.2377416205 -1.5335227993 0.7250152452
| 24> O -2.4740996951 1.7943366716 0.0960864706
| 25> C -2.7946899572 2.4049616311 1.3642136711
| 26> H 5.8037590822 -3.160421801 -2.2959717767
| 27> H 4.6441524777 -4.0980660619 -1.340675337
| 28> H 4.0712334114 -2.8503304169 -2.45855767
| 29> H 5.1156764005 -1.0847277125 -1.0683705369
| 30> H 5.7433369268 -2.3325825398 0.0588101304
| 31> H 1.8705822634 -1.0045151653 1.6729138781
| 32> H 1.3073182824 -2.4519589325 0.8289038234
| 33> H 2.9760559641 2.7802661951 1.0503372723
| 34> H 2.0458285219 2.9861352908 -0.4690447028
| 35> H 0.0050140843 3.4972713534 0.8197135432
| 36> H 0.8687490632 3.2392535325 2.3480435257
| 37> H 1.2949399992 4.6050901397 1.3022877912
| 38> H -5.279113547 -1.4893020074 1.0330156793
| 39> H -3.6425126465 -2.0841180195 1.4525192309
| 40> H -4.1492518573 -1.9961197545 -0.2590829285
| 41> H -3.8420116969 2.2286786868 1.6000840389
| 42> H -2.602784279 3.466110777 1.2267987763
| 43> H -2.1608611154 1.9922692867 2.150006602
| 44> *
| 45>
| 46>                          ****END OF INPUT****

CARTESIAN COORDINATES (ANGSTROEM)
---------------------------------
  C      4.861007   -3.119876   -1.760522
  C      4.955758   -2.083435   -0.652331
  O      3.750574   -2.065537    0.138251
  C      2.756150   -1.291179   -0.241115
  O      2.778775   -0.559875   -1.210009
  C      1.575389   -1.403454    0.700741
  C      0.415061   -0.613250    0.127647
  H      0.042801   -1.046752   -0.806805
  C      0.734058    0.844439   -0.127047
  O      0.117659    1.504706   -0.938319
  O      1.657439    1.313487    0.680283
  C      1.991066    2.713570    0.588714
  C      0.969070    3.570496    1.318003
  S     -0.989875   -0.546501    1.290069
  P     -2.435713    0.222867   -0.074743
  S     -2.322061   -0.420616   -1.916949
  O     -3.794367   -0.172191    0.669409
  C     -4.237742   -1.533523    0.725015
  O     -2.474100    1.794337    0.096086
  C     -2.794690    2.404962    1.364214
  H      5.803759   -3.160422   -2.295972
  H      4.644152   -4.098066   -1.340675
  H      4.071233   -2.850330   -2.458558
  H      5.115676   -1.084728   -1.068371
  H      5.743337   -2.332583    0.058810
  H      1.870582   -1.004515    1.672914
  H      1.307318   -2.451959    0.828904
  H      2.976056    2.780266    1.050337
  H      2.045829    2.986135   -0.469045
  H      0.005014    3.497271    0.819714
  H      0.868749    3.239254    2.348044
  H      1.294940    4.605090    1.302288
  H     -5.279114   -1.489302    1.033016
  H     -3.642513   -2.084118    1.452519
  H     -4.149252   -1.996120   -0.259083
  H     -3.842012    2.228679    1.600084
  H     -2.602784    3.466111    1.226799
  H     -2.160861    1.992269    2.150007

 Total Charge           Charge          ....    0
 Multiplicity           Mult            ....    1
 Number of Electrons    NEL             ....  174
 Basis Dimension        Dim             ....  510

ORBITAL ENERGIES
----------------

  NO   OCC          E(Eh)            E(eV)
   0   2.0000     -88.576748     -2410.2958
   1   2.0000     -88.510254     -2408.4864
   2   2.0000     -76.908837     -2092.7958
   3   2.0000     -19.009166      -517.2657
   4   2.0000     -18.997565      -516.9500
   5   2.0000     -18.989386      -516.7275
   6   2.0000     -18.988534      -516.7043
   7   2.0000     -18.941985      -515.4376
   8   2.0000     -18.921233      -514.8729
   9   2.0000     -10.167722      -276.6778
  10   2.0000     -10.152902      -276.2745
  11   2.0000     -10.100313      -274.8435
  12   2.0000     -10.093988      -274.6714
  13   2.0000     -10.092548      -274.6322
  14   2.0000     -10.089638      -274.5530
  15   2.0000     -10.087715      -274.5007
  16   2.0000     -10.063654      -273.8459
  17   2.0000     -10.035043      -273.0674
  18   2.0000     -10.028562      -272.8911
  19   2.0000      -7.870902      -214.1781
  20   2.0000      -7.804803      -212.3795
  21   2.0000      -6.587031      -179.2422
  22   2.0000      -5.817510      -158.3025
  23   2.0000      -5.814791      -158.2285
  24   2.0000      -5.808302      -158.0519
  25   2.0000      -5.752737      -156.5399
  26   2.0000      -5.745111      -156.3324
  27   2.0000      -5.744533      -156.3167
  28   2.0000      -4.732889      -128.7884
  29   2.0000      -4.732145      -128.7682
  30   2.0000      -4.730291      -128.7178
  31   2.0000      -1.086273       -29.5590
  32   2.0000      -1.074437       -29.2369
  33   2.0000      -1.047532       -28.5048
  34   2.0000      -1.004791       -27.3418
  35   2.0000      -0.990351       -26.9488
  36   2.0000      -0.973603       -26.4931
  37   2.0000      -0.810884       -22.0653
  38   2.0000      -0.759100       -20.6562
  39   2.0000      -0.742563       -20.2062
  40   2.0000      -0.729427       -19.8487
  41   2.0000      -0.699930       -19.0461
  42   2.0000      -0.674776       -18.3616
  43   2.0000      -0.655757       -17.8441
  44   2.0000      -0.645440       -17.5633
  45   2.0000      -0.632409       -17.2087
  46   2.0000      -0.597735       -16.2652
  47   2.0000      -0.539207       -14.6726
  48   2.0000      -0.533692       -14.5225
  49   2.0000      -0.519901       -14.1472
  50   2.0000      -0.496672       -13.5151
  51   2.0000      -0.492061       -13.3897
  52   2.0000      -0.485258       -13.2045
  53   2.0000      -0.462644       -12.5892
  54   2.0000      -0.456185       -12.4134
  55   2.0000      -0.452812       -12.3216
  56   2.0000      -0.449211       -12.2237
  57   2.0000      -0.444083       -12.0841
  58   2.0000      -0.431071       -11.7300
  59   2.0000      -0.429707       -11.6929
  60   2.0000      -0.419420       -11.4130
  61   2.0000      -0.416163       -11.3244
  62   2.0000      -0.412718       -11.2306
  63   2.0000      -0.406545       -11.0627
  64   2.0000      -0.391550       -10.6546
  65   2.0000      -0.383050       -10.4233
  66   2.0000      -0.375318       -10.2129
  67   2.0000      -0.367160        -9.9909
  68   2.0000      -0.364692        -9.9238
  69   2.0000      -0.352041        -9.5795
  70   2.0000      -0.349425        -9.5083
  71   2.0000      -0.345551        -9.4029
  72   2.0000      -0.340269        -9.2592
  73   2.0000      -0.326868        -8.8945
  74   2.0000      -0.318215        -8.6591
  75   2.0000      -0.316661        -8.6168
  76   2.0000      -0.311281        -8.4704
  77   2.0000      -0.307991        -8.3809
  78   2.0000      -0.286313        -7.7910
  79   2.0000      -0.283187        -7.7059
  80   2.0000      -0.274653        -7.4737
  81   2.0000      -0.265780        -7.2322
  82   2.0000      -0.250883        -6.8269
  83   2.0000      -0.247487        -6.7345
  84   2.0000      -0.233523        -6.3545
  85   2.0000      -0.208784        -5.6813
  86   2.0000      -0.198957        -5.4139
  87   0.0000      -0.047810        -1.3010
  88   0.0000      -0.025145        -0.6842
  89   0.0000      -0.009593        -0.2610
  90   0.0000       0.016203         0.4409
  91   0.0000       0.021109         0.5744

MULLIKEN ATOMIC CHARGES
-----------------------
   0 C :   -0.465135
   1 C :   -0.138571
   2 O :   -0.167151
   3 C :    0.388637
   4 O :   -0.417110
   5 C :   -0.377311
   6 C :   -0.088508
   7 H :    0.251123
   8 C :    0.339434
   9 O :   -0.395162
  10 O :   -0.142514
  11 C :   -0.117734
  12 C :   -0.495273
  13 S :   -0.242915
  14 P :    0.746053
  15 S :   -0.420776
  16 O :   -0.333326
  17 C :   -0.299261
  18 O :   -0.290300
  19 C :   -0.288545
  20 H :    0.149644
  21 H :    0.153450
  22 H :    0.173295
  23 H :    0.169667
  24 H :    0.150519
  25 H :    0.194085
  26 H :    0.179474
  27 H :    0.148209
  28 H :    0.172288
  29 H :    0.182925
  30 H :    0.153613
  31 H :    0.148456
  32 H :    0.150900
  33 H :    0.154363
  34 H :    0.179549
  35 H :    0.166265
  36 H :    0.158911
  37 H :    0.168731
Sum of atomic charges:   -0.0000000

LOEWDIN ATOMIC CHARGES
----------------------
   0 C :   -0.387563
   1 C :    0.031201
   2 O :   -0.578160
   3 C :    0.373440
   4 O :   -0.418701
   5 C :   -0.209745
   6 C :   -0.195108
   7 H :    0.211930
   8 C :    0.339929
   9 O :   -0.420613
  10 O :   -0.588835
  11 C :    0.037084
  12 C :   -0.391885
  13 S :    0.177414
  14 P :    0.393379
  15 S :   -0.074014
  16 O :   -0.688697
  17 C :   -0.060060
  18 O :   -0.641520
  19 C :   -0.055541
  20 H :    0.160700
  21 H :    0.158039
  22 H :    0.165859
  23 H :    0.189260
  24 H :    0.179160
  25 H :    0.200444
  26 H :    0.188490
  27 H :    0.178503
  28 H :    0.190281
  29 H :    0.170952
  30 H :    0.157486
  31 H :    0.159188
  32 H :    0.176449
  33 H :    0.167452
  34 H :    0.178739
  35 H :    0.174466
  36 H :    0.179130
  37 H :    0.171467

  Mayer bond orders larger than 0.100000
B(  0-C ,  1-C ) :   0.9442 B(  0-C , 20-H ) :   0.9638 B(  0-C , 21-H ) :   0.9733
B(  0-C , 22-H ) :   0.9691 B(  1-C ,  2-O ) :   0.7981 B(  1-C , 23-H ) :   0.9662
B(  1-C , 24-H ) :   0.9615 B(  2-O ,  3-C ) :   1.1329 B(  3-C ,  4-O ) :   1.7851
B(  3-C ,  5-C ) :   1.0012 B(  5-C ,  6-C ) :   0.9732 B(  5-C , 10-O ) :   0.1288
B(  5-C , 25-H ) :   0.9509 B(  5-C , 26-H ) :   0.9300 B(  6-C ,  7-H ) :   0.9532
B(  6-C ,  8-C ) :   0.8635 B(  6-C , 13-S ) :   0.8208 B(  8-C ,  9-O ) :   1.8407
B(  8-C , 10-O ) :   1.1083 B( 10-O , 11-C ) :   0.8094 B( 11-C , 12-C ) :   0.9218
B( 11-C , 27-H ) :   0.9622 B( 11-C , 28-H ) :   0.9735 B( 12-C , 29-H ) :   0.9692
B( 12-C , 30-H ) :   0.9722 B( 12-C , 31-H ) :   0.9636 B( 13-S , 14-P ) :   0.9514
B( 14-P , 15-S ) :   1.8560 B( 14-P , 16-O ) :   1.0374 B( 14-P , 18-O ) :   1.1425
B( 16-O , 17-C ) :   0.8309 B( 17-C , 32-H ) :   0.9682 B( 17-C , 33-H ) :   0.9575
B( 17-C , 34-H ) :   0.9575 B( 18-O , 19-C ) :   0.7927 B( 19-C , 35-H ) :   0.9589
B( 19-C , 36-H ) :   0.9646 B( 19-C , 37-H ) :   0.9571

Dispersion correction           -0.017050209
FINAL SINGLE POINT ENERGY     -1981.451520152171

DIPOLE MOMENT
-------------

Method             : SCF
Type of density    : Electron Density
Multiplicity       :   1
Irrep              :   0
Energy             : -1981.4715477763561466 Eh
Relativity type    :
Basis              : AO
                                X                 Y                 Z
Electronic contribution:    -14.528405522      -1.344790319      -4.521336090
Nuclear contribution   :     15.542684622       0.977965504       6.498287177
                        -----------------------------------------
Total Dipole Moment    :      1.014279100      -0.366824815       1.976951087
                        -----------------------------------------
Magnitude (a.u.)       :      2.252034223
Magnitude (Debye)      :      5.724216083

Rotational constants in cm-1:             0.015000             0.005876             0.004935
Rotational constants in MHz :           449.680548           176.144094           147.940945

                             ****ORCA TERMINATED NORMALLY****
TOTAL RUN TIME: 0 days 0 hours 1 minutes 22 seconds 381 msec
