                         Program Version 6.0.1  -  RELEASE   -
|  1> ! r2scan-3c def2/J RI DEFGRID2 scfconv6 printgap
|  2> %output
|  3>     printlevel normal
|  4> end
|  5> %cpcm
|  6>     smd true
|  7>     smdsolvent "water"
|  8> end
|  9> * xyz 0 1
| 10> C 4.8610071141 -3.1198758993 -1.7605223953
| 11> C 4.9557579999 -2.0834349933 -0.6523306631
| 12> O 3.7505737759 -2.0655367461 0.1382513034
| 13> C 2.7561503335 -1.2911790933 -0.2411148737
| 14> O 2.7787745629 -0.5598753594 -1.210009074
| 15> C 1.5753885349 -1.4034543963 0.7007411322
| 16> C 0.4150613017 -0.6132503709 0.127647259
| 17> H 0.0428009488 -1.0467521906 -0.8068051961
| 18> C 0.7340579842 0.8444392992 -0.1270471442
| 19> O 0.1176590123 1.5047059875 -0.9383191013
| 20> O 1.6574394512 1.3134874136 0.6802825664
| 21> C 1.9910660857 2.7135698528 0.5887141529
| 22> C 0.9690696198 3.5704959218 1.3180027805
| 23> S -0.989874992 -0.5465006095 1.2900687938
| 24> P -2.4357134038 0.2228668839 -0.0747431658
| 25> S -2.3220609248 -0.4206163142 -1.9169494353
| 26> O -3.7943671053 -0.1721907426 0.6694093425
| 27> C -4.2377416205 -1.5335227993 0.7250152452
| 28> O -2.4740996951 1.7943366716 0.0960864706
| 29> C -2.7946899572 2.4049616311 1.3642136711
| 30> H 5.8037590822 -3.160421801 -2.2959717767
| 31> H 4.6441524777 -4.0980660619 -1.340675337
| 32> H 4.0712334114 -2.8503304169 -2.45855767
| 33> H 5.1156764005 -1.0847277125 -1.0683705369
| 34> H 5.7433369268 -2.3325825398 0.0588101304
| 35> H 1.8705822634 -1.0045151653 1.6729138781
| 36> H 1.3073182824 -2.4519589325 0.8289038234
| 37> H 2.9760559641 2.7802661951 1.0503372723
| 38> H 2.0458285219 2.9861352908 -0.4690447028
| 39> H 0.0050140843 3.4972713534 0.8197135432
| 40> H 0.8687490632 3.2392535325 2.3480435257
| 41> H 1.2949399992 4.6050901397 1.3022877912
| 42> H -5.279113547 -1.4893020074 1.0330156793
| 43> H -3.6425126465 -2.0841180195 1.4525192309
| 44> H -4.1492518573 -1.9961197545 -0.2590829285
| 45> H -3.8420116969 2.2286786868 1.6000840389
| 46> H -2.602784279 3.466110777 1.2267987763
| 47> H -2.1608611154 1.9922692867 2.150006602
| 48> *
| 49>
| 50>                          ****END OF INPUT****

CARTESIAN COORDINATES (ANGSTROEM)
---------------------------------
  C      4.861007   -3.119876   -1.760522
  C      4.955758   -2.083435   -0.652331
  O      3.750574   -2.065537    0.138251
  C      2.756150   -1.291179   -0.241115
  O      2.778775   -0.559875   -1.210009
  C      1.575389   -1.403454    0.700741
  C      0.415061   -0.613250    0.127647
  H      0.042801   -1.046752   -0.806805
  C      0.734058    0.844439   -0.127047
  O      0.117659    1.504706   -0.938319
  O      1.657439    1.313487    0.680283
  C      1.991066    2.713570    0.588714
  C      0.969070    3.570496    1.318003
  S     -0.989875   -0.546501    1.290069
  P     -2.435713    0.222867   -0.074743
  S     -2.322061   -0.420616   -1.916949
  O     -3.794367   -0.172191    0.669409
  C     -4.237742   -1.533523    0.725015
  O     -2.474100    1.794337    0.096086
  C     -2.794690    2.404962    1.364214
  H      5.803759   -3.160422   -2.295972
  H      4.644152   -4.098066   -1.340675
  H      4.071233   -2.850330   -2.458558
  H      5.115676   -1.084728   -1.068371
  H      5.743337   -2.332583    0.058810
  H      1.870582   -1.004515    1.672914
  H      1.307318   -2.451959    0.828904
  H      2.976056    2.780266    1.050337
  H      2.045829    2.986135   -0.469045
  H      0.005014    3.497271    0.819714
  H      0.868749    3.239254    2.348044
  H      1.294940    4.605090    1.302288
  H     -5.279114   -1.489302    1.033016
  H     -3.642513   -2.084118    1.452519
  H     -4.149252   -1.996120   -0.259083
  H     -3.842012    2.228679    1.600084
  H     -2.602784    3.466111    1.226799
  H     -2.160861    1.992269    2.150007

 Total Charge           Charge          ....    0
 Multiplicity           Mult            ....    1
 Number of Electrons    NEL             ....  174
 Basis Dimension        Dim             ....  510

ORBITAL ENERGIES
----------------

  NO   OCC          E(Eh)            E(eV)
   0   2.0000     -88.585259     -2410.5274
   1   2.0000     -88.529663     -2409.0146
   2   2.0000     -76.922214     -2093.1599
   3   2.0000     -19.009464      -517.2738
   4   2.0000     -19.008019      -517.2345
   5   2.0000     -18.999375      -516.9993
   6   2.0000     -18.996383      -516.9179
   7   2.0000     -18.952370      -515.7202
   8   2.0000     -18.944442      -515.5045
   9   2.0000     -10.174414      -276.8599
  10   2.0000     -10.171192      -276.7722
  11   2.0000     -10.094180      -274.6766
  12   2.0000     -10.087036      -274.4822
  13   2.0000     -10.086845      -274.4770
  14   2.0000     -10.085351      -274.4364
  15   2.0000     -10.082396      -274.3559
  16   2.0000     -10.058575      -273.7078
  17   2.0000     -10.019627      -272.6479
  18   2.0000     -10.019002      -272.6309
  19   2.0000      -7.879269      -214.4058
  20   2.0000      -7.824666      -212.9200
  21   2.0000      -6.600527      -179.6095
  22   2.0000      -5.825931      -158.5317
  23   2.0000      -5.823240      -158.4584
  24   2.0000      -5.816547      -158.2763
  25   2.0000      -5.772441      -157.0761
  26   2.0000      -5.765000      -156.8736
  27   2.0000      -5.764441      -156.8584
  28   2.0000      -4.746338      -129.1544
  29   2.0000      -4.745550      -129.1330
  30   2.0000      -4.743966      -129.0899
  31   2.0000      -1.090026       -29.6611
  32   2.0000      -1.085663       -29.5424
  33   2.0000      -1.056140       -28.7390
  34   2.0000      -1.012523       -27.5521
  35   2.0000      -0.998532       -27.1714
  36   2.0000      -0.994331       -27.0571
  37   2.0000      -0.815563       -22.1926
  38   2.0000      -0.753594       -20.5063
  39   2.0000      -0.742368       -20.2009
  40   2.0000      -0.728818       -19.8321
  41   2.0000      -0.699475       -19.0337
  42   2.0000      -0.672428       -18.2977
  43   2.0000      -0.661310       -17.9952
  44   2.0000      -0.650380       -17.6977
  45   2.0000      -0.626765       -17.0551
  46   2.0000      -0.597839       -16.2680
  47   2.0000      -0.542098       -14.7512
  48   2.0000      -0.528103       -14.3704
  49   2.0000      -0.521175       -14.1819
  50   2.0000      -0.498367       -13.5613
  51   2.0000      -0.494821       -13.4648
  52   2.0000      -0.487573       -13.2675
  53   2.0000      -0.467526       -12.7220
  54   2.0000      -0.462221       -12.5777
  55   2.0000      -0.460572       -12.5328
  56   2.0000      -0.452558       -12.3147
  57   2.0000      -0.446169       -12.1409
  58   2.0000      -0.439394       -11.9565
  59   2.0000      -0.428029       -11.6473
  60   2.0000      -0.418231       -11.3807
  61   2.0000      -0.415897       -11.3171
  62   2.0000      -0.410758       -11.1773
  63   2.0000      -0.406068       -11.0497
  64   2.0000      -0.389509       -10.5991
  65   2.0000      -0.378832       -10.3085
  66   2.0000      -0.376051       -10.2329
  67   2.0000      -0.365733        -9.9521
  68   2.0000      -0.360777        -9.8173
  69   2.0000      -0.356714        -9.7067
  70   2.0000      -0.347191        -9.4475
  71   2.0000      -0.341527        -9.2934
  72   2.0000      -0.339690        -9.2434
  73   2.0000      -0.331177        -9.0118
  74   2.0000      -0.322274        -8.7695
  75   2.0000      -0.315478        -8.5846
  76   2.0000      -0.309179        -8.4132
  77   2.0000      -0.308107        -8.3840
  78   2.0000      -0.292814        -7.9679
  79   2.0000      -0.285885        -7.7793
  80   2.0000      -0.281608        -7.6629
  81   2.0000      -0.278056        -7.5663
  82   2.0000      -0.263934        -7.1820
  83   2.0000      -0.261581        -7.1180
  84   2.0000      -0.249081        -6.7778
  85   2.0000      -0.228718        -6.2237
  86   2.0000      -0.219813        -5.9814
  87   0.0000      -0.059606        -1.6220
  88   0.0000      -0.029433        -0.8009
  89   0.0000      -0.024016        -0.6535
  90   0.0000       0.004785         0.1302
  91   0.0000       0.012991         0.3535

MULLIKEN ATOMIC CHARGES
-----------------------
   0 C :   -0.493632
   1 C :   -0.142017
   2 O :   -0.179739
   3 C :    0.420036
   4 O :   -0.486816
   5 C :   -0.375214
   6 C :   -0.101731
   7 H :    0.266786
   8 C :    0.317389
   9 O :   -0.455230
  10 O :   -0.155371
  11 C :   -0.118387
  12 C :   -0.517527
  13 S :   -0.215824
  14 P :    0.761945
  15 S :   -0.491740
  16 O :   -0.356930
  17 C :   -0.307594
  18 O :   -0.334864
  19 C :   -0.292332
  20 H :    0.172129
  21 H :    0.167024
  22 H :    0.169526
  23 H :    0.175424
  24 H :    0.177125
  25 H :    0.224802
  26 H :    0.211336
  27 H :    0.177875
  28 H :    0.174742
  29 H :    0.175710
  30 H :    0.171951
  31 H :    0.173365
  32 H :    0.180463
  33 H :    0.175979
  34 H :    0.178805
  35 H :    0.182718
  36 H :    0.185945
  37 H :    0.183871
Sum of atomic charges:   -0.0000000

LOEWDIN ATOMIC CHARGES
----------------------
   0 C :   -0.390908
   1 C :    0.037196
   2 O :   -0.576134
   3 C :    0.385368
   4 O :   -0.469875
   5 C :   -0.201388
   6 C :   -0.193425
   7 H :    0.212783
   8 C :    0.337952
   9 O :   -0.480616
  10 O :   -0.586485
  11 C :    0.041861
  12 C :   -0.391353
  13 S :    0.202115
  14 P :    0.393497
  15 S :   -0.129893
  16 O :   -0.694393
  17 C :   -0.053148
  18 O :   -0.670317
  19 C :   -0.044996
  20 H :    0.168827
  21 H :    0.162668
  22 H :    0.162785
  23 H :    0.191246
  24 H :    0.190814
  25 H :    0.211659
  26 H :    0.203984
  27 H :    0.191586
  28 H :    0.190532
  29 H :    0.167150
  30 H :    0.164327
  31 H :    0.168946
  32 H :    0.189276
  33 H :    0.176607
  34 H :    0.178563
  35 H :    0.182410
  36 H :    0.191151
  37 H :    0.179629

  Mayer bond orders larger than 0.100000
B(  0-C ,  1-C ) :   0.9404 B(  0-C , 20-H ) :   0.9590 B(  0-C , 21-H ) :   0.9694
B(  0-C , 22-H ) :   0.9682 B(  1-C ,  2-O ) :   0.7808 B(  1-C , 23-H ) :   0.9624
B(  1-C , 24-H ) :   0.9517 B(  2-O ,  3-C ) :   1.1551 B(  3-C ,  4-O ) :   1.7347
B(  3-C ,  5-C ) :   1.0094 B(  5-C ,  6-C ) :   0.9803 B(  5-C , 10-O ) :   0.1154
B(  5-C , 25-H ) :   0.9455 B(  5-C , 26-H ) :   0.9087 B(  6-C ,  7-H ) :   0.9468
B(  6-C ,  8-C ) :   0.8598 B(  6-C , 13-S ) :   0.8110 B(  8-C ,  9-O ) :   1.7947
B(  8-C , 10-O ) :   1.1208 B( 10-O , 11-C ) :   0.7898 B( 11-C , 12-C ) :   0.9186
B( 11-C , 27-H ) :   0.9500 B( 11-C , 28-H ) :   0.9656 B( 12-C , 29-H ) :   0.9667
B( 12-C , 30-H ) :   0.9683 B( 12-C , 31-H ) :   0.9580 B( 13-S , 14-P ) :   0.9771
B( 14-P , 15-S ) :   1.8175 B( 14-P , 16-O ) :   1.0503 B( 14-P , 18-O ) :   1.1446
B( 16-O , 17-C ) :   0.8209 B( 17-C , 32-H ) :   0.9574 B( 17-C , 33-H ) :   0.9496
B( 17-C , 34-H ) :   0.9547 B( 18-O , 19-C ) :   0.7831 B( 19-C , 35-H ) :   0.9503
B( 19-C , 36-H ) :   0.9532 B( 19-C , 37-H ) :   0.9466

Dispersion correction           -0.017050209
FINAL SINGLE POINT ENERGY     -1981.470215686808

DIPOLE MOMENT
-------------

Method             : SCF
Type of density    : Electron Density
Multiplicity       :   1
Irrep              :   0
Energy             : -1981.4902433109932645 Eh
Relativity type    :
Basis              : AO
                                X                 Y                 Z
Electronic contribution:    -14.220427140      -1.719654674      -3.277444870
Nuclear contribution   :     15.542684622       0.977965504       6.498287177
                        -----------------------------------------
Total Dipole Moment    :      1.322257482      -0.741689170       3.220842307
                        -----------------------------------------
Magnitude (a.u.)       :      3.559816406
Magnitude (Debye)      :      9.048334220

Rotational constants in cm-1:             0.015000             0.005876             0.004935
Rotational constants in MHz :           449.680548           176.144094           147.940945

                             ****ORCA TERMINATED NORMALLY****
TOTAL RUN TIME: 0 days 0 hours 1 minutes 49 seconds 631 msec
