                         Program Version 6.0.0  -   RELEASE  -
|  1> ! wb97x-v def2-tzvp def2/J RIJCOSX DEFGRID2 scfconv7 GCP(DFT/TZ) printgap
|  2> %output
|  3>     printlevel normal
|  4> end
|  5> * xyz 0 1
|  6> C -2.449905003829475 -0.001025687615585254 0.00889273909526898
|  7> C -0.9472742820127077 -0.002928244652462201 -0.010823144997683122
|  8> C -0.2278685167946098 -1.2021101796156148 -0.007841340248661701
|  9> C 1.1656921932133861 -1.2016021920052635 0.0022320358373984542
| 10> C 1.8659657668674388 0.002421039746027525 0.007658085411982074
| 11> C 1.160595910365364 1.204662435592227 0.002159748608873789
| 12> C -0.23175156662126772 1.199910827225134 -0.008092655065434391
| 13> H -2.8528415018161475 -0.9464140035216241 -0.3638758833398503
| 14> H -2.824095669610812 0.13889470230280598 1.0302476862790282
| 15> H -2.8528170506058648 0.815205465745374 -0.5978549427653519
| 16> H -0.7670654036841481 -2.1458241433929066 -0.015406001121218926
| 17> H 1.7049328579048055 -2.1442843999079213 0.0018900352217042502
| 18> H 2.951488585942381 0.004674462412631301 0.012280736570844377
| 19> H 1.6966346162237307 2.149177556195333 0.0018803154312845933
| 20> H -0.7749367608669442 2.1415079018342764 -0.015559347688007695
| 21> *
| 22>
| 23>                          ****END OF INPUT****

CARTESIAN COORDINATES (ANGSTROEM)
---------------------------------
  C     -2.449905   -0.001026    0.008893
  C     -0.947274   -0.002928   -0.010823
  C     -0.227869   -1.202110   -0.007841
  C      1.165692   -1.201602    0.002232
  C      1.865966    0.002421    0.007658
  C      1.160596    1.204662    0.002160
  C     -0.231752    1.199911   -0.008093
  H     -2.852842   -0.946414   -0.363876
  H     -2.824096    0.138895    1.030248
  H     -2.852817    0.815205   -0.597855
  H     -0.767065   -2.145824   -0.015406
  H      1.704933   -2.144284    0.001890
  H      2.951489    0.004674    0.012281
  H      1.696635    2.149178    0.001880
  H     -0.774937    2.141508   -0.015559

 Total Charge           Charge          ....    0
 Multiplicity           Mult            ....    1
 Number of Electrons    NEL             ....   50
 Basis Dimension        Dim             ....  265

ORBITAL ENERGIES
----------------

  NO   OCC          E(Eh)            E(eV)
   0   2.0000     -12.059217      -328.1480
   1   2.0000     -12.050235      -327.9036
   2   2.0000     -12.050078      -327.8993
   3   2.0000     -12.046843      -327.8113
   4   2.0000     -12.046419      -327.7997
   5   2.0000     -12.045760      -327.7818
   6   2.0000     -12.043428      -327.7183
   7   2.0000      -1.381416       -37.5903
   8   2.0000      -1.292089       -35.1595
   9   2.0000      -1.268992       -34.5310
  10   2.0000      -1.191962       -32.4349
  11   2.0000      -1.103427       -30.0258
  12   2.0000      -1.080968       -29.4146
  13   2.0000      -0.957373       -26.0514
  14   2.0000      -0.951153       -25.8822
  15   2.0000      -0.910556       -24.7775
  16   2.0000      -0.870507       -23.6877
  17   2.0000      -0.869167       -23.6512
  18   2.0000      -0.838103       -22.8059
  19   2.0000      -0.826181       -22.4815
  20   2.0000      -0.810663       -22.0593
  21   2.0000      -0.794827       -21.6284
  22   2.0000      -0.759220       -20.6594
  23   2.0000      -0.634986       -17.2789
  24   2.0000      -0.630172       -17.1479
  25   0.0000      -0.235392        -6.4053
  26   0.0000      -0.233322        -6.3490
  27   0.0000      -0.066915        -1.8209
  28   0.0000      -0.043390        -1.1807
  29   0.0000      -0.004330        -0.1178

MULLIKEN ATOMIC CHARGES
-----------------------
   0 C :   -0.359970
   1 C :    0.168310
   2 C :   -0.203217
   3 C :   -0.098715
   4 C :   -0.143300
   5 C :   -0.097674
   6 C :   -0.203261
   7 H :    0.117871
   8 H :    0.124974
   9 H :    0.120705
  10 H :    0.112827
  11 H :    0.115838
  12 H :    0.115606
  13 H :    0.115760
  14 H :    0.114246
Sum of atomic charges:    0.0000000

LOEWDIN ATOMIC CHARGES
----------------------
   0 C :   -0.252450
   1 C :   -0.168595
   2 C :   -0.119377
   3 C :   -0.139688
   4 C :   -0.147714
   5 C :   -0.139763
   6 C :   -0.117841
   7 H :    0.124450
   8 H :    0.128244
   9 H :    0.125572
  10 H :    0.142335
  11 H :    0.140983
  12 H :    0.140002
  13 H :    0.140977
  14 H :    0.142865

  Mayer bond orders larger than 0.100000
B(  0-C ,  1-C ) :   0.9170 B(  0-C ,  7-H ) :   0.9943 B(  0-C ,  8-H ) :   0.9634
B(  0-C ,  9-H ) :   0.9892 B(  1-C ,  2-C ) :   1.3985 B(  1-C ,  6-C ) :   1.3811
B(  2-C ,  3-C ) :   1.4398 B(  2-C , 10-H ) :   0.9708 B(  3-C ,  4-C ) :   1.4268
B(  3-C , 11-H ) :   0.9738 B(  4-C ,  5-C ) :   1.4186 B(  4-C , 12-H ) :   0.9719
B(  5-C ,  6-C ) :   1.4468 B(  5-C , 13-H ) :   0.9741 B(  6-C , 14-H ) :   0.9739

FINAL SINGLE POINT ENERGY      -271.571971475184

DIPOLE MOMENT
-------------

Method             : SCF
Type of density    : Electron Density
Multiplicity       :   1
Irrep              :   0
Energy             :  -271.5800005475844046 Eh
Relativity type    :
Basis              : AO
                                X                 Y                 Z
Electronic contribution:      3.364560018      -0.005185370      -0.037916915
Nuclear contribution   :     -3.511661084       0.011732891       0.051576258
                        -----------------------------------------
Total Dipole Moment    :     -0.147101066       0.006547521       0.013659342
                        -----------------------------------------
Magnitude (a.u.)       :      0.147878907
Magnitude (Debye)      :      0.375878310

Rotational constants in cm-1:             0.184967             0.084169             0.058476
Rotational constants in MHz :          5545.166812          2523.328574          1753.063469

                             ****ORCA TERMINATED NORMALLY****
TOTAL RUN TIME: 0 days 0 hours 2 minutes 28 seconds 240 msec
