                         Program Version 6.0.0  -   RELEASE  -
|  1> ! wb97x-v def2-tzvp def2/J RIJCOSX DEFGRID2 scfconv7 GCP(DFT/TZ) printgap
|  2> %output
|  3>     printlevel normal
|  4> end
|  5> %cpcm
|  6>     smd true
|  7>     smdsolvent "water"
|  8> end
|  9> * xyz 0 1
| 10> C -2.449905003829475 -0.001025687615585254 0.00889273909526898
| 11> C -0.9472742820127077 -0.002928244652462201 -0.010823144997683122
| 12> C -0.2278685167946098 -1.2021101796156148 -0.007841340248661701
| 13> C 1.1656921932133861 -1.2016021920052635 0.0022320358373984542
| 14> C 1.8659657668674388 0.002421039746027525 0.007658085411982074
| 15> C 1.160595910365364 1.204662435592227 0.002159748608873789
| 16> C -0.23175156662126772 1.199910827225134 -0.008092655065434391
| 17> H -2.8528415018161475 -0.9464140035216241 -0.3638758833398503
| 18> H -2.824095669610812 0.13889470230280598 1.0302476862790282
| 19> H -2.8528170506058648 0.815205465745374 -0.5978549427653519
| 20> H -0.7670654036841481 -2.1458241433929066 -0.015406001121218926
| 21> H 1.7049328579048055 -2.1442843999079213 0.0018900352217042502
| 22> H 2.951488585942381 0.004674462412631301 0.012280736570844377
| 23> H 1.6966346162237307 2.149177556195333 0.0018803154312845933
| 24> H -0.7749367608669442 2.1415079018342764 -0.015559347688007695
| 25> *
| 26>
| 27>                          ****END OF INPUT****

CARTESIAN COORDINATES (ANGSTROEM)
---------------------------------
  C     -2.449905   -0.001026    0.008893
  C     -0.947274   -0.002928   -0.010823
  C     -0.227869   -1.202110   -0.007841
  C      1.165692   -1.201602    0.002232
  C      1.865966    0.002421    0.007658
  C      1.160596    1.204662    0.002160
  C     -0.231752    1.199911   -0.008093
  H     -2.852842   -0.946414   -0.363876
  H     -2.824096    0.138895    1.030248
  H     -2.852817    0.815205   -0.597855
  H     -0.767065   -2.145824   -0.015406
  H      1.704933   -2.144284    0.001890
  H      2.951489    0.004674    0.012281
  H      1.696635    2.149178    0.001880
  H     -0.774937    2.141508   -0.015559

 Total Charge           Charge          ....    0
 Multiplicity           Mult            ....    1
 Number of Electrons    NEL             ....   50
 Basis Dimension        Dim             ....  265

ORBITAL ENERGIES
----------------

  NO   OCC          E(Eh)            E(eV)
   0   2.0000     -12.057862      -328.1111
   1   2.0000     -12.048362      -327.8526
   2   2.0000     -12.048200      -327.8482
   3   2.0000     -12.044818      -327.7562
   4   2.0000     -12.044096      -327.7365
   5   2.0000     -12.043556      -327.7218
   6   2.0000     -12.033472      -327.4474
   7   2.0000      -1.381203       -37.5844
   8   2.0000      -1.289866       -35.0990
   9   2.0000      -1.268227       -34.5102
  10   2.0000      -1.186414       -32.2840
  11   2.0000      -1.101474       -29.9726
  12   2.0000      -1.078155       -29.3381
  13   2.0000      -0.954099       -25.9624
  14   2.0000      -0.949577       -25.8393
  15   2.0000      -0.905850       -24.6494
  16   2.0000      -0.867414       -23.6035
  17   2.0000      -0.865089       -23.5403
  18   2.0000      -0.830190       -22.5906
  19   2.0000      -0.818005       -22.2591
  20   2.0000      -0.806806       -21.9543
  21   2.0000      -0.789551       -21.4848
  22   2.0000      -0.759616       -20.6702
  23   2.0000      -0.636037       -17.3074
  24   2.0000      -0.630422       -17.1547
  25   0.0000      -0.235644        -6.4122
  26   0.0000      -0.233832        -6.3629
  27   0.0000      -0.066207        -1.8016
  28   0.0000      -0.035285        -0.9602
  29   0.0000       0.004774         0.1299

MULLIKEN ATOMIC CHARGES
-----------------------
   0 C :   -0.388682
   1 C :    0.139539
   2 C :   -0.247121
   3 C :   -0.139967
   4 C :   -0.194533
   5 C :   -0.139693
   6 C :   -0.245501
   7 H :    0.141121
   8 H :    0.141048
   9 H :    0.141530
  10 H :    0.157019
  11 H :    0.159564
  12 H :    0.159209
  13 H :    0.159381
  14 H :    0.157086
Sum of atomic charges:    0.0000000

LOEWDIN ATOMIC CHARGES
----------------------
   0 C :   -0.254031
   1 C :   -0.176178
   2 C :   -0.128010
   3 C :   -0.151248
   4 C :   -0.160670
   5 C :   -0.151206
   6 C :   -0.125985
   7 H :    0.129749
   8 H :    0.132852
   9 H :    0.130660
  10 H :    0.152191
  11 H :    0.150183
  12 H :    0.148912
  13 H :    0.150193
  14 H :    0.152586

  Mayer bond orders larger than 0.100000
B(  0-C ,  1-C ) :   0.9306 B(  0-C ,  7-H ) :   0.9887 B(  0-C ,  8-H ) :   0.9582
B(  0-C ,  9-H ) :   0.9828 B(  1-C ,  2-C ) :   1.3772 B(  1-C ,  6-C ) :   1.3595
B(  2-C ,  3-C ) :   1.4179 B(  2-C , 10-H ) :   0.9763 B(  3-C ,  4-C ) :   1.4039
B(  3-C , 11-H ) :   0.9762 B(  4-C ,  5-C ) :   1.3957 B(  4-C , 12-H ) :   0.9747
B(  5-C ,  6-C ) :   1.4260 B(  5-C , 13-H ) :   0.9766 B(  6-C , 14-H ) :   0.9792

FINAL SINGLE POINT ENERGY      -271.573457518486

DIPOLE MOMENT
-------------

Method             : SCF
Type of density    : Electron Density
Multiplicity       :   1
Irrep              :   0
Energy             :  -271.5814865908861861 Eh
Relativity type    :
Basis              : AO
                                X                 Y                 Z
Electronic contribution:      3.282922411      -0.002352964      -0.033201965
Nuclear contribution   :     -3.511661084       0.011732891       0.051576258
                        -----------------------------------------
Total Dipole Moment    :     -0.228738673       0.009379927       0.018374292
                        -----------------------------------------
Magnitude (a.u.)       :      0.229667103
Magnitude (Debye)      :      0.583767383

Rotational constants in cm-1:             0.184967             0.084169             0.058476
Rotational constants in MHz :          5545.166812          2523.328574          1753.063469

                             ****ORCA TERMINATED NORMALLY****
TOTAL RUN TIME: 0 days 0 hours 2 minutes 20 seconds 491 msec
