                         Program Version 6.0.0  -   RELEASE  -
|  1> ! pbe def2-sv(p) def2/J RI DEFGRID1 loosescf d4 GCP(DFT/SV(P)) printgap
|  2> %output
|  3>     printlevel normal
|  4> end
|  5> * xyz 0 1
|  6> C 4.536868441 1.523034801 0.1571803209
|  7> C 3.4078436127 1.249816144 -0.8156048331
|  8> O 2.7646339406 -0.0054489812 -0.5283534972
|  9> P 1.7719742813 -0.183021822 0.7147518098
| 10> S 0.964920743 1.4594511049 1.3988400373
| 11> O 2.5935265613 -0.8529151846 1.8938666995
| 12> C 3.4099216775 -2.0391657831 1.7361306317
| 13> C 2.729438972 -3.2368737775 2.3679055087
| 14> S 0.635305089 -1.8047740417 -0.0448521664
| 15> C 0.3096571739 -1.2168101714 -1.7340342174
| 16> S -0.1781936558 0.5238668016 -1.8298869588
| 17> P -2.1033734743 0.2952924613 -1.0130167589
| 18> S -3.2363124509 -1.0945037412 -1.7802470303
| 19> O -2.7661168217 1.7247118987 -1.1718988548
| 20> C -2.1914144252 2.930643774 -0.6011903607
| 21> C -3.2281633781 3.6035120343 0.2746254438
| 22> O -1.7244141771 0.1202024495 0.5302124496
| 23> C -2.703621395 -0.3105848625 1.4999132177
| 24> C -2.5525420402 -1.7894760405 1.7929017133
| 25> H 5.2648806313 0.7164234507 0.1303143545
| 26> H 5.0233203117 2.4561418737 -0.1085005004
| 27> H 4.1373201883 1.6076548516 1.1675438558
| 28> H 3.7676638861 1.1382489829 -1.8392088465
| 29> H 2.6569233917 2.0448780755 -0.7719885174
| 30> H 3.6013679115 -2.2043309922 0.6732230919
| 31> H 4.3444373774 -1.8017813147 2.2476095679
| 32> H 2.5037249993 -3.0284610495 3.4099848704
| 33> H 1.802391335 -3.4660038236 1.8465301834
| 34> H 3.3921175202 -4.0943813911 2.3087476599
| 35> H -0.4963180181 -1.840356433 -2.1239860006
| 36> H 1.2130725667 -1.3179254942 -2.3301458011
| 37> H -1.2958649429 2.675453488 -0.0267403537
| 38> H -1.914182756 3.5598681246 -1.4485932092
| 39> H -2.8251160997 4.5426502329 0.6397126215
| 40> H -4.1310455853 3.7942259372 -0.2986737437
| 41> H -3.4757898466 2.9700453287 1.1227719728
| 42> H -2.497321966 0.2952849635 2.3848466252
| 43> H -3.7057374421 -0.0866431579 1.1203832677
| 44> H -1.5420044473 -2.000628439 2.1328876839
| 45> H -3.260652864 -2.0738157485 2.5644413908
| 46> H -2.7485302652 -2.3715059622 0.8948928504
| 47> *
| 48>
| 49>                          ****END OF INPUT****

CARTESIAN COORDINATES (ANGSTROEM)
---------------------------------
  C      4.536868    1.523035    0.157180
  C      3.407844    1.249816   -0.815605
  O      2.764634   -0.005449   -0.528353
  P      1.771974   -0.183022    0.714752
  S      0.964921    1.459451    1.398840
  O      2.593527   -0.852915    1.893867
  C      3.409922   -2.039166    1.736131
  C      2.729439   -3.236874    2.367906
  S      0.635305   -1.804774   -0.044852
  C      0.309657   -1.216810   -1.734034
  S     -0.178194    0.523867   -1.829887
  P     -2.103373    0.295292   -1.013017
  S     -3.236312   -1.094504   -1.780247
  O     -2.766117    1.724712   -1.171899
  C     -2.191414    2.930644   -0.601190
  C     -3.228163    3.603512    0.274625
  O     -1.724414    0.120202    0.530212
  C     -2.703621   -0.310585    1.499913
  C     -2.552542   -1.789476    1.792902
  H      5.264881    0.716423    0.130314
  H      5.023320    2.456142   -0.108501
  H      4.137320    1.607655    1.167544
  H      3.767664    1.138249   -1.839209
  H      2.656923    2.044878   -0.771989
  H      3.601368   -2.204331    0.673223
  H      4.344437   -1.801781    2.247610
  H      2.503725   -3.028461    3.409985
  H      1.802391   -3.466004    1.846530
  H      3.392118   -4.094381    2.308748
  H     -0.496318   -1.840356   -2.123986
  H      1.213073   -1.317925   -2.330146
  H     -1.295865    2.675453   -0.026740
  H     -1.914183    3.559868   -1.448593
  H     -2.825116    4.542650    0.639713
  H     -4.131046    3.794226   -0.298674
  H     -3.475790    2.970045    1.122772
  H     -2.497322    0.295285    2.384847
  H     -3.705737   -0.086643    1.120383
  H     -1.542004   -2.000628    2.132888
  H     -3.260653   -2.073816    2.564441
  H     -2.748530   -2.371506    0.894893

 Total Charge           Charge          ....    0
 Multiplicity           Mult            ....    1
 Number of Electrons    NEL             ....  202
 Basis Dimension        Dim             ....  334

ORBITAL ENERGIES
----------------

  NO   OCC          E(Eh)            E(eV)
   0   2.0000     -88.042999     -2395.7718
   1   2.0000     -88.042672     -2395.7629
   2   2.0000     -87.982298     -2394.1200
   3   2.0000     -87.980224     -2394.0636
   4   2.0000     -76.427026     -2079.6851
   5   2.0000     -76.420935     -2079.5194
   6   2.0000     -18.796198      -511.4706
   7   2.0000     -18.794133      -511.4144
   8   2.0000     -18.789616      -511.2914
   9   2.0000     -18.780845      -511.0528
  10   2.0000      -9.959467      -271.0109
  11   2.0000      -9.959186      -271.0032
  12   2.0000      -9.953687      -270.8536
  13   2.0000      -9.951732      -270.8004
  14   2.0000      -9.945724      -270.6369
  15   2.0000      -9.890355      -269.1302
  16   2.0000      -9.887596      -269.0552
  17   2.0000      -9.887417      -269.0503
  18   2.0000      -9.872092      -268.6333
  19   2.0000      -7.688291      -209.2090
  20   2.0000      -7.687556      -209.1890
  21   2.0000      -7.627423      -207.5527
  22   2.0000      -7.625649      -207.5045
  23   2.0000      -6.424299      -174.8141
  24   2.0000      -6.418927      -174.6679
  25   2.0000      -5.716193      -155.5455
  26   2.0000      -5.715670      -155.5313
  27   2.0000      -5.712893      -155.4557
  28   2.0000      -5.711956      -155.4302
  29   2.0000      -5.705033      -155.2419
  30   2.0000      -5.704367      -155.2237
  31   2.0000      -5.656551      -153.9226
  32   2.0000      -5.654633      -153.8704
  33   2.0000      -5.647874      -153.6865
  34   2.0000      -5.647450      -153.6749
  35   2.0000      -5.646518      -153.6496
  36   2.0000      -5.645413      -153.6195
  37   2.0000      -4.647451      -126.4636
  38   2.0000      -4.645856      -126.4202
  39   2.0000      -4.644507      -126.3835
  40   2.0000      -4.642036      -126.3162
  41   2.0000      -4.640371      -126.2709
  42   2.0000      -4.639200      -126.2391
  43   2.0000      -0.987116       -26.8608
  44   2.0000      -0.979480       -26.6530
  45   2.0000      -0.947988       -25.7961
  46   2.0000      -0.937162       -25.5015
  47   2.0000      -0.765923       -20.8418
  48   2.0000      -0.722059       -19.6482
  49   2.0000      -0.709726       -19.3126
  50   2.0000      -0.694292       -18.8926
  51   2.0000      -0.685100       -18.6425
  52   2.0000      -0.670742       -18.2518
  53   2.0000      -0.649920       -17.6852
  54   2.0000      -0.638407       -17.3719
  55   2.0000      -0.592699       -16.1282
  56   2.0000      -0.581256       -15.8168
  57   2.0000      -0.578628       -15.7453
  58   2.0000      -0.572754       -15.5854
  59   2.0000      -0.559439       -15.2231
  60   2.0000      -0.507630       -13.8133
  61   2.0000      -0.500495       -13.6192
  62   2.0000      -0.482353       -13.1255
  63   2.0000      -0.473982       -12.8977
  64   2.0000      -0.459184       -12.4950
  65   2.0000      -0.444336       -12.0910
  66   2.0000      -0.438721       -11.9382
  67   2.0000      -0.436624       -11.8812
  68   2.0000      -0.423811       -11.5325
  69   2.0000      -0.413970       -11.2647
  70   2.0000      -0.404427       -11.0050
  71   2.0000      -0.400627       -10.9016
  72   2.0000      -0.387847       -10.5539
  73   2.0000      -0.383889       -10.4462
  74   2.0000      -0.379485       -10.3263
  75   2.0000      -0.372243       -10.1292
  76   2.0000      -0.361172        -9.8280
  77   2.0000      -0.358820        -9.7640
  78   2.0000      -0.357596        -9.7307
  79   2.0000      -0.354257        -9.6398
  80   2.0000      -0.350521        -9.5382
  81   2.0000      -0.347589        -9.4584
  82   2.0000      -0.345479        -9.4010
  83   2.0000      -0.336521        -9.1572
  84   2.0000      -0.332108        -9.0371
  85   2.0000      -0.318423        -8.6647
  86   2.0000      -0.309758        -8.4289
  87   2.0000      -0.305490        -8.3128
  88   2.0000      -0.302020        -8.2184
  89   2.0000      -0.284430        -7.7397
  90   2.0000      -0.275646        -7.5007
  91   2.0000      -0.275400        -7.4940
  92   2.0000      -0.270966        -7.3734
  93   2.0000      -0.267088        -7.2678
  94   2.0000      -0.263892        -7.1809
  95   2.0000      -0.235067        -6.3965
  96   2.0000      -0.219959        -5.9854
  97   2.0000      -0.204985        -5.5779
  98   2.0000      -0.200097        -5.4449
  99   2.0000      -0.192350        -5.2341
 100   2.0000      -0.189052        -5.1444
 101   0.0000      -0.051484        -1.4009
 102   0.0000      -0.021571        -0.5870
 103   0.0000      -0.013547        -0.3686
 104   0.0000       0.005834         0.1588
 105   0.0000       0.018697         0.5088

MULLIKEN ATOMIC CHARGES
-----------------------
   0 C :   -0.309569
   1 C :   -0.007607
   2 O :   -0.393728
   3 P :    0.622420
   4 S :   -0.299011
   5 O :   -0.364174
   6 C :   -0.023430
   7 C :   -0.292946
   8 S :   -0.104961
   9 C :   -0.324867
  10 S :   -0.093588
  11 P :    0.615800
  12 S :   -0.318439
  13 O :   -0.370384
  14 C :   -0.047713
  15 C :   -0.282499
  16 O :   -0.366875
  17 C :   -0.018323
  18 C :   -0.280397
  19 H :    0.110042
  20 H :    0.113493
  21 H :    0.129579
  22 H :    0.101424
  23 H :    0.113286
  24 H :    0.106539
  25 H :    0.109731
  26 H :    0.121418
  27 H :    0.129022
  28 H :    0.111295
  29 H :    0.185862
  30 H :    0.185489
  31 H :    0.136493
  32 H :    0.108428
  33 H :    0.112800
  34 H :    0.121806
  35 H :    0.116808
  36 H :    0.106925
  37 H :    0.102485
  38 H :    0.115428
  39 H :    0.102348
  40 H :    0.119590
Sum of atomic charges:    0.0000000

LOEWDIN ATOMIC CHARGES
----------------------
   0 C :   -0.365050
   1 C :   -0.123025
   2 O :   -0.256661
   3 P :    0.567299
   4 S :   -0.300569
   5 O :   -0.242653
   6 C :   -0.120638
   7 C :   -0.359801
   8 S :    0.090829
   9 C :   -0.472223
  10 S :    0.090488
  11 P :    0.568358
  12 S :   -0.318138
  13 O :   -0.245441
  14 C :   -0.122806
  15 C :   -0.350701
  16 O :   -0.248114
  17 C :   -0.116885
  18 C :   -0.362173
  19 H :    0.122184
  20 H :    0.131555
  21 H :    0.126003
  22 H :    0.116095
  23 H :    0.109398
  24 H :    0.108076
  25 H :    0.120227
  26 H :    0.129538
  27 H :    0.120237
  28 H :    0.130956
  29 H :    0.131524
  30 H :    0.134190
  31 H :    0.111013
  32 H :    0.117829
  33 H :    0.131588
  34 H :    0.129139
  35 H :    0.125719
  36 H :    0.117109
  37 H :    0.106667
  38 H :    0.120370
  39 H :    0.125759
  40 H :    0.122727

  Mayer bond orders larger than 0.100000
B(  0-C ,  1-C ) :   1.1636 B(  0-C , 19-H ) :   0.9473 B(  0-C , 20-H ) :   0.9400
B(  0-C , 21-H ) :   0.9347 B(  1-C ,  2-O ) :   0.9042 B(  1-C , 22-H ) :   0.9337
B(  1-C , 23-H ) :   0.9106 B(  2-O ,  3-P ) :   1.0574 B(  3-P ,  4-S ) :   1.6360
B(  3-P ,  5-O ) :   1.1232 B(  3-P ,  8-S ) :   0.9602 B(  4-S ,  8-S ) :   0.1073
B(  5-O ,  6-C ) :   0.8966 B(  6-C ,  7-C ) :   1.1674 B(  6-C , 24-H ) :   0.9145
B(  6-C , 25-H ) :   0.9318 B(  7-C , 26-H ) :   0.9459 B(  7-C , 27-H ) :   0.9375
B(  7-C , 28-H ) :   0.9393 B(  8-S ,  9-C ) :   0.9877 B(  9-C , 10-S ) :   1.0224
B(  9-C , 29-H ) :   0.8795 B(  9-C , 30-H ) :   0.9069 B( 10-S , 11-P ) :   0.9601
B( 10-S , 12-S ) :   0.1010 B( 11-P , 12-S ) :   1.6378 B( 11-P , 13-O ) :   1.1328
B( 11-P , 16-O ) :   1.0906 B( 13-O , 14-C ) :   0.8896 B( 14-C , 15-C ) :   1.1714
B( 14-C , 31-H ) :   0.8988 B( 14-C , 32-H ) :   0.9330 B( 15-C , 33-H ) :   0.9401
B( 15-C , 34-H ) :   0.9490 B( 15-C , 35-H ) :   0.9477 B( 16-O , 17-C ) :   0.8979
B( 17-C , 18-C ) :   1.1736 B( 17-C , 36-H ) :   0.9288 B( 17-C , 37-H ) :   0.9130
B( 18-C , 38-H ) :   0.9428 B( 18-C , 39-H ) :   0.9396 B( 18-C , 40-H ) :   0.9366

Dispersion correction           -0.067389857
FINAL SINGLE POINT ENERGY     -2929.515007878236

DIPOLE MOMENT
-------------

Method             : SCF
Type of density    : Electron Density
Multiplicity       :   1
Irrep              :   0
Energy             : -2929.6324252785379940 Eh
Relativity type    :
Basis              : AO
                                X                 Y                 Z
Electronic contribution:     -8.030541661      -1.229901667     -12.776037622
Nuclear contribution   :      9.569308411       1.362180399      13.191781197
                        -----------------------------------------
Total Dipole Moment    :      1.538766750       0.132278732       0.415743575
                        -----------------------------------------
Magnitude (a.u.)       :      1.599419737
Magnitude (Debye)      :      4.065401888

Rotational constants in cm-1:             0.011542             0.005721             0.005064
Rotational constants in MHz :           346.035259           171.518366           151.805364

                             ****ORCA TERMINATED NORMALLY****
TOTAL RUN TIME: 0 days 0 hours 0 minutes 21 seconds 646 msec
