                         Program Version 6.0.0  -   RELEASE  -
|  1> ! pbe def2-sv(p) def2/J RI DEFGRID1 loosescf d4 GCP(DFT/SV(P)) printgap
|  2> %output
|  3>     printlevel normal
|  4> end
|  5> * xyz 0 1
|  6> C 2.7129038287 -1.0205873679 -2.8783150587
|  7> C 3.2607030999 0.1345686163 -2.0625411798
|  8> O 2.2470442215 0.6749130905 -1.1790574468
|  9> P 2.0691723768 0.3210054175 0.3448637501
| 10> S 0.7008126802 1.4932746341 1.1129747108
| 11> O 3.5477418629 0.5164492208 0.8927198531
| 12> C 4.0611199144 -0.0259716046 2.1253422309
| 13> C 3.1856384055 0.2917831714 3.3186543877
| 14> S 1.8386784539 -1.7903504857 0.5346951936
| 15> C 0.1964775243 -2.0352112649 -0.1864163033
| 16> S -1.1552098305 -1.3855545677 0.8465638865
| 17> P -1.9446211033 0.0367022028 -0.4987926762
| 18> S -0.8913269837 0.5030599331 -2.0776759477
| 19> O -2.3980873443 1.3146539803 0.3167157693
| 20> C -3.355469421 1.3016981445 1.4021085658
| 21> C -2.6840694985 1.0571115811 2.73861039
| 22> O -3.2905919076 -0.7666086941 -0.8490699409
| 23> C -4.0197060863 -0.5532374485 -2.0708737705
| 24> C -4.7542054463 0.7727747252 -2.0697615337
| 25> H 2.5669103686 -1.9013054718 -2.2577822796
| 26> H 1.7619404097 -0.7342347202 -3.3232706929
| 27> H 3.4171916485 -1.2595596086 -3.6686856962
| 28> H 3.5214668744 0.9781201593 -2.7036602702
| 29> H 4.1281435635 -0.162554647 -1.4703282968
| 30> H 4.1677959295 -1.1069489125 2.0006124472
| 31> H 5.0449699202 0.4378004861 2.2168208741
| 32> H 2.2123057871 -0.1847600576 3.2081828598
| 33> H 3.6604679556 -0.0768352509 4.2220925568
| 34> H 3.0324051118 1.3652922607 3.4017209091
| 35> H 0.0731699729 -3.1121550671 -0.2645128885
| 36> H 0.1472631729 -1.5514271827 -1.165592728
| 37> H -3.7977032925 2.2987613063 1.3613037015
| 38> H -4.1155140066 0.5437070095 1.1944955142
| 39> H -1.8158665477 1.7051332139 2.8366623347
| 40> H -3.3889989704 1.2729892958 3.5350960032
| 41> H -2.3537741441 0.024374251 2.8247095757
| 42> H -3.3138191213 -0.598477787 -2.90633495
| 43> H -4.7074406472 -1.3986174223 -2.1180899961
| 44> H -4.0376291072 1.5911089606 -1.9972294866
| 45> H -5.3108895058 0.875039709 -2.9960147966
| 46> H -5.4413859101 0.8295599437 -1.2294182661
| 47> *
| 48>
| 49>                          ****END OF INPUT****

CARTESIAN COORDINATES (ANGSTROEM)
---------------------------------
  C      2.712904   -1.020587   -2.878315
  C      3.260703    0.134569   -2.062541
  O      2.247044    0.674913   -1.179057
  P      2.069172    0.321005    0.344864
  S      0.700813    1.493275    1.112975
  O      3.547742    0.516449    0.892720
  C      4.061120   -0.025972    2.125342
  C      3.185638    0.291783    3.318654
  S      1.838678   -1.790350    0.534695
  C      0.196478   -2.035211   -0.186416
  S     -1.155210   -1.385555    0.846564
  P     -1.944621    0.036702   -0.498793
  S     -0.891327    0.503060   -2.077676
  O     -2.398087    1.314654    0.316716
  C     -3.355469    1.301698    1.402109
  C     -2.684069    1.057112    2.738610
  O     -3.290592   -0.766609   -0.849070
  C     -4.019706   -0.553237   -2.070874
  C     -4.754205    0.772775   -2.069762
  H      2.566910   -1.901305   -2.257782
  H      1.761940   -0.734235   -3.323271
  H      3.417192   -1.259560   -3.668686
  H      3.521467    0.978120   -2.703660
  H      4.128144   -0.162555   -1.470328
  H      4.167796   -1.106949    2.000612
  H      5.044970    0.437800    2.216821
  H      2.212306   -0.184760    3.208183
  H      3.660468   -0.076835    4.222093
  H      3.032405    1.365292    3.401721
  H      0.073170   -3.112155   -0.264513
  H      0.147263   -1.551427   -1.165593
  H     -3.797703    2.298761    1.361304
  H     -4.115514    0.543707    1.194496
  H     -1.815867    1.705133    2.836662
  H     -3.388999    1.272989    3.535096
  H     -2.353774    0.024374    2.824710
  H     -3.313819   -0.598478   -2.906335
  H     -4.707441   -1.398617   -2.118090
  H     -4.037629    1.591109   -1.997229
  H     -5.310890    0.875040   -2.996015
  H     -5.441386    0.829560   -1.229418

 Total Charge           Charge          ....    0
 Multiplicity           Mult            ....    1
 Number of Electrons    NEL             ....  202
 Basis Dimension        Dim             ....  334

ORBITAL ENERGIES
----------------

  NO   OCC          E(Eh)            E(eV)
   0   2.0000     -88.041943     -2395.7431
   1   2.0000     -88.034741     -2395.5471
   2   2.0000     -87.980150     -2394.0616
   3   2.0000     -87.970515     -2393.7994
   4   2.0000     -76.419196     -2079.4721
   5   2.0000     -76.418261     -2079.4466
   6   2.0000     -18.787131      -511.2238
   7   2.0000     -18.786590      -511.2091
   8   2.0000     -18.779548      -511.0175
   9   2.0000     -18.779296      -511.0106
  10   2.0000      -9.955984      -270.9161
  11   2.0000      -9.955297      -270.8974
  12   2.0000      -9.953546      -270.8498
  13   2.0000      -9.949128      -270.7295
  14   2.0000      -9.945036      -270.6182
  15   2.0000      -9.881993      -268.9027
  16   2.0000      -9.880325      -268.8573
  17   2.0000      -9.880302      -268.8567
  18   2.0000      -9.879445      -268.8334
  19   2.0000      -7.686788      -209.1681
  20   2.0000      -7.680100      -208.9861
  21   2.0000      -7.625328      -207.4957
  22   2.0000      -7.615465      -207.2273
  23   2.0000      -6.416864      -174.6117
  24   2.0000      -6.415283      -174.5687
  25   2.0000      -5.714373      -155.4960
  26   2.0000      -5.711279      -155.4118
  27   2.0000      -5.708084      -155.3249
  28   2.0000      -5.704910      -155.2385
  29   2.0000      -5.704106      -155.2166
  30   2.0000      -5.696560      -155.0113
  31   2.0000      -5.654288      -153.8610
  32   2.0000      -5.646192      -153.6407
  33   2.0000      -5.645077      -153.6103
  34   2.0000      -5.644642      -153.5985
  35   2.0000      -5.635930      -153.3614
  36   2.0000      -5.635524      -153.3504
  37   2.0000      -4.639784      -126.2549
  38   2.0000      -4.638239      -126.2129
  39   2.0000      -4.638188      -126.2115
  40   2.0000      -4.637462      -126.1918
  41   2.0000      -4.637435      -126.1910
  42   2.0000      -4.635105      -126.1276
  43   2.0000      -0.980539       -26.6818
  44   2.0000      -0.977513       -26.5995
  45   2.0000      -0.936526       -25.4842
  46   2.0000      -0.935330       -25.4516
  47   2.0000      -0.758833       -20.6489
  48   2.0000      -0.715842       -19.4790
  49   2.0000      -0.707352       -19.2480
  50   2.0000      -0.687193       -18.6995
  51   2.0000      -0.685537       -18.6544
  52   2.0000      -0.671057       -18.2604
  53   2.0000      -0.646714       -17.5980
  54   2.0000      -0.630263       -17.1503
  55   2.0000      -0.590405       -16.0657
  56   2.0000      -0.581178       -15.8147
  57   2.0000      -0.574517       -15.6334
  58   2.0000      -0.570574       -15.5261
  59   2.0000      -0.559990       -15.2381
  60   2.0000      -0.497695       -13.5430
  61   2.0000      -0.492332       -13.3970
  62   2.0000      -0.471964       -12.8428
  63   2.0000      -0.465511       -12.6672
  64   2.0000      -0.450428       -12.2568
  65   2.0000      -0.445570       -12.1246
  66   2.0000      -0.437242       -11.8980
  67   2.0000      -0.432214       -11.7611
  68   2.0000      -0.428756       -11.6670
  69   2.0000      -0.415844       -11.3157
  70   2.0000      -0.404978       -11.0200
  71   2.0000      -0.395755       -10.7690
  72   2.0000      -0.391372       -10.6498
  73   2.0000      -0.382351       -10.4043
  74   2.0000      -0.379546       -10.3280
  75   2.0000      -0.367844       -10.0096
  76   2.0000      -0.351344        -9.5606
  77   2.0000      -0.349539        -9.5115
  78   2.0000      -0.347775        -9.4634
  79   2.0000      -0.346225        -9.4213
  80   2.0000      -0.341981        -9.3058
  81   2.0000      -0.341556        -9.2942
  82   2.0000      -0.339778        -9.2458
  83   2.0000      -0.336424        -9.1546
  84   2.0000      -0.333530        -9.0758
  85   2.0000      -0.314049        -8.5457
  86   2.0000      -0.311005        -8.4629
  87   2.0000      -0.298918        -8.1340
  88   2.0000      -0.291539        -7.9332
  89   2.0000      -0.285733        -7.7752
  90   2.0000      -0.271941        -7.3999
  91   2.0000      -0.268715        -7.3121
  92   2.0000      -0.266865        -7.2618
  93   2.0000      -0.262298        -7.1375
  94   2.0000      -0.253879        -6.9084
  95   2.0000      -0.235073        -6.3967
  96   2.0000      -0.214274        -5.8307
  97   2.0000      -0.202258        -5.5037
  98   2.0000      -0.198729        -5.4077
  99   2.0000      -0.178490        -4.8570
 100   2.0000      -0.177389        -4.8270
 101   0.0000      -0.038461        -1.0466
 102   0.0000      -0.029633        -0.8064
 103   0.0000      -0.010143        -0.2760
 104   0.0000       0.003216         0.0875
 105   0.0000       0.024116         0.6562

MULLIKEN ATOMIC CHARGES
-----------------------
   0 C :   -0.310886
   1 C :   -0.002698
   2 O :   -0.343239
   3 P :    0.602717
   4 S :   -0.296292
   5 O :   -0.381737
   6 C :   -0.012700
   7 C :   -0.309288
   8 S :   -0.139458
   9 C :   -0.339926
  10 S :   -0.089823
  11 P :    0.634726
  12 S :   -0.300059
  13 O :   -0.358187
  14 C :   -0.033221
  15 C :   -0.302943
  16 O :   -0.390849
  17 C :   -0.002703
  18 C :   -0.317652
  19 H :    0.117802
  20 H :    0.136735
  21 H :    0.107416
  22 H :    0.110232
  23 H :    0.099148
  24 H :    0.112752
  25 H :    0.108983
  26 H :    0.127887
  27 H :    0.108463
  28 H :    0.127786
  29 H :    0.181541
  30 H :    0.197011
  31 H :    0.110446
  32 H :    0.106679
  33 H :    0.139943
  34 H :    0.107618
  35 H :    0.131206
  36 H :    0.106633
  37 H :    0.100553
  38 H :    0.131719
  39 H :    0.111550
  40 H :    0.112116
Sum of atomic charges:    0.0000000

LOEWDIN ATOMIC CHARGES
----------------------
   0 C :   -0.367475
   1 C :   -0.110158
   2 O :   -0.226259
   3 P :    0.560795
   4 S :   -0.296973
   5 O :   -0.247689
   6 C :   -0.115088
   7 C :   -0.371253
   8 S :    0.056356
   9 C :   -0.478071
  10 S :    0.085841
  11 P :    0.576376
  12 S :   -0.287380
  13 O :   -0.231055
  14 C :   -0.115380
  15 C :   -0.364247
  16 O :   -0.264693
  17 C :   -0.122258
  18 C :   -0.366142
  19 H :    0.116398
  20 H :    0.130440
  21 H :    0.128425
  22 H :    0.122777
  23 H :    0.107613
  24 H :    0.106748
  25 H :    0.121175
  26 H :    0.121888
  27 H :    0.128641
  28 H :    0.130549
  29 H :    0.137555
  30 H :    0.121493
  31 H :    0.121752
  32 H :    0.107622
  33 H :    0.132910
  34 H :    0.128785
  35 H :    0.118815
  36 H :    0.106574
  37 H :    0.116066
  38 H :    0.126877
  39 H :    0.130300
  40 H :    0.121351

  Mayer bond orders larger than 0.100000
B(  0-C ,  1-C ) :   1.1686 B(  0-C , 19-H ) :   0.9332 B(  0-C , 20-H ) :   0.9367
B(  0-C , 21-H ) :   0.9386 B(  1-C ,  2-O ) :   0.9011 B(  1-C , 22-H ) :   0.9351
B(  1-C , 23-H ) :   0.9194 B(  2-O ,  3-P ) :   1.1388 B(  3-P ,  4-S ) :   1.6666
B(  3-P ,  5-O ) :   1.0797 B(  3-P ,  8-S ) :   0.9293 B(  4-S ,  8-S ) :   0.1181
B(  5-O ,  6-C ) :   0.9150 B(  6-C ,  7-C ) :   1.1679 B(  6-C , 24-H ) :   0.9260
B(  6-C , 25-H ) :   0.9335 B(  7-C , 26-H ) :   0.9312 B(  7-C , 27-H ) :   0.9340
B(  7-C , 28-H ) :   0.9415 B(  8-S ,  9-C ) :   0.9888 B(  9-C , 10-S ) :   1.0137
B(  9-C , 29-H ) :   0.9115 B(  9-C , 30-H ) :   0.8458 B( 10-S , 11-P ) :   0.9507
B( 10-S , 12-S ) :   0.1101 B( 11-P , 12-S ) :   1.6120 B( 11-P , 13-O ) :   1.1217
B( 11-P , 16-O ) :   1.0586 B( 12-S , 30-H ) :   0.1106 B( 13-O , 14-C ) :   0.9065
B( 14-C , 15-C ) :   1.1708 B( 14-C , 31-H ) :   0.9344 B( 14-C , 32-H ) :   0.9155
B( 15-C , 33-H ) :   0.9385 B( 15-C , 34-H ) :   0.9374 B( 15-C , 35-H ) :   0.9346
B( 16-O , 17-C ) :   0.9216 B( 17-C , 18-C ) :   1.1595 B( 17-C , 36-H ) :   0.9106
B( 17-C , 37-H ) :   0.9347 B( 18-C , 38-H ) :   0.9369 B( 18-C , 39-H ) :   0.9398
B( 18-C , 40-H ) :   0.9464

Dispersion correction           -0.068379413
FINAL SINGLE POINT ENERGY     -2929.504903023660

DIPOLE MOMENT
-------------

Method             : SCF
Type of density    : Electron Density
Multiplicity       :   1
Irrep              :   0
Energy             : -2929.6217845616388331 Eh
Relativity type    :
Basis              : AO
                                X                 Y                 Z
Electronic contribution:      4.363461643      -0.515577002      -0.601159701
Nuclear contribution   :     -4.391720005      -0.414495910       0.770801919
                        -----------------------------------------
Total Dipole Moment    :     -0.028258362      -0.930072911       0.169642218
                        -----------------------------------------
Magnitude (a.u.)       :      0.945839647
Magnitude (Debye)      :      2.404133322

Rotational constants in cm-1:             0.012583             0.005653             0.004814
Rotational constants in MHz :           377.238616           169.466813           144.308552

                             ****ORCA TERMINATED NORMALLY****
TOTAL RUN TIME: 0 days 0 hours 0 minutes 21 seconds 111 msec
