                         Program Version 6.0.0  -   RELEASE  -
|  1> ! pbe def2-sv(p) def2/J RI DEFGRID1 loosescf d4 GCP(DFT/SV(P)) printgap
|  2> %output
|  3>     printlevel normal
|  4> end
|  5> * xyz 0 1
|  6> C 0.817773008 -2.7493114523 1.5584648891
|  7> C 1.8798235401 -1.7168053197 1.8781284657
|  8> O 1.6164202793 -0.4745905086 1.1904189344
|  9> P 2.339120354 -0.0754671045 -0.1813491238
| 10> S 2.9633121901 -1.5424361478 -1.3045233304
| 11> O 3.5537666005 0.8581117562 0.2350115574
| 12> C 3.3779656449 2.0366012118 1.0598307752
| 13> C 4.7487550062 2.4788021654 1.5282020878
| 14> S 0.930948234 1.2867152399 -0.9746751697
| 15> C 0.0723393117 0.1191592616 -2.0640713511
| 16> S -0.7964377425 -1.1957201171 -1.1728990522
| 17> P -2.1104130368 0.0615616963 -0.0964032993
| 18> S -2.7960819456 1.6486261019 -1.0283280057
| 19> O -1.2430670751 0.3191340525 1.203309604
| 20> C -1.4138333731 1.4906557913 2.0232442686
| 21> C -2.7318637833 1.4645189391 2.7684661977
| 22> O -3.2197299681 -0.9263841057 0.4674294206
| 23> C -4.4286474907 -1.2248413767 -0.251727099
| 24> C -4.1655461571 -2.0543195907 -1.4920760523
| 25> H -0.1712280615 -2.3361720523 1.7424703005
| 26> H 0.8828864836 -3.0452285754 0.5135226438
| 27> H 0.968176417 -3.6221957553 2.1855066991
| 28> H 2.8725965749 -2.0805968179 1.5964378395
| 29> H 1.8701216283 -1.4521608993 2.9370620949
| 30> H 2.8942597259 2.8043979941 0.4500713609
| 31> H 2.7262726536 1.7822968939 1.8998671216
| 32> H 5.3820527804 2.6883018896 0.6711198573
| 33> H 4.6471732708 3.376521728 2.1293546901
| 34> H 5.2132031828 1.6965666006 2.1219020453
| 35> H 0.7954728121 -0.3738995671 -2.7128338465
| 36> H -0.6408742319 0.7116616834 -2.6363835691
| 37> H -0.56085481 1.4613832371 2.7027274643
| 38> H -1.3459455191 2.376060884 1.3824377118
| 39> H -2.823106445 0.5451232162 3.3407638093
| 40> H -2.784867163 2.3168718296 3.4385038284
| 41> H -3.5564228482 1.5205634316 2.0585647084
| 42> H -5.0379213867 -1.7662394165 0.4732407339
| 43> H -4.9147909292 -0.2804833302 -0.5172142964
| 44> H -3.5824129292 -2.9365850476 -1.2402436205
| 45> H -5.1115752345 -2.3586942477 -1.9282870503
| 46> H -3.612144928 -1.4673475856 -2.2238435698
| 47> *
| 48>
| 49>                          ****END OF INPUT****

CARTESIAN COORDINATES (ANGSTROEM)
---------------------------------
  C      0.817773   -2.749311    1.558465
  C      1.879824   -1.716805    1.878128
  O      1.616420   -0.474591    1.190419
  P      2.339120   -0.075467   -0.181349
  S      2.963312   -1.542436   -1.304523
  O      3.553767    0.858112    0.235012
  C      3.377966    2.036601    1.059831
  C      4.748755    2.478802    1.528202
  S      0.930948    1.286715   -0.974675
  C      0.072339    0.119159   -2.064071
  S     -0.796438   -1.195720   -1.172899
  P     -2.110413    0.061562   -0.096403
  S     -2.796082    1.648626   -1.028328
  O     -1.243067    0.319134    1.203310
  C     -1.413833    1.490656    2.023244
  C     -2.731864    1.464519    2.768466
  O     -3.219730   -0.926384    0.467429
  C     -4.428647   -1.224841   -0.251727
  C     -4.165546   -2.054320   -1.492076
  H     -0.171228   -2.336172    1.742470
  H      0.882886   -3.045229    0.513523
  H      0.968176   -3.622196    2.185507
  H      2.872597   -2.080597    1.596438
  H      1.870122   -1.452161    2.937062
  H      2.894260    2.804398    0.450071
  H      2.726273    1.782297    1.899867
  H      5.382053    2.688302    0.671120
  H      4.647173    3.376522    2.129355
  H      5.213203    1.696567    2.121902
  H      0.795473   -0.373900   -2.712834
  H     -0.640874    0.711662   -2.636384
  H     -0.560855    1.461383    2.702727
  H     -1.345946    2.376061    1.382438
  H     -2.823106    0.545123    3.340764
  H     -2.784867    2.316872    3.438504
  H     -3.556423    1.520563    2.058565
  H     -5.037921   -1.766239    0.473241
  H     -4.914791   -0.280483   -0.517214
  H     -3.582413   -2.936585   -1.240244
  H     -5.111575   -2.358694   -1.928287
  H     -3.612145   -1.467348   -2.223844

 Total Charge           Charge          ....    0
 Multiplicity           Mult            ....    1
 Number of Electrons    NEL             ....  202
 Basis Dimension        Dim             ....  334

ORBITAL ENERGIES
----------------

  NO   OCC          E(Eh)            E(eV)
   0   2.0000     -88.042662     -2395.7626
   1   2.0000     -88.041440     -2395.7294
   2   2.0000     -87.991457     -2394.3693
   3   2.0000     -87.985401     -2394.2045
   4   2.0000     -76.427993     -2079.7114
   5   2.0000     -76.423004     -2079.5757
   6   2.0000     -18.796351      -511.4747
   7   2.0000     -18.792119      -511.3596
   8   2.0000     -18.788546      -511.2623
   9   2.0000     -18.785124      -511.1692
  10   2.0000      -9.959309      -271.0066
  11   2.0000      -9.955328      -270.8982
  12   2.0000      -9.954743      -270.8823
  13   2.0000      -9.951034      -270.7814
  14   2.0000      -9.948842      -270.7218
  15   2.0000      -9.892475      -269.1879
  16   2.0000      -9.885537      -268.9991
  17   2.0000      -9.884608      -268.9739
  18   2.0000      -9.873527      -268.6723
  19   2.0000      -7.687493      -209.1873
  20   2.0000      -7.686575      -209.1623
  21   2.0000      -7.636326      -207.7950
  22   2.0000      -7.630727      -207.6426
  23   2.0000      -6.425430      -174.8449
  24   2.0000      -6.421002      -174.7244
  25   2.0000      -5.715371      -155.5231
  26   2.0000      -5.714398      -155.4967
  27   2.0000      -5.712123      -155.4348
  28   2.0000      -5.711262      -155.4113
  29   2.0000      -5.704305      -155.2220
  30   2.0000      -5.703381      -155.1969
  31   2.0000      -5.665090      -154.1549
  32   2.0000      -5.659769      -154.0101
  33   2.0000      -5.656974      -153.9341
  34   2.0000      -5.656656      -153.9254
  35   2.0000      -5.651524      -153.7858
  36   2.0000      -5.650526      -153.7586
  37   2.0000      -4.647809      -126.4733
  38   2.0000      -4.647192      -126.4565
  39   2.0000      -4.646075      -126.4261
  40   2.0000      -4.643836      -126.3652
  41   2.0000      -4.642395      -126.3260
  42   2.0000      -4.641578      -126.3038
  43   2.0000      -0.988459       -26.8973
  44   2.0000      -0.981819       -26.7167
  45   2.0000      -0.947083       -25.7714
  46   2.0000      -0.939602       -25.5679
  47   2.0000      -0.765805       -20.8386
  48   2.0000      -0.722742       -19.6668
  49   2.0000      -0.710184       -19.3251
  50   2.0000      -0.689106       -18.7515
  51   2.0000      -0.686993       -18.6940
  52   2.0000      -0.672623       -18.3030
  53   2.0000      -0.651307       -17.7230
  54   2.0000      -0.640816       -17.4375
  55   2.0000      -0.603591       -16.4245
  56   2.0000      -0.584064       -15.8932
  57   2.0000      -0.574444       -15.6314
  58   2.0000      -0.572939       -15.5905
  59   2.0000      -0.557371       -15.1668
  60   2.0000      -0.510141       -13.8816
  61   2.0000      -0.494152       -13.4466
  62   2.0000      -0.477131       -12.9834
  63   2.0000      -0.474781       -12.9194
  64   2.0000      -0.457924       -12.4608
  65   2.0000      -0.443370       -12.0647
  66   2.0000      -0.441540       -12.0149
  67   2.0000      -0.438855       -11.9419
  68   2.0000      -0.428869       -11.6701
  69   2.0000      -0.413362       -11.2481
  70   2.0000      -0.400302       -10.8928
  71   2.0000      -0.397599       -10.8192
  72   2.0000      -0.394403       -10.7322
  73   2.0000      -0.388263       -10.5652
  74   2.0000      -0.379283       -10.3208
  75   2.0000      -0.372586       -10.1386
  76   2.0000      -0.366728        -9.9792
  77   2.0000      -0.358889        -9.7659
  78   2.0000      -0.356162        -9.6917
  79   2.0000      -0.352157        -9.5827
  80   2.0000      -0.349247        -9.5035
  81   2.0000      -0.344940        -9.3863
  82   2.0000      -0.342235        -9.3127
  83   2.0000      -0.336466        -9.1557
  84   2.0000      -0.334797        -9.1103
  85   2.0000      -0.321219        -8.7408
  86   2.0000      -0.312985        -8.5168
  87   2.0000      -0.303922        -8.2701
  88   2.0000      -0.297382        -8.0922
  89   2.0000      -0.285762        -7.7760
  90   2.0000      -0.280266        -7.6264
  91   2.0000      -0.276819        -7.5326
  92   2.0000      -0.270269        -7.3544
  93   2.0000      -0.266054        -7.2397
  94   2.0000      -0.258784        -7.0419
  95   2.0000      -0.230027        -6.2593
  96   2.0000      -0.216691        -5.8965
  97   2.0000      -0.215055        -5.8519
  98   2.0000      -0.208507        -5.6738
  99   2.0000      -0.201279        -5.4771
 100   2.0000      -0.198905        -5.4125
 101   0.0000      -0.046045        -1.2529
 102   0.0000      -0.025132        -0.6839
 103   0.0000      -0.000776        -0.0211
 104   0.0000       0.003956         0.1076
 105   0.0000       0.007438         0.2024

MULLIKEN ATOMIC CHARGES
-----------------------
   0 C :   -0.292093
   1 C :   -0.010726
   2 O :   -0.379649
   3 P :    0.620902
   4 S :   -0.313534
   5 O :   -0.370441
   6 C :   -0.039293
   7 C :   -0.271405
   8 S :   -0.100061
   9 C :   -0.348524
  10 S :   -0.068804
  11 P :    0.618577
  12 S :   -0.336733
  13 O :   -0.353716
  14 C :   -0.002218
  15 C :   -0.305452
  16 O :   -0.373477
  17 C :   -0.005765
  18 C :   -0.315169
  19 H :    0.117593
  20 H :    0.129161
  21 H :    0.101929
  22 H :    0.104871
  23 H :    0.095885
  24 H :    0.115369
  25 H :    0.107266
  26 H :    0.125044
  27 H :    0.110863
  28 H :    0.118580
  29 H :    0.192882
  30 H :    0.189999
  31 H :    0.101492
  32 H :    0.110855
  33 H :    0.115063
  34 H :    0.110621
  35 H :    0.122070
  36 H :    0.106211
  37 H :    0.111050
  38 H :    0.119569
  39 H :    0.114155
  40 H :    0.127052
Sum of atomic charges:   -0.0000000

LOEWDIN ATOMIC CHARGES
----------------------
   0 C :   -0.365251
   1 C :   -0.114740
   2 O :   -0.252408
   3 P :    0.568850
   4 S :   -0.309292
   5 O :   -0.250199
   6 C :   -0.121500
   7 C :   -0.348376
   8 S :    0.083970
   9 C :   -0.478050
  10 S :    0.111765
  11 P :    0.573070
  12 S :   -0.326247
  13 O :   -0.230382
  14 C :   -0.117907
  15 C :   -0.365190
  16 O :   -0.243528
  17 C :   -0.119232
  18 C :   -0.369226
  19 H :    0.121482
  20 H :    0.121593
  21 H :    0.125192
  22 H :    0.108144
  23 H :    0.113260
  24 H :    0.110694
  25 H :    0.108949
  26 H :    0.131786
  27 H :    0.130424
  28 H :    0.128630
  29 H :    0.132660
  30 H :    0.130738
  31 H :    0.115705
  32 H :    0.109393
  33 H :    0.125582
  34 H :    0.129603
  35 H :    0.122040
  36 H :    0.119157
  37 H :    0.110531
  38 H :    0.125315
  39 H :    0.131593
  40 H :    0.121402

  Mayer bond orders larger than 0.100000
B(  0-C ,  1-C ) :   1.1742 B(  0-C , 19-H ) :   0.9417 B(  0-C , 20-H ) :   0.9356
B(  0-C , 21-H ) :   0.9382 B(  1-C ,  2-O ) :   0.9016 B(  1-C , 22-H ) :   0.9141
B(  1-C , 23-H ) :   0.9338 B(  2-O ,  3-P ) :   1.0845 B(  3-P ,  4-S ) :   1.6343
B(  3-P ,  5-O ) :   1.1152 B(  3-P ,  8-S ) :   0.9570 B(  4-S ,  8-S ) :   0.1027
B(  5-O ,  6-C ) :   0.9079 B(  6-C ,  7-C ) :   1.1652 B(  6-C , 24-H ) :   0.9220
B(  6-C , 25-H ) :   0.9186 B(  7-C , 26-H ) :   0.9497 B(  7-C , 27-H ) :   0.9406
B(  7-C , 28-H ) :   0.9510 B(  8-S ,  9-C ) :   1.0120 B(  9-C , 10-S ) :   1.0061
B(  9-C , 29-H ) :   0.8845 B(  9-C , 30-H ) :   0.8862 B( 10-S , 11-P ) :   0.9604
B( 10-S , 12-S ) :   0.1074 B( 11-P , 12-S ) :   1.5813 B( 11-P , 13-O ) :   1.1199
B( 11-P , 16-O ) :   1.1071 B( 13-O , 14-C ) :   0.9072 B( 14-C , 15-C ) :   1.1631
B( 14-C , 31-H ) :   0.9326 B( 14-C , 32-H ) :   0.9163 B( 15-C , 33-H ) :   0.9463
B( 15-C , 34-H ) :   0.9398 B( 15-C , 35-H ) :   0.9357 B( 16-O , 17-C ) :   0.9085
B( 17-C , 18-C ) :   1.1665 B( 17-C , 36-H ) :   0.9339 B( 17-C , 37-H ) :   0.9161
B( 18-C , 38-H ) :   0.9446 B( 18-C , 39-H ) :   0.9378 B( 18-C , 40-H ) :   0.9358

Dispersion correction           -0.066699518
FINAL SINGLE POINT ENERGY     -2929.524032263350

DIPOLE MOMENT
-------------

Method             : SCF
Type of density    : Electron Density
Multiplicity       :   1
Irrep              :   0
Energy             : -2929.6422597446762666 Eh
Relativity type    :
Basis              : AO
                                X                 Y                 Z
Electronic contribution:      5.225377052       0.662914582     -16.189020504
Nuclear contribution   :     -5.728374452      -0.409255381      17.671775218
                        -----------------------------------------
Total Dipole Moment    :     -0.502997399       0.253659201       1.482754714
                        -----------------------------------------
Magnitude (a.u.)       :      1.586162323
Magnitude (Debye)      :      4.031704221

Rotational constants in cm-1:             0.012170             0.005339             0.004903
Rotational constants in MHz :           364.843183           160.048007           146.978248

                             ****ORCA TERMINATED NORMALLY****
TOTAL RUN TIME: 0 days 0 hours 0 minutes 21 seconds 617 msec
