                         Program Version 6.0.0  -   RELEASE  -
|  1> ! pbe def2-sv(p) def2/J RI DEFGRID1 loosescf d4 GCP(DFT/SV(P)) printgap
|  2> %output
|  3>     printlevel normal
|  4> end
|  5> * xyz 0 1
|  6> C 4.8760947672 0.5345876462 -2.0218443897
|  7> C 4.1237377428 -0.7808546663 -2.000790331
|  8> O 3.3848136444 -0.9508061018 -0.7808186464
|  9> P 2.0578741904 -0.1125469234 -0.4525393349
| 10> S 1.0220955523 0.2865252229 -2.065037597
| 11> O 2.5127330174 1.2017209136 0.3010854633
| 12> C 2.8589268118 1.3136785385 1.6991344279
| 13> C 4.0138389789 0.4143237515 2.0855132594
| 14> S 1.2447494546 -1.4374766121 0.9725051493
| 15> C -0.1081412119 -2.1295468227 -0.0287061571
| 16> S -1.7575008285 -1.8056408554 0.6496072054
| 17> P -1.9557791293 0.2853066118 0.288033462
| 18> S -0.6172418297 1.482477353 1.0662954488
| 19> O -3.429291039 0.5334095071 0.8225830353
| 20> C -3.7239070016 0.5377917283 2.2356348447
| 21> C -5.0689642958 1.2075927661 2.4286979159
| 22> O -2.0934444138 0.4714505071 -1.2647706842
| 23> C -3.0443251408 -0.2425049594 -2.0947804568
| 24> C -4.3047354486 0.5736580504 -2.2902725823
| 25> H 5.4345776571 0.6174522028 -2.9488940463
| 26> H 4.1685068063 1.3616189829 -1.9578499912
| 27> H 5.562130082 0.5932873208 -1.1810338698
| 28> H 4.7996723159 -1.6366943301 -2.0229722363
| 29> H 3.4244160246 -0.8352808125 -2.8416769758
| 30> H 3.1095208082 2.3699869719 1.8087015713
| 31> H 1.9643434065 1.0934745507 2.2883615378
| 32> H 4.245272642 0.5701568174 3.1344540648
| 33> H 3.7461545966 -0.6303796302 1.9332941507
| 34> H 4.8902523295 0.6458463396 1.4857933463
| 35> H -0.0045147336 -3.2112956436 -0.0306572306
| 36> H -0.0401717053 -1.7169466036 -1.0391226191
| 37> H -3.7384726297 -0.4989342683 2.5812510495
| 38> H -2.9261282799 1.0791779099 2.754384083
| 39> H -5.8379494113 0.6616272719 1.8901680162
| 40> H -5.3106550554 1.2189780073 3.4863099071
| 41> H -5.0342664907 2.2282647371 2.0581021115
| 42> H -2.5123715249 -0.3933311993 -3.0364828144
| 43> H -3.2658776052 -1.2076492572 -1.6303909764
| 44> H -4.057107609 1.5449906537 -2.7097534072
| 45> H -4.9648922977 0.0459642917 -2.9714869538
| 46> H -4.8092742079 0.7202176557 -1.3390988376
| 47> *
| 48>
| 49>                          ****END OF INPUT****

CARTESIAN COORDINATES (ANGSTROEM)
---------------------------------
  C      4.876095    0.534588   -2.021844
  C      4.123738   -0.780855   -2.000790
  O      3.384814   -0.950806   -0.780819
  P      2.057874   -0.112547   -0.452539
  S      1.022096    0.286525   -2.065038
  O      2.512733    1.201721    0.301085
  C      2.858927    1.313679    1.699134
  C      4.013839    0.414324    2.085513
  S      1.244749   -1.437477    0.972505
  C     -0.108141   -2.129547   -0.028706
  S     -1.757501   -1.805641    0.649607
  P     -1.955779    0.285307    0.288033
  S     -0.617242    1.482477    1.066295
  O     -3.429291    0.533410    0.822583
  C     -3.723907    0.537792    2.235635
  C     -5.068964    1.207593    2.428698
  O     -2.093444    0.471451   -1.264771
  C     -3.044325   -0.242505   -2.094780
  C     -4.304735    0.573658   -2.290273
  H      5.434578    0.617452   -2.948894
  H      4.168507    1.361619   -1.957850
  H      5.562130    0.593287   -1.181034
  H      4.799672   -1.636694   -2.022972
  H      3.424416   -0.835281   -2.841677
  H      3.109521    2.369987    1.808702
  H      1.964343    1.093475    2.288362
  H      4.245273    0.570157    3.134454
  H      3.746155   -0.630380    1.933294
  H      4.890252    0.645846    1.485793
  H     -0.004515   -3.211296   -0.030657
  H     -0.040172   -1.716947   -1.039123
  H     -3.738473   -0.498934    2.581251
  H     -2.926128    1.079178    2.754384
  H     -5.837949    0.661627    1.890168
  H     -5.310655    1.218978    3.486310
  H     -5.034266    2.228265    2.058102
  H     -2.512372   -0.393331   -3.036483
  H     -3.265878   -1.207649   -1.630391
  H     -4.057108    1.544991   -2.709753
  H     -4.964892    0.045964   -2.971487
  H     -4.809274    0.720218   -1.339099

 Total Charge           Charge          ....    0
 Multiplicity           Mult            ....    1
 Number of Electrons    NEL             ....  202
 Basis Dimension        Dim             ....  334

ORBITAL ENERGIES
----------------

  NO   OCC          E(Eh)            E(eV)
   0   2.0000     -88.040406     -2395.7012
   1   2.0000     -88.036907     -2395.6060
   2   2.0000     -87.977188     -2393.9810
   3   2.0000     -87.975644     -2393.9390
   4   2.0000     -76.420531     -2079.5084
   5   2.0000     -76.418164     -2079.4439
   6   2.0000     -18.790385      -511.3124
   7   2.0000     -18.786503      -511.2067
   8   2.0000     -18.785512      -511.1798
   9   2.0000     -18.776211      -510.9267
  10   2.0000      -9.955274      -270.8968
  11   2.0000      -9.952595      -270.8239
  12   2.0000      -9.951396      -270.7913
  13   2.0000      -9.950355      -270.7629
  14   2.0000      -9.941856      -270.5317
  15   2.0000      -9.888804      -269.0880
  16   2.0000      -9.886199      -269.0172
  17   2.0000      -9.882760      -268.9236
  18   2.0000      -9.878408      -268.8051
  19   2.0000      -7.685515      -209.1335
  20   2.0000      -7.682186      -209.0429
  21   2.0000      -7.622389      -207.4158
  22   2.0000      -7.620621      -207.3676
  23   2.0000      -6.418074      -174.6447
  24   2.0000      -6.415709      -174.5803
  25   2.0000      -5.713101      -155.4614
  26   2.0000      -5.710124      -155.3804
  27   2.0000      -5.709953      -155.3757
  28   2.0000      -5.706903      -155.2927
  29   2.0000      -5.702855      -155.1826
  30   2.0000      -5.698800      -155.0722
  31   2.0000      -5.651414      -153.7828
  32   2.0000      -5.649632      -153.7343
  33   2.0000      -5.643484      -153.5670
  34   2.0000      -5.641850      -153.5225
  35   2.0000      -5.641167      -153.5040
  36   2.0000      -5.640743      -153.4924
  37   2.0000      -4.641064      -126.2898
  38   2.0000      -4.640004      -126.2609
  39   2.0000      -4.638460      -126.2189
  40   2.0000      -4.637981      -126.2059
  41   2.0000      -4.637314      -126.1877
  42   2.0000      -4.636198      -126.1574
  43   2.0000      -0.985384       -26.8137
  44   2.0000      -0.974344       -26.5133
  45   2.0000      -0.942951       -25.6590
  46   2.0000      -0.934818       -25.4377
  47   2.0000      -0.758908       -20.6509
  48   2.0000      -0.717569       -19.5260
  49   2.0000      -0.707344       -19.2478
  50   2.0000      -0.690646       -18.7934
  51   2.0000      -0.687160       -18.6986
  52   2.0000      -0.669013       -18.2048
  53   2.0000      -0.645019       -17.5519
  54   2.0000      -0.631526       -17.1847
  55   2.0000      -0.593316       -16.1450
  56   2.0000      -0.584473       -15.9043
  57   2.0000      -0.572174       -15.5697
  58   2.0000      -0.566902       -15.4262
  59   2.0000      -0.560204       -15.2439
  60   2.0000      -0.506723       -13.7886
  61   2.0000      -0.487142       -13.2558
  62   2.0000      -0.479627       -13.0513
  63   2.0000      -0.467489       -12.7210
  64   2.0000      -0.450002       -12.2452
  65   2.0000      -0.444561       -12.0971
  66   2.0000      -0.440387       -11.9835
  67   2.0000      -0.432216       -11.7612
  68   2.0000      -0.425747       -11.5852
  69   2.0000      -0.412298       -11.2192
  70   2.0000      -0.406928       -11.0731
  71   2.0000      -0.394236       -10.7277
  72   2.0000      -0.387219       -10.5368
  73   2.0000      -0.381387       -10.3781
  74   2.0000      -0.380829       -10.3629
  75   2.0000      -0.365739        -9.9523
  76   2.0000      -0.361507        -9.8371
  77   2.0000      -0.354817        -9.6551
  78   2.0000      -0.353290        -9.6135
  79   2.0000      -0.350219        -9.5299
  80   2.0000      -0.348466        -9.4823
  81   2.0000      -0.342752        -9.3268
  82   2.0000      -0.340044        -9.2531
  83   2.0000      -0.335971        -9.1422
  84   2.0000      -0.332234        -9.0406
  85   2.0000      -0.315198        -8.5770
  86   2.0000      -0.304462        -8.2848
  87   2.0000      -0.300125        -8.1668
  88   2.0000      -0.297387        -8.0923
  89   2.0000      -0.288145        -7.8408
  90   2.0000      -0.272976        -7.4280
  91   2.0000      -0.269294        -7.3279
  92   2.0000      -0.265348        -7.2205
  93   2.0000      -0.258032        -7.0214
  94   2.0000      -0.256486        -6.9793
  95   2.0000      -0.239097        -6.5062
  96   2.0000      -0.215278        -5.8580
  97   2.0000      -0.202166        -5.5012
  98   2.0000      -0.197201        -5.3661
  99   2.0000      -0.183999        -5.0069
 100   2.0000      -0.180426        -4.9096
 101   0.0000      -0.037884        -1.0309
 102   0.0000      -0.027054        -0.7362
 103   0.0000      -0.007298        -0.1986
 104   0.0000       0.004963         0.1351
 105   0.0000       0.026688         0.7262

MULLIKEN ATOMIC CHARGES
-----------------------
   0 C :   -0.318044
   1 C :   -0.004237
   2 O :   -0.382618
   3 P :    0.618149
   4 S :   -0.303393
   5 O :   -0.367048
   6 C :   -0.015399
   7 C :   -0.323019
   8 S :   -0.088698
   9 C :   -0.335410
  10 S :   -0.123100
  11 P :    0.606293
  12 S :   -0.303843
  13 O :   -0.384294
  14 C :   -0.012065
  15 C :   -0.283645
  16 O :   -0.338965
  17 C :   -0.012642
  18 C :   -0.292497
  19 H :    0.108731
  20 H :    0.130569
  21 H :    0.115028
  22 H :    0.099248
  23 H :    0.106273
  24 H :    0.111007
  25 H :    0.129919
  26 H :    0.114292
  27 H :    0.132789
  28 H :    0.121706
  29 H :    0.183026
  30 H :    0.187822
  31 H :    0.104645
  32 H :    0.105461
  33 H :    0.115887
  34 H :    0.112681
  35 H :    0.123621
  36 H :    0.111603
  37 H :    0.098014
  38 H :    0.122311
  39 H :    0.107854
  40 H :    0.121988
Sum of atomic charges:   -0.0000000

LOEWDIN ATOMIC CHARGES
----------------------
   0 C :   -0.365794
   1 C :   -0.123636
   2 O :   -0.261597
   3 P :    0.576182
   4 S :   -0.294973
   5 O :   -0.232536
   6 C :   -0.118159
   7 C :   -0.367548
   8 S :    0.085124
   9 C :   -0.478841
  10 S :    0.057229
  11 P :    0.562938
  12 S :   -0.301227
  13 O :   -0.250411
  14 C :   -0.120826
  15 C :   -0.350957
  16 O :   -0.221361
  17 C :   -0.115130
  18 C :   -0.360141
  19 H :    0.128885
  20 H :    0.126484
  21 H :    0.121003
  22 H :    0.115524
  23 H :    0.105845
  24 H :    0.123536
  25 H :    0.111171
  26 H :    0.132248
  27 H :    0.119768
  28 H :    0.125763
  29 H :    0.137981
  30 H :    0.121037
  31 H :    0.109018
  32 H :    0.109406
  33 H :    0.125404
  34 H :    0.131284
  35 H :    0.130307
  36 H :    0.121489
  37 H :    0.101683
  38 H :    0.129884
  39 H :    0.128735
  40 H :    0.125213

  Mayer bond orders larger than 0.100000
B(  0-C ,  1-C ) :   1.1602 B(  0-C , 19-H ) :   0.9392 B(  0-C , 20-H ) :   0.9367
B(  0-C , 21-H ) :   0.9442 B(  1-C ,  2-O ) :   0.9230 B(  1-C , 22-H ) :   0.9344
B(  1-C , 23-H ) :   0.9089 B(  2-O ,  3-P ) :   1.0701 B(  3-P ,  4-S ) :   1.6047
B(  3-P ,  5-O ) :   1.1223 B(  3-P ,  8-S ) :   0.9521 B(  4-S ,  8-S ) :   0.1079
B(  4-S , 30-H ) :   0.1175 B(  5-O ,  6-C ) :   0.9018 B(  6-C ,  7-C ) :   1.1624
B(  6-C , 24-H ) :   0.9349 B(  6-C , 25-H ) :   0.9131 B(  7-C , 26-H ) :   0.9360
B(  7-C , 27-H ) :   0.9347 B(  7-C , 28-H ) :   0.9413 B(  8-S ,  9-C ) :   1.0093
B(  9-C , 10-S ) :   0.9899 B(  9-C , 29-H ) :   0.9121 B(  9-C , 30-H ) :   0.8513
B( 10-S , 11-P ) :   0.9499 B( 10-S , 12-S ) :   0.1154 B( 11-P , 12-S ) :   1.6638
B( 11-P , 13-O ) :   1.0737 B( 11-P , 16-O ) :   1.1502 B( 13-O , 14-C ) :   0.9055
B( 14-C , 15-C ) :   1.1600 B( 14-C , 31-H ) :   0.9290 B( 14-C , 32-H ) :   0.9068
B( 15-C , 33-H ) :   0.9509 B( 15-C , 34-H ) :   0.9417 B( 15-C , 35-H ) :   0.9506
B( 16-O , 17-C ) :   0.8954 B( 17-C , 18-C ) :   1.1665 B( 17-C , 36-H ) :   0.9327
B( 17-C , 37-H ) :   0.9085 B( 18-C , 38-H ) :   0.9471 B( 18-C , 39-H ) :   0.9396
B( 18-C , 40-H ) :   0.9409

Dispersion correction           -0.066385441
FINAL SINGLE POINT ENERGY     -2929.510549115270

DIPOLE MOMENT
-------------

Method             : SCF
Type of density    : Electron Density
Multiplicity       :   1
Irrep              :   0
Energy             : -2929.6291520623467477 Eh
Relativity type    :
Basis              : AO
                                X                 Y                 Z
Electronic contribution:      0.904811719      -4.960120013       0.515255231
Nuclear contribution   :     -1.167857974       4.241760914      -0.155468198
                        -----------------------------------------
Total Dipole Moment    :     -0.263046255      -0.718359099       0.359787033
                        -----------------------------------------
Magnitude (a.u.)       :      0.845387389
Magnitude (Debye)      :      2.148803974

Rotational constants in cm-1:             0.013833             0.004910             0.004448
Rotational constants in MHz :           414.695201           147.196123           133.350782

                             ****ORCA TERMINATED NORMALLY****
TOTAL RUN TIME: 0 days 0 hours 0 minutes 20 seconds 643 msec
