                         Program Version 6.0.0  -   RELEASE  -
|  1> ! r2scan-3c def2/J RI DEFGRID2 scfconv6 printgap
|  2> %output
|  3>     printlevel normal
|  4> end
|  5> * xyz 0 1
|  6> C 3.1180034194 -2.4473322466 -2.4233755081
|  7> C 3.3426734482 -2.3174336605 -0.9304869968
|  8> O 3.569614551 -0.934362435 -0.5584105077
|  9> P 2.4407437022 0.0141506511 0.0180948076
| 10> S 3.1633696661 1.7390494717 0.5798362787
| 11> O 1.6819377827 -0.8238395929 1.157377309
| 12> C 1.9866192964 -0.6517420357 2.5533558856
| 13> C 3.3137983717 -1.2900256554 2.9088320066
| 14> S 0.9283920032 0.0488720395 -1.4559565381
| 15> C 0.0296987231 1.4746490245 -0.7907942113
| 16> S -0.8087673443 1.1351461607 0.7776071209
| 17> P -2.5691273222 0.1947900452 0.0080003742
| 18> S -2.9557773846 0.5483220506 -1.8868679717
| 19> O -3.7217655746 0.608083178 1.0072392847
| 20> C -4.5545423506 1.7558590693 0.7717000212
| 21> C -3.804284731 3.0557989091 0.9855463795
| 22> O -2.4947690829 -1.308254028 0.4987308404
| 23> C -1.4321304916 -2.2339863637 0.2146301991
| 24> C -1.4565308636 -2.7150438223 -1.2232516931
| 25> H 3.0471898297 -3.499456676 -2.6808137099
| 26> H 2.1991690863 -1.9452837172 -2.7191925751
| 27> H 3.948242516 -2.0015866294 -2.9640464827
| 28> H 4.2562572251 -2.8298191214 -0.6239009313
| 29> H 2.4913404075 -2.7033581631 -0.3647800577
| 30> H 1.9983458553 0.4195851058 2.7769345032
| 31> H 1.1516779047 -1.1255085152 3.0715403815
| 32> H 3.4978875093 -1.1696605789 3.9716961582
| 33> H 3.3059054954 -2.3484962833 2.6619859641
| 34> H 4.1147949757 -0.8014521606 2.3541245962
| 35> H -0.7092613802 1.7478589636 -1.5456003778
| 36> H 0.7351796024 2.2835884107 -0.6034489172
| 37> H -4.9472767062 1.7010339683 -0.2490755164
| 38> H -5.3693436845 1.6400106435 1.487633555
| 39> H -3.0427845943 3.1788833212 0.2165657708
| 40> H -4.5000519908 3.8865751707 0.9259381004
| 41> H -3.3224919354 3.0572701353 1.9600515368
| 42> H -0.4729191303 -1.7647499174 0.4552713605
| 43> H -1.6178176242 -3.0557893109 0.9091489762
| 44> H -0.7107117395 -3.4925532871 -1.3541243997
| 45> H -2.4381899945 -3.1134234463 -1.4661184094
| 46> H -1.2344964239 -1.8961902508 -1.9051512431
| 47> *
| 48>
| 49>                          ****END OF INPUT****

CARTESIAN COORDINATES (ANGSTROEM)
---------------------------------
  C      3.118003   -2.447332   -2.423376
  C      3.342673   -2.317434   -0.930487
  O      3.569615   -0.934362   -0.558411
  P      2.440744    0.014151    0.018095
  S      3.163370    1.739049    0.579836
  O      1.681938   -0.823840    1.157377
  C      1.986619   -0.651742    2.553356
  C      3.313798   -1.290026    2.908832
  S      0.928392    0.048872   -1.455957
  C      0.029699    1.474649   -0.790794
  S     -0.808767    1.135146    0.777607
  P     -2.569127    0.194790    0.008000
  S     -2.955777    0.548322   -1.886868
  O     -3.721766    0.608083    1.007239
  C     -4.554542    1.755859    0.771700
  C     -3.804285    3.055799    0.985546
  O     -2.494769   -1.308254    0.498731
  C     -1.432130   -2.233986    0.214630
  C     -1.456531   -2.715044   -1.223252
  H      3.047190   -3.499457   -2.680814
  H      2.199169   -1.945284   -2.719193
  H      3.948243   -2.001587   -2.964046
  H      4.256257   -2.829819   -0.623901
  H      2.491340   -2.703358   -0.364780
  H      1.998346    0.419585    2.776935
  H      1.151678   -1.125509    3.071540
  H      3.497888   -1.169661    3.971696
  H      3.305905   -2.348496    2.661986
  H      4.114795   -0.801452    2.354125
  H     -0.709261    1.747859   -1.545600
  H      0.735180    2.283588   -0.603449
  H     -4.947277    1.701034   -0.249076
  H     -5.369344    1.640011    1.487634
  H     -3.042785    3.178883    0.216566
  H     -4.500052    3.886575    0.925938
  H     -3.322492    3.057270    1.960052
  H     -0.472919   -1.764750    0.455271
  H     -1.617818   -3.055789    0.909149
  H     -0.710712   -3.492553   -1.354124
  H     -2.438190   -3.113423   -1.466118
  H     -1.234496   -1.896190   -1.905151

 Total Charge           Charge          ....    0
 Multiplicity           Mult            ....    1
 Number of Electrons    NEL             ....  202
 Basis Dimension        Dim             ....  539

ORBITAL ENERGIES
----------------

  NO   OCC          E(Eh)            E(eV)
   0   2.0000     -88.579366     -2410.3671
   1   2.0000     -88.577007     -2410.3029
   2   2.0000     -88.524708     -2408.8798
   3   2.0000     -88.524486     -2408.8737
   4   2.0000     -76.919103     -2093.0752
   5   2.0000     -76.915668     -2092.9817
   6   2.0000     -19.000003      -517.0164
   7   2.0000     -18.994377      -516.8633
   8   2.0000     -18.991546      -516.7863
   9   2.0000     -18.990070      -516.7461
  10   2.0000     -10.112271      -275.1689
  11   2.0000     -10.105779      -274.9922
  12   2.0000     -10.100269      -274.8423
  13   2.0000     -10.097282      -274.7610
  14   2.0000     -10.097039      -274.7544
  15   2.0000     -10.040076      -273.2044
  16   2.0000     -10.034266      -273.0463
  17   2.0000     -10.027600      -272.8649
  18   2.0000     -10.024692      -272.7857
  19   2.0000      -7.873949      -214.2610
  20   2.0000      -7.871104      -214.1836
  21   2.0000      -7.819470      -212.7786
  22   2.0000      -7.819258      -212.7728
  23   2.0000      -6.597494      -179.5270
  24   2.0000      -6.594102      -179.4346
  25   2.0000      -5.820722      -158.3899
  26   2.0000      -5.818013      -158.3162
  27   2.0000      -5.817825      -158.3111
  28   2.0000      -5.814932      -158.2323
  29   2.0000      -5.811092      -158.1278
  30   2.0000      -5.808267      -158.0510
  31   2.0000      -5.767251      -156.9349
  32   2.0000      -5.766878      -156.9247
  33   2.0000      -5.759721      -156.7300
  34   2.0000      -5.759496      -156.7238
  35   2.0000      -5.759357      -156.7201
  36   2.0000      -5.759339      -156.7196
  37   2.0000      -4.743405      -129.0746
  38   2.0000      -4.742115      -129.0395
  39   2.0000      -4.741155      -129.0134
  40   2.0000      -4.739388      -128.9653
  41   2.0000      -4.739325      -128.9636
  42   2.0000      -4.737763      -128.9211
  43   2.0000      -1.053713       -28.6730
  44   2.0000      -1.052970       -28.6528
  45   2.0000      -1.015148       -27.6236
  46   2.0000      -1.009899       -27.4807
  47   2.0000      -0.803805       -21.8726
  48   2.0000      -0.762886       -20.7592
  49   2.0000      -0.753873       -20.5139
  50   2.0000      -0.740514       -20.1504
  51   2.0000      -0.726613       -19.7721
  52   2.0000      -0.715810       -19.4782
  53   2.0000      -0.690173       -18.7806
  54   2.0000      -0.672713       -18.3055
  55   2.0000      -0.633238       -17.2313
  56   2.0000      -0.625954       -17.0331
  57   2.0000      -0.618479       -16.8297
  58   2.0000      -0.602961       -16.4074
  59   2.0000      -0.593812       -16.1584
  60   2.0000      -0.532388       -14.4870
  61   2.0000      -0.520465       -14.1626
  62   2.0000      -0.503299       -13.6955
  63   2.0000      -0.488074       -13.2812
  64   2.0000      -0.480707       -13.0807
  65   2.0000      -0.469848       -12.7852
  66   2.0000      -0.461024       -12.5451
  67   2.0000      -0.452509       -12.3134
  68   2.0000      -0.441449       -12.0124
  69   2.0000      -0.438239       -11.9251
  70   2.0000      -0.427954       -11.6452
  71   2.0000      -0.427300       -11.6274
  72   2.0000      -0.420021       -11.4294
  73   2.0000      -0.399696       -10.8763
  74   2.0000      -0.395461       -10.7610
  75   2.0000      -0.393893       -10.7184
  76   2.0000      -0.387871       -10.5545
  77   2.0000      -0.380476       -10.3533
  78   2.0000      -0.378195       -10.2912
  79   2.0000      -0.370694       -10.0871
  80   2.0000      -0.365837        -9.9549
  81   2.0000      -0.362694        -9.8694
  82   2.0000      -0.358277        -9.7492
  83   2.0000      -0.354339        -9.6420
  84   2.0000      -0.350344        -9.5334
  85   2.0000      -0.336810        -9.1651
  86   2.0000      -0.330251        -8.9866
  87   2.0000      -0.320729        -8.7275
  88   2.0000      -0.313192        -8.5224
  89   2.0000      -0.304400        -8.2831
  90   2.0000      -0.300831        -8.1860
  91   2.0000      -0.291764        -7.9393
  92   2.0000      -0.288626        -7.8539
  93   2.0000      -0.284783        -7.7493
  94   2.0000      -0.275140        -7.4869
  95   2.0000      -0.249181        -6.7806
  96   2.0000      -0.232203        -6.3186
  97   2.0000      -0.230073        -6.2606
  98   2.0000      -0.221030        -6.0145
  99   2.0000      -0.218838        -5.9549
 100   2.0000      -0.217772        -5.9259
 101   0.0000      -0.050612        -1.3772
 102   0.0000      -0.030961        -0.8425
 103   0.0000      -0.009342        -0.2542
 104   0.0000      -0.002953        -0.0804
 105   0.0000       0.007954         0.2164

MULLIKEN ATOMIC CHARGES
-----------------------
   0 C :   -0.421596
   1 C :   -0.166125
   2 O :   -0.286795
   3 P :    0.658081
   4 S :   -0.442063
   5 O :   -0.280731
   6 C :   -0.152964
   7 C :   -0.443931
   8 S :   -0.145264
   9 C :   -0.256525
  10 S :   -0.131783
  11 P :    0.685520
  12 S :   -0.466725
  13 O :   -0.314521
  14 C :   -0.150895
  15 C :   -0.436809
  16 O :   -0.276248
  17 C :   -0.164050
  18 C :   -0.427038
  19 H :    0.149638
  20 H :    0.156349
  21 H :    0.163760
  22 H :    0.156407
  23 H :    0.163032
  24 H :    0.177636
  25 H :    0.153662
  26 H :    0.149885
  27 H :    0.146532
  28 H :    0.177597
  29 H :    0.219045
  30 H :    0.219827
  31 H :    0.173075
  32 H :    0.149438
  33 H :    0.168145
  34 H :    0.147325
  35 H :    0.155112
  36 H :    0.177689
  37 H :    0.148300
  38 H :    0.139477
  39 H :    0.154126
  40 H :    0.174403
Sum of atomic charges:   -0.0000000

LOEWDIN ATOMIC CHARGES
----------------------
   0 C :   -0.395542
   1 C :    0.022269
   2 O :   -0.653803
   3 P :    0.374640
   4 S :   -0.097538
   5 O :   -0.722933
   6 C :    0.011623
   7 C :   -0.398330
   8 S :    0.149723
   9 C :   -0.425793
  10 S :    0.164153
  11 P :    0.394598
  12 S :   -0.128765
  13 O :   -0.650808
  14 C :    0.021527
  15 C :   -0.404955
  16 O :   -0.646844
  17 C :    0.018849
  18 C :   -0.411430
  19 H :    0.160489
  20 H :    0.163457
  21 H :    0.164634
  22 H :    0.182089
  23 H :    0.176797
  24 H :    0.182749
  25 H :    0.179550
  26 H :    0.161265
  27 H :    0.155428
  28 H :    0.167741
  29 H :    0.195460
  30 H :    0.192591
  31 H :    0.180039
  32 H :    0.180192
  33 H :    0.162692
  34 H :    0.158873
  35 H :    0.160961
  36 H :    0.190445
  37 H :    0.179428
  38 H :    0.156334
  39 H :    0.161787
  40 H :    0.166355

  Mayer bond orders larger than 0.100000
B(  0-C ,  1-C ) :   0.9600 B(  0-C , 19-H ) :   0.9653 B(  0-C , 20-H ) :   0.9515
B(  0-C , 21-H ) :   0.9714 B(  1-C ,  2-O ) :   0.7507 B(  1-C , 22-H ) :   0.9596
B(  1-C , 23-H ) :   0.9683 B(  2-O ,  3-P ) :   1.1222 B(  3-P ,  4-S ) :   1.8509
B(  3-P ,  5-O ) :   1.0202 B(  3-P ,  8-S ) :   1.0547 B(  5-O ,  6-C ) :   0.7895
B(  6-C ,  7-C ) :   0.9193 B(  6-C , 24-H ) :   0.9599 B(  6-C , 25-H ) :   0.9627
B(  7-C , 26-H ) :   0.9617 B(  7-C , 27-H ) :   0.9725 B(  7-C , 28-H ) :   0.9604
B(  8-S ,  9-C ) :   0.9078 B(  9-C , 10-S ) :   0.9056 B(  9-C , 29-H ) :   0.9000
B(  9-C , 30-H ) :   0.9083 B( 10-S , 11-P ) :   1.0550 B( 11-P , 12-S ) :   1.7413
B( 11-P , 13-O ) :   1.1283 B( 11-P , 16-O ) :   1.1416 B( 13-O , 14-C ) :   0.8164
B( 14-C , 15-C ) :   0.9232 B( 14-C , 31-H ) :   0.9677 B( 14-C , 32-H ) :   0.9590
B( 15-C , 33-H ) :   0.9656 B( 15-C , 34-H ) :   0.9608 B( 15-C , 35-H ) :   0.9676
B( 16-O , 17-C ) :   0.8057 B( 17-C , 18-C ) :   0.9211 B( 17-C , 36-H ) :   0.9542
B( 17-C , 37-H ) :   0.9647 B( 18-C , 38-H ) :   0.9666 B( 18-C , 39-H ) :   0.9667
B( 18-C , 40-H ) :   0.9537

Dispersion correction           -0.021933656
FINAL SINGLE POINT ENERGY     -2932.461546512287

DIPOLE MOMENT
-------------

Method             : SCF
Type of density    : Electron Density
Multiplicity       :   1
Irrep              :   0
Energy             : -2932.4865202907485582 Eh
Relativity type    :
Basis              : AO
                                X                 Y                 Z
Electronic contribution:     -2.251915107      11.977276540      -3.369122853
Nuclear contribution   :      2.324402057     -13.300868151       4.113201622
                        -----------------------------------------
Total Dipole Moment    :      0.072486950      -1.323591611       0.744078769
                        -----------------------------------------
Magnitude (a.u.)       :      1.520132338
Magnitude (Debye)      :      3.863869336

Rotational constants in cm-1:             0.012343             0.005033             0.004584
Rotational constants in MHz :           370.044628           150.870780           137.423278

                             ****ORCA TERMINATED NORMALLY****
TOTAL RUN TIME: 0 days 0 hours 1 minutes 21 seconds 83 msec
