                         Program Version 6.0.0  -   RELEASE  -
|  1> ! r2scan-3c def2/J RI DEFGRID2 scfconv6 printgap
|  2> %output
|  3>     printlevel normal
|  4> end
|  5> %cpcm
|  6>     smd true
|  7>     smdsolvent "water"
|  8> end
|  9> * xyz 0 1
| 10> C 3.1180034194 -2.4473322466 -2.4233755081
| 11> C 3.3426734482 -2.3174336605 -0.9304869968
| 12> O 3.569614551 -0.934362435 -0.5584105077
| 13> P 2.4407437022 0.0141506511 0.0180948076
| 14> S 3.1633696661 1.7390494717 0.5798362787
| 15> O 1.6819377827 -0.8238395929 1.157377309
| 16> C 1.9866192964 -0.6517420357 2.5533558856
| 17> C 3.3137983717 -1.2900256554 2.9088320066
| 18> S 0.9283920032 0.0488720395 -1.4559565381
| 19> C 0.0296987231 1.4746490245 -0.7907942113
| 20> S -0.8087673443 1.1351461607 0.7776071209
| 21> P -2.5691273222 0.1947900452 0.0080003742
| 22> S -2.9557773846 0.5483220506 -1.8868679717
| 23> O -3.7217655746 0.608083178 1.0072392847
| 24> C -4.5545423506 1.7558590693 0.7717000212
| 25> C -3.804284731 3.0557989091 0.9855463795
| 26> O -2.4947690829 -1.308254028 0.4987308404
| 27> C -1.4321304916 -2.2339863637 0.2146301991
| 28> C -1.4565308636 -2.7150438223 -1.2232516931
| 29> H 3.0471898297 -3.499456676 -2.6808137099
| 30> H 2.1991690863 -1.9452837172 -2.7191925751
| 31> H 3.948242516 -2.0015866294 -2.9640464827
| 32> H 4.2562572251 -2.8298191214 -0.6239009313
| 33> H 2.4913404075 -2.7033581631 -0.3647800577
| 34> H 1.9983458553 0.4195851058 2.7769345032
| 35> H 1.1516779047 -1.1255085152 3.0715403815
| 36> H 3.4978875093 -1.1696605789 3.9716961582
| 37> H 3.3059054954 -2.3484962833 2.6619859641
| 38> H 4.1147949757 -0.8014521606 2.3541245962
| 39> H -0.7092613802 1.7478589636 -1.5456003778
| 40> H 0.7351796024 2.2835884107 -0.6034489172
| 41> H -4.9472767062 1.7010339683 -0.2490755164
| 42> H -5.3693436845 1.6400106435 1.487633555
| 43> H -3.0427845943 3.1788833212 0.2165657708
| 44> H -4.5000519908 3.8865751707 0.9259381004
| 45> H -3.3224919354 3.0572701353 1.9600515368
| 46> H -0.4729191303 -1.7647499174 0.4552713605
| 47> H -1.6178176242 -3.0557893109 0.9091489762
| 48> H -0.7107117395 -3.4925532871 -1.3541243997
| 49> H -2.4381899945 -3.1134234463 -1.4661184094
| 50> H -1.2344964239 -1.8961902508 -1.9051512431
| 51> *
| 52>
| 53>                          ****END OF INPUT****

CARTESIAN COORDINATES (ANGSTROEM)
---------------------------------
  C      3.118003   -2.447332   -2.423376
  C      3.342673   -2.317434   -0.930487
  O      3.569615   -0.934362   -0.558411
  P      2.440744    0.014151    0.018095
  S      3.163370    1.739049    0.579836
  O      1.681938   -0.823840    1.157377
  C      1.986619   -0.651742    2.553356
  C      3.313798   -1.290026    2.908832
  S      0.928392    0.048872   -1.455957
  C      0.029699    1.474649   -0.790794
  S     -0.808767    1.135146    0.777607
  P     -2.569127    0.194790    0.008000
  S     -2.955777    0.548322   -1.886868
  O     -3.721766    0.608083    1.007239
  C     -4.554542    1.755859    0.771700
  C     -3.804285    3.055799    0.985546
  O     -2.494769   -1.308254    0.498731
  C     -1.432130   -2.233986    0.214630
  C     -1.456531   -2.715044   -1.223252
  H      3.047190   -3.499457   -2.680814
  H      2.199169   -1.945284   -2.719193
  H      3.948243   -2.001587   -2.964046
  H      4.256257   -2.829819   -0.623901
  H      2.491340   -2.703358   -0.364780
  H      1.998346    0.419585    2.776935
  H      1.151678   -1.125509    3.071540
  H      3.497888   -1.169661    3.971696
  H      3.305905   -2.348496    2.661986
  H      4.114795   -0.801452    2.354125
  H     -0.709261    1.747859   -1.545600
  H      0.735180    2.283588   -0.603449
  H     -4.947277    1.701034   -0.249076
  H     -5.369344    1.640011    1.487634
  H     -3.042785    3.178883    0.216566
  H     -4.500052    3.886575    0.925938
  H     -3.322492    3.057270    1.960052
  H     -0.472919   -1.764750    0.455271
  H     -1.617818   -3.055789    0.909149
  H     -0.710712   -3.492553   -1.354124
  H     -2.438190   -3.113423   -1.466118
  H     -1.234496   -1.896190   -1.905151

 Total Charge           Charge          ....    0
 Multiplicity           Mult            ....    1
 Number of Electrons    NEL             ....  202
 Basis Dimension        Dim             ....  539

ORBITAL ENERGIES
----------------

  NO   OCC          E(Eh)            E(eV)
   0   2.0000     -88.580442     -2410.3964
   1   2.0000     -88.579645     -2410.3747
   2   2.0000     -88.531620     -2409.0679
   3   2.0000     -88.531494     -2409.0644
   4   2.0000     -76.921207     -2093.1325
   5   2.0000     -76.921029     -2093.1276
   6   2.0000     -18.997793      -516.9562
   7   2.0000     -18.996069      -516.9093
   8   2.0000     -18.994872      -516.8767
   9   2.0000     -18.990564      -516.7595
  10   2.0000     -10.104763      -274.9646
  11   2.0000     -10.093930      -274.6698
  12   2.0000     -10.089788      -274.5571
  13   2.0000     -10.089412      -274.5469
  14   2.0000     -10.087533      -274.4957
  15   2.0000     -10.021607      -272.7018
  16   2.0000     -10.018434      -272.6154
  17   2.0000     -10.018143      -272.6075
  18   2.0000     -10.016325      -272.5581
  19   2.0000      -7.875020      -214.2902
  20   2.0000      -7.873742      -214.2554
  21   2.0000      -7.826643      -212.9738
  22   2.0000      -7.826638      -212.9737
  23   2.0000      -6.599598      -179.5842
  24   2.0000      -6.599573      -179.5835
  25   2.0000      -5.821773      -158.4185
  26   2.0000      -5.820682      -158.3888
  27   2.0000      -5.818884      -158.3399
  28   2.0000      -5.817581      -158.3044
  29   2.0000      -5.812195      -158.1579
  30   2.0000      -5.810868      -158.1218
  31   2.0000      -5.774297      -157.1266
  32   2.0000      -5.774208      -157.1242
  33   2.0000      -5.766885      -156.9249
  34   2.0000      -5.766853      -156.9241
  35   2.0000      -5.766728      -156.9207
  36   2.0000      -5.766613      -156.9175
  37   2.0000      -4.745429      -129.1297
  38   2.0000      -4.744866      -129.1144
  39   2.0000      -4.744764      -129.1116
  40   2.0000      -4.744183      -129.0958
  41   2.0000      -4.743426      -129.0752
  42   2.0000      -4.743267      -129.0709
  43   2.0000      -1.057515       -28.7764
  44   2.0000      -1.050302       -28.5802
  45   2.0000      -1.013486       -27.5783
  46   2.0000      -1.010916       -27.5084
  47   2.0000      -0.804373       -21.8881
  48   2.0000      -0.757306       -20.6073
  49   2.0000      -0.746782       -20.3210
  50   2.0000      -0.727291       -19.7906
  51   2.0000      -0.719439       -19.5769
  52   2.0000      -0.712633       -19.3917
  53   2.0000      -0.691900       -18.8276
  54   2.0000      -0.676794       -18.4165
  55   2.0000      -0.631958       -17.1964
  56   2.0000      -0.620127       -16.8745
  57   2.0000      -0.605559       -16.4781
  58   2.0000      -0.598080       -16.2746
  59   2.0000      -0.590158       -16.0590
  60   2.0000      -0.524959       -14.2849
  61   2.0000      -0.515724       -14.0336
  62   2.0000      -0.494909       -13.4672
  63   2.0000      -0.486428       -13.2364
  64   2.0000      -0.478220       -13.0130
  65   2.0000      -0.462681       -12.5902
  66   2.0000      -0.455652       -12.3989
  67   2.0000      -0.443809       -12.0766
  68   2.0000      -0.438570       -11.9341
  69   2.0000      -0.433524       -11.7968
  70   2.0000      -0.426485       -11.6053
  71   2.0000      -0.421369       -11.4660
  72   2.0000      -0.410430       -11.1684
  73   2.0000      -0.395831       -10.7711
  74   2.0000      -0.391835       -10.6624
  75   2.0000      -0.387651       -10.5485
  76   2.0000      -0.385232       -10.4827
  77   2.0000      -0.374298       -10.1852
  78   2.0000      -0.366336        -9.9685
  79   2.0000      -0.359191        -9.7741
  80   2.0000      -0.355307        -9.6684
  81   2.0000      -0.354265        -9.6400
  82   2.0000      -0.351518        -9.5653
  83   2.0000      -0.349807        -9.5187
  84   2.0000      -0.344419        -9.3721
  85   2.0000      -0.331520        -9.0211
  86   2.0000      -0.323498        -8.8028
  87   2.0000      -0.311511        -8.4767
  88   2.0000      -0.308330        -8.3901
  89   2.0000      -0.302412        -8.2291
  90   2.0000      -0.294633        -8.0174
  91   2.0000      -0.287637        -7.8270
  92   2.0000      -0.285572        -7.7708
  93   2.0000      -0.282337        -7.6828
  94   2.0000      -0.277927        -7.5628
  95   2.0000      -0.250131        -6.8064
  96   2.0000      -0.238514        -6.4903
  97   2.0000      -0.236779        -6.4431
  98   2.0000      -0.229213        -6.2372
  99   2.0000      -0.225809        -6.1446
 100   2.0000      -0.222468        -6.0537
 101   0.0000      -0.054340        -1.4787
 102   0.0000      -0.034816        -0.9474
 103   0.0000      -0.012053        -0.3280
 104   0.0000      -0.004964        -0.1351
 105   0.0000       0.008945         0.2434

MULLIKEN ATOMIC CHARGES
-----------------------
   0 C :   -0.460362
   1 C :   -0.156735
   2 O :   -0.318315
   3 P :    0.672556
   4 S :   -0.502546
   5 O :   -0.287077
   6 C :   -0.144117
   7 C :   -0.478770
   8 S :   -0.152023
   9 C :   -0.263727
  10 S :   -0.134298
  11 P :    0.711612
  12 S :   -0.504722
  13 O :   -0.344845
  14 C :   -0.149689
  15 C :   -0.475877
  16 O :   -0.310562
  17 C :   -0.151047
  18 C :   -0.468707
  19 H :    0.175486
  20 H :    0.154116
  21 H :    0.172945
  22 H :    0.180685
  23 H :    0.184597
  24 H :    0.175991
  25 H :    0.178103
  26 H :    0.171157
  27 H :    0.168372
  28 H :    0.169278
  29 H :    0.232839
  30 H :    0.238321
  31 H :    0.177457
  32 H :    0.175356
  33 H :    0.169850
  34 H :    0.171700
  35 H :    0.167106
  36 H :    0.176533
  37 H :    0.176518
  38 H :    0.171938
  39 H :    0.164664
  40 H :    0.166240
Sum of atomic charges:   -0.0000000

LOEWDIN ATOMIC CHARGES
----------------------
   0 C :   -0.398337
   1 C :    0.031361
   2 O :   -0.672360
   3 P :    0.376926
   4 S :   -0.142523
   5 O :   -0.720047
   6 C :    0.016826
   7 C :   -0.400746
   8 S :    0.148372
   9 C :   -0.420808
  10 S :    0.164741
  11 P :    0.396523
  12 S :   -0.154815
  13 O :   -0.668224
  14 C :    0.025923
  15 C :   -0.408199
  16 O :   -0.665640
  17 C :    0.025545
  18 C :   -0.414634
  19 H :    0.171109
  20 H :    0.160494
  21 H :    0.165556
  22 H :    0.192907
  23 H :    0.186072
  24 H :    0.181407
  25 H :    0.189629
  26 H :    0.168410
  27 H :    0.163201
  28 H :    0.163007
  29 H :    0.200149
  30 H :    0.197389
  31 H :    0.181662
  32 H :    0.191047
  33 H :    0.160886
  34 H :    0.167860
  35 H :    0.163699
  36 H :    0.191479
  37 H :    0.191534
  38 H :    0.168748
  39 H :    0.162622
  40 H :    0.161250

  Mayer bond orders larger than 0.100000
B(  0-C ,  1-C ) :   0.9457 B(  0-C , 19-H ) :   0.9586 B(  0-C , 20-H ) :   0.9525
B(  0-C , 21-H ) :   0.9710 B(  1-C ,  2-O ) :   0.7410 B(  1-C , 22-H ) :   0.9496
B(  1-C , 23-H ) :   0.9579 B(  2-O ,  3-P ) :   1.1310 B(  3-P ,  4-S ) :   1.8196
B(  3-P ,  5-O ) :   1.0361 B(  3-P ,  8-S ) :   1.0660 B(  5-O ,  6-C ) :   0.7741
B(  6-C ,  7-C ) :   0.9169 B(  6-C , 24-H ) :   0.9578 B(  6-C , 25-H ) :   0.9527
B(  7-C , 26-H ) :   0.9575 B(  7-C , 27-H ) :   0.9680 B(  7-C , 28-H ) :   0.9619
B(  8-S ,  9-C ) :   0.8978 B(  9-C , 10-S ) :   0.8981 B(  9-C , 29-H ) :   0.8970
B(  9-C , 30-H ) :   0.9038 B( 10-S , 11-P ) :   1.0670 B( 11-P , 12-S ) :   1.7199
B( 11-P , 13-O ) :   1.1289 B( 11-P , 16-O ) :   1.1428 B( 13-O , 14-C ) :   0.8057
B( 14-C , 15-C ) :   0.9135 B( 14-C , 31-H ) :   0.9640 B( 14-C , 32-H ) :   0.9493
B( 15-C , 33-H ) :   0.9651 B( 15-C , 34-H ) :   0.9552 B( 15-C , 35-H ) :   0.9658
B( 16-O , 17-C ) :   0.7963 B( 17-C , 18-C ) :   0.9085 B( 17-C , 36-H ) :   0.9504
B( 17-C , 37-H ) :   0.9549 B( 18-C , 38-H ) :   0.9593 B( 18-C , 39-H ) :   0.9687
B( 18-C , 40-H ) :   0.9554

Dispersion correction           -0.021933656
FINAL SINGLE POINT ENERGY     -2932.470216669803

DIPOLE MOMENT
-------------

Method             : SCF
Type of density    : Electron Density
Multiplicity       :   1
Irrep              :   0
Energy             : -2932.4951904482641112 Eh
Relativity type    :
Basis              : AO
                                X                 Y                 Z
Electronic contribution:     -2.304589791      11.425542841      -3.083306762
Nuclear contribution   :      2.324402057     -13.300868151       4.113201622
                        -----------------------------------------
Total Dipole Moment    :      0.019812265      -1.875325310       1.029894860
                        -----------------------------------------
Magnitude (a.u.)       :      2.139607666
Magnitude (Debye)      :      5.438450487

Rotational constants in cm-1:             0.012343             0.005033             0.004584
Rotational constants in MHz :           370.044628           150.870780           137.423278

                             ****ORCA TERMINATED NORMALLY****
TOTAL RUN TIME: 0 days 0 hours 1 minutes 56 seconds 639 msec
