                         Program Version 6.0.1  -  RELEASE   -
|  1> ! pbe def2-sv(p) def2/J RI DEFGRID1 loosescf d4 GCP(DFT/SV(P)) printgap
|  2> %output
|  3>     printlevel normal
|  4> end
|  5> * xyz 0 1
|  6> C 4.9925906615 -2.8401947154 -1.5058682044
|  7> C 3.8240399131 -3.2551928636 -0.626648964
|  8> O 2.5777321561 -2.7639019109 -1.1625586557
|  9> C 2.1901401469 -1.5491884237 -0.8436245296
| 10> O 2.7957964886 -0.8009489122 -0.1029093178
| 11> C 0.8630791907 -1.2005287262 -1.4802898572
| 12> C 0.5807598471 0.2899986642 -1.3277588076
| 13> H 1.1233769717 0.893163315 -2.056171894
| 14> C 0.9004755655 0.7800183789 0.0701370854
| 15> O 0.371180781 0.2846042879 1.0493578815
| 16> O 1.6927294201 1.8151027888 0.0674770642
| 17> C 2.0456565706 2.4287852404 1.3249524478
| 18> C 1.1301498867 3.60597857 1.6179463623
| 19> S -1.1889727632 0.6474429383 -1.5896097525
| 20> P -2.1150378558 0.2265973583 0.2771582274
| 21> S -2.1440283885 1.5238009466 1.7565934151
| 22> O -3.6077457256 0.0203030622 -0.277852242
| 23> C -4.4464941488 1.1204857975 -0.6377170055
| 24> O -1.7960948024 -1.3061832278 0.5651712872
| 25> C -1.6558934157 -1.8096290801 1.9006660121
| 26> H 5.9050865288 -3.2822856367 -1.1198932825
| 27> H 4.8328176931 -3.1798620256 -2.5253133393
| 28> H 5.0970289027 -1.757562618 -1.5035137684
| 29> H 3.9444777812 -2.8676373166 0.3888780018
| 30> H 3.7023632272 -4.3381457072 -0.6100242537
| 31> H 0.0965004407 -1.7834779828 -0.9612177815
| 32> H 0.8558501238 -1.4968877113 -2.5283187876
| 33> H 1.9813564463 1.6721299839 2.1110690258
| 34> H 3.0791346838 2.748772794 1.1896971268
| 35> H 1.4628008813 4.0992418764 2.5250093782
| 36> H 1.1541885765 4.3125910405 0.7932911391
| 37> H 0.1064217855 3.264608314 1.7617879213
| 38> H -4.3769520734 1.9064619463 0.1172083331
| 39> H -5.4564082389 0.7201916336 -0.6771622943
| 40> H -4.1489808111 1.5107333726 -1.6107015673
| 41> H -0.8002465052 -1.3345207059 2.3816413704
| 42> H -1.4931640704 -2.8784631962 1.7881735537
| 43> H -2.5586389697 -1.6157277645 2.4782479773
| 44> *
| 45>
| 46>                          ****END OF INPUT****

CARTESIAN COORDINATES (ANGSTROEM)
---------------------------------
  C      4.992591   -2.840195   -1.505868
  C      3.824040   -3.255193   -0.626649
  O      2.577732   -2.763902   -1.162559
  C      2.190140   -1.549188   -0.843625
  O      2.795796   -0.800949   -0.102909
  C      0.863079   -1.200529   -1.480290
  C      0.580760    0.289999   -1.327759
  H      1.123377    0.893163   -2.056172
  C      0.900476    0.780018    0.070137
  O      0.371181    0.284604    1.049358
  O      1.692729    1.815103    0.067477
  C      2.045657    2.428785    1.324952
  C      1.130150    3.605979    1.617946
  S     -1.188973    0.647443   -1.589610
  P     -2.115038    0.226597    0.277158
  S     -2.144028    1.523801    1.756593
  O     -3.607746    0.020303   -0.277852
  C     -4.446494    1.120486   -0.637717
  O     -1.796095   -1.306183    0.565171
  C     -1.655893   -1.809629    1.900666
  H      5.905087   -3.282286   -1.119893
  H      4.832818   -3.179862   -2.525313
  H      5.097029   -1.757563   -1.503514
  H      3.944478   -2.867637    0.388878
  H      3.702363   -4.338146   -0.610024
  H      0.096500   -1.783478   -0.961218
  H      0.855850   -1.496888   -2.528319
  H      1.981356    1.672130    2.111069
  H      3.079135    2.748773    1.189697
  H      1.462801    4.099242    2.525009
  H      1.154189    4.312591    0.793291
  H      0.106422    3.264608    1.761788
  H     -4.376952    1.906462    0.117208
  H     -5.456408    0.720192   -0.677162
  H     -4.148981    1.510733   -1.610702
  H     -0.800247   -1.334521    2.381641
  H     -1.493164   -2.878463    1.788174
  H     -2.558639   -1.615728    2.478248

 Total Charge           Charge          ....    0
 Multiplicity           Mult            ....    1
 Number of Electrons    NEL             ....  174
 Basis Dimension        Dim             ....  316

ORBITAL ENERGIES
----------------

  NO   OCC          E(Eh)            E(eV)
   0   2.0000     -88.036582     -2395.5972
   1   2.0000     -87.969818     -2393.7805
   2   2.0000     -76.418228     -2079.4457
   3   2.0000     -18.813878      -511.9517
   4   2.0000     -18.802702      -511.6475
   5   2.0000     -18.784029      -511.1394
   6   2.0000     -18.775815      -510.9159
   7   2.0000     -18.752540      -510.2826
   8   2.0000     -18.737192      -509.8649
   9   2.0000     -10.021949      -272.7111
  10   2.0000     -10.014843      -272.5177
  11   2.0000      -9.957484      -270.9569
  12   2.0000      -9.946878      -270.6683
  13   2.0000      -9.940324      -270.4900
  14   2.0000      -9.934274      -270.3253
  15   2.0000      -9.932874      -270.2872
  16   2.0000      -9.914126      -269.7771
  17   2.0000      -9.895485      -269.2698
  18   2.0000      -9.872996      -268.6579
  19   2.0000      -7.681681      -209.0292
  20   2.0000      -7.614854      -207.2107
  21   2.0000      -6.414385      -174.5443
  22   2.0000      -5.709803      -155.3716
  23   2.0000      -5.706104      -155.2710
  24   2.0000      -5.698461      -155.0630
  25   2.0000      -5.643963      -153.5801
  26   2.0000      -5.635563      -153.3515
  27   2.0000      -5.634708      -153.3282
  28   2.0000      -4.636935      -126.1774
  29   2.0000      -4.636412      -126.1632
  30   2.0000      -4.634906      -126.1222
  31   2.0000      -1.023237       -27.8437
  32   2.0000      -1.011689       -27.5295
  33   2.0000      -0.973083       -26.4789
  34   2.0000      -0.931069       -25.3357
  35   2.0000      -0.929680       -25.2979
  36   2.0000      -0.917509       -24.9667
  37   2.0000      -0.763596       -20.7785
  38   2.0000      -0.719717       -19.5845
  39   2.0000      -0.699136       -19.0245
  40   2.0000      -0.688125       -18.7248
  41   2.0000      -0.656850       -17.8738
  42   2.0000      -0.622381       -16.9359
  43   2.0000      -0.617022       -16.7900
  44   2.0000      -0.611802       -16.6480
  45   2.0000      -0.600297       -16.3349
  46   2.0000      -0.558477       -15.1969
  47   2.0000      -0.508678       -13.8418
  48   2.0000      -0.506459       -13.7815
  49   2.0000      -0.492940       -13.4136
  50   2.0000      -0.481969       -13.1150
  51   2.0000      -0.463784       -12.6202
  52   2.0000      -0.460341       -12.5265
  53   2.0000      -0.445663       -12.1271
  54   2.0000      -0.437769       -11.9123
  55   2.0000      -0.429569       -11.6892
  56   2.0000      -0.424725       -11.5574
  57   2.0000      -0.419941       -11.4272
  58   2.0000      -0.413568       -11.2538
  59   2.0000      -0.406716       -11.0673
  60   2.0000      -0.400743       -10.9048
  61   2.0000      -0.398136       -10.8338
  62   2.0000      -0.388810       -10.5800
  63   2.0000      -0.380797       -10.3620
  64   2.0000      -0.373822       -10.1722
  65   2.0000      -0.368846       -10.0368
  66   2.0000      -0.361214        -9.8291
  67   2.0000      -0.355174        -9.6648
  68   2.0000      -0.345486        -9.4012
  69   2.0000      -0.337574        -9.1858
  70   2.0000      -0.335632        -9.1330
  71   2.0000      -0.330287        -8.9876
  72   2.0000      -0.319519        -8.6945
  73   2.0000      -0.307146        -8.3579
  74   2.0000      -0.297729        -8.1016
  75   2.0000      -0.293504        -7.9866
  76   2.0000      -0.287563        -7.8250
  77   2.0000      -0.281771        -7.6674
  78   2.0000      -0.273633        -7.4459
  79   2.0000      -0.266328        -7.2472
  80   2.0000      -0.255503        -6.9526
  81   2.0000      -0.249493        -6.7891
  82   2.0000      -0.238038        -6.4773
  83   2.0000      -0.228044        -6.2054
  84   2.0000      -0.222032        -6.0418
  85   2.0000      -0.187413        -5.0998
  86   2.0000      -0.180113        -4.9011
  87   0.0000      -0.046251        -1.2586
  88   0.0000      -0.034703        -0.9443
  89   0.0000      -0.017839        -0.4854
  90   0.0000       0.005777         0.1572
  91   0.0000       0.037592         1.0229

MULLIKEN ATOMIC CHARGES
-----------------------
   0 C :   -0.306846
   1 C :   -0.013312
   2 O :   -0.225399
   3 C :    0.126960
   4 O :   -0.205758
   5 C :   -0.070339
   6 C :   -0.275201
   7 H :    0.130011
   8 C :    0.194758
   9 O :   -0.212807
  10 O :   -0.208149
  11 C :   -0.009722
  12 C :   -0.311903
  13 S :   -0.092874
  14 P :    0.608930
  15 S :   -0.323410
  16 O :   -0.377000
  17 C :   -0.103561
  18 O :   -0.374526
  19 C :   -0.099135
  20 H :    0.117000
  21 H :    0.116644
  22 H :    0.127818
  23 H :    0.113153
  24 H :    0.107499
  25 H :    0.149308
  26 H :    0.121944
  27 H :    0.113498
  28 H :    0.101453
  29 H :    0.105964
  30 H :    0.107778
  31 H :    0.145043
  32 H :    0.114715
  33 H :    0.120921
  34 H :    0.111338
  35 H :    0.141301
  36 H :    0.115457
  37 H :    0.118449
Sum of atomic charges:   -0.0000000

LOEWDIN ATOMIC CHARGES
----------------------
   0 C :   -0.355687
   1 C :   -0.109050
   2 O :   -0.054494
   3 C :    0.042037
   4 O :   -0.153980
   5 C :   -0.257955
   6 C :   -0.256578
   7 H :    0.140982
   8 C :    0.009392
   9 O :   -0.174501
  10 O :   -0.033178
  11 C :   -0.103913
  12 C :   -0.361650
  13 S :    0.104964
  14 P :    0.581476
  15 S :   -0.312352
  16 O :   -0.262960
  17 C :   -0.220550
  18 O :   -0.246351
  19 C :   -0.210728
  20 H :    0.132735
  21 H :    0.126107
  22 H :    0.130714
  23 H :    0.121971
  24 H :    0.120239
  25 H :    0.154731
  26 H :    0.144378
  27 H :    0.123023
  28 H :    0.117515
  29 H :    0.128243
  30 H :    0.122869
  31 H :    0.126347
  32 H :    0.106700
  33 H :    0.120253
  34 H :    0.107600
  35 H :    0.120541
  36 H :    0.117602
  37 H :    0.113507

  Mayer bond orders larger than 0.100000
B(  0-C ,  1-C ) :   1.1746 B(  0-C , 20-H ) :   0.9437 B(  0-C , 21-H ) :   0.9485
B(  0-C , 22-H ) :   0.9466 B(  1-C ,  2-O ) :   0.9085 B(  1-C , 23-H ) :   0.9152
B(  1-C , 24-H ) :   0.9367 B(  2-O ,  3-C ) :   1.2507 B(  3-C ,  4-O ) :   1.9795
B(  3-C ,  5-C ) :   1.0105 B(  4-O ,  8-C ) :   0.1017 B(  5-C ,  6-C ) :   1.0035
B(  5-C , 25-H ) :   0.8616 B(  5-C , 26-H ) :   0.9021 B(  6-C ,  7-H ) :   0.8850
B(  6-C ,  8-C ) :   0.9093 B(  6-C , 13-S ) :   1.0190 B(  8-C ,  9-O ) :   1.8930
B(  8-C , 10-O ) :   1.2880 B(  9-O , 14-P ) :   0.1127 B( 10-O , 11-C ) :   0.9014
B( 11-C , 12-C ) :   1.1766 B( 11-C , 27-H ) :   0.9115 B( 11-C , 28-H ) :   0.9373
B( 12-C , 29-H ) :   0.9420 B( 12-C , 30-H ) :   0.9478 B( 12-C , 31-H ) :   0.9239
B( 13-S , 14-P ) :   0.9502 B( 13-S , 15-S ) :   0.1135 B( 14-P , 15-S ) :   1.5884
B( 14-P , 16-O ) :   1.0768 B( 14-P , 18-O ) :   1.0972 B( 16-O , 17-C ) :   0.9405
B( 17-C , 32-H ) :   0.9267 B( 17-C , 33-H ) :   0.9596 B( 17-C , 34-H ) :   0.9502
B( 18-O , 19-C ) :   0.9129 B( 19-C , 35-H ) :   0.9382 B( 19-C , 36-H ) :   0.9575
B( 19-C , 37-H ) :   0.9491

Dispersion correction           -0.051764345
FINAL SINGLE POINT ENERGY     -1979.010784110154

DIPOLE MOMENT
-------------

Method             : SCF
Type of density    : Electron Density
Multiplicity       :   1
Irrep              :   0
Energy             : -1979.1427340505606480 Eh
Relativity type    :
Basis              : AO
                                X                 Y                 Z
Electronic contribution:    -14.459715147       2.590505059      -2.221172125
Nuclear contribution   :     15.626467914      -3.502110221       1.572150294
                        -----------------------------------------
Total Dipole Moment    :      1.166752766      -0.911605162      -0.649021831
                        -----------------------------------------
Magnitude (a.u.)       :      1.616652506
Magnitude (Debye)      :      4.109204108

Rotational constants in cm-1:             0.014569             0.006431             0.005427
Rotational constants in MHz :           436.776241           192.806123           162.711999

                             ****ORCA TERMINATED NORMALLY****
TOTAL RUN TIME: 0 days 0 hours 0 minutes 33 seconds 138 msec
