                         Program Version 6.0.0  -   RELEASE  -
|  1> ! pbe def2-sv(p) def2/J RI DEFGRID1 loosescf d4 GCP(DFT/SV(P)) printgap
|  2> %output
|  3>     printlevel normal
|  4> end
|  5> * xyz 0 1
|  6> C -0.0344068951 -1.1964199183 3.1219092521
|  7> C 1.2777263325 -1.3629635116 2.3838393132
|  8> O 1.5386564428 -0.1678483237 1.6157863221
|  9> P 2.3314502475 -0.1421146936 0.2451376095
| 10> S 2.9909779502 -1.8969530284 -0.3419232424
| 11> O 3.3983274301 0.9615146547 0.6399715363
| 12> C 4.1437342243 1.7728919876 -0.286928918
| 13> C 4.8997841044 0.9516699426 -1.3111430348
| 14> S 1.0971151064 0.8868780673 -1.144966092
| 15> C 0.2583902879 -0.580043988 -1.7954173426
| 16> S -0.7483898046 -1.4260819447 -0.5492184493
| 17> P -2.0918189956 0.1731994876 -0.2154513458
| 18> S -2.6617794215 1.1977741854 -1.7907014668
| 19> O -1.3003979433 0.9715083687 0.8995786932
| 20> C -1.480014808 2.3834226124 1.1162392617
| 21> C -2.8347757825 2.6849952144 1.7213680325
| 22> O -3.2629259965 -0.4763996375 0.6388187768
| 23> C -4.4348581367 -1.0517162679 0.0355655023
| 24> C -4.118878769 -2.3206680423 -0.7295941935
| 25> H 0.004760478 -0.3131427462 3.7526582234
| 26> H -0.8574668668 -1.0887968866 2.4196346259
| 27> H -0.2042394751 -2.0738835959 3.7373243902
| 28> H 1.2530537425 -2.2257231307 1.709630471
| 29> H 2.1090360839 -1.4836315664 3.0827690149
| 30> H 3.4482976661 2.4599837278 -0.7775540394
| 31> H 4.8246581367 2.3335048229 0.3561010888
| 32> H 5.5163676085 1.6089718182 -1.9157366082
| 33> H 5.5321159455 0.218228912 -0.8163716398
| 34> H 4.2023162949 0.4236781598 -1.9599132028
| 35> H 0.9987150511 -1.3033459056 -2.1371833393
| 36> H -0.3761901516 -0.2378791731 -2.6123449391
| 37> H -0.6621438395 2.6513999458 1.7868519002
| 38> H -1.3563780317 2.9008769359 0.1589355389
| 39> H -2.9004893287 3.7441296801 1.9496762497
| 40> H -3.6200971352 2.4263501239 1.0117412064
| 41> H -2.9782845561 2.1071013431 2.6304860259
| 42> H -5.0964711906 -1.2443615335 0.8811096691
| 43> H -4.883572915 -0.3054866308 -0.6278937098
| 44> H -3.5763369182 -3.0193299952 -0.0975659926
| 45> H -5.0442646452 -2.7791617796 -1.0632489994
| 46> H -3.5064229806 -2.0888960208 -1.6001388614
| 47> *
| 48>
| 49>                          ****END OF INPUT****

CARTESIAN COORDINATES (ANGSTROEM)
---------------------------------
  C     -0.034407   -1.196420    3.121909
  C      1.277726   -1.362964    2.383839
  O      1.538656   -0.167848    1.615786
  P      2.331450   -0.142115    0.245138
  S      2.990978   -1.896953   -0.341923
  O      3.398327    0.961515    0.639972
  C      4.143734    1.772892   -0.286929
  C      4.899784    0.951670   -1.311143
  S      1.097115    0.886878   -1.144966
  C      0.258390   -0.580044   -1.795417
  S     -0.748390   -1.426082   -0.549218
  P     -2.091819    0.173199   -0.215451
  S     -2.661779    1.197774   -1.790701
  O     -1.300398    0.971508    0.899579
  C     -1.480015    2.383423    1.116239
  C     -2.834776    2.684995    1.721368
  O     -3.262926   -0.476400    0.638819
  C     -4.434858   -1.051716    0.035566
  C     -4.118879   -2.320668   -0.729594
  H      0.004760   -0.313143    3.752658
  H     -0.857467   -1.088797    2.419635
  H     -0.204239   -2.073884    3.737324
  H      1.253054   -2.225723    1.709630
  H      2.109036   -1.483632    3.082769
  H      3.448298    2.459984   -0.777554
  H      4.824658    2.333505    0.356101
  H      5.516368    1.608972   -1.915737
  H      5.532116    0.218229   -0.816372
  H      4.202316    0.423678   -1.959913
  H      0.998715   -1.303346   -2.137183
  H     -0.376190   -0.237879   -2.612345
  H     -0.662144    2.651400    1.786852
  H     -1.356378    2.900877    0.158936
  H     -2.900489    3.744130    1.949676
  H     -3.620097    2.426350    1.011741
  H     -2.978285    2.107101    2.630486
  H     -5.096471   -1.244362    0.881110
  H     -4.883573   -0.305487   -0.627894
  H     -3.576337   -3.019330   -0.097566
  H     -5.044265   -2.779162   -1.063249
  H     -3.506423   -2.088896   -1.600139

 Total Charge           Charge          ....    0
 Multiplicity           Mult            ....    1
 Number of Electrons    NEL             ....  202
 Basis Dimension        Dim             ....  334

ORBITAL ENERGIES
----------------

  NO   OCC          E(Eh)            E(eV)
   0   2.0000     -88.046112     -2395.8565
   1   2.0000     -88.043015     -2395.7722
   2   2.0000     -87.993391     -2394.4219
   3   2.0000     -87.984698     -2394.1854
   4   2.0000     -76.430274     -2079.7735
   5   2.0000     -76.425271     -2079.6374
   6   2.0000     -18.799828      -511.5693
   7   2.0000     -18.791224      -511.3352
   8   2.0000     -18.790091      -511.3044
   9   2.0000     -18.782924      -511.1094
  10   2.0000      -9.956950      -270.9424
  11   2.0000      -9.956816      -270.9387
  12   2.0000      -9.955591      -270.9054
  13   2.0000      -9.950164      -270.7577
  14   2.0000      -9.942986      -270.5624
  15   2.0000      -9.887338      -269.0481
  16   2.0000      -9.884101      -268.9601
  17   2.0000      -9.882127      -268.9063
  18   2.0000      -9.876218      -268.7455
  19   2.0000      -7.690829      -209.2781
  20   2.0000      -7.687808      -209.1959
  21   2.0000      -7.638216      -207.8464
  22   2.0000      -7.629717      -207.6152
  23   2.0000      -6.427560      -174.9028
  24   2.0000      -6.422277      -174.7590
  25   2.0000      -5.718619      -155.6115
  26   2.0000      -5.715572      -155.5286
  27   2.0000      -5.715499      -155.5266
  28   2.0000      -5.712343      -155.4408
  29   2.0000      -5.707749      -155.3157
  30   2.0000      -5.704895      -155.2381
  31   2.0000      -5.666987      -154.2065
  32   2.0000      -5.658865      -153.9855
  33   2.0000      -5.658581      -153.9778
  34   2.0000      -5.658540      -153.9767
  35   2.0000      -5.650336      -153.7535
  36   2.0000      -5.649945      -153.7428
  37   2.0000      -4.649964      -126.5319
  38   2.0000      -4.649328      -126.5146
  39   2.0000      -4.648190      -126.4837
  40   2.0000      -4.644595      -126.3858
  41   2.0000      -4.644279      -126.3773
  42   2.0000      -4.642808      -126.3372
  43   2.0000      -0.990684       -26.9579
  44   2.0000      -0.983273       -26.7562
  45   2.0000      -0.949213       -25.8294
  46   2.0000      -0.939273       -25.5589
  47   2.0000      -0.767314       -20.8797
  48   2.0000      -0.721704       -19.6386
  49   2.0000      -0.709346       -19.3023
  50   2.0000      -0.689023       -18.7493
  51   2.0000      -0.682826       -18.5806
  52   2.0000      -0.674635       -18.3578
  53   2.0000      -0.652037       -17.7428
  54   2.0000      -0.639954       -17.4140
  55   2.0000      -0.604821       -16.4580
  56   2.0000      -0.593101       -16.1391
  57   2.0000      -0.574157       -15.6236
  58   2.0000      -0.569617       -15.5001
  59   2.0000      -0.557289       -15.1646
  60   2.0000      -0.500207       -13.6113
  61   2.0000      -0.494309       -13.4508
  62   2.0000      -0.476506       -12.9664
  63   2.0000      -0.468283       -12.7426
  64   2.0000      -0.459800       -12.5118
  65   2.0000      -0.443372       -12.0648
  66   2.0000      -0.442013       -12.0278
  67   2.0000      -0.431929       -11.7534
  68   2.0000      -0.422973       -11.5097
  69   2.0000      -0.417194       -11.3524
  70   2.0000      -0.412987       -11.2379
  71   2.0000      -0.397684       -10.8215
  72   2.0000      -0.394480       -10.7343
  73   2.0000      -0.389482       -10.5983
  74   2.0000      -0.381273       -10.3750
  75   2.0000      -0.379325       -10.3220
  76   2.0000      -0.368365       -10.0237
  77   2.0000      -0.357857        -9.7378
  78   2.0000      -0.350690        -9.5428
  79   2.0000      -0.348068        -9.4714
  80   2.0000      -0.347115        -9.4455
  81   2.0000      -0.345563        -9.4033
  82   2.0000      -0.341966        -9.3054
  83   2.0000      -0.337669        -9.1884
  84   2.0000      -0.327569        -8.9136
  85   2.0000      -0.323194        -8.7946
  86   2.0000      -0.311694        -8.4816
  87   2.0000      -0.299550        -8.1512
  88   2.0000      -0.295268        -8.0347
  89   2.0000      -0.286778        -7.8036
  90   2.0000      -0.282180        -7.6785
  91   2.0000      -0.277007        -7.5378
  92   2.0000      -0.270230        -7.3533
  93   2.0000      -0.268688        -7.3114
  94   2.0000      -0.253803        -6.9063
  95   2.0000      -0.233098        -6.3429
  96   2.0000      -0.219471        -5.9721
  97   2.0000      -0.216025        -5.8783
  98   2.0000      -0.210197        -5.7197
  99   2.0000      -0.200221        -5.4483
 100   2.0000      -0.198638        -5.4052
 101   0.0000      -0.048461        -1.3187
 102   0.0000      -0.025452        -0.6926
 103   0.0000      -0.003566        -0.0970
 104   0.0000      -0.000694        -0.0189
 105   0.0000       0.006900         0.1878

MULLIKEN ATOMIC CHARGES
-----------------------
   0 C :   -0.288429
   1 C :   -0.004249
   2 O :   -0.358455
   3 P :    0.610269
   4 S :   -0.337392
   5 O :   -0.363774
   6 C :   -0.013645
   7 C :   -0.307809
   8 S :   -0.100035
   9 C :   -0.355381
  10 S :   -0.075711
  11 P :    0.617377
  12 S :   -0.328388
  13 O :   -0.356405
  14 C :   -0.000677
  15 C :   -0.306083
  16 O :   -0.375858
  17 C :   -0.005809
  18 C :   -0.316988
  19 H :    0.107374
  20 H :    0.124875
  21 H :    0.102784
  22 H :    0.112238
  23 H :    0.100891
  24 H :    0.114631
  25 H :    0.109454
  26 H :    0.110674
  27 H :    0.126375
  28 H :    0.124364
  29 H :    0.193841
  30 H :    0.189678
  31 H :    0.107634
  32 H :    0.111142
  33 H :    0.112073
  34 H :    0.120470
  35 H :    0.116376
  36 H :    0.107505
  37 H :    0.112173
  38 H :    0.119460
  39 H :    0.115252
  40 H :    0.128176
Sum of atomic charges:   -0.0000000

LOEWDIN ATOMIC CHARGES
----------------------
   0 C :   -0.355736
   1 C :   -0.117801
   2 O :   -0.237719
   3 P :    0.571967
   4 S :   -0.319351
   5 O :   -0.240641
   6 C :   -0.115297
   7 C :   -0.369142
   8 S :    0.080315
   9 C :   -0.481769
  10 S :    0.104894
  11 P :    0.573688
  12 S :   -0.322827
  13 O :   -0.227947
  14 C :   -0.117767
  15 C :   -0.364395
  16 O :   -0.242272
  17 C :   -0.118679
  18 C :   -0.369380
  19 H :    0.123167
  20 H :    0.116276
  21 H :    0.126851
  22 H :    0.103178
  23 H :    0.112142
  24 H :    0.108154
  25 H :    0.121565
  26 H :    0.129622
  27 H :    0.130069
  28 H :    0.120703
  29 H :    0.130394
  30 H :    0.130271
  31 H :    0.119918
  32 H :    0.109425
  33 H :    0.130297
  34 H :    0.121428
  35 H :    0.126109
  36 H :    0.119855
  37 H :    0.111373
  38 H :    0.125034
  39 H :    0.132219
  40 H :    0.121810

  Mayer bond orders larger than 0.100000
B(  0-C ,  1-C ) :   1.1631 B(  0-C , 19-H ) :   0.9485 B(  0-C , 20-H ) :   0.9376
B(  0-C , 21-H ) :   0.9400 B(  1-C ,  2-O ) :   0.8962 B(  1-C , 22-H ) :   0.9041
B(  1-C , 23-H ) :   0.9349 B(  2-O ,  3-P ) :   1.1406 B(  3-P ,  4-S ) :   1.6000
B(  3-P ,  5-O ) :   1.1299 B(  3-P ,  8-S ) :   0.9328 B(  4-S ,  8-S ) :   0.1100
B(  5-O ,  6-C ) :   0.9166 B(  6-C ,  7-C ) :   1.1636 B(  6-C , 24-H ) :   0.9256
B(  6-C , 25-H ) :   0.9339 B(  7-C , 26-H ) :   0.9355 B(  7-C , 27-H ) :   0.9432
B(  7-C , 28-H ) :   0.9333 B(  8-S ,  9-C ) :   1.0126 B(  9-C , 10-S ) :   1.0009
B(  9-C , 29-H ) :   0.8784 B(  9-C , 30-H ) :   0.8829 B( 10-S , 11-P ) :   0.9562
B( 10-S , 12-S ) :   0.1051 B( 11-P , 12-S ) :   1.5851 B( 11-P , 13-O ) :   1.1174
B( 11-P , 16-O ) :   1.0936 B( 13-O , 14-C ) :   0.9012 B( 14-C , 15-C ) :   1.1636
B( 14-C , 31-H ) :   0.9329 B( 14-C , 32-H ) :   0.9160 B( 15-C , 33-H ) :   0.9398
B( 15-C , 34-H ) :   0.9362 B( 15-C , 35-H ) :   0.9469 B( 16-O , 17-C ) :   0.9071
B( 17-C , 18-C ) :   1.1663 B( 17-C , 36-H ) :   0.9336 B( 17-C , 37-H ) :   0.9167
B( 18-C , 38-H ) :   0.9447 B( 18-C , 39-H ) :   0.9375 B( 18-C , 40-H ) :   0.9353

Dispersion correction           -0.067865411
FINAL SINGLE POINT ENERGY     -2929.524651607258

DIPOLE MOMENT
-------------

Method             : SCF
Type of density    : Electron Density
Multiplicity       :   1
Irrep              :   0
Energy             : -2929.6423919012245278 Eh
Relativity type    :
Basis              : AO
                                X                 Y                 Z
Electronic contribution:      6.471674358      -2.091355559      -8.772245393
Nuclear contribution   :     -6.957742887       2.570156194       9.399229472
                        -----------------------------------------
Total Dipole Moment    :     -0.486068529       0.478800635       0.626984079
                        -----------------------------------------
Magnitude (a.u.)       :      0.926618421
Magnitude (Debye)      :      2.355276849

Rotational constants in cm-1:             0.012737             0.005199             0.005048
Rotational constants in MHz :           381.852287           155.876860           151.320717

                             ****ORCA TERMINATED NORMALLY****
TOTAL RUN TIME: 0 days 0 hours 0 minutes 21 seconds 616 msec
