                         Program Version 6.0.0  -   RELEASE  -
|  1> ! pbe def2-sv(p) def2/J RI DEFGRID1 loosescf d4 GCP(DFT/SV(P)) printgap
|  2> %output
|  3>     printlevel normal
|  4> end
|  5> * xyz 0 1
|  6> C 3.8698699294 -2.4565153828 -0.6403509164
|  7> C 4.1379372826 -1.0695453216 -1.1863999339
|  8> O 2.957750659 -0.2254089046 -1.197208452
|  9> P 2.1967396989 0.3077721043 0.0801864572
| 10> S 1.4979465172 2.1231570736 -0.1935689633
| 11> O 3.2964007274 0.214683285 1.2255740805
| 12> C 3.1608948379 0.9374894028 2.4607195286
| 13> C 1.9958249203 0.4300156898 3.2851516648
| 14> S 0.833810512 -1.2554260861 0.595494264
| 15> C 0.1448327463 -1.6057567238 -1.0365026011
| 16> S -0.6609411346 -0.1936238316 -1.8709725399
| 17> P -2.1616310767 0.2781700165 -0.4690268047
| 18> S -3.6062661287 1.4436532097 -1.0924139621
| 19> O -1.2647220877 0.8592146015 0.700642976
| 20> C -1.8044595106 1.6796854757 1.7541710444
| 21> C -2.4435246814 0.8352699753 2.8367943994
| 22> O -2.6431848742 -1.1172492296 0.1370002889
| 23> C -3.8071083482 -1.7988495978 -0.3613423913
| 24> C -3.5542466776 -2.4504074966 -1.7063977682
| 25> H 4.7856024134 -3.0365078034 -0.7033468138
| 26> H 3.5586159707 -2.4002051951 0.399954078
| 27> H 3.0962833658 -2.9580368765 -1.2157417577
| 28> H 4.4285035072 -1.0980943203 -2.2378417992
| 29> H 4.90939887 -0.5659526019 -0.6017791289
| 30> H 4.1151840559 0.7777203372 2.9642940416
| 31> H 3.0340115455 1.9995865185 2.2270581773
| 32> H 1.973910796 0.9477088933 4.2386580226
| 33> H 1.0630723505 0.623930967 2.7558439223
| 34> H 2.0854350059 -0.6400826289 3.4536655697
| 35> H -0.5760937696 -2.405418193 -0.8873342932
| 36> H 0.9331638974 -1.906541726 -1.7229009441
| 37> H -0.9417279366 2.2399578771 2.1210023831
| 38> H -2.5269929845 2.3767357046 1.3158283259
| 39> H -1.7442056684 0.0781721806 3.1823423399
| 40> H -2.7256580497 1.4752040622 3.6667722139
| 41> H -3.3325517339 0.3430659153 2.4476683848
| 42> H -4.0335853806 -2.5358467676 0.4101550532
| 43> H -4.6233756843 -1.0734612435 -0.4392361148
| 44> H -4.461443344 -2.9449357604 -2.0386653978
| 45> H -3.2806265616 -1.6910083794 -2.4388127414
| 46> H -2.7548398927 -3.1833029329 -1.6390356142
| 47> *
| 48>
| 49>                          ****END OF INPUT****

CARTESIAN COORDINATES (ANGSTROEM)
---------------------------------
  C      3.869870   -2.456515   -0.640351
  C      4.137937   -1.069545   -1.186400
  O      2.957751   -0.225409   -1.197208
  P      2.196740    0.307772    0.080186
  S      1.497947    2.123157   -0.193569
  O      3.296401    0.214683    1.225574
  C      3.160895    0.937489    2.460720
  C      1.995825    0.430016    3.285152
  S      0.833811   -1.255426    0.595494
  C      0.144833   -1.605757   -1.036503
  S     -0.660941   -0.193624   -1.870973
  P     -2.161631    0.278170   -0.469027
  S     -3.606266    1.443653   -1.092414
  O     -1.264722    0.859215    0.700643
  C     -1.804460    1.679685    1.754171
  C     -2.443525    0.835270    2.836794
  O     -2.643185   -1.117249    0.137000
  C     -3.807108   -1.798850   -0.361342
  C     -3.554247   -2.450407   -1.706398
  H      4.785602   -3.036508   -0.703347
  H      3.558616   -2.400205    0.399954
  H      3.096283   -2.958037   -1.215742
  H      4.428504   -1.098094   -2.237842
  H      4.909399   -0.565953   -0.601779
  H      4.115184    0.777720    2.964294
  H      3.034012    1.999587    2.227058
  H      1.973911    0.947709    4.238658
  H      1.063072    0.623931    2.755844
  H      2.085435   -0.640083    3.453666
  H     -0.576094   -2.405418   -0.887334
  H      0.933164   -1.906542   -1.722901
  H     -0.941728    2.239958    2.121002
  H     -2.526993    2.376736    1.315828
  H     -1.744206    0.078172    3.182342
  H     -2.725658    1.475204    3.666772
  H     -3.332552    0.343066    2.447668
  H     -4.033585   -2.535847    0.410155
  H     -4.623376   -1.073461   -0.439236
  H     -4.461443   -2.944936   -2.038665
  H     -3.280627   -1.691008   -2.438813
  H     -2.754840   -3.183303   -1.639036

 Total Charge           Charge          ....    0
 Multiplicity           Mult            ....    1
 Number of Electrons    NEL             ....  202
 Basis Dimension        Dim             ....  334

ORBITAL ENERGIES
----------------

  NO   OCC          E(Eh)            E(eV)
   0   2.0000     -88.040149     -2395.6942
   1   2.0000     -88.037962     -2395.6347
   2   2.0000     -87.981567     -2394.1002
   3   2.0000     -87.976067     -2393.9505
   4   2.0000     -76.426053     -2079.6586
   5   2.0000     -76.420350     -2079.5035
   6   2.0000     -18.797573      -511.5080
   7   2.0000     -18.794232      -511.4171
   8   2.0000     -18.790811      -511.3240
   9   2.0000     -18.778723      -510.9950
  10   2.0000      -9.961324      -271.0614
  11   2.0000      -9.961193      -271.0578
  12   2.0000      -9.956837      -270.9393
  13   2.0000      -9.951786      -270.8019
  14   2.0000      -9.941304      -270.5166
  15   2.0000      -9.893081      -269.2044
  16   2.0000      -9.890974      -269.1471
  17   2.0000      -9.887025      -269.0396
  18   2.0000      -9.879500      -268.8349
  19   2.0000      -7.684833      -209.1149
  20   2.0000      -7.683096      -209.0677
  21   2.0000      -7.626736      -207.5340
  22   2.0000      -7.621145      -207.3819
  23   2.0000      -6.423106      -174.7816
  24   2.0000      -6.418161      -174.6470
  25   2.0000      -5.712819      -155.4537
  26   2.0000      -5.711481      -155.4173
  27   2.0000      -5.709548      -155.3647
  28   2.0000      -5.707405      -155.3064
  29   2.0000      -5.701496      -155.1456
  30   2.0000      -5.699712      -155.0971
  31   2.0000      -5.655651      -153.8981
  32   2.0000      -5.650264      -153.7515
  33   2.0000      -5.647294      -153.6707
  34   2.0000      -5.646950      -153.6613
  35   2.0000      -5.641958      -153.5255
  36   2.0000      -5.640923      -153.4973
  37   2.0000      -4.646562      -126.4394
  38   2.0000      -4.644712      -126.3890
  39   2.0000      -4.642916      -126.3402
  40   2.0000      -4.640509      -126.2747
  41   2.0000      -4.640090      -126.2633
  42   2.0000      -4.638650      -126.2241
  43   2.0000      -0.991212       -26.9723
  44   2.0000      -0.980797       -26.6888
  45   2.0000      -0.948347       -25.8058
  46   2.0000      -0.939558       -25.5667
  47   2.0000      -0.761474       -20.7208
  48   2.0000      -0.719697       -19.5839
  49   2.0000      -0.708830       -19.2882
  50   2.0000      -0.696141       -18.9430
  51   2.0000      -0.685282       -18.6475
  52   2.0000      -0.673102       -18.3160
  53   2.0000      -0.650957       -17.7134
  54   2.0000      -0.633794       -17.2464
  55   2.0000      -0.597162       -16.2496
  56   2.0000      -0.592321       -16.1179
  57   2.0000      -0.584840       -15.9143
  58   2.0000      -0.570704       -15.5296
  59   2.0000      -0.559981       -15.2378
  60   2.0000      -0.499662       -13.5965
  61   2.0000      -0.490690       -13.3523
  62   2.0000      -0.475234       -12.9318
  63   2.0000      -0.471504       -12.8303
  64   2.0000      -0.462588       -12.5877
  65   2.0000      -0.450533       -12.2596
  66   2.0000      -0.439774       -11.9669
  67   2.0000      -0.430789       -11.7224
  68   2.0000      -0.430038       -11.7019
  69   2.0000      -0.423579       -11.5262
  70   2.0000      -0.409160       -11.1338
  71   2.0000      -0.400622       -10.9015
  72   2.0000      -0.394990       -10.7482
  73   2.0000      -0.383393       -10.4327
  74   2.0000      -0.381952       -10.3934
  75   2.0000      -0.370764       -10.0890
  76   2.0000      -0.368913       -10.0386
  77   2.0000      -0.363899        -9.9022
  78   2.0000      -0.357991        -9.7414
  79   2.0000      -0.353744        -9.6259
  80   2.0000      -0.351688        -9.5699
  81   2.0000      -0.346201        -9.4206
  82   2.0000      -0.345797        -9.4096
  83   2.0000      -0.337836        -9.1930
  84   2.0000      -0.329606        -8.9690
  85   2.0000      -0.324050        -8.8178
  86   2.0000      -0.313249        -8.5239
  87   2.0000      -0.302104        -8.2207
  88   2.0000      -0.296640        -8.0720
  89   2.0000      -0.291716        -7.9380
  90   2.0000      -0.280227        -7.6254
  91   2.0000      -0.274953        -7.4818
  92   2.0000      -0.268371        -7.3027
  93   2.0000      -0.262077        -7.1315
  94   2.0000      -0.255935        -6.9644
  95   2.0000      -0.230044        -6.2598
  96   2.0000      -0.213887        -5.8202
  97   2.0000      -0.203753        -5.5444
  98   2.0000      -0.200591        -5.4584
  99   2.0000      -0.189864        -5.1665
 100   2.0000      -0.183308        -4.9881
 101   0.0000      -0.046481        -1.2648
 102   0.0000      -0.018192        -0.4950
 103   0.0000      -0.011554        -0.3144
 104   0.0000      -0.007200        -0.1959
 105   0.0000       0.012062         0.3282

MULLIKEN ATOMIC CHARGES
-----------------------
   0 C :   -0.325351
   1 C :    0.008634
   2 O :   -0.375247
   3 P :    0.610342
   4 S :   -0.287658
   5 O :   -0.386639
   6 C :    0.005259
   7 C :   -0.361439
   8 S :   -0.106431
   9 C :   -0.356240
  10 S :   -0.064916
  11 P :    0.627298
  12 S :   -0.327126
  13 O :   -0.354158
  14 C :   -0.006974
  15 C :   -0.302663
  16 O :   -0.385671
  17 C :   -0.008134
  18 C :   -0.321596
  19 H :    0.113735
  20 H :    0.131846
  21 H :    0.118087
  22 H :    0.111914
  23 H :    0.111870
  24 H :    0.104439
  25 H :    0.112824
  26 H :    0.117885
  27 H :    0.163268
  28 H :    0.120686
  29 H :    0.187798
  30 H :    0.186280
  31 H :    0.107924
  32 H :    0.111551
  33 H :    0.116176
  34 H :    0.107924
  35 H :    0.115042
  36 H :    0.103351
  37 H :    0.113460
  38 H :    0.114222
  39 H :    0.132137
  40 H :    0.116292
Sum of atomic charges:   -0.0000000

LOEWDIN ATOMIC CHARGES
----------------------
   0 C :   -0.368463
   1 C :   -0.107030
   2 O :   -0.244864
   3 P :    0.570775
   4 S :   -0.296192
   5 O :   -0.248728
   6 C :   -0.118862
   7 C :   -0.375158
   8 S :    0.082155
   9 C :   -0.476767
  10 S :    0.100152
  11 P :    0.567185
  12 S :   -0.320652
  13 O :   -0.232794
  14 C :   -0.120149
  15 C :   -0.361155
  16 O :   -0.249923
  17 C :   -0.123438
  18 C :   -0.366389
  19 H :    0.132094
  20 H :    0.121972
  21 H :    0.122760
  22 H :    0.122658
  23 H :    0.116827
  24 H :    0.118279
  25 H :    0.112128
  26 H :    0.133665
  27 H :    0.125197
  28 H :    0.124677
  29 H :    0.130065
  30 H :    0.129187
  31 H :    0.113368
  32 H :    0.109201
  33 H :    0.123903
  34 H :    0.128020
  35 H :    0.122353
  36 H :    0.117162
  37 H :    0.109922
  38 H :    0.132499
  39 H :    0.124616
  40 H :    0.119742

  Mayer bond orders larger than 0.100000
B(  0-C ,  1-C ) :   1.1684 B(  0-C , 19-H ) :   0.9350 B(  0-C , 20-H ) :   0.9352
B(  0-C , 21-H ) :   0.9434 B(  1-C ,  2-O ) :   0.8965 B(  1-C , 22-H ) :   0.9354
B(  1-C , 23-H ) :   0.9268 B(  2-O ,  3-P ) :   1.1093 B(  3-P ,  4-S ) :   1.6859
B(  3-P ,  5-O ) :   1.0602 B(  3-P ,  8-S ) :   0.9377 B(  4-S ,  8-S ) :   0.1139
B(  5-O ,  6-C ) :   0.9065 B(  6-C ,  7-C ) :   1.1635 B(  6-C , 24-H ) :   0.9326
B(  6-C , 25-H ) :   0.9120 B(  7-C , 26-H ) :   0.9371 B(  7-C , 27-H ) :   0.9195
B(  7-C , 28-H ) :   0.9423 B(  8-S ,  9-C ) :   1.0115 B(  9-C , 10-S ) :   0.9922
B(  9-C , 29-H ) :   0.8944 B(  9-C , 30-H ) :   0.8939 B( 10-S , 11-P ) :   0.9762
B( 11-P , 12-S ) :   1.6388 B( 11-P , 13-O ) :   1.1298 B( 11-P , 16-O ) :   1.0607
B( 13-O , 14-C ) :   0.9063 B( 14-C , 15-C ) :   1.1632 B( 14-C , 31-H ) :   0.9211
B( 14-C , 32-H ) :   0.9122 B( 15-C , 33-H ) :   0.9486 B( 15-C , 34-H ) :   0.9408
B( 15-C , 35-H ) :   0.9421 B( 16-O , 17-C ) :   0.9127 B( 17-C , 18-C ) :   1.1619
B( 17-C , 36-H ) :   0.9336 B( 17-C , 37-H ) :   0.9102 B( 18-C , 38-H ) :   0.9382
B( 18-C , 39-H ) :   0.9345 B( 18-C , 40-H ) :   0.9411

Dispersion correction           -0.068176328
FINAL SINGLE POINT ENERGY     -2929.508450528851

DIPOLE MOMENT
-------------

Method             : SCF
Type of density    : Electron Density
Multiplicity       :   1
Irrep              :   0
Energy             : -2929.6266885512136469 Eh
Relativity type    :
Basis              : AO
                                X                 Y                 Z
Electronic contribution:     -1.835644686      13.237717497     -13.584643279
Nuclear contribution   :      2.857108573     -15.203020761      14.749543235
                        -----------------------------------------
Total Dipole Moment    :      1.021463888      -1.965303264       1.164899956
                        -----------------------------------------
Magnitude (a.u.)       :      2.502558151
Magnitude (Debye)      :      6.360997303

Rotational constants in cm-1:             0.012253             0.005616             0.004906
Rotational constants in MHz :           367.332721           168.376963           147.088181

                             ****ORCA TERMINATED NORMALLY****
TOTAL RUN TIME: 0 days 0 hours 0 minutes 21 seconds 945 msec
