                         Program Version 6.0.1  -  RELEASE   -
|  1> ! r2scan-3c def2/J RI DEFGRID2 scfconv6 printgap
|  2> %output
|  3>     printlevel normal
|  4> end
|  5> * xyz 0 1
|  6> C 5.0256751146 -2.9443486844 0.418731054
|  7> C 4.5063234469 -1.8025124824 -0.432927196
|  8> O 3.0674149936 -1.8676777581 -0.444747088
|  9> C 2.4247738511 -1.1889473594 -1.3674554908
| 10> O 2.9575916558 -0.550245212 -2.2516830156
| 11> C 0.9196655684 -1.3365551239 -1.2289763647
| 12> C 0.2919498989 0.0392442933 -1.4144559091
| 13> H 0.599834853 0.4351224178 -2.3909162487
| 14> C 0.8213874614 1.0217351103 -0.3858525187
| 15> O 1.9228639807 0.9093109554 0.1007862803
| 16> O 0.0031852274 2.0360142388 -0.1850928373
| 17> C 0.4727269471 3.1380431608 0.6224363982
| 18> C 0.3323041319 2.8688861224 2.1101979117
| 19> S -1.5204862409 0.003698444 -1.4910786242
| 20> P -2.0190789946 0.0571472058 0.5768874051
| 21> S -0.6836247672 -0.6007605182 1.8495477478
| 22> O -2.5408647244 1.5056172965 0.926514675
| 23> C -3.5709926636 2.1552692228 0.154406429
| 24> O -3.3993227665 -0.7519350323 0.5883040833
| 25> C -3.4351826848 -2.1664805419 0.3682691124
| 26> H 4.7271228491 -3.8966506562 -0.00922422
| 27> H 6.1083261084 -2.8938489765 0.4636298617
| 28> H 4.6193484056 -2.8682750121 1.4227895573
| 29> H 4.8637162694 -1.8612410487 -1.4660011331
| 30> H 4.7883318978 -0.828220181 -0.0216445227
| 31> H 0.6966871964 -1.751791916 -0.2455366575
| 32> H 0.5591020494 -2.0095906725 -2.0081002804
| 33> H 1.5200835162 3.3180081323 0.3634976616
| 34> H -0.1509107775 3.9748084232 0.307640184
| 35> H 0.6492337681 3.7482403246 2.6608428671
| 36> H -0.7006939058 2.63859068 2.3591918718
| 37> H 0.9543999366 2.0247746053 2.4013140328
| 38> H -3.2682904262 2.2151072329 -0.8908612528
| 39> H -3.6667903478 3.1480043361 0.5860578784
| 40> H -4.5038513371 1.6025364879 0.2432083008
| 41> H -4.4382209522 -2.4802616846 0.64578129
| 42> H -2.6940950952 -2.6632302063 0.996270519
| 43> H -3.2416334736 -2.3823622568 -0.6820874106
| 44> *
| 45>
| 46>                          ****END OF INPUT****

CARTESIAN COORDINATES (ANGSTROEM)
---------------------------------
  C      5.025675   -2.944349    0.418731
  C      4.506323   -1.802512   -0.432927
  O      3.067415   -1.867678   -0.444747
  C      2.424774   -1.188947   -1.367455
  O      2.957592   -0.550245   -2.251683
  C      0.919666   -1.336555   -1.228976
  C      0.291950    0.039244   -1.414456
  H      0.599835    0.435122   -2.390916
  C      0.821387    1.021735   -0.385853
  O      1.922864    0.909311    0.100786
  O      0.003185    2.036014   -0.185093
  C      0.472727    3.138043    0.622436
  C      0.332304    2.868886    2.110198
  S     -1.520486    0.003698   -1.491079
  P     -2.019079    0.057147    0.576887
  S     -0.683625   -0.600761    1.849548
  O     -2.540865    1.505617    0.926515
  C     -3.570993    2.155269    0.154406
  O     -3.399323   -0.751935    0.588304
  C     -3.435183   -2.166481    0.368269
  H      4.727123   -3.896651   -0.009224
  H      6.108326   -2.893849    0.463630
  H      4.619348   -2.868275    1.422790
  H      4.863716   -1.861241   -1.466001
  H      4.788332   -0.828220   -0.021645
  H      0.696687   -1.751792   -0.245537
  H      0.559102   -2.009591   -2.008100
  H      1.520084    3.318008    0.363498
  H     -0.150911    3.974808    0.307640
  H      0.649234    3.748240    2.660843
  H     -0.700694    2.638591    2.359192
  H      0.954400    2.024775    2.401314
  H     -3.268290    2.215107   -0.890861
  H     -3.666790    3.148004    0.586058
  H     -4.503851    1.602536    0.243208
  H     -4.438221   -2.480262    0.645781
  H     -2.694095   -2.663230    0.996271
  H     -3.241633   -2.382362   -0.682087

 Total Charge           Charge          ....    0
 Multiplicity           Mult            ....    1
 Number of Electrons    NEL             ....  174
 Basis Dimension        Dim             ....  510

ORBITAL ENERGIES
----------------

  NO   OCC          E(Eh)            E(eV)
   0   2.0000     -88.579716     -2410.3766
   1   2.0000     -88.523497     -2408.8468
   2   2.0000     -76.919140     -2093.0762
   3   2.0000     -19.002802      -517.0925
   4   2.0000     -18.999607      -517.0056
   5   2.0000     -18.997117      -516.9378
   6   2.0000     -18.989031      -516.7178
   7   2.0000     -18.936784      -515.2961
   8   2.0000     -18.917808      -514.7797
   9   2.0000     -10.164634      -276.5938
  10   2.0000     -10.147440      -276.1259
  11   2.0000     -10.102209      -274.8951
  12   2.0000     -10.097792      -274.7749
  13   2.0000     -10.096543      -274.7409
  14   2.0000     -10.092552      -274.6323
  15   2.0000     -10.082583      -274.3610
  16   2.0000     -10.047021      -273.3933
  17   2.0000     -10.024470      -272.7797
  18   2.0000     -10.017670      -272.5947
  19   2.0000      -7.874025      -214.2631
  20   2.0000      -7.818228      -212.7448
  21   2.0000      -6.597358      -179.5232
  22   2.0000      -5.820981      -158.3970
  23   2.0000      -5.817749      -158.3090
  24   2.0000      -5.811186      -158.1304
  25   2.0000      -5.766136      -156.9045
  26   2.0000      -5.758318      -156.6918
  27   2.0000      -5.758175      -156.6879
  28   2.0000      -4.743105      -129.0665
  29   2.0000      -4.742396      -129.0472
  30   2.0000      -4.740831      -129.0046
  31   2.0000      -1.081239       -29.4220
  32   2.0000      -1.065718       -28.9997
  33   2.0000      -1.056694       -28.7541
  34   2.0000      -1.014679       -27.6108
  35   2.0000      -0.987203       -26.8632
  36   2.0000      -0.967715       -26.3329
  37   2.0000      -0.809678       -22.0325
  38   2.0000      -0.749111       -20.3844
  39   2.0000      -0.740392       -20.1471
  40   2.0000      -0.732434       -19.9306
  41   2.0000      -0.696774       -18.9602
  42   2.0000      -0.681847       -18.5540
  43   2.0000      -0.663431       -18.0529
  44   2.0000      -0.648721       -17.6526
  45   2.0000      -0.619415       -16.8552
  46   2.0000      -0.590313       -16.0632
  47   2.0000      -0.547493       -14.8980
  48   2.0000      -0.529301       -14.4030
  49   2.0000      -0.519622       -14.1396
  50   2.0000      -0.502404       -13.6711
  51   2.0000      -0.499291       -13.5864
  52   2.0000      -0.473929       -12.8963
  53   2.0000      -0.459517       -12.5041
  54   2.0000      -0.457408       -12.4467
  55   2.0000      -0.455281       -12.3888
  56   2.0000      -0.447894       -12.1878
  57   2.0000      -0.438559       -11.9338
  58   2.0000      -0.433840       -11.8054
  59   2.0000      -0.426980       -11.6187
  60   2.0000      -0.424324       -11.5465
  61   2.0000      -0.422592       -11.4993
  62   2.0000      -0.407905       -11.0997
  63   2.0000      -0.396733       -10.7956
  64   2.0000      -0.384826       -10.4716
  65   2.0000      -0.375116       -10.2074
  66   2.0000      -0.366895        -9.9837
  67   2.0000      -0.362744        -9.8708
  68   2.0000      -0.355305        -9.6683
  69   2.0000      -0.352105        -9.5813
  70   2.0000      -0.347648        -9.4600
  71   2.0000      -0.339099        -9.2274
  72   2.0000      -0.332704        -9.0533
  73   2.0000      -0.330423        -8.9913
  74   2.0000      -0.323546        -8.8041
  75   2.0000      -0.316551        -8.6138
  76   2.0000      -0.309610        -8.4249
  77   2.0000      -0.305433        -8.3112
  78   2.0000      -0.291832        -7.9411
  79   2.0000      -0.284223        -7.7341
  80   2.0000      -0.276753        -7.5308
  81   2.0000      -0.261650        -7.1199
  82   2.0000      -0.256404        -6.9771
  83   2.0000      -0.236901        -6.4464
  84   2.0000      -0.226220        -6.1558
  85   2.0000      -0.221078        -6.0158
  86   2.0000      -0.217983        -5.9316
  87   0.0000      -0.044094        -1.1999
  88   0.0000      -0.031211        -0.8493
  89   0.0000      -0.001545        -0.0420
  90   0.0000       0.005907         0.1607
  91   0.0000       0.007401         0.2014

MULLIKEN ATOMIC CHARGES
-----------------------
   0 C :   -0.446067
   1 C :   -0.161002
   2 O :   -0.129502
   3 C :    0.328589
   4 O :   -0.409203
   5 C :   -0.430045
   6 C :    0.058183
   7 H :    0.218733
   8 C :    0.213391
   9 O :   -0.368364
  10 O :   -0.139450
  11 C :   -0.112077
  12 C :   -0.499863
  13 S :   -0.185577
  14 P :    0.739022
  15 S :   -0.409142
  16 O :   -0.301495
  17 C :   -0.295207
  18 O :   -0.344873
  19 C :   -0.297710
  20 H :    0.150472
  21 H :    0.145289
  22 H :    0.156100
  23 H :    0.166267
  24 H :    0.161191
  25 H :    0.213213
  26 H :    0.182889
  27 H :    0.161779
  28 H :    0.145292
  29 H :    0.143575
  30 H :    0.171144
  31 H :    0.189249
  32 H :    0.171953
  33 H :    0.156619
  34 H :    0.169169
  35 H :    0.153189
  36 H :    0.174933
  37 H :    0.159333
Sum of atomic charges:    0.0000000

LOEWDIN ATOMIC CHARGES
----------------------
   0 C :   -0.387043
   1 C :    0.035948
   2 O :   -0.576638
   3 C :    0.354590
   4 O :   -0.437874
   5 C :   -0.213985
   6 C :   -0.198290
   7 H :    0.218057
   8 C :    0.346373
   9 O :   -0.405329
  10 O :   -0.611407
  11 C :    0.035876
  12 C :   -0.397481
  13 S :    0.196434
  14 P :    0.396167
  15 S :   -0.050255
  16 O :   -0.658058
  17 C :   -0.050880
  18 O :   -0.683368
  19 C :   -0.058772
  20 H :    0.157774
  21 H :    0.158631
  22 H :    0.160847
  23 H :    0.184371
  24 H :    0.181526
  25 H :    0.200106
  26 H :    0.184436
  27 H :    0.188467
  28 H :    0.178818
  29 H :    0.155903
  30 H :    0.168456
  31 H :    0.172587
  32 H :    0.175081
  33 H :    0.179805
  34 H :    0.174854
  35 H :    0.177942
  36 H :    0.176880
  37 H :    0.169451

  Mayer bond orders larger than 0.100000
B(  0-C ,  1-C ) :   0.9433 B(  0-C , 20-H ) :   0.9758 B(  0-C , 21-H ) :   0.9681
B(  0-C , 22-H ) :   0.9698 B(  1-C ,  2-O ) :   0.7837 B(  1-C , 23-H ) :   0.9613
B(  1-C , 24-H ) :   0.9484 B(  2-O ,  3-C ) :   1.1456 B(  3-C ,  4-O ) :   1.8457
B(  3-C ,  5-C ) :   0.8537 B(  5-C ,  6-C ) :   0.8834 B(  5-C , 25-H ) :   0.9840
B(  5-C , 26-H ) :   0.9522 B(  6-C ,  7-H ) :   0.8826 B(  6-C ,  8-C ) :   0.9625
B(  6-C , 13-S ) :   0.8318 B(  8-C ,  9-O ) :   1.8135 B(  8-C , 10-O ) :   1.1054
B( 10-O , 11-C ) :   0.7875 B( 11-C , 12-C ) :   0.9209 B( 11-C , 27-H ) :   0.9669
B( 11-C , 28-H ) :   0.9633 B( 12-C , 29-H ) :   0.9644 B( 12-C , 30-H ) :   0.9614
B( 12-C , 31-H ) :   0.9676 B( 13-S , 14-P ) :   1.0192 B( 14-P , 15-S ) :   1.7967
B( 14-P , 16-O ) :   1.1298 B( 14-P , 18-O ) :   1.0301 B( 16-O , 17-C ) :   0.7970
B( 17-C , 32-H ) :   0.9551 B( 17-C , 33-H ) :   0.9655 B( 17-C , 34-H ) :   0.9600
B( 18-O , 19-C ) :   0.8323 B( 19-C , 35-H ) :   0.9667 B( 19-C , 36-H ) :   0.9592
B( 19-C , 37-H ) :   0.9565

Dispersion correction           -0.017842509
FINAL SINGLE POINT ENERGY     -1981.454831320160

DIPOLE MOMENT
-------------

Method             : SCF
Type of density    : Electron Density
Multiplicity       :   1
Irrep              :   0
Energy             : -1981.4742472611433186 Eh
Relativity type    :
Basis              : AO
                                X                 Y                 Z
Electronic contribution:    -10.107319699       0.694827311      -4.080220558
Nuclear contribution   :      8.860473886      -0.512297661       3.898462704
                        -----------------------------------------
Total Dipole Moment    :     -1.246845813       0.182529649      -0.181757854
                        -----------------------------------------
Magnitude (a.u.)       :      1.273176135
Magnitude (Debye)      :      3.236156555

Rotational constants in cm-1:             0.015191             0.006455             0.005770
Rotational constants in MHz :           455.417969           193.506398           172.987401

                             ****ORCA TERMINATED NORMALLY****
TOTAL RUN TIME: 0 days 0 hours 1 minutes 38 seconds 396 msec
