                         Program Version 6.0.1  -  RELEASE   -
|  1> ! r2scan-3c def2/J RI DEFGRID2 scfconv6 printgap
|  2> %output
|  3>     printlevel normal
|  4> end
|  5> %cpcm
|  6>     smd true
|  7>     smdsolvent "water"
|  8> end
|  9> * xyz 0 1
| 10> C 5.0256751146 -2.9443486844 0.418731054
| 11> C 4.5063234469 -1.8025124824 -0.432927196
| 12> O 3.0674149936 -1.8676777581 -0.444747088
| 13> C 2.4247738511 -1.1889473594 -1.3674554908
| 14> O 2.9575916558 -0.550245212 -2.2516830156
| 15> C 0.9196655684 -1.3365551239 -1.2289763647
| 16> C 0.2919498989 0.0392442933 -1.4144559091
| 17> H 0.599834853 0.4351224178 -2.3909162487
| 18> C 0.8213874614 1.0217351103 -0.3858525187
| 19> O 1.9228639807 0.9093109554 0.1007862803
| 20> O 0.0031852274 2.0360142388 -0.1850928373
| 21> C 0.4727269471 3.1380431608 0.6224363982
| 22> C 0.3323041319 2.8688861224 2.1101979117
| 23> S -1.5204862409 0.003698444 -1.4910786242
| 24> P -2.0190789946 0.0571472058 0.5768874051
| 25> S -0.6836247672 -0.6007605182 1.8495477478
| 26> O -2.5408647244 1.5056172965 0.926514675
| 27> C -3.5709926636 2.1552692228 0.154406429
| 28> O -3.3993227665 -0.7519350323 0.5883040833
| 29> C -3.4351826848 -2.1664805419 0.3682691124
| 30> H 4.7271228491 -3.8966506562 -0.00922422
| 31> H 6.1083261084 -2.8938489765 0.4636298617
| 32> H 4.6193484056 -2.8682750121 1.4227895573
| 33> H 4.8637162694 -1.8612410487 -1.4660011331
| 34> H 4.7883318978 -0.828220181 -0.0216445227
| 35> H 0.6966871964 -1.751791916 -0.2455366575
| 36> H 0.5591020494 -2.0095906725 -2.0081002804
| 37> H 1.5200835162 3.3180081323 0.3634976616
| 38> H -0.1509107775 3.9748084232 0.307640184
| 39> H 0.6492337681 3.7482403246 2.6608428671
| 40> H -0.7006939058 2.63859068 2.3591918718
| 41> H 0.9543999366 2.0247746053 2.4013140328
| 42> H -3.2682904262 2.2151072329 -0.8908612528
| 43> H -3.6667903478 3.1480043361 0.5860578784
| 44> H -4.5038513371 1.6025364879 0.2432083008
| 45> H -4.4382209522 -2.4802616846 0.64578129
| 46> H -2.6940950952 -2.6632302063 0.996270519
| 47> H -3.2416334736 -2.3823622568 -0.6820874106
| 48> *
| 49>
| 50>                          ****END OF INPUT****

CARTESIAN COORDINATES (ANGSTROEM)
---------------------------------
  C      5.025675   -2.944349    0.418731
  C      4.506323   -1.802512   -0.432927
  O      3.067415   -1.867678   -0.444747
  C      2.424774   -1.188947   -1.367455
  O      2.957592   -0.550245   -2.251683
  C      0.919666   -1.336555   -1.228976
  C      0.291950    0.039244   -1.414456
  H      0.599835    0.435122   -2.390916
  C      0.821387    1.021735   -0.385853
  O      1.922864    0.909311    0.100786
  O      0.003185    2.036014   -0.185093
  C      0.472727    3.138043    0.622436
  C      0.332304    2.868886    2.110198
  S     -1.520486    0.003698   -1.491079
  P     -2.019079    0.057147    0.576887
  S     -0.683625   -0.600761    1.849548
  O     -2.540865    1.505617    0.926515
  C     -3.570993    2.155269    0.154406
  O     -3.399323   -0.751935    0.588304
  C     -3.435183   -2.166481    0.368269
  H      4.727123   -3.896651   -0.009224
  H      6.108326   -2.893849    0.463630
  H      4.619348   -2.868275    1.422790
  H      4.863716   -1.861241   -1.466001
  H      4.788332   -0.828220   -0.021645
  H      0.696687   -1.751792   -0.245537
  H      0.559102   -2.009591   -2.008100
  H      1.520084    3.318008    0.363498
  H     -0.150911    3.974808    0.307640
  H      0.649234    3.748240    2.660843
  H     -0.700694    2.638591    2.359192
  H      0.954400    2.024775    2.401314
  H     -3.268290    2.215107   -0.890861
  H     -3.666790    3.148004    0.586058
  H     -4.503851    1.602536    0.243208
  H     -4.438221   -2.480262    0.645781
  H     -2.694095   -2.663230    0.996271
  H     -3.241633   -2.382362   -0.682087

 Total Charge           Charge          ....    0
 Multiplicity           Mult            ....    1
 Number of Electrons    NEL             ....  174
 Basis Dimension        Dim             ....  510

ORBITAL ENERGIES
----------------

  NO   OCC          E(Eh)            E(eV)
   0   2.0000     -88.582116     -2410.4419
   1   2.0000     -88.531643     -2409.0685
   2   2.0000     -76.922754     -2093.1746
   3   2.0000     -19.010496      -517.3019
   4   2.0000     -19.005866      -517.1759
   5   2.0000     -18.998590      -516.9779
   6   2.0000     -18.996348      -516.9169
   7   2.0000     -18.954156      -515.7688
   8   2.0000     -18.943047      -515.4665
   9   2.0000     -10.178447      -276.9696
  10   2.0000     -10.168048      -276.6867
  11   2.0000     -10.100736      -274.8550
  12   2.0000     -10.087529      -274.4956
  13   2.0000     -10.085168      -274.4314
  14   2.0000     -10.085089      -274.4292
  15   2.0000     -10.082588      -274.3612
  16   2.0000     -10.051258      -273.5086
  17   2.0000     -10.019200      -272.6363
  18   2.0000     -10.016231      -272.5555
  19   2.0000      -7.876337      -214.3260
  20   2.0000      -7.826732      -212.9762
  21   2.0000      -6.601028      -179.6231
  22   2.0000      -5.823368      -158.4619
  23   2.0000      -5.820120      -158.3735
  24   2.0000      -5.813372      -158.1899
  25   2.0000      -5.774516      -157.1326
  26   2.0000      -5.766933      -156.9262
  27   2.0000      -5.766621      -156.9177
  28   2.0000      -4.746698      -129.1642
  29   2.0000      -4.746040      -129.1463
  30   2.0000      -4.744646      -129.1084
  31   2.0000      -1.091319       -29.6963
  32   2.0000      -1.083678       -29.4884
  33   2.0000      -1.055578       -28.7237
  34   2.0000      -1.012782       -27.5592
  35   2.0000      -1.002585       -27.2817
  36   2.0000      -0.991254       -26.9734
  37   2.0000      -0.813986       -22.1497
  38   2.0000      -0.752984       -20.4897
  39   2.0000      -0.739589       -20.1252
  40   2.0000      -0.731823       -19.9139
  41   2.0000      -0.697451       -18.9786
  42   2.0000      -0.672118       -18.2892
  43   2.0000      -0.662348       -18.0234
  44   2.0000      -0.651725       -17.7343
  45   2.0000      -0.621931       -16.9236
  46   2.0000      -0.592172       -16.1138
  47   2.0000      -0.544666       -14.8211
  48   2.0000      -0.536017       -14.5858
  49   2.0000      -0.521624       -14.1941
  50   2.0000      -0.505596       -13.7580
  51   2.0000      -0.493216       -13.4211
  52   2.0000      -0.483589       -13.1591
  53   2.0000      -0.468585       -12.7508
  54   2.0000      -0.462834       -12.5943
  55   2.0000      -0.454191       -12.3592
  56   2.0000      -0.451754       -12.2929
  57   2.0000      -0.448568       -12.2062
  58   2.0000      -0.437727       -11.9112
  59   2.0000      -0.429027       -11.6744
  60   2.0000      -0.426680       -11.6106
  61   2.0000      -0.412086       -11.2134
  62   2.0000      -0.406410       -11.0590
  63   2.0000      -0.401905       -10.9364
  64   2.0000      -0.387922       -10.5559
  65   2.0000      -0.379319       -10.3218
  66   2.0000      -0.368169       -10.0184
  67   2.0000      -0.364507        -9.9188
  68   2.0000      -0.357552        -9.7295
  69   2.0000      -0.352702        -9.5975
  70   2.0000      -0.350632        -9.5412
  71   2.0000      -0.341058        -9.2807
  72   2.0000      -0.336814        -9.1652
  73   2.0000      -0.327119        -8.9014
  74   2.0000      -0.325490        -8.8570
  75   2.0000      -0.317579        -8.6418
  76   2.0000      -0.315581        -8.5874
  77   2.0000      -0.308809        -8.4031
  78   2.0000      -0.291304        -7.9268
  79   2.0000      -0.285913        -7.7801
  80   2.0000      -0.282327        -7.6825
  81   2.0000      -0.277759        -7.5582
  82   2.0000      -0.267942        -7.2911
  83   2.0000      -0.255928        -6.9642
  84   2.0000      -0.240418        -6.5421
  85   2.0000      -0.230838        -6.2814
  86   2.0000      -0.225911        -6.1474
  87   0.0000      -0.049522        -1.3476
  88   0.0000      -0.041029        -1.1164
  89   0.0000      -0.018337        -0.4990
  90   0.0000       0.003987         0.1085
  91   0.0000       0.004754         0.1294

MULLIKEN ATOMIC CHARGES
-----------------------
   0 C :   -0.490459
   1 C :   -0.154928
   2 O :   -0.157045
   3 C :    0.355137
   4 O :   -0.486376
   5 C :   -0.444130
   6 C :    0.058477
   7 H :    0.253389
   8 C :    0.233779
   9 O :   -0.438568
  10 O :   -0.146237
  11 C :   -0.120547
  12 C :   -0.521809
  13 S :   -0.177819
  14 P :    0.764684
  15 S :   -0.466004
  16 O :   -0.335239
  17 C :   -0.300296
  18 O :   -0.370330
  19 C :   -0.308023
  20 H :    0.166917
  21 H :    0.169763
  22 H :    0.165014
  23 H :    0.175708
  24 H :    0.176826
  25 H :    0.216095
  26 H :    0.223403
  27 H :    0.174485
  28 H :    0.179562
  29 H :    0.171242
  30 H :    0.171059
  31 H :    0.177538
  32 H :    0.180484
  33 H :    0.184528
  34 H :    0.185308
  35 H :    0.180571
  36 H :    0.177420
  37 H :    0.176422
Sum of atomic charges:    0.0000000

LOEWDIN ATOMIC CHARGES
----------------------
   0 C :   -0.388598
   1 C :    0.038857
   2 O :   -0.586151
   3 C :    0.360889
   4 O :   -0.490877
   5 C :   -0.208978
   6 C :   -0.197111
   7 H :    0.229854
   8 C :    0.351720
   9 O :   -0.456129
  10 O :   -0.608736
  11 C :    0.042012
  12 C :   -0.400264
  13 S :    0.214189
  14 P :    0.399433
  15 S :   -0.091661
  16 O :   -0.673699
  17 C :   -0.042356
  18 O :   -0.691601
  19 C :   -0.053583
  20 H :    0.162665
  21 H :    0.168701
  22 H :    0.163098
  23 H :    0.188656
  24 H :    0.186165
  25 H :    0.199942
  26 H :    0.201653
  27 H :    0.192658
  28 H :    0.193000
  29 H :    0.166296
  30 H :    0.166769
  31 H :    0.165050
  32 H :    0.179988
  33 H :    0.191684
  34 H :    0.182220
  35 H :    0.189509
  36 H :    0.177992
  37 H :    0.176745

  Mayer bond orders larger than 0.100000
B(  0-C ,  1-C ) :   0.9459 B(  0-C , 20-H ) :   0.9735 B(  0-C , 21-H ) :   0.9609
B(  0-C , 22-H ) :   0.9670 B(  1-C ,  2-O ) :   0.7715 B(  1-C , 23-H ) :   0.9540
B(  1-C , 24-H ) :   0.9370 B(  2-O ,  3-C ) :   1.1524 B(  3-C ,  4-O ) :   1.7846
B(  3-C ,  5-C ) :   0.8730 B(  5-C ,  6-C ) :   0.8448 B(  5-C , 25-H ) :   0.9855
B(  5-C , 26-H ) :   0.9316 B(  6-C ,  7-H ) :   0.8842 B(  6-C ,  8-C ) :   0.9541
B(  6-C , 13-S ) :   0.8224 B(  8-C ,  9-O ) :   1.7626 B(  8-C , 10-O ) :   1.1253
B( 10-O , 11-C ) :   0.7726 B( 11-C , 12-C ) :   0.9096 B( 11-C , 27-H ) :   0.9640
B( 11-C , 28-H ) :   0.9525 B( 12-C , 29-H ) :   0.9587 B( 12-C , 30-H ) :   0.9610
B( 12-C , 31-H ) :   0.9706 B( 13-S , 14-P ) :   1.0308 B( 14-P , 15-S ) :   1.7604
B( 14-P , 16-O ) :   1.1384 B( 14-P , 18-O ) :   1.0402 B( 16-O , 17-C ) :   0.7884
B( 17-C , 32-H ) :   0.9472 B( 17-C , 33-H ) :   0.9546 B( 17-C , 34-H ) :   0.9516
B( 18-O , 19-C ) :   0.8241 B( 19-C , 35-H ) :   0.9568 B( 19-C , 36-H ) :   0.9547
B( 19-C , 37-H ) :   0.9501

Dispersion correction           -0.017842509
FINAL SINGLE POINT ENERGY     -1981.469743824530

DIPOLE MOMENT
-------------

Method             : SCF
Type of density    : Electron Density
Multiplicity       :   1
Irrep              :   0
Energy             : -1981.4891597655134774 Eh
Relativity type    :
Basis              : AO
                                X                 Y                 Z
Electronic contribution:    -10.715389950       0.717795587      -4.458140617
Nuclear contribution   :      8.860473886      -0.512297661       3.898462704
                        -----------------------------------------
Total Dipole Moment    :     -1.854916064       0.205497926      -0.559677913
                        -----------------------------------------
Magnitude (a.u.)       :      1.948379421
Magnitude (Debye)      :      4.952386916

Rotational constants in cm-1:             0.015191             0.006455             0.005770
Rotational constants in MHz :           455.417969           193.506398           172.987401

                             ****ORCA TERMINATED NORMALLY****
TOTAL RUN TIME: 0 days 0 hours 2 minutes 1 seconds 805 msec
