                         Program Version 6.0.0  -   RELEASE  -
|  1> ! r2scan-3c def2/J RI DEFGRID2 scfconv6 printgap
|  2> %output
|  3>     printlevel normal
|  4> end
|  5> * xyz 0 1
|  6> C 4.1134762913 -1.1185509994 -2.4381339582
|  7> C 4.3521062695 -1.4321674632 -0.9751733022
|  8> O 3.123515234 -1.5320006259 -0.2336796166
|  9> P 2.1960279973 -0.2751090523 0.0573900343
| 10> S 3.1487067101 1.393834844 0.4575488742
| 11> O 1.2527924894 -0.8447085803 1.1942552046
| 12> C 1.4833928515 -0.5841127033 2.5922758874
| 13> C 2.6918601414 -1.337920683 3.1062017396
| 14> S 0.8388052444 -0.2449995069 -1.561371739
| 15> C 0.2194329297 1.4372794602 -1.2799942739
| 16> S -0.6231502294 1.6434861816 0.3137130782
| 17> P -2.1950225719 0.2846316072 -0.0686383506
| 18> S -2.9046514729 0.2291560711 -1.8979424186
| 19> O -3.2651238485 0.595689455 1.0639143918
| 20> C -4.3303720019 1.5453832721 0.8823221231
| 21> C -3.8208162617 2.9708546666 0.8203672869
| 22> O -1.5436513479 -1.0494001024 0.481653602
| 23> C -1.9363561243 -2.3529409175 0.0105528959
| 24> C -3.3178477812 -2.7292128337 0.5032315104
| 25> H 5.0553562006 -1.1702302703 -2.9748436512
| 26> H 3.4119587283 -1.8290201669 -2.8683392934
| 27> H 3.7022277878 -0.1152894237 -2.5423693645
| 28> H 4.9719063165 -0.6570794208 -0.5129969127
| 29> H 4.8175126292 -2.4098005182 -0.8426918685
| 30> H 1.6101832254 0.4952389817 2.7281520712
| 31> H 0.5602937859 -0.9086394213 3.0748935527
| 32> H 3.5918644176 -0.9663862098 2.6172693522
| 33> H 2.7833098626 -1.1860175974 4.1770824061
| 34> H 2.5906212628 -2.3993804221 2.8959848461
| 35> H -0.475973983 1.6463094754 -2.092163721
| 36> H 1.0527635711 2.1389936657 -1.2775468146
| 37> H -4.8678186048 1.2894675859 -0.0364770928
| 38> H -4.9744412592 1.3844543656 1.7478693645
| 39> H -3.2314274722 3.1178838104 -0.0837291168
| 40> H -4.6643563984 3.6535689784 0.8055736679
| 41> H -3.1952435519 3.1868829024 1.6828915235
| 42> H -1.8993705126 -2.3525145339 -1.084065973
| 43> H -1.164701086 -3.0167299608 0.4033800778
| 44> H -4.0585961921 -2.059972799 0.066777663
| 45> H -3.5425575684 -3.7481481661 0.2040968988
| 46> H -3.3660518985 -2.6482369185 1.5859479556
| 47> *
| 48>
| 49>                          ****END OF INPUT****

CARTESIAN COORDINATES (ANGSTROEM)
---------------------------------
  C      4.113476   -1.118551   -2.438134
  C      4.352106   -1.432167   -0.975173
  O      3.123515   -1.532001   -0.233680
  P      2.196028   -0.275109    0.057390
  S      3.148707    1.393835    0.457549
  O      1.252792   -0.844709    1.194255
  C      1.483393   -0.584113    2.592276
  C      2.691860   -1.337921    3.106202
  S      0.838805   -0.245000   -1.561372
  C      0.219433    1.437279   -1.279994
  S     -0.623150    1.643486    0.313713
  P     -2.195023    0.284632   -0.068638
  S     -2.904651    0.229156   -1.897942
  O     -3.265124    0.595689    1.063914
  C     -4.330372    1.545383    0.882322
  C     -3.820816    2.970855    0.820367
  O     -1.543651   -1.049400    0.481654
  C     -1.936356   -2.352941    0.010553
  C     -3.317848   -2.729213    0.503232
  H      5.055356   -1.170230   -2.974844
  H      3.411959   -1.829020   -2.868339
  H      3.702228   -0.115289   -2.542369
  H      4.971906   -0.657079   -0.512997
  H      4.817513   -2.409801   -0.842692
  H      1.610183    0.495239    2.728152
  H      0.560294   -0.908639    3.074894
  H      3.591864   -0.966386    2.617269
  H      2.783310   -1.186018    4.177082
  H      2.590621   -2.399380    2.895985
  H     -0.475974    1.646309   -2.092164
  H      1.052764    2.138994   -1.277547
  H     -4.867819    1.289468   -0.036477
  H     -4.974441    1.384454    1.747869
  H     -3.231427    3.117884   -0.083729
  H     -4.664356    3.653569    0.805574
  H     -3.195244    3.186883    1.682892
  H     -1.899371   -2.352515   -1.084066
  H     -1.164701   -3.016730    0.403380
  H     -4.058596   -2.059973    0.066778
  H     -3.542558   -3.748148    0.204097
  H     -3.366052   -2.648237    1.585948

 Total Charge           Charge          ....    0
 Multiplicity           Mult            ....    1
 Number of Electrons    NEL             ....  202
 Basis Dimension        Dim             ....  539

ORBITAL ENERGIES
----------------

  NO   OCC          E(Eh)            E(eV)
   0   2.0000     -88.572796     -2410.1883
   1   2.0000     -88.572750     -2410.1871
   2   2.0000     -88.521024     -2408.7795
   3   2.0000     -88.521015     -2408.7793
   4   2.0000     -76.912027     -2092.8827
   5   2.0000     -76.912016     -2092.8824
   6   2.0000     -18.992419      -516.8100
   7   2.0000     -18.992409      -516.8097
   8   2.0000     -18.983844      -516.5767
   9   2.0000     -18.983842      -516.5766
  10   2.0000     -10.104415      -274.9551
  11   2.0000     -10.098692      -274.7994
  12   2.0000     -10.098653      -274.7983
  13   2.0000     -10.092908      -274.6420
  14   2.0000     -10.092906      -274.6419
  15   2.0000     -10.028440      -272.8877
  16   2.0000     -10.028392      -272.8864
  17   2.0000     -10.026301      -272.8295
  18   2.0000     -10.026266      -272.8286
  19   2.0000      -7.867172      -214.0766
  20   2.0000      -7.867125      -214.0754
  21   2.0000      -7.815815      -212.6791
  22   2.0000      -7.815806      -212.6789
  23   2.0000      -6.590637      -179.3404
  24   2.0000      -6.590623      -179.3400
  25   2.0000      -5.814063      -158.2087
  26   2.0000      -5.814020      -158.2075
  27   2.0000      -5.811109      -158.1283
  28   2.0000      -5.811064      -158.1271
  29   2.0000      -5.804180      -157.9398
  30   2.0000      -5.804130      -157.9384
  31   2.0000      -5.763366      -156.8292
  32   2.0000      -5.763351      -156.8288
  33   2.0000      -5.756125      -156.6321
  34   2.0000      -5.756114      -156.6318
  35   2.0000      -5.755883      -156.6255
  36   2.0000      -5.755882      -156.6255
  37   2.0000      -4.735962      -128.8721
  38   2.0000      -4.735949      -128.8717
  39   2.0000      -4.735506      -128.8597
  40   2.0000      -4.735495      -128.8594
  41   2.0000      -4.734584      -128.8346
  42   2.0000      -4.734567      -128.8341
  43   2.0000      -1.048321       -28.5263
  44   2.0000      -1.047216       -28.4962
  45   2.0000      -1.009168       -27.4609
  46   2.0000      -1.007616       -27.4186
  47   2.0000      -0.800880       -21.7931
  48   2.0000      -0.756158       -20.5761
  49   2.0000      -0.746167       -20.3042
  50   2.0000      -0.729772       -19.8581
  51   2.0000      -0.728937       -19.8354
  52   2.0000      -0.709745       -19.3131
  53   2.0000      -0.686376       -18.6772
  54   2.0000      -0.668513       -18.1912
  55   2.0000      -0.634698       -17.2710
  56   2.0000      -0.626302       -17.0425
  57   2.0000      -0.603255       -16.4154
  58   2.0000      -0.603051       -16.4098
  59   2.0000      -0.589788       -16.0490
  60   2.0000      -0.519671       -14.1410
  61   2.0000      -0.514006       -13.9868
  62   2.0000      -0.491942       -13.3864
  63   2.0000      -0.489675       -13.3247
  64   2.0000      -0.472142       -12.8476
  65   2.0000      -0.458807       -12.4848
  66   2.0000      -0.457169       -12.4402
  67   2.0000      -0.456335       -12.4175
  68   2.0000      -0.442749       -12.0478
  69   2.0000      -0.432074       -11.7573
  70   2.0000      -0.423979       -11.5371
  71   2.0000      -0.409458       -11.1419
  72   2.0000      -0.405507       -11.0344
  73   2.0000      -0.405017       -11.0211
  74   2.0000      -0.401298       -10.9199
  75   2.0000      -0.389576       -10.6009
  76   2.0000      -0.383849       -10.4451
  77   2.0000      -0.373519       -10.1640
  78   2.0000      -0.369720       -10.0606
  79   2.0000      -0.365713        -9.9515
  80   2.0000      -0.361435        -9.8352
  81   2.0000      -0.361219        -9.8293
  82   2.0000      -0.354576        -9.6485
  83   2.0000      -0.353490        -9.6189
  84   2.0000      -0.345451        -9.4002
  85   2.0000      -0.333737        -9.0814
  86   2.0000      -0.319954        -8.7064
  87   2.0000      -0.309270        -8.4157
  88   2.0000      -0.309192        -8.4135
  89   2.0000      -0.300294        -8.1714
  90   2.0000      -0.294082        -8.0024
  91   2.0000      -0.289352        -7.8737
  92   2.0000      -0.278940        -7.5903
  93   2.0000      -0.277944        -7.5632
  94   2.0000      -0.274659        -7.4739
  95   2.0000      -0.242906        -6.6098
  96   2.0000      -0.228519        -6.2183
  97   2.0000      -0.227920        -6.2020
  98   2.0000      -0.221273        -6.0211
  99   2.0000      -0.214313        -5.8317
 100   2.0000      -0.212570        -5.7843
 101   0.0000      -0.045570        -1.2400
 102   0.0000      -0.022984        -0.6254
 103   0.0000       0.001202         0.0327
 104   0.0000       0.003058         0.0832
 105   0.0000       0.013992         0.3807

MULLIKEN ATOMIC CHARGES
-----------------------
   0 C :   -0.449780
   1 C :   -0.153533
   2 O :   -0.304787
   3 P :    0.697757
   4 S :   -0.487992
   5 O :   -0.263015
   6 C :   -0.158644
   7 C :   -0.442475
   8 S :   -0.121052
   9 C :   -0.246423
  10 S :   -0.121103
  11 P :    0.698623
  12 S :   -0.488436
  13 O :   -0.305098
  14 C :   -0.152756
  15 C :   -0.450445
  16 O :   -0.262930
  17 C :   -0.158585
  18 C :   -0.442551
  19 H :    0.148011
  20 H :    0.155869
  21 H :    0.176709
  22 H :    0.171862
  23 H :    0.148231
  24 H :    0.173534
  25 H :    0.156867
  26 H :    0.166075
  27 H :    0.146260
  28 H :    0.153927
  29 H :    0.209368
  30 H :    0.209387
  31 H :    0.171896
  32 H :    0.148202
  33 H :    0.176557
  34 H :    0.147954
  35 H :    0.155898
  36 H :    0.173459
  37 H :    0.156841
  38 H :    0.166165
  39 H :    0.146257
  40 H :    0.153894
Sum of atomic charges:    0.0000000

LOEWDIN ATOMIC CHARGES
----------------------
   0 C :   -0.406917
   1 C :    0.019516
   2 O :   -0.659649
   3 P :    0.380280
   4 S :   -0.132640
   5 O :   -0.669940
   6 C :    0.018212
   7 C :   -0.399412
   8 S :    0.180429
   9 C :   -0.418714
  10 S :    0.180546
  11 P :    0.380312
  12 S :   -0.132747
  13 O :   -0.659654
  14 C :    0.019571
  15 C :   -0.406848
  16 O :   -0.669862
  17 C :    0.018288
  18 C :   -0.399477
  19 H :    0.159258
  20 H :    0.160437
  21 H :    0.165584
  22 H :    0.179394
  23 H :    0.179438
  24 H :    0.181248
  25 H :    0.181601
  26 H :    0.163977
  27 H :    0.158934
  28 H :    0.159669
  29 H :    0.189883
  30 H :    0.189793
  31 H :    0.179472
  32 H :    0.179389
  33 H :    0.165479
  34 H :    0.159251
  35 H :    0.160461
  36 H :    0.181239
  37 H :    0.181597
  38 H :    0.163983
  39 H :    0.158925
  40 H :    0.159695

  Mayer bond orders larger than 0.100000
B(  0-C ,  1-C ) :   0.9234 B(  0-C , 19-H ) :   0.9590 B(  0-C , 20-H ) :   0.9683
B(  0-C , 21-H ) :   0.9625 B(  1-C ,  2-O ) :   0.8129 B(  1-C , 22-H ) :   0.9676
B(  1-C , 23-H ) :   0.9583 B(  2-O ,  3-P ) :   1.0673 B(  3-P ,  4-S ) :   1.7388
B(  3-P ,  5-O ) :   1.1516 B(  3-P ,  8-S ) :   1.0878 B(  5-O ,  6-C ) :   0.7896
B(  6-C ,  7-C ) :   0.9220 B(  6-C , 24-H ) :   0.9641 B(  6-C , 25-H ) :   0.9634
B(  7-C , 26-H ) :   0.9612 B(  7-C , 27-H ) :   0.9634 B(  7-C , 28-H ) :   0.9729
B(  8-S ,  9-C ) :   0.9033 B(  9-C , 10-S ) :   0.9034 B(  9-C , 29-H ) :   0.9099
B(  9-C , 30-H ) :   0.9100 B( 10-S , 11-P ) :   1.0872 B( 11-P , 12-S ) :   1.7387
B( 11-P , 13-O ) :   1.0675 B( 11-P , 16-O ) :   1.1517 B( 13-O , 14-C ) :   0.8127
B( 14-C , 15-C ) :   0.9235 B( 14-C , 31-H ) :   0.9675 B( 14-C , 32-H ) :   0.9584
B( 15-C , 33-H ) :   0.9627 B( 15-C , 34-H ) :   0.9590 B( 15-C , 35-H ) :   0.9685
B( 16-O , 17-C ) :   0.7899 B( 17-C , 18-C ) :   0.9219 B( 17-C , 36-H ) :   0.9642
B( 17-C , 37-H ) :   0.9634 B( 18-C , 38-H ) :   0.9612 B( 18-C , 39-H ) :   0.9634
B( 18-C , 40-H ) :   0.9729

Dispersion correction           -0.021855746
FINAL SINGLE POINT ENERGY     -2932.464824926767

DIPOLE MOMENT
-------------

Method             : SCF
Type of density    : Electron Density
Multiplicity       :   1
Irrep              :   0
Energy             : -2932.4893905228973381 Eh
Relativity type    :
Basis              : AO
                                X                 Y                 Z
Electronic contribution:      1.123815809       7.434486219      -6.673682231
Nuclear contribution   :     -1.233235894      -8.163618645       7.325161546
                        -----------------------------------------
Total Dipole Moment    :     -0.109420085      -0.729132426       0.651479315
                        -----------------------------------------
Magnitude (a.u.)       :      0.983886247
Magnitude (Debye)      :      2.500840096

Rotational constants in cm-1:             0.012790             0.004936             0.004923
Rotational constants in MHz :           383.440980           147.980726           147.594499

                             ****ORCA TERMINATED NORMALLY****
TOTAL RUN TIME: 0 days 0 hours 1 minutes 19 seconds 670 msec
