                         Program Version 6.0.0  -   RELEASE  -
|  1> ! r2scan-3c def2/J RI DEFGRID2 scfconv6 printgap
|  2> %output
|  3>     printlevel normal
|  4> end
|  5> %cpcm
|  6>     smd true
|  7>     smdsolvent "water"
|  8> end
|  9> * xyz 0 1
| 10> C 4.1134762913 -1.1185509994 -2.4381339582
| 11> C 4.3521062695 -1.4321674632 -0.9751733022
| 12> O 3.123515234 -1.5320006259 -0.2336796166
| 13> P 2.1960279973 -0.2751090523 0.0573900343
| 14> S 3.1487067101 1.393834844 0.4575488742
| 15> O 1.2527924894 -0.8447085803 1.1942552046
| 16> C 1.4833928515 -0.5841127033 2.5922758874
| 17> C 2.6918601414 -1.337920683 3.1062017396
| 18> S 0.8388052444 -0.2449995069 -1.561371739
| 19> C 0.2194329297 1.4372794602 -1.2799942739
| 20> S -0.6231502294 1.6434861816 0.3137130782
| 21> P -2.1950225719 0.2846316072 -0.0686383506
| 22> S -2.9046514729 0.2291560711 -1.8979424186
| 23> O -3.2651238485 0.595689455 1.0639143918
| 24> C -4.3303720019 1.5453832721 0.8823221231
| 25> C -3.8208162617 2.9708546666 0.8203672869
| 26> O -1.5436513479 -1.0494001024 0.481653602
| 27> C -1.9363561243 -2.3529409175 0.0105528959
| 28> C -3.3178477812 -2.7292128337 0.5032315104
| 29> H 5.0553562006 -1.1702302703 -2.9748436512
| 30> H 3.4119587283 -1.8290201669 -2.8683392934
| 31> H 3.7022277878 -0.1152894237 -2.5423693645
| 32> H 4.9719063165 -0.6570794208 -0.5129969127
| 33> H 4.8175126292 -2.4098005182 -0.8426918685
| 34> H 1.6101832254 0.4952389817 2.7281520712
| 35> H 0.5602937859 -0.9086394213 3.0748935527
| 36> H 3.5918644176 -0.9663862098 2.6172693522
| 37> H 2.7833098626 -1.1860175974 4.1770824061
| 38> H 2.5906212628 -2.3993804221 2.8959848461
| 39> H -0.475973983 1.6463094754 -2.092163721
| 40> H 1.0527635711 2.1389936657 -1.2775468146
| 41> H -4.8678186048 1.2894675859 -0.0364770928
| 42> H -4.9744412592 1.3844543656 1.7478693645
| 43> H -3.2314274722 3.1178838104 -0.0837291168
| 44> H -4.6643563984 3.6535689784 0.8055736679
| 45> H -3.1952435519 3.1868829024 1.6828915235
| 46> H -1.8993705126 -2.3525145339 -1.084065973
| 47> H -1.164701086 -3.0167299608 0.4033800778
| 48> H -4.0585961921 -2.059972799 0.066777663
| 49> H -3.5425575684 -3.7481481661 0.2040968988
| 50> H -3.3660518985 -2.6482369185 1.5859479556
| 51> *
| 52>
| 53>                          ****END OF INPUT****

CARTESIAN COORDINATES (ANGSTROEM)
---------------------------------
  C      4.113476   -1.118551   -2.438134
  C      4.352106   -1.432167   -0.975173
  O      3.123515   -1.532001   -0.233680
  P      2.196028   -0.275109    0.057390
  S      3.148707    1.393835    0.457549
  O      1.252792   -0.844709    1.194255
  C      1.483393   -0.584113    2.592276
  C      2.691860   -1.337921    3.106202
  S      0.838805   -0.245000   -1.561372
  C      0.219433    1.437279   -1.279994
  S     -0.623150    1.643486    0.313713
  P     -2.195023    0.284632   -0.068638
  S     -2.904651    0.229156   -1.897942
  O     -3.265124    0.595689    1.063914
  C     -4.330372    1.545383    0.882322
  C     -3.820816    2.970855    0.820367
  O     -1.543651   -1.049400    0.481654
  C     -1.936356   -2.352941    0.010553
  C     -3.317848   -2.729213    0.503232
  H      5.055356   -1.170230   -2.974844
  H      3.411959   -1.829020   -2.868339
  H      3.702228   -0.115289   -2.542369
  H      4.971906   -0.657079   -0.512997
  H      4.817513   -2.409801   -0.842692
  H      1.610183    0.495239    2.728152
  H      0.560294   -0.908639    3.074894
  H      3.591864   -0.966386    2.617269
  H      2.783310   -1.186018    4.177082
  H      2.590621   -2.399380    2.895985
  H     -0.475974    1.646309   -2.092164
  H      1.052764    2.138994   -1.277547
  H     -4.867819    1.289468   -0.036477
  H     -4.974441    1.384454    1.747869
  H     -3.231427    3.117884   -0.083729
  H     -4.664356    3.653569    0.805574
  H     -3.195244    3.186883    1.682892
  H     -1.899371   -2.352515   -1.084066
  H     -1.164701   -3.016730    0.403380
  H     -4.058596   -2.059973    0.066778
  H     -3.542558   -3.748148    0.204097
  H     -3.366052   -2.648237    1.585948

 Total Charge           Charge          ....    0
 Multiplicity           Mult            ....    1
 Number of Electrons    NEL             ....  202
 Basis Dimension        Dim             ....  539

ORBITAL ENERGIES
----------------

  NO   OCC          E(Eh)            E(eV)
   0   2.0000     -88.577328     -2410.3116
   1   2.0000     -88.577306     -2410.3110
   2   2.0000     -88.528379     -2408.9797
   3   2.0000     -88.528362     -2408.9792
   4   2.0000     -76.917989     -2093.0449
   5   2.0000     -76.917924     -2093.0431
   6   2.0000     -18.995507      -516.8940
   7   2.0000     -18.995385      -516.8907
   8   2.0000     -18.989451      -516.7292
   9   2.0000     -18.989372      -516.7271
  10   2.0000     -10.104689      -274.9626
  11   2.0000     -10.089717      -274.5551
  12   2.0000     -10.089653      -274.5534
  13   2.0000     -10.088120      -274.5117
  14   2.0000     -10.088084      -274.5107
  15   2.0000     -10.018515      -272.6176
  16   2.0000     -10.018497      -272.6172
  17   2.0000     -10.018125      -272.6070
  18   2.0000     -10.018067      -272.6055
  19   2.0000      -7.871742      -214.2010
  20   2.0000      -7.871720      -214.2004
  21   2.0000      -7.823431      -212.8864
  22   2.0000      -7.823415      -212.8859
  23   2.0000      -6.596642      -179.5038
  24   2.0000      -6.596574      -179.5019
  25   2.0000      -5.818619      -158.3327
  26   2.0000      -5.818601      -158.3322
  27   2.0000      -5.815669      -158.2524
  28   2.0000      -5.815649      -158.2518
  29   2.0000      -5.808778      -158.0649
  30   2.0000      -5.808753      -158.0642
  31   2.0000      -5.770942      -157.0353
  32   2.0000      -5.770919      -157.0347
  33   2.0000      -5.763723      -156.8389
  34   2.0000      -5.763705      -156.8384
  35   2.0000      -5.763510      -156.8331
  36   2.0000      -5.763502      -156.8329
  37   2.0000      -4.741932      -129.0345
  38   2.0000      -4.741864      -129.0327
  39   2.0000      -4.741526      -129.0235
  40   2.0000      -4.741461      -129.0217
  41   2.0000      -4.740629      -128.9991
  42   2.0000      -4.740559      -128.9972
  43   2.0000      -1.052237       -28.6328
  44   2.0000      -1.050988       -28.5988
  45   2.0000      -1.012686       -27.5566
  46   2.0000      -1.011157       -27.5150
  47   2.0000      -0.803846       -21.8738
  48   2.0000      -0.754936       -20.5429
  49   2.0000      -0.741792       -20.1852
  50   2.0000      -0.722943       -19.6723
  51   2.0000      -0.722418       -19.6580
  52   2.0000      -0.709899       -19.3173
  53   2.0000      -0.690350       -18.7854
  54   2.0000      -0.674840       -18.3633
  55   2.0000      -0.634660       -17.2700
  56   2.0000      -0.624037       -16.9809
  57   2.0000      -0.598382       -16.2828
  58   2.0000      -0.598215       -16.2783
  59   2.0000      -0.589790       -16.0490
  60   2.0000      -0.517878       -14.0922
  61   2.0000      -0.511750       -13.9254
  62   2.0000      -0.490396       -13.3444
  63   2.0000      -0.488474       -13.2921
  64   2.0000      -0.473247       -12.8777
  65   2.0000      -0.458371       -12.4729
  66   2.0000      -0.453941       -12.3523
  67   2.0000      -0.453174       -12.3315
  68   2.0000      -0.440756       -11.9936
  69   2.0000      -0.429627       -11.6907
  70   2.0000      -0.420870       -11.4525
  71   2.0000      -0.408685       -11.1209
  72   2.0000      -0.405124       -11.0240
  73   2.0000      -0.403015       -10.9666
  74   2.0000      -0.401479       -10.9248
  75   2.0000      -0.388168       -10.5626
  76   2.0000      -0.382750       -10.4151
  77   2.0000      -0.369994       -10.0680
  78   2.0000      -0.364654        -9.9227
  79   2.0000      -0.363785        -9.8991
  80   2.0000      -0.353533        -9.6201
  81   2.0000      -0.353511        -9.6195
  82   2.0000      -0.348298        -9.4777
  83   2.0000      -0.347671        -9.4606
  84   2.0000      -0.343757        -9.3541
  85   2.0000      -0.332268        -9.0415
  86   2.0000      -0.319368        -8.6904
  87   2.0000      -0.304855        -8.2955
  88   2.0000      -0.304458        -8.2847
  89   2.0000      -0.301596        -8.2068
  90   2.0000      -0.295547        -8.0423
  91   2.0000      -0.290122        -7.8946
  92   2.0000      -0.279714        -7.6114
  93   2.0000      -0.279130        -7.5955
  94   2.0000      -0.277102        -7.5403
  95   2.0000      -0.247904        -6.7458
  96   2.0000      -0.235768        -6.4156
  97   2.0000      -0.235215        -6.4005
  98   2.0000      -0.228605        -6.2207
  99   2.0000      -0.222008        -6.0411
 100   2.0000      -0.219139        -5.9631
 101   0.0000      -0.051219        -1.3937
 102   0.0000      -0.029779        -0.8103
 103   0.0000      -0.003157        -0.0859
 104   0.0000      -0.002491        -0.0678
 105   0.0000       0.012162         0.3309

MULLIKEN ATOMIC CHARGES
-----------------------
   0 C :   -0.485679
   1 C :   -0.153856
   2 O :   -0.331824
   3 P :    0.732741
   4 S :   -0.529644
   5 O :   -0.294446
   6 C :   -0.151343
   7 C :   -0.484795
   8 S :   -0.133634
   9 C :   -0.258910
  10 S :   -0.133423
  11 P :    0.733538
  12 S :   -0.530463
  13 O :   -0.331518
  14 C :   -0.152827
  15 C :   -0.486500
  16 O :   -0.293989
  17 C :   -0.151556
  18 C :   -0.485074
  19 H :    0.172937
  20 H :    0.169234
  21 H :    0.172525
  22 H :    0.178110
  23 H :    0.175369
  24 H :    0.176313
  25 H :    0.178207
  26 H :    0.167054
  27 H :    0.171486
  28 H :    0.169134
  29 H :    0.231150
  30 H :    0.231577
  31 H :    0.177846
  32 H :    0.175307
  33 H :    0.172502
  34 H :    0.172854
  35 H :    0.169281
  36 H :    0.176284
  37 H :    0.178218
  38 H :    0.167375
  39 H :    0.171381
  40 H :    0.169057
Sum of atomic charges:    0.0000000

LOEWDIN ATOMIC CHARGES
----------------------
   0 C :   -0.410002
   1 C :    0.025361
   2 O :   -0.671802
   3 P :    0.384869
   4 S :   -0.157394
   5 O :   -0.687836
   6 C :    0.021565
   7 C :   -0.402354
   8 S :    0.173958
   9 C :   -0.411992
  10 S :    0.174188
  11 P :    0.385004
  12 S :   -0.157753
  13 O :   -0.671556
  14 C :    0.025412
  15 C :   -0.409964
  16 O :   -0.687552
  17 C :    0.021608
  18 C :   -0.402479
  19 H :    0.168421
  20 H :    0.163568
  21 H :    0.161529
  22 H :    0.181501
  23 H :    0.190991
  24 H :    0.182099
  25 H :    0.190257
  26 H :    0.162172
  27 H :    0.168422
  28 H :    0.163766
  29 H :    0.196664
  30 H :    0.196750
  31 H :    0.181476
  32 H :    0.190918
  33 H :    0.161481
  34 H :    0.168391
  35 H :    0.163598
  36 H :    0.182069
  37 H :    0.190262
  38 H :    0.162255
  39 H :    0.168361
  40 H :    0.163766

  Mayer bond orders larger than 0.100000
B(  0-C ,  1-C ) :   0.9104 B(  0-C , 19-H ) :   0.9536 B(  0-C , 20-H ) :   0.9656
B(  0-C , 21-H ) :   0.9636 B(  1-C ,  2-O ) :   0.8007 B(  1-C , 22-H ) :   0.9659
B(  1-C , 23-H ) :   0.9485 B(  2-O ,  3-P ) :   1.0755 B(  3-P ,  4-S ) :   1.7022
B(  3-P ,  5-O ) :   1.1544 B(  3-P ,  8-S ) :   1.0988 B(  5-O ,  6-C ) :   0.7773
B(  6-C ,  7-C ) :   0.9148 B(  6-C , 24-H ) :   0.9592 B(  6-C , 25-H ) :   0.9532
B(  7-C , 26-H ) :   0.9604 B(  7-C , 27-H ) :   0.9572 B(  7-C , 28-H ) :   0.9713
B(  8-S ,  9-C ) :   0.8945 B(  9-C , 10-S ) :   0.8944 B(  9-C , 29-H ) :   0.9045
B(  9-C , 30-H ) :   0.9045 B( 10-S , 11-P ) :   1.0984 B( 11-P , 12-S ) :   1.7015
B( 11-P , 13-O ) :   1.0760 B( 11-P , 16-O ) :   1.1549 B( 13-O , 14-C ) :   0.8006
B( 14-C , 15-C ) :   0.9105 B( 14-C , 31-H ) :   0.9659 B( 14-C , 32-H ) :   0.9486
B( 15-C , 33-H ) :   0.9638 B( 15-C , 34-H ) :   0.9536 B( 15-C , 35-H ) :   0.9658
B( 16-O , 17-C ) :   0.7776 B( 17-C , 18-C ) :   0.9147 B( 17-C , 36-H ) :   0.9593
B( 17-C , 37-H ) :   0.9532 B( 18-C , 38-H ) :   0.9604 B( 18-C , 39-H ) :   0.9572
B( 18-C , 40-H ) :   0.9713

Dispersion correction           -0.021855746
FINAL SINGLE POINT ENERGY     -2932.472061857223

DIPOLE MOMENT
-------------

Method             : SCF
Type of density    : Electron Density
Multiplicity       :   1
Irrep              :   0
Energy             : -2932.4966274533530850 Eh
Relativity type    :
Basis              : AO
                                X                 Y                 Z
Electronic contribution:      1.101915127       7.282125335      -6.534552592
Nuclear contribution   :     -1.233235894      -8.163618645       7.325161546
                        -----------------------------------------
Total Dipole Moment    :     -0.131320767      -0.881493311       0.790608954
                        -----------------------------------------
Magnitude (a.u.)       :      1.191359777
Magnitude (Debye)      :      3.028195899

Rotational constants in cm-1:             0.012790             0.004936             0.004923
Rotational constants in MHz :           383.440980           147.980726           147.594499

                             ****ORCA TERMINATED NORMALLY****
TOTAL RUN TIME: 0 days 0 hours 1 minutes 50 seconds 297 msec
