                         Program Version 6.0.0  -   RELEASE  -
|  1> ! pbe def2-sv(p) def2/J RI DEFGRID1 loosescf d4 GCP(DFT/SV(P)) printgap
|  2> %output
|  3>     printlevel normal
|  4> end
|  5> * xyz 0 1
|  6> C 1.7216407509 1.9070597612 -1.1758340277
|  7> C 3.0587187355 1.2173565989 -1.0096499117
|  8> O 2.9128288676 -0.1845855402 -0.7342880586
|  9> P 2.3856822733 -0.7480572268 0.6587140399
| 10> S 2.8233939521 0.3712299579 2.2125947131
| 11> O 2.9270405875 -2.2354844052 0.6173188063
| 12> C 4.2657610933 -2.6053220884 0.221306244
| 13> C 5.3216918398 -1.9965398987 1.120906436
| 14> S 0.3424300851 -1.2732939492 0.4507767028
| 15> C -0.4141386885 -0.2225405929 1.7190879456
| 16> S -1.1782846588 1.2988720485 1.0800337469
| 17> P -2.3408885684 0.4894934744 -0.4989665174
| 18> S -1.5120729653 0.1752491819 -2.2521635082
| 19> O -3.6000338008 1.4585557579 -0.5640312816
| 20> C -3.6143724222 2.6349093527 -1.3890808055
| 21> C -2.6455635237 3.6842765116 -0.883511531
| 22> O -2.9285107476 -0.7774802535 0.246714509
| 23> C -3.4173171682 -1.924998322 -0.47772147
| 24> C -4.7071554418 -1.6152312533 -1.2077232582
| 25> H 1.1069452738 1.3779767422 -1.9019134298
| 26> H 1.1963267771 1.935817531 -0.2212030317
| 27> H 1.8788159451 2.9252881746 -1.516570808
| 28> H 3.6252685487 1.6753552868 -0.1921573336
| 29> H 3.6414698184 1.2439871754 -1.9314075467
| 30> H 4.2580024193 -3.6941852228 0.2937205592
| 31> H 4.4136994966 -2.3032995102 -0.8179438533
| 32> H 6.2994328546 -2.3712442388 0.8348452218
| 33> H 5.3158557495 -0.9111640045 1.0281408739
| 34> H 5.1269475227 -2.2535681845 2.1595347133
| 35> H 0.357483881 0.1030760428 2.422004992
| 36> H -1.1770861566 -0.8156236118 2.2152389578
| 37> H -3.3634135698 2.3420143575 -2.4140606612
| 38> H -4.6481174318 2.9793452086 -1.3417624649
| 39> H -1.6247565017 3.30935741 -0.9609414276
| 40> H -2.7386313336 4.5839515407 -1.4830811991
| 41> H -2.8499935876 3.9183124038 0.1580242338
| 42> H -2.6402601167 -2.2495714617 -1.1774820477
| 43> H -3.5580383205 -2.6827162122 0.2941117648
| 44> H -4.5202685921 -0.8820423007 -1.9913734429
| 45> H -5.0934706374 -2.523771223 -1.6588479994
| 46> H -5.4417100071 -1.2109225635 -0.5163165653
| 47> *
| 48>
| 49>                          ****END OF INPUT****

CARTESIAN COORDINATES (ANGSTROEM)
---------------------------------
  C      1.721641    1.907060   -1.175834
  C      3.058719    1.217357   -1.009650
  O      2.912829   -0.184586   -0.734288
  P      2.385682   -0.748057    0.658714
  S      2.823394    0.371230    2.212595
  O      2.927041   -2.235484    0.617319
  C      4.265761   -2.605322    0.221306
  C      5.321692   -1.996540    1.120906
  S      0.342430   -1.273294    0.450777
  C     -0.414139   -0.222541    1.719088
  S     -1.178285    1.298872    1.080034
  P     -2.340889    0.489493   -0.498967
  S     -1.512073    0.175249   -2.252164
  O     -3.600034    1.458556   -0.564031
  C     -3.614372    2.634909   -1.389081
  C     -2.645564    3.684277   -0.883512
  O     -2.928511   -0.777480    0.246715
  C     -3.417317   -1.924998   -0.477721
  C     -4.707155   -1.615231   -1.207723
  H      1.106945    1.377977   -1.901913
  H      1.196327    1.935818   -0.221203
  H      1.878816    2.925288   -1.516571
  H      3.625269    1.675355   -0.192157
  H      3.641470    1.243987   -1.931408
  H      4.258002   -3.694185    0.293721
  H      4.413699   -2.303300   -0.817944
  H      6.299433   -2.371244    0.834845
  H      5.315856   -0.911164    1.028141
  H      5.126948   -2.253568    2.159535
  H      0.357484    0.103076    2.422005
  H     -1.177086   -0.815624    2.215239
  H     -3.363414    2.342014   -2.414061
  H     -4.648117    2.979345   -1.341762
  H     -1.624757    3.309357   -0.960941
  H     -2.738631    4.583952   -1.483081
  H     -2.849994    3.918312    0.158024
  H     -2.640260   -2.249571   -1.177482
  H     -3.558038   -2.682716    0.294112
  H     -4.520269   -0.882042   -1.991373
  H     -5.093471   -2.523771   -1.658848
  H     -5.441710   -1.210923   -0.516317

 Total Charge           Charge          ....    0
 Multiplicity           Mult            ....    1
 Number of Electrons    NEL             ....  202
 Basis Dimension        Dim             ....  334

ORBITAL ENERGIES
----------------

  NO   OCC          E(Eh)            E(eV)
   0   2.0000     -88.039132     -2395.6666
   1   2.0000     -88.038899     -2395.6602
   2   2.0000     -87.989685     -2394.3211
   3   2.0000     -87.986688     -2394.2395
   4   2.0000     -76.427353     -2079.6940
   5   2.0000     -76.426188     -2079.6623
   6   2.0000     -18.796493      -511.4786
   7   2.0000     -18.792493      -511.3697
   8   2.0000     -18.792111      -511.3593
   9   2.0000     -18.789669      -511.2929
  10   2.0000      -9.954555      -270.8772
  11   2.0000      -9.953661      -270.8529
  12   2.0000      -9.953248      -270.8417
  13   2.0000      -9.950967      -270.7796
  14   2.0000      -9.946332      -270.6534
  15   2.0000      -9.887158      -269.0433
  16   2.0000      -9.884799      -268.9791
  17   2.0000      -9.884009      -268.9576
  18   2.0000      -9.868786      -268.5433
  19   2.0000      -7.683992      -209.0920
  20   2.0000      -7.683948      -209.0909
  21   2.0000      -7.634542      -207.7465
  22   2.0000      -7.631489      -207.6634
  23   2.0000      -6.424876      -174.8298
  24   2.0000      -6.423616      -174.7955
  25   2.0000      -5.712015      -155.4318
  26   2.0000      -5.711960      -155.4303
  27   2.0000      -5.708481      -155.3357
  28   2.0000      -5.708460      -155.3351
  29   2.0000      -5.700863      -155.1284
  30   2.0000      -5.700738      -155.1250
  31   2.0000      -5.663259      -154.1051
  32   2.0000      -5.660239      -154.0229
  33   2.0000      -5.655433      -153.8922
  34   2.0000      -5.654651      -153.8709
  35   2.0000      -5.652215      -153.8046
  36   2.0000      -5.651743      -153.7917
  37   2.0000      -4.647524      -126.4656
  38   2.0000      -4.646658      -126.4420
  39   2.0000      -4.646348      -126.4336
  40   2.0000      -4.645247      -126.4036
  41   2.0000      -4.645011      -126.3972
  42   2.0000      -4.644317      -126.3783
  43   2.0000      -0.989719       -26.9316
  44   2.0000      -0.986628       -26.8475
  45   2.0000      -0.949822       -25.8460
  46   2.0000      -0.942528       -25.6475
  47   2.0000      -0.759457       -20.6659
  48   2.0000      -0.721398       -19.6302
  49   2.0000      -0.706864       -19.2347
  50   2.0000      -0.688840       -18.7443
  51   2.0000      -0.683169       -18.5900
  52   2.0000      -0.671457       -18.2713
  53   2.0000      -0.654066       -17.7980
  54   2.0000      -0.638446       -17.3730
  55   2.0000      -0.601268       -16.3613
  56   2.0000      -0.592840       -16.1320
  57   2.0000      -0.574842       -15.6422
  58   2.0000      -0.574277       -15.6269
  59   2.0000      -0.556255       -15.1365
  60   2.0000      -0.496221       -13.5028
  61   2.0000      -0.492730       -13.4079
  62   2.0000      -0.476248       -12.9594
  63   2.0000      -0.468402       -12.7459
  64   2.0000      -0.457861       -12.4590
  65   2.0000      -0.446120       -12.1395
  66   2.0000      -0.441016       -12.0006
  67   2.0000      -0.428887       -11.6706
  68   2.0000      -0.424270       -11.5450
  69   2.0000      -0.416884       -11.3440
  70   2.0000      -0.411185       -11.1889
  71   2.0000      -0.401882       -10.9358
  72   2.0000      -0.394741       -10.7415
  73   2.0000      -0.390668       -10.6306
  74   2.0000      -0.380025       -10.3410
  75   2.0000      -0.371475       -10.1084
  76   2.0000      -0.369148       -10.0450
  77   2.0000      -0.357542        -9.7292
  78   2.0000      -0.351512        -9.5651
  79   2.0000      -0.349281        -9.5044
  80   2.0000      -0.347355        -9.4520
  81   2.0000      -0.342018        -9.3068
  82   2.0000      -0.337286        -9.1780
  83   2.0000      -0.335319        -9.1245
  84   2.0000      -0.330309        -8.9882
  85   2.0000      -0.322287        -8.7699
  86   2.0000      -0.307535        -8.3685
  87   2.0000      -0.297512        -8.0957
  88   2.0000      -0.292235        -7.9521
  89   2.0000      -0.289982        -7.8908
  90   2.0000      -0.285444        -7.7673
  91   2.0000      -0.274945        -7.4816
  92   2.0000      -0.274054        -7.4574
  93   2.0000      -0.262983        -7.1561
  94   2.0000      -0.261211        -7.1079
  95   2.0000      -0.230856        -6.2819
  96   2.0000      -0.220935        -6.0119
  97   2.0000      -0.210890        -5.7386
  98   2.0000      -0.206733        -5.6255
  99   2.0000      -0.198951        -5.4137
 100   2.0000      -0.193193        -5.2570
 101   0.0000      -0.046849        -1.2748
 102   0.0000      -0.023325        -0.6347
 103   0.0000      -0.016944        -0.4611
 104   0.0000       0.003363         0.0915
 105   0.0000       0.011872         0.3231

MULLIKEN ATOMIC CHARGES
-----------------------
   0 C :   -0.342903
   1 C :    0.001362
   2 O :   -0.378807
   3 P :    0.634245
   4 S :   -0.330136
   5 O :   -0.373316
   6 C :   -0.000982
   7 C :   -0.316535
   8 S :   -0.073989
   9 C :   -0.341782
  10 S :   -0.101869
  11 P :    0.609524
  12 S :   -0.313109
  13 O :   -0.366454
  14 C :   -0.003106
  15 C :   -0.333055
  16 O :   -0.374327
  17 C :   -0.006830
  18 C :   -0.305472
  19 H :    0.137455
  20 H :    0.131848
  21 H :    0.103628
  22 H :    0.106803
  23 H :    0.099506
  24 H :    0.108318
  25 H :    0.110946
  26 H :    0.110837
  27 H :    0.128825
  28 H :    0.125215
  29 H :    0.192557
  30 H :    0.189317
  31 H :    0.109783
  32 H :    0.106665
  33 H :    0.137523
  34 H :    0.116737
  35 H :    0.124681
  36 H :    0.116597
  37 H :    0.105863
  38 H :    0.123168
  39 H :    0.113240
  40 H :    0.118025
Sum of atomic charges:   -0.0000000

LOEWDIN ATOMIC CHARGES
----------------------
   0 C :   -0.378575
   1 C :   -0.119903
   2 O :   -0.243351
   3 P :    0.571412
   4 S :   -0.309282
   5 O :   -0.244270
   6 C :   -0.110989
   7 C :   -0.366665
   8 S :    0.100018
   9 C :   -0.480580
  10 S :    0.091442
  11 P :    0.570079
  12 S :   -0.307662
  13 O :   -0.242602
  14 C :   -0.121210
  15 C :   -0.371088
  16 O :   -0.240321
  17 C :   -0.118201
  18 C :   -0.364538
  19 H :    0.123179
  20 H :    0.110806
  21 H :    0.127734
  22 H :    0.106738
  23 H :    0.116150
  24 H :    0.121153
  25 H :    0.113817
  26 H :    0.129593
  27 H :    0.122120
  28 H :    0.130359
  29 H :    0.126515
  30 H :    0.134219
  31 H :    0.108997
  32 H :    0.119543
  33 H :    0.122788
  34 H :    0.133125
  35 H :    0.126939
  36 H :    0.112244
  37 H :    0.118896
  38 H :    0.122909
  39 H :    0.131236
  40 H :    0.127227

  Mayer bond orders larger than 0.100000
B(  0-C ,  1-C ) :   1.1642 B(  0-C , 19-H ) :   0.9295 B(  0-C , 20-H ) :   0.9244
B(  0-C , 21-H ) :   0.9368 B(  1-C ,  2-O ) :   0.9053 B(  1-C , 22-H ) :   0.9147
B(  1-C , 23-H ) :   0.9315 B(  2-O ,  3-P ) :   1.0906 B(  3-P ,  4-S ) :   1.5999
B(  3-P ,  5-O ) :   1.1305 B(  3-P ,  8-S ) :   0.9615 B(  4-S ,  8-S ) :   0.1185
B(  4-S , 29-H ) :   0.1101 B(  5-O ,  6-C ) :   0.9087 B(  6-C ,  7-C ) :   1.1653
B(  6-C , 24-H ) :   0.9350 B(  6-C , 25-H ) :   0.9289 B(  7-C , 26-H ) :   0.9363
B(  7-C , 27-H ) :   0.9369 B(  7-C , 28-H ) :   0.9452 B(  8-S ,  9-C ) :   1.0234
B(  9-C , 10-S ) :   0.9892 B(  9-C , 29-H ) :   0.8561 B(  9-C , 30-H ) :   0.9031
B( 10-S , 11-P ) :   0.9651 B( 10-S , 12-S ) :   0.1065 B( 11-P , 12-S ) :   1.6079
B( 11-P , 13-O ) :   1.1049 B( 11-P , 16-O ) :   1.1119 B( 13-O , 14-C ) :   0.9110
B( 14-C , 15-C ) :   1.1636 B( 14-C , 31-H ) :   0.9129 B( 14-C , 32-H ) :   0.9324
B( 15-C , 33-H ) :   0.9317 B( 15-C , 34-H ) :   0.9381 B( 15-C , 35-H ) :   0.9433
B( 16-O , 17-C ) :   0.8990 B( 17-C , 18-C ) :   1.1654 B( 17-C , 36-H ) :   0.9155
B( 17-C , 37-H ) :   0.9340 B( 18-C , 38-H ) :   0.9353 B( 18-C , 39-H ) :   0.9389
B( 18-C , 40-H ) :   0.9458

Dispersion correction           -0.065329946
FINAL SINGLE POINT ENERGY     -2929.520626169668

DIPOLE MOMENT
-------------

Method             : SCF
Type of density    : Electron Density
Multiplicity       :   1
Irrep              :   0
Energy             : -2929.6403265084800296 Eh
Relativity type    :
Basis              : AO
                                X                 Y                 Z
Electronic contribution:      0.227082206      -4.557680293       7.858309035
Nuclear contribution   :     -0.472558111       4.407084451      -8.372667737
                        -----------------------------------------
Total Dipole Moment    :     -0.245475906      -0.150595842      -0.514358702
                        -----------------------------------------
Magnitude (a.u.)       :      0.589493344
Magnitude (Debye)      :      1.498373002

Rotational constants in cm-1:             0.014073             0.004504             0.004143
Rotational constants in MHz :           421.893059           135.014308           124.206913

                             ****ORCA TERMINATED NORMALLY****
TOTAL RUN TIME: 0 days 0 hours 0 minutes 20 seconds 863 msec
