                         Program Version 6.0.0  -   RELEASE  -
|  1> ! pbe def2-sv(p) def2/J RI DEFGRID1 loosescf d4 GCP(DFT/SV(P)) printgap
|  2> %output
|  3>     printlevel normal
|  4> end
|  5> * xyz 0 1
|  6> C 4.1402349263 -0.9476805234 -2.6279205445
|  7> C 4.507988221 -1.4376039192 -1.2422502744
|  8> O 3.3489782729 -1.6531677532 -0.418095036
|  9> P 2.4240854046 -0.4624486015 0.0795743994
| 10> S 3.369350487 1.1808672655 0.5951975386
| 11> O 1.5743335431 -1.1624263777 1.2181311637
| 12> C 1.9665396502 -1.1229712 2.604751701
| 13> C 3.2117204428 -1.9465427792 2.8575415068
| 14> S 0.9325363405 -0.2854343686 -1.4078058012
| 15> C 0.2827837471 1.3066670586 -0.8372398728
| 16> S -0.6694943211 1.1862556104 0.7060675328
| 17> P -2.5249458444 0.6120623145 -0.1206775647
| 18> S -2.7065342383 0.6320597488 -2.0769390288
| 19> O -3.4239527344 1.6378678002 0.6776949001
| 20> C -4.8534886765 1.6947133223 0.4590948335
| 21> C -5.34271722 3.0465874049 0.9354881147
| 22> O -2.9729912522 -0.7664795091 0.5451257844
| 23> C -2.7103497837 -2.0564704353 -0.0328495191
| 24> C -1.480012018 -2.69114841 0.5835950395
| 25> H 3.7150555548 0.0535555309 -2.568684968
| 26> H 5.0312941387 -0.9148231971 -3.246662149
| 27> H 3.4080069918 -1.6106895077 -3.081936923
| 28> H 5.1591733929 -0.7145276391 -0.740609134
| 29> H 4.9913621913 -2.4148528268 -1.2748417754
| 30> H 2.1245089102 -0.0778823364 2.8898389438
| 31> H 1.1000278252 -1.5213052654 3.1337992583
| 32> H 3.4144522841 -1.976285386 3.9234974051
| 33> H 3.0743908813 -2.9580100828 2.4845583955
| 34> H 4.0625058034 -1.4956068241 2.348101634
| 35> H -0.3572661267 1.6844943369 -1.6337331861
| 36> H 1.1146027371 1.9818644979 -0.6364345377
| 37> H -5.048809118 1.5503305196 -0.6091340547
| 38> H -5.3134874548 0.8790284004 1.021709129
| 39> H -4.8696095555 3.8382930515 0.3614706212
| 40> H -6.4186365524 3.1026670485 0.8058784603
| 41> H -5.0968400373 3.1797461729 1.9849250231
| 42> H -3.6054329567 -2.6430789112 0.1831712411
| 43> H -2.6009308051 -1.9432225554 -1.1170158397
| 44> H -1.3562384577 -3.6917776312 0.1823208641
| 45> H -0.5897665859 -2.1093920191 0.3546897464
| 46> H -1.5921973972 -2.746842371 1.6630620963
| 47> *
| 48>
| 49>                          ****END OF INPUT****

CARTESIAN COORDINATES (ANGSTROEM)
---------------------------------
  C      4.140235   -0.947681   -2.627921
  C      4.507988   -1.437604   -1.242250
  O      3.348978   -1.653168   -0.418095
  P      2.424085   -0.462449    0.079574
  S      3.369350    1.180867    0.595198
  O      1.574334   -1.162426    1.218131
  C      1.966540   -1.122971    2.604752
  C      3.211720   -1.946543    2.857542
  S      0.932536   -0.285434   -1.407806
  C      0.282784    1.306667   -0.837240
  S     -0.669494    1.186256    0.706068
  P     -2.524946    0.612062   -0.120678
  S     -2.706534    0.632060   -2.076939
  O     -3.423953    1.637868    0.677695
  C     -4.853489    1.694713    0.459095
  C     -5.342717    3.046587    0.935488
  O     -2.972991   -0.766480    0.545126
  C     -2.710350   -2.056470   -0.032850
  C     -1.480012   -2.691148    0.583595
  H      3.715056    0.053556   -2.568685
  H      5.031294   -0.914823   -3.246662
  H      3.408007   -1.610690   -3.081937
  H      5.159173   -0.714528   -0.740609
  H      4.991362   -2.414853   -1.274842
  H      2.124509   -0.077882    2.889839
  H      1.100028   -1.521305    3.133799
  H      3.414452   -1.976285    3.923497
  H      3.074391   -2.958010    2.484558
  H      4.062506   -1.495607    2.348102
  H     -0.357266    1.684494   -1.633733
  H      1.114603    1.981864   -0.636435
  H     -5.048809    1.550331   -0.609134
  H     -5.313487    0.879028    1.021709
  H     -4.869610    3.838293    0.361471
  H     -6.418637    3.102667    0.805878
  H     -5.096840    3.179746    1.984925
  H     -3.605433   -2.643079    0.183171
  H     -2.600931   -1.943223   -1.117016
  H     -1.356238   -3.691778    0.182321
  H     -0.589767   -2.109392    0.354690
  H     -1.592197   -2.746842    1.663062

 Total Charge           Charge          ....    0
 Multiplicity           Mult            ....    1
 Number of Electrons    NEL             ....  202
 Basis Dimension        Dim             ....  334

ORBITAL ENERGIES
----------------

  NO   OCC          E(Eh)            E(eV)
   0   2.0000     -88.043774     -2395.7929
   1   2.0000     -88.041062     -2395.7191
   2   2.0000     -87.992988     -2394.4109
   3   2.0000     -87.989199     -2394.3078
   4   2.0000     -76.429360     -2079.7486
   5   2.0000     -76.424610     -2079.6194
   6   2.0000     -18.797960      -511.5185
   7   2.0000     -18.793087      -511.3859
   8   2.0000     -18.790218      -511.3078
   9   2.0000     -18.788832      -511.2701
  10   2.0000      -9.956104      -270.9194
  11   2.0000      -9.952368      -270.8177
  12   2.0000      -9.952092      -270.8102
  13   2.0000      -9.951772      -270.8015
  14   2.0000      -9.946160      -270.6488
  15   2.0000      -9.886654      -269.0295
  16   2.0000      -9.886191      -269.0169
  17   2.0000      -9.885608      -269.0011
  18   2.0000      -9.875322      -268.7212
  19   2.0000      -7.688662      -209.2191
  20   2.0000      -7.686427      -209.1583
  21   2.0000      -7.637853      -207.8366
  22   2.0000      -7.634186      -207.7368
  23   2.0000      -6.427067      -174.8894
  24   2.0000      -6.422696      -174.7705
  25   2.0000      -5.716452      -155.5526
  26   2.0000      -5.714314      -155.4944
  27   2.0000      -5.713325      -155.4675
  28   2.0000      -5.711040      -155.4053
  29   2.0000      -5.705580      -155.2567
  30   2.0000      -5.703220      -155.1925
  31   2.0000      -5.666567      -154.1951
  32   2.0000      -5.662928      -154.0961
  33   2.0000      -5.658528      -153.9764
  34   2.0000      -5.658203      -153.9675
  35   2.0000      -5.654943      -153.8788
  36   2.0000      -5.654378      -153.8635
  37   2.0000      -4.649486      -126.5190
  38   2.0000      -4.648783      -126.4998
  39   2.0000      -4.647663      -126.4693
  40   2.0000      -4.645055      -126.3984
  41   2.0000      -4.644326      -126.3785
  42   2.0000      -4.643391      -126.3531
  43   2.0000      -0.990986       -26.9661
  44   2.0000      -0.985068       -26.8051
  45   2.0000      -0.950181       -25.8557
  46   2.0000      -0.941651       -25.6236
  47   2.0000      -0.764119       -20.7927
  48   2.0000      -0.723919       -19.6988
  49   2.0000      -0.708940       -19.2912
  50   2.0000      -0.689533       -18.7631
  51   2.0000      -0.683972       -18.6118
  52   2.0000      -0.675247       -18.3744
  53   2.0000      -0.651384       -17.7251
  54   2.0000      -0.639332       -17.3971
  55   2.0000      -0.605886       -16.4870
  56   2.0000      -0.591228       -16.0881
  57   2.0000      -0.575150       -15.6506
  58   2.0000      -0.568757       -15.4767
  59   2.0000      -0.555217       -15.1082
  60   2.0000      -0.504069       -13.7164
  61   2.0000      -0.495100       -13.4724
  62   2.0000      -0.476597       -12.9689
  63   2.0000      -0.475505       -12.9392
  64   2.0000      -0.457920       -12.4606
  65   2.0000      -0.443043       -12.0558
  66   2.0000      -0.441174       -12.0049
  67   2.0000      -0.438406       -11.9296
  68   2.0000      -0.426110       -11.5951
  69   2.0000      -0.418503       -11.3881
  70   2.0000      -0.405150       -11.0247
  71   2.0000      -0.395868       -10.7721
  72   2.0000      -0.391965       -10.6659
  73   2.0000      -0.386501       -10.5172
  74   2.0000      -0.385119       -10.4796
  75   2.0000      -0.375986       -10.2311
  76   2.0000      -0.363846        -9.9007
  77   2.0000      -0.357017        -9.7149
  78   2.0000      -0.356109        -9.6902
  79   2.0000      -0.351532        -9.5657
  80   2.0000      -0.350063        -9.5257
  81   2.0000      -0.345971        -9.4143
  82   2.0000      -0.341931        -9.3044
  83   2.0000      -0.335940        -9.1414
  84   2.0000      -0.331366        -9.0169
  85   2.0000      -0.321774        -8.7559
  86   2.0000      -0.310151        -8.4396
  87   2.0000      -0.299323        -8.1450
  88   2.0000      -0.294611        -8.0168
  89   2.0000      -0.290359        -7.9011
  90   2.0000      -0.284800        -7.7498
  91   2.0000      -0.277111        -7.5406
  92   2.0000      -0.272114        -7.4046
  93   2.0000      -0.267803        -7.2873
  94   2.0000      -0.260319        -7.0836
  95   2.0000      -0.232797        -6.3347
  96   2.0000      -0.218838        -5.9549
  97   2.0000      -0.216067        -5.8795
  98   2.0000      -0.207683        -5.6514
  99   2.0000      -0.205208        -5.5840
 100   2.0000      -0.204191        -5.5563
 101   0.0000      -0.044572        -1.2129
 102   0.0000      -0.028261        -0.7690
 103   0.0000      -0.003589        -0.0977
 104   0.0000       0.002143         0.0583
 105   0.0000       0.014359         0.3907

MULLIKEN ATOMIC CHARGES
-----------------------
   0 C :   -0.316825
   1 C :   -0.005854
   2 O :   -0.370677
   3 P :    0.611401
   4 S :   -0.334576
   5 O :   -0.354724
   6 C :   -0.001305
   7 C :   -0.307884
   8 S :   -0.068628
   9 C :   -0.372557
  10 S :   -0.072188
  11 P :    0.624858
  12 S :   -0.336463
  13 O :   -0.372292
  14 C :   -0.010545
  15 C :   -0.277240
  16 O :   -0.380484
  17 C :   -0.007291
  18 C :   -0.324025
  19 H :    0.128388
  20 H :    0.114959
  21 H :    0.120573
  22 H :    0.112223
  23 H :    0.107268
  24 H :    0.113220
  25 H :    0.107310
  26 H :    0.113201
  27 H :    0.117560
  28 H :    0.121571
  29 H :    0.197114
  30 H :    0.194163
  31 H :    0.105350
  32 H :    0.103994
  33 H :    0.121332
  34 H :    0.110633
  35 H :    0.118179
  36 H :    0.099018
  37 H :    0.106958
  38 H :    0.104281
  39 H :    0.154055
  40 H :    0.105946
Sum of atomic charges:   -0.0000000

LOEWDIN ATOMIC CHARGES
----------------------
   0 C :   -0.369388
   1 C :   -0.118533
   2 O :   -0.242041
   3 P :    0.573751
   4 S :   -0.321759
   5 O :   -0.232396
   6 C :   -0.116616
   7 C :   -0.364356
   8 S :    0.102583
   9 C :   -0.486783
  10 S :    0.094230
  11 P :    0.568808
  12 S :   -0.316376
  13 O :   -0.247003
  14 C :   -0.116007
  15 C :   -0.349943
  16 O :   -0.249493
  17 C :   -0.120070
  18 C :   -0.368062
  19 H :    0.121944
  20 H :    0.132115
  21 H :    0.125521
  22 H :    0.111260
  23 H :    0.119699
  24 H :    0.111339
  25 H :    0.119444
  26 H :    0.130851
  27 H :    0.126775
  28 H :    0.122180
  29 H :    0.129657
  30 H :    0.128828
  31 H :    0.108987
  32 H :    0.113061
  33 H :    0.129737
  34 H :    0.130309
  35 H :    0.127928
  36 H :    0.114885
  37 H :    0.105904
  38 H :    0.127968
  39 H :    0.119565
  40 H :    0.121499

  Mayer bond orders larger than 0.100000
B(  0-C ,  1-C ) :   1.1663 B(  0-C , 19-H ) :   0.9351 B(  0-C , 20-H ) :   0.9375
B(  0-C , 21-H ) :   0.9443 B(  1-C ,  2-O ) :   0.9061 B(  1-C , 22-H ) :   0.9169
B(  1-C , 23-H ) :   0.9337 B(  2-O ,  3-P ) :   1.1123 B(  3-P ,  4-S ) :   1.5871
B(  3-P ,  5-O ) :   1.1251 B(  3-P ,  8-S ) :   0.9617 B(  4-S ,  8-S ) :   0.1081
B(  5-O ,  6-C ) :   0.9031 B(  6-C ,  7-C ) :   1.1629 B(  6-C , 24-H ) :   0.9170
B(  6-C , 25-H ) :   0.9334 B(  7-C , 26-H ) :   0.9393 B(  7-C , 27-H ) :   0.9461
B(  7-C , 28-H ) :   0.9371 B(  8-S ,  9-C ) :   1.0013 B(  9-C , 10-S ) :   1.0094
B(  9-C , 29-H ) :   0.8706 B(  9-C , 30-H ) :   0.8724 B( 10-S , 11-P ) :   0.9647
B( 10-S , 12-S ) :   0.1152 B( 11-P , 12-S ) :   1.6161 B( 11-P , 13-O ) :   1.1362
B( 11-P , 16-O ) :   1.0977 B( 13-O , 14-C ) :   0.8987 B( 14-C , 15-C ) :   1.1630
B( 14-C , 31-H ) :   0.9114 B( 14-C , 32-H ) :   0.9309 B( 15-C , 33-H ) :   0.9506
B( 15-C , 34-H ) :   0.9416 B( 15-C , 35-H ) :   0.9503 B( 16-O , 17-C ) :   0.9106
B( 17-C , 18-C ) :   1.1631 B( 17-C , 36-H ) :   0.9346 B( 17-C , 37-H ) :   0.9052
B( 18-C , 38-H ) :   0.9393 B( 18-C , 39-H ) :   0.9224 B( 18-C , 40-H ) :   0.9464

Dispersion correction           -0.063501772
FINAL SINGLE POINT ENERGY     -2929.527765623053

DIPOLE MOMENT
-------------

Method             : SCF
Type of density    : Electron Density
Multiplicity       :   1
Irrep              :   0
Energy             : -2929.6484011757743247 Eh
Relativity type    :
Basis              : AO
                                X                 Y                 Z
Electronic contribution:     -0.435664932       9.185639525      -5.630166782
Nuclear contribution   :      0.366256417     -10.137163829       6.160430899
                        -----------------------------------------
Total Dipole Moment    :     -0.069408515      -0.951524304       0.530264117
                        -----------------------------------------
Magnitude (a.u.)       :      1.091510914
Magnitude (Debye)      :      2.774400259

Rotational constants in cm-1:             0.013736             0.004226             0.004104
Rotational constants in MHz :           411.796215           126.678039           123.022327

                             ****ORCA TERMINATED NORMALLY****
TOTAL RUN TIME: 0 days 0 hours 0 minutes 20 seconds 843 msec
