                         Program Version 6.0.0  -   RELEASE  -
|  1> ! pbe def2-sv(p) def2/J RI DEFGRID1 loosescf d4 GCP(DFT/SV(P)) printgap
|  2> %output
|  3>     printlevel normal
|  4> end
|  5> * xyz 0 1
|  6> C 3.0978929202 1.5087908221 -1.6766810041
|  7> C 1.8521810934 1.8145066463 -0.8756194374
|  8> O 1.9167073643 1.3304757255 0.4873463291
|  9> P 2.2129307452 -0.1412525095 0.9717158396
| 10> S 1.7849801316 -0.3662942715 2.866345497
| 11> O 3.750091023 -0.330563704 0.6159824774
| 12> C 4.5708307145 -1.3277140258 1.248155595
| 13> C 4.1613699713 -2.7363902832 0.8690681754
| 14> S 1.1921395004 -1.4309834864 -0.39020613
| 15> C -0.3335655647 -1.5763483519 0.579238752
| 16> S -1.1499514607 0.0114421262 0.894839588
| 17> P -2.1918099429 0.1569087446 -0.9708717359
| 18> S -1.1341541444 0.1197394697 -2.6126037764
| 19> O -3.0893024318 1.4540496648 -0.7792825365
| 20> C -2.5988952933 2.7759721481 -1.066714177
| 21> C -1.8262666446 3.35365987 0.102595188
| 22> O -3.2304023042 -1.028249654 -0.9219222401
| 23> C -4.2342590645 -1.1866260248 0.1128422712
| 24> C -5.5452219932 -0.5530705636 -0.3044945776
| 25> H 3.9804803939 1.8757472657 -1.159442707
| 26> H 3.1942141521 0.4354305719 -1.8271360899
| 27> H 3.0164223758 1.9912665579 -2.6458979917
| 28> H 0.9722317719 1.3790566815 -1.3604288202
| 29> H 1.7086249254 2.8888593294 -0.7493445223
| 30> H 5.5777242189 -1.0935998871 0.8998658365
| 31> H 4.5092457607 -1.1889387391 2.3321439565
| 32> H 4.8877944421 -3.4391705543 1.264261354
| 33> H 3.1841430527 -2.9656394858 1.291176135
| 34> H 4.1101177096 -2.8393107067 -0.2120202946
| 35> H -0.0954975902 -1.9878559887 1.559544153
| 36> H -0.9960992777 -2.2329585267 0.0189404175
| 37> H -1.9782496812 2.7293171064 -1.9678087231
| 38> H -3.4993955727 3.3573528193 -1.2709408754
| 39> H -0.9215052166 2.7776690104 0.2891360367
| 40> H -1.5509577031 4.3787243132 -0.1236706805
| 41> H -2.4364050926 3.3362041685 1.001773828
| 42> H -4.3359175983 -2.2675249021 0.2270263989
| 43> H -3.8594719016 -0.7476743099 1.0414998842
| 44> H -5.4312191394 0.5228168353 -0.4031006063
| 45> H -5.8685116603 -0.9611024033 -1.2582775883
| 46> H -6.2964407858 -0.7662006924 0.4497063421
| 47> *
| 48>
| 49>                          ****END OF INPUT****

CARTESIAN COORDINATES (ANGSTROEM)
---------------------------------
  C      3.097893    1.508791   -1.676681
  C      1.852181    1.814507   -0.875619
  O      1.916707    1.330476    0.487346
  P      2.212931   -0.141253    0.971716
  S      1.784980   -0.366294    2.866345
  O      3.750091   -0.330564    0.615982
  C      4.570831   -1.327714    1.248156
  C      4.161370   -2.736390    0.869068
  S      1.192140   -1.430983   -0.390206
  C     -0.333566   -1.576348    0.579239
  S     -1.149951    0.011442    0.894840
  P     -2.191810    0.156909   -0.970872
  S     -1.134154    0.119739   -2.612604
  O     -3.089302    1.454050   -0.779283
  C     -2.598895    2.775972   -1.066714
  C     -1.826267    3.353660    0.102595
  O     -3.230402   -1.028250   -0.921922
  C     -4.234259   -1.186626    0.112842
  C     -5.545222   -0.553071   -0.304495
  H      3.980480    1.875747   -1.159443
  H      3.194214    0.435431   -1.827136
  H      3.016422    1.991267   -2.645898
  H      0.972232    1.379057   -1.360429
  H      1.708625    2.888859   -0.749345
  H      5.577724   -1.093600    0.899866
  H      4.509246   -1.188939    2.332144
  H      4.887794   -3.439171    1.264261
  H      3.184143   -2.965639    1.291176
  H      4.110118   -2.839311   -0.212020
  H     -0.095498   -1.987856    1.559544
  H     -0.996099   -2.232959    0.018940
  H     -1.978250    2.729317   -1.967809
  H     -3.499396    3.357353   -1.270941
  H     -0.921505    2.777669    0.289136
  H     -1.550958    4.378724   -0.123671
  H     -2.436405    3.336204    1.001774
  H     -4.335918   -2.267525    0.227026
  H     -3.859472   -0.747674    1.041500
  H     -5.431219    0.522817   -0.403101
  H     -5.868512   -0.961102   -1.258278
  H     -6.296441   -0.766201    0.449706

 Total Charge           Charge          ....    0
 Multiplicity           Mult            ....    1
 Number of Electrons    NEL             ....  202
 Basis Dimension        Dim             ....  334

ORBITAL ENERGIES
----------------

  NO   OCC          E(Eh)            E(eV)
   0   2.0000     -88.044509     -2395.8129
   1   2.0000     -88.039513     -2395.6769
   2   2.0000     -87.988375     -2394.2854
   3   2.0000     -87.982439     -2394.1239
   4   2.0000     -76.429032     -2079.7397
   5   2.0000     -76.423954     -2079.6015
   6   2.0000     -18.799858      -511.5701
   7   2.0000     -18.798190      -511.5247
   8   2.0000     -18.790653      -511.3197
   9   2.0000     -18.785092      -511.1684
  10   2.0000      -9.960089      -271.0278
  11   2.0000      -9.957782      -270.9650
  12   2.0000      -9.957532      -270.9582
  13   2.0000      -9.950897      -270.7777
  14   2.0000      -9.945019      -270.6177
  15   2.0000      -9.889347      -269.1028
  16   2.0000      -9.888782      -269.0874
  17   2.0000      -9.882368      -268.9129
  18   2.0000      -9.880484      -268.8616
  19   2.0000      -7.688591      -209.2172
  20   2.0000      -7.684175      -209.0970
  21   2.0000      -7.633343      -207.7138
  22   2.0000      -7.627750      -207.5616
  23   2.0000      -6.426682      -174.8789
  24   2.0000      -6.421025      -174.7250
  25   2.0000      -5.716297      -155.5483
  26   2.0000      -5.713221      -155.4646
  27   2.0000      -5.711953      -155.4301
  28   2.0000      -5.708840      -155.3454
  29   2.0000      -5.705763      -155.2617
  30   2.0000      -5.701146      -155.1361
  31   2.0000      -5.662268      -154.0781
  32   2.0000      -5.656675      -153.9260
  33   2.0000      -5.653975      -153.8525
  34   2.0000      -5.653465      -153.8386
  35   2.0000      -5.648282      -153.6976
  36   2.0000      -5.647945      -153.6884
  37   2.0000      -4.649800      -126.5275
  38   2.0000      -4.648427      -126.4901
  39   2.0000      -4.646619      -126.4409
  40   2.0000      -4.643782      -126.3637
  41   2.0000      -4.642854      -126.3385
  42   2.0000      -4.641362      -126.2979
  43   2.0000      -0.993946       -27.0467
  44   2.0000      -0.982714       -26.7410
  45   2.0000      -0.952313       -25.9138
  46   2.0000      -0.940878       -25.6026
  47   2.0000      -0.763354       -20.7719
  48   2.0000      -0.721975       -19.6459
  49   2.0000      -0.709346       -19.3023
  50   2.0000      -0.695291       -18.9198
  51   2.0000      -0.686480       -18.6801
  52   2.0000      -0.674764       -18.3613
  53   2.0000      -0.651393       -17.7253
  54   2.0000      -0.638466       -17.3735
  55   2.0000      -0.598971       -16.2988
  56   2.0000      -0.593161       -16.1407
  57   2.0000      -0.580411       -15.7938
  58   2.0000      -0.571187       -15.5428
  59   2.0000      -0.561516       -15.2796
  60   2.0000      -0.507264       -13.8033
  61   2.0000      -0.488739       -13.2993
  62   2.0000      -0.483691       -13.1619
  63   2.0000      -0.467513       -12.7217
  64   2.0000      -0.459967       -12.5163
  65   2.0000      -0.450595       -12.2613
  66   2.0000      -0.440582       -11.9889
  67   2.0000      -0.435503       -11.8506
  68   2.0000      -0.432702       -11.7744
  69   2.0000      -0.419323       -11.4103
  70   2.0000      -0.410288       -11.1645
  71   2.0000      -0.397379       -10.8132
  72   2.0000      -0.391539       -10.6543
  73   2.0000      -0.385295       -10.4844
  74   2.0000      -0.379431       -10.3248
  75   2.0000      -0.375167       -10.2088
  76   2.0000      -0.365351        -9.9417
  77   2.0000      -0.362914        -9.8754
  78   2.0000      -0.357804        -9.7363
  79   2.0000      -0.356147        -9.6913
  80   2.0000      -0.352426        -9.5900
  81   2.0000      -0.346498        -9.4287
  82   2.0000      -0.343356        -9.3432
  83   2.0000      -0.338402        -9.2084
  84   2.0000      -0.333325        -9.0702
  85   2.0000      -0.322931        -8.7874
  86   2.0000      -0.310367        -8.4455
  87   2.0000      -0.300728        -8.1832
  88   2.0000      -0.295680        -8.0459
  89   2.0000      -0.290584        -7.9072
  90   2.0000      -0.288011        -7.8372
  91   2.0000      -0.277159        -7.5419
  92   2.0000      -0.270672        -7.3654
  93   2.0000      -0.260256        -7.0819
  94   2.0000      -0.259500        -7.0614
  95   2.0000      -0.241996        -6.5851
  96   2.0000      -0.216482        -5.8908
  97   2.0000      -0.210259        -5.7214
  98   2.0000      -0.202989        -5.5236
  99   2.0000      -0.200366        -5.4522
 100   2.0000      -0.191857        -5.2207
 101   0.0000      -0.042444        -1.1550
 102   0.0000      -0.028527        -0.7763
 103   0.0000      -0.006059        -0.1649
 104   0.0000       0.002230         0.0607
 105   0.0000       0.015579         0.4239

MULLIKEN ATOMIC CHARGES
-----------------------
   0 C :   -0.289048
   1 C :   -0.037473
   2 O :   -0.359695
   3 P :    0.601265
   4 S :   -0.325662
   5 O :   -0.373275
   6 C :   -0.002191
   7 C :   -0.314043
   8 S :   -0.082096
   9 C :   -0.348402
  10 S :   -0.077483
  11 P :    0.593525
  12 S :   -0.297639
  13 O :   -0.379562
  14 C :   -0.007097
  15 C :   -0.336998
  16 O :   -0.362653
  17 C :   -0.013842
  18 C :   -0.291724
  19 H :    0.116965
  20 H :    0.117098
  21 H :    0.112521
  22 H :    0.127443
  23 H :    0.102977
  24 H :    0.104504
  25 H :    0.113787
  26 H :    0.112375
  27 H :    0.124224
  28 H :    0.117189
  29 H :    0.194041
  30 H :    0.183411
  31 H :    0.108408
  32 H :    0.107315
  33 H :    0.157830
  34 H :    0.115038
  35 H :    0.118616
  36 H :    0.108682
  37 H :    0.105256
  38 H :    0.124368
  39 H :    0.120717
  40 H :    0.111325
Sum of atomic charges:   -0.0000000

LOEWDIN ATOMIC CHARGES
----------------------
   0 C :   -0.362853
   1 C :   -0.125410
   2 O :   -0.234349
   3 P :    0.571728
   4 S :   -0.320661
   5 O :   -0.241630
   6 C :   -0.117997
   7 C :   -0.370358
   8 S :    0.083353
   9 C :   -0.480427
  10 S :    0.090312
  11 P :    0.564527
  12 S :   -0.298500
  13 O :   -0.245028
  14 C :   -0.119118
  15 C :   -0.369241
  16 O :   -0.239222
  17 C :   -0.116458
  18 C :   -0.359402
  19 H :    0.125682
  20 H :    0.118918
  21 H :    0.131784
  22 H :    0.100764
  23 H :    0.117653
  24 H :    0.118499
  25 H :    0.112321
  26 H :    0.130623
  27 H :    0.120099
  28 H :    0.123683
  29 H :    0.131800
  30 H :    0.133108
  31 H :    0.108500
  32 H :    0.119310
  33 H :    0.125999
  34 H :    0.132519
  35 H :    0.127559
  36 H :    0.120225
  37 H :    0.105166
  38 H :    0.126841
  39 H :    0.129159
  40 H :    0.130524

  Mayer bond orders larger than 0.100000
B(  0-C ,  1-C ) :   1.1777 B(  0-C , 19-H ) :   0.9444 B(  0-C , 20-H ) :   0.9382
B(  0-C , 21-H ) :   0.9358 B(  1-C ,  2-O ) :   0.8850 B(  1-C , 22-H ) :   0.8906
B(  1-C , 23-H ) :   0.9312 B(  2-O ,  3-P ) :   1.1509 B(  3-P ,  4-S ) :   1.6048
B(  3-P ,  5-O ) :   1.0938 B(  3-P ,  8-S ) :   0.9452 B(  4-S ,  8-S ) :   0.1086
B(  5-O ,  6-C ) :   0.9072 B(  6-C ,  7-C ) :   1.1655 B(  6-C , 24-H ) :   0.9340
B(  6-C , 25-H ) :   0.9161 B(  7-C , 26-H ) :   0.9375 B(  7-C , 27-H ) :   0.9348
B(  7-C , 28-H ) :   0.9447 B(  8-S ,  9-C ) :   1.0062 B(  9-C , 10-S ) :   0.9923
B(  9-C , 29-H ) :   0.8841 B(  9-C , 30-H ) :   0.8956 B( 10-S , 11-P ) :   0.9561
B( 10-S , 12-S ) :   0.1109 B( 11-P , 12-S ) :   1.6533 B( 11-P , 13-O ) :   1.0803
B( 11-P , 16-O ) :   1.1207 B( 13-O , 14-C ) :   0.9055 B( 14-C , 15-C ) :   1.1643
B( 14-C , 31-H ) :   0.9087 B( 14-C , 32-H ) :   0.9330 B( 15-C , 33-H ) :   0.9271
B( 15-C , 34-H ) :   0.9387 B( 15-C , 35-H ) :   0.9455 B( 16-O , 17-C ) :   0.8906
B( 17-C , 18-C ) :   1.1683 B( 17-C , 36-H ) :   0.9355 B( 17-C , 37-H ) :   0.9085
B( 18-C , 38-H ) :   0.9414 B( 18-C , 39-H ) :   0.9471 B( 18-C , 40-H ) :   0.9393

Dispersion correction           -0.066340703
FINAL SINGLE POINT ENERGY     -2929.520763435217

DIPOLE MOMENT
-------------

Method             : SCF
Type of density    : Electron Density
Multiplicity       :   1
Irrep              :   0
Energy             : -2929.6398933678310641 Eh
Relativity type    :
Basis              : AO
                                X                 Y                 Z
Electronic contribution:      1.513262388      -4.767570386       2.347353992
Nuclear contribution   :     -2.045662448       4.917400839      -2.473617852
                        -----------------------------------------
Total Dipole Moment    :     -0.532400059       0.149830453      -0.126263860
                        -----------------------------------------
Magnitude (a.u.)       :      0.567310805
Magnitude (Debye)      :      1.441989470

Rotational constants in cm-1:             0.013376             0.004858             0.004526
Rotational constants in MHz :           401.002402           145.634379           135.678904

                             ****ORCA TERMINATED NORMALLY****
TOTAL RUN TIME: 0 days 0 hours 0 minutes 21 seconds 72 msec
