                         Program Version 6.0.1  -  RELEASE   -
|  1> ! pbe def2-sv(p) def2/J RI DEFGRID1 loosescf d4 GCP(DFT/SV(P)) printgap
|  2> %output
|  3>     printlevel normal
|  4> end
|  5> * xyz 0 1
|  6> C 4.1736060466 -2.6741966238 1.1208795601
|  7> C 4.3697858237 -2.1193259122 -0.2806647135
|  8> O 3.1023669348 -1.9857393867 -0.9552742628
|  9> C 2.4110831201 -0.8831120897 -0.78241109
| 10> O 2.7916880169 0.0822849318 -0.1480312959
| 11> C 1.0610222659 -0.9566947498 -1.4533943164
| 12> C 0.4086561088 0.4207079164 -1.5014013759
| 13> H 0.7012504453 0.9825744792 -2.3894209185
| 14> C 0.7062356481 1.255442904 -0.2684882902
| 15> O 0.281837643 0.952299823 0.8318385186
| 16> O 1.3092859175 2.3764556086 -0.564256561
| 17> C 1.6086550556 3.2917778605 0.510994327
| 18> C 0.3796426974 4.0919547469 0.9117343077
| 19> S -1.4068923919 0.3048884548 -1.5515338202
| 20> P -1.9119789852 -0.3323103036 0.4299812523
| 21> S -0.9437859703 -1.7919682484 1.314336885
| 22> O -2.2491162752 0.9370870968 1.317593505
| 23> C -3.2419907161 1.9027043797 0.9203425071
| 24> O -3.4207730921 -0.7840141116 0.0947595303
| 25> C -3.7051900061 -1.9948841433 -0.6097882762
| 26> H 3.656515897 -3.6287375961 1.0772156772
| 27> H 5.1399356 -2.8084376607 1.5953570375
| 28> H 3.5786197453 -1.9845103712 1.7169712948
| 29> H 4.9389076997 -2.8069415002 -0.9059452768
| 30> H 4.8529033809 -1.1387251306 -0.2473051413
| 31> H 0.4665062237 -1.6423957559 -0.8368175382
| 32> H 1.1498398211 -1.3927281412 -2.4470935635
| 33> H 1.9934769664 2.71184232 1.3542532322
| 34> H 2.3905206126 3.9307013744 0.101414426
| 35> H -0.0323509903 4.6042077224 0.0465428478
| 36> H -0.3749881301 3.4293335319 1.3303985733
| 37> H 0.6599981235 4.8227258465 1.6629614765
| 38> H -3.0500206141 2.2452690338 -0.0971521729
| 39> H -3.1414645474 2.7209747512 1.6292845858
| 40> H -4.2332353595 1.4575427031 0.9803833684
| 41> H -4.7638887801 -2.1844017802 -0.4526720984
| 42> H -3.1073879451 -2.8126171132 -0.2032772332
| 43> H -3.4906503364 -1.8648672865 -1.6700393881
| 44> *
| 45>
| 46>                          ****END OF INPUT****

CARTESIAN COORDINATES (ANGSTROEM)
---------------------------------
  C      4.173606   -2.674197    1.120880
  C      4.369786   -2.119326   -0.280665
  O      3.102367   -1.985739   -0.955274
  C      2.411083   -0.883112   -0.782411
  O      2.791688    0.082285   -0.148031
  C      1.061022   -0.956695   -1.453394
  C      0.408656    0.420708   -1.501401
  H      0.701250    0.982574   -2.389421
  C      0.706236    1.255443   -0.268488
  O      0.281838    0.952300    0.831839
  O      1.309286    2.376456   -0.564257
  C      1.608655    3.291778    0.510994
  C      0.379643    4.091955    0.911734
  S     -1.406892    0.304888   -1.551534
  P     -1.911979   -0.332310    0.429981
  S     -0.943786   -1.791968    1.314337
  O     -2.249116    0.937087    1.317594
  C     -3.241991    1.902704    0.920343
  O     -3.420773   -0.784014    0.094760
  C     -3.705190   -1.994884   -0.609788
  H      3.656516   -3.628738    1.077216
  H      5.139936   -2.808438    1.595357
  H      3.578620   -1.984510    1.716971
  H      4.938908   -2.806942   -0.905945
  H      4.852903   -1.138725   -0.247305
  H      0.466506   -1.642396   -0.836818
  H      1.149840   -1.392728   -2.447094
  H      1.993477    2.711842    1.354253
  H      2.390521    3.930701    0.101414
  H     -0.032351    4.604208    0.046543
  H     -0.374988    3.429334    1.330399
  H      0.659998    4.822726    1.662961
  H     -3.050021    2.245269   -0.097152
  H     -3.141465    2.720975    1.629285
  H     -4.233235    1.457543    0.980383
  H     -4.763889   -2.184402   -0.452672
  H     -3.107388   -2.812617   -0.203277
  H     -3.490650   -1.864867   -1.670039

 Total Charge           Charge          ....    0
 Multiplicity           Mult            ....    1
 Number of Electrons    NEL             ....  174
 Basis Dimension        Dim             ....  316

ORBITAL ENERGIES
----------------

  NO   OCC          E(Eh)            E(eV)
   0   2.0000     -88.038490     -2395.6491
   1   2.0000     -87.969949     -2393.7840
   2   2.0000     -76.420064     -2079.4957
   3   2.0000     -18.806282      -511.7450
   4   2.0000     -18.801913      -511.6261
   5   2.0000     -18.781735      -511.0770
   6   2.0000     -18.780109      -511.0327
   7   2.0000     -18.748428      -510.1707
   8   2.0000     -18.732518      -509.7377
   9   2.0000     -10.015625      -272.5390
  10   2.0000     -10.013823      -272.4900
  11   2.0000      -9.950286      -270.7611
  12   2.0000      -9.945370      -270.6273
  13   2.0000      -9.945177      -270.6220
  14   2.0000      -9.941859      -270.5317
  15   2.0000      -9.934695      -270.3368
  16   2.0000      -9.906252      -269.5628
  17   2.0000      -9.885523      -268.9988
  18   2.0000      -9.883997      -268.9572
  19   2.0000      -7.683002      -209.0651
  20   2.0000      -7.615183      -207.2197
  21   2.0000      -6.415586      -174.5770
  22   2.0000      -5.710882      -155.4010
  23   2.0000      -5.707334      -155.3045
  24   2.0000      -5.700233      -155.1112
  25   2.0000      -5.644555      -153.5961
  26   2.0000      -5.636005      -153.3635
  27   2.0000      -5.634621      -153.3258
  28   2.0000      -4.638683      -126.2250
  29   2.0000      -4.637606      -126.1957
  30   2.0000      -4.635760      -126.1454
  31   2.0000      -1.017559       -27.6892
  32   2.0000      -1.010647       -27.5011
  33   2.0000      -0.976310       -26.5667
  34   2.0000      -0.930202       -25.3121
  35   2.0000      -0.924335       -25.1524
  36   2.0000      -0.914039       -24.8723
  37   2.0000      -0.761877       -20.7317
  38   2.0000      -0.712997       -19.4016
  39   2.0000      -0.701780       -19.0964
  40   2.0000      -0.685636       -18.6571
  41   2.0000      -0.657860       -17.9013
  42   2.0000      -0.628080       -17.0909
  43   2.0000      -0.619430       -16.8555
  44   2.0000      -0.609082       -16.5740
  45   2.0000      -0.597319       -16.2539
  46   2.0000      -0.559634       -15.2284
  47   2.0000      -0.509347       -13.8600
  48   2.0000      -0.501830       -13.6555
  49   2.0000      -0.493345       -13.4246
  50   2.0000      -0.480250       -13.0683
  51   2.0000      -0.465890       -12.6775
  52   2.0000      -0.455911       -12.4060
  53   2.0000      -0.441285       -12.0080
  54   2.0000      -0.432673       -11.7736
  55   2.0000      -0.427603       -11.6357
  56   2.0000      -0.426398       -11.6029
  57   2.0000      -0.423445       -11.5225
  58   2.0000      -0.416404       -11.3309
  59   2.0000      -0.405825       -11.0431
  60   2.0000      -0.398465       -10.8428
  61   2.0000      -0.396045       -10.7769
  62   2.0000      -0.387320       -10.5395
  63   2.0000      -0.384953       -10.4751
  64   2.0000      -0.379211       -10.3189
  65   2.0000      -0.360767        -9.8170
  66   2.0000      -0.355552        -9.6751
  67   2.0000      -0.350902        -9.5485
  68   2.0000      -0.347484        -9.4555
  69   2.0000      -0.333623        -9.0783
  70   2.0000      -0.331309        -9.0154
  71   2.0000      -0.328945        -8.9510
  72   2.0000      -0.321578        -8.7506
  73   2.0000      -0.306700        -8.3457
  74   2.0000      -0.297375        -8.0920
  75   2.0000      -0.296453        -8.0669
  76   2.0000      -0.289516        -7.8781
  77   2.0000      -0.284965        -7.7543
  78   2.0000      -0.269475        -7.3328
  79   2.0000      -0.263097        -7.1592
  80   2.0000      -0.252784        -6.8786
  81   2.0000      -0.246320        -6.7027
  82   2.0000      -0.234702        -6.3866
  83   2.0000      -0.232841        -6.3359
  84   2.0000      -0.222082        -6.0432
  85   2.0000      -0.189684        -5.1616
  86   2.0000      -0.177656        -4.8343
  87   0.0000      -0.047295        -1.2870
  88   0.0000      -0.026831        -0.7301
  89   0.0000      -0.013262        -0.3609
  90   0.0000       0.015249         0.4149
  91   0.0000       0.030765         0.8372

MULLIKEN ATOMIC CHARGES
-----------------------
   0 C :   -0.305453
   1 C :   -0.015562
   2 O :   -0.223980
   3 C :    0.139196
   4 O :   -0.209146
   5 C :   -0.069199
   6 C :   -0.283320
   7 H :    0.127853
   8 C :    0.198551
   9 O :   -0.199759
  10 O :   -0.216658
  11 C :    0.000176
  12 C :   -0.325597
  13 S :   -0.102928
  14 P :    0.623173
  15 S :   -0.306702
  16 O :   -0.360405
  17 C :   -0.104307
  18 O :   -0.401888
  19 C :   -0.098873
  20 H :    0.119475
  21 H :    0.112902
  22 H :    0.136914
  23 H :    0.104416
  24 H :    0.109684
  25 H :    0.139333
  26 H :    0.117748
  27 H :    0.117177
  28 H :    0.101706
  29 H :    0.109605
  30 H :    0.143767
  31 H :    0.111696
  32 H :    0.111108
  33 H :    0.129448
  34 H :    0.126297
  35 H :    0.119271
  36 H :    0.114320
  37 H :    0.109961
Sum of atomic charges:    0.0000000

LOEWDIN ATOMIC CHARGES
----------------------
   0 C :   -0.355185
   1 C :   -0.109548
   2 O :   -0.051453
   3 C :    0.048732
   4 O :   -0.153356
   5 C :   -0.265627
   6 C :   -0.258120
   7 H :    0.139792
   8 C :    0.009200
   9 O :   -0.166269
  10 O :   -0.042375
  11 C :   -0.102973
  12 C :   -0.361370
  13 S :    0.096575
  14 P :    0.590813
  15 S :   -0.306368
  16 O :   -0.234910
  17 C :   -0.211193
  18 O :   -0.268728
  19 C :   -0.220921
  20 H :    0.127816
  21 H :    0.130592
  22 H :    0.135380
  23 H :    0.118566
  24 H :    0.119865
  25 H :    0.140975
  26 H :    0.143236
  27 H :    0.125968
  28 H :    0.118157
  29 H :    0.122900
  30 H :    0.132959
  31 H :    0.130424
  32 H :    0.105832
  33 H :    0.121875
  34 H :    0.116084
  35 H :    0.119432
  36 H :    0.107606
  37 H :    0.105617

  Mayer bond orders larger than 0.100000
B(  0-C ,  1-C ) :   1.1758 B(  0-C , 20-H ) :   0.9482 B(  0-C , 21-H ) :   0.9435
B(  0-C , 22-H ) :   0.9440 B(  1-C ,  2-O ) :   0.9089 B(  1-C , 23-H ) :   0.9369
B(  1-C , 24-H ) :   0.9141 B(  2-O ,  3-C ) :   1.2540 B(  3-C ,  4-O ) :   1.9527
B(  3-C ,  5-C ) :   1.0191 B(  4-O ,  8-C ) :   0.1314 B(  5-C ,  6-C ) :   1.0079
B(  5-C , 25-H ) :   0.8316 B(  5-C , 26-H ) :   0.8987 B(  6-C ,  7-H ) :   0.8813
B(  6-C ,  8-C ) :   0.9015 B(  6-C , 13-S ) :   1.0147 B(  8-C ,  9-O ) :   1.9271
B(  8-C , 10-O ) :   1.2633 B(  9-O , 14-P ) :   0.1243 B( 10-O , 11-C ) :   0.9111
B( 11-C , 12-C ) :   1.1710 B( 11-C , 27-H ) :   0.9178 B( 11-C , 28-H ) :   0.9394
B( 12-C , 29-H ) :   0.9472 B( 12-C , 30-H ) :   0.9360 B( 12-C , 31-H ) :   0.9427
B( 13-S , 14-P ) :   0.9354 B( 13-S , 15-S ) :   0.1149 B( 14-P , 15-S ) :   1.6045
B( 14-P , 16-O ) :   1.1074 B( 14-P , 18-O ) :   1.0298 B( 15-S , 25-H ) :   0.1108
B( 16-O , 17-C ) :   0.9235 B( 17-C , 32-H ) :   0.9376 B( 17-C , 33-H ) :   0.9540
B( 17-C , 34-H ) :   0.9483 B( 18-O , 19-C ) :   0.9395 B( 19-C , 35-H ) :   0.9588
B( 19-C , 36-H ) :   0.9289 B( 19-C , 37-H ) :   0.9483

Dispersion correction           -0.052431803
FINAL SINGLE POINT ENERGY     -1979.008397811936

DIPOLE MOMENT
-------------

Method             : SCF
Type of density    : Electron Density
Multiplicity       :   1
Irrep              :   0
Energy             : -1979.1401011540333457 Eh
Relativity type    :
Basis              : AO
                                X                 Y                 Z
Electronic contribution:     -8.326671474      -4.119512898      -2.760888202
Nuclear contribution   :      8.684305415       4.717220764       1.737465614
                        -----------------------------------------
Total Dipole Moment    :      0.357633941       0.597707866      -1.023422588
                        -----------------------------------------
Magnitude (a.u.)       :      1.237962246
Magnitude (Debye)      :      3.146649961

Rotational constants in cm-1:             0.012554             0.007647             0.005822
Rotational constants in MHz :           376.351542           229.246695           174.533995

                             ****ORCA TERMINATED NORMALLY****
TOTAL RUN TIME: 0 days 0 hours 0 minutes 45 seconds 504 msec
