                         Program Version 6.0.0  -   RELEASE  -
|  1> ! r2scan-3c def2/J RI DEFGRID2 scfconv6 printgap
|  2> %output
|  3>     printlevel normal
|  4> end
|  5> * xyz 0 1
|  6> C 5.3125073345 -2.0880376911 -1.3411688706
|  7> C 4.2831516383 -0.9797354859 -1.4351070367
|  8> O 3.2150339251 -1.2876553013 -0.5167991322
|  9> P 2.2256011781 -0.1707432699 0.0225076216
| 10> S 3.0806122406 1.4731643088 0.6712641752
| 11> O 1.3669323542 -0.9833506607 1.0726290426
| 12> C 1.6777752439 -0.9558833598 2.4841273397
| 13> C 2.9757738328 -1.6759128888 2.7799558821
| 14> S 0.8499867209 0.0694014595 -1.5669531816
| 15> C 0.1128561009 1.6079822895 -0.9479682492
| 16> S -0.8752469679 1.3652574821 0.5440774749
| 17> P -2.4415228379 0.2607679015 -0.4077153796
| 18> S -2.904881591 0.8301732985 -2.2172520921
| 19> O -3.6176800967 0.2878744914 0.6606631054
| 20> C -4.5993224386 1.3403794795 0.70776996
| 21> C -3.9989207887 2.6753376722 1.0970759489
| 22> O -1.9728043768 -1.2441282824 -0.3616455179
| 23> C -1.7216189309 -1.9618572652 0.8709642133
| 24> C -2.8980488983 -2.8521190149 1.2133814704
| 25> H 5.7293151833 -2.1295916739 -0.3389045833
| 26> H 4.8488779602 -3.0430798364 -1.5702756347
| 27> H 6.1089318082 -1.8947259859 -2.0522001085
| 28> H 3.8588589782 -0.9116931913 -2.4404658153
| 29> H 4.7111330591 -0.0093805438 -1.1609836411
| 30> H 1.7289976316 0.0888309624 2.8066466446
| 31> H 0.8240690174 -1.4477002768 2.9516063218
| 32> H 3.1334523901 -1.709696685 3.8533408361
| 33> H 2.9439494397 -2.6874007417 2.3840581594
| 34> H 3.8050838616 -1.142292561 2.3169863595
| 35> H -0.5235434855 1.989780001 -1.7464638486
| 36> H 0.9045207149 2.3128147948 -0.693337287
| 37> H -5.0791947335 1.4058253151 -0.2732912055
| 38> H -5.3173795884 0.990916123 1.4510335176
| 39> H -3.4180040689 2.5791997006 2.0110129647
| 40> H -3.3474266514 3.0379735436 0.3035973121
| 41> H -4.7971291212 3.3943640173 1.2508908093
| 42> H -0.8193127699 -2.5442562156 0.6725152581
| 43> H -1.524838041 -1.2382517152 1.6670538001
| 44> H -3.780876396 -2.2491304339 1.4084100345
| 45> H -3.1075664527 -3.5234028085 0.3851300394
| 46> H -2.6581983765 -3.4353955858 2.0968686922
| 47> *
| 48>
| 49>                          ****END OF INPUT****

CARTESIAN COORDINATES (ANGSTROEM)
---------------------------------
  C      5.312507   -2.088038   -1.341169
  C      4.283152   -0.979735   -1.435107
  O      3.215034   -1.287655   -0.516799
  P      2.225601   -0.170743    0.022508
  S      3.080612    1.473164    0.671264
  O      1.366932   -0.983351    1.072629
  C      1.677775   -0.955883    2.484127
  C      2.975774   -1.675913    2.779956
  S      0.849987    0.069401   -1.566953
  C      0.112856    1.607982   -0.947968
  S     -0.875247    1.365257    0.544077
  P     -2.441523    0.260768   -0.407715
  S     -2.904882    0.830173   -2.217252
  O     -3.617680    0.287874    0.660663
  C     -4.599322    1.340379    0.707770
  C     -3.998921    2.675338    1.097076
  O     -1.972804   -1.244128   -0.361646
  C     -1.721619   -1.961857    0.870964
  C     -2.898049   -2.852119    1.213381
  H      5.729315   -2.129592   -0.338905
  H      4.848878   -3.043080   -1.570276
  H      6.108932   -1.894726   -2.052200
  H      3.858859   -0.911693   -2.440466
  H      4.711133   -0.009381   -1.160984
  H      1.728998    0.088831    2.806647
  H      0.824069   -1.447700    2.951606
  H      3.133452   -1.709697    3.853341
  H      2.943949   -2.687401    2.384058
  H      3.805084   -1.142293    2.316986
  H     -0.523543    1.989780   -1.746464
  H      0.904521    2.312815   -0.693337
  H     -5.079195    1.405825   -0.273291
  H     -5.317380    0.990916    1.451034
  H     -3.418004    2.579200    2.011013
  H     -3.347427    3.037974    0.303597
  H     -4.797129    3.394364    1.250891
  H     -0.819313   -2.544256    0.672515
  H     -1.524838   -1.238252    1.667054
  H     -3.780876   -2.249130    1.408410
  H     -3.107566   -3.523403    0.385130
  H     -2.658198   -3.435396    2.096869

 Total Charge           Charge          ....    0
 Multiplicity           Mult            ....    1
 Number of Electrons    NEL             ....  202
 Basis Dimension        Dim             ....  539

ORBITAL ENERGIES
----------------

  NO   OCC          E(Eh)            E(eV)
   0   2.0000     -88.572834     -2410.1894
   1   2.0000     -88.571454     -2410.1518
   2   2.0000     -88.522162     -2408.8105
   3   2.0000     -88.519566     -2408.7399
   4   2.0000     -76.914520     -2092.9505
   5   2.0000     -76.912969     -2092.9083
   6   2.0000     -18.995830      -516.9028
   7   2.0000     -18.994941      -516.8786
   8   2.0000     -18.993606      -516.8423
   9   2.0000     -18.987251      -516.6694
  10   2.0000     -10.101815      -274.8844
  11   2.0000     -10.101629      -274.8793
  12   2.0000     -10.100721      -274.8546
  13   2.0000     -10.100570      -274.8505
  14   2.0000     -10.099170      -274.8124
  15   2.0000     -10.035079      -273.0684
  16   2.0000     -10.032186      -272.9897
  17   2.0000     -10.030314      -272.9387
  18   2.0000     -10.029661      -272.9210
  19   2.0000      -7.866933      -214.0701
  20   2.0000      -7.865812      -214.0396
  21   2.0000      -7.817000      -212.7114
  22   2.0000      -7.814379      -212.6401
  23   2.0000      -6.593251      -179.4115
  24   2.0000      -6.591446      -179.3624
  25   2.0000      -5.813803      -158.2016
  26   2.0000      -5.812619      -158.1694
  27   2.0000      -5.810849      -158.1212
  28   2.0000      -5.809715      -158.0904
  29   2.0000      -5.804042      -157.9360
  30   2.0000      -5.802952      -157.9063
  31   2.0000      -5.764532      -156.8609
  32   2.0000      -5.762071      -156.7939
  33   2.0000      -5.757287      -156.6637
  34   2.0000      -5.757094      -156.6585
  35   2.0000      -5.754569      -156.5898
  36   2.0000      -5.754411      -156.5855
  37   2.0000      -4.738640      -128.9450
  38   2.0000      -4.738171      -128.9322
  39   2.0000      -4.737349      -128.9098
  40   2.0000      -4.737047      -128.9016
  41   2.0000      -4.736279      -128.8807
  42   2.0000      -4.734913      -128.8435
  43   2.0000      -1.053031       -28.6544
  44   2.0000      -1.051394       -28.6099
  45   2.0000      -1.014284       -27.6001
  46   2.0000      -1.009935       -27.4817
  47   2.0000      -0.799937       -21.7674
  48   2.0000      -0.760013       -20.6810
  49   2.0000      -0.750843       -20.4315
  50   2.0000      -0.735956       -20.0264
  51   2.0000      -0.735206       -20.0060
  52   2.0000      -0.710162       -19.3245
  53   2.0000      -0.685406       -18.6508
  54   2.0000      -0.668100       -18.1799
  55   2.0000      -0.633119       -17.2280
  56   2.0000      -0.625098       -17.0098
  57   2.0000      -0.607314       -16.5258
  58   2.0000      -0.602365       -16.3912
  59   2.0000      -0.591223       -16.0880
  60   2.0000      -0.532261       -14.4836
  61   2.0000      -0.522933       -14.2297
  62   2.0000      -0.499980       -13.6051
  63   2.0000      -0.494532       -13.4569
  64   2.0000      -0.476677       -12.9710
  65   2.0000      -0.468559       -12.7501
  66   2.0000      -0.458709       -12.4821
  67   2.0000      -0.453994       -12.3538
  68   2.0000      -0.444601       -12.0982
  69   2.0000      -0.437350       -11.9009
  70   2.0000      -0.426015       -11.5925
  71   2.0000      -0.416391       -11.3306
  72   2.0000      -0.409644       -11.1470
  73   2.0000      -0.398249       -10.8369
  74   2.0000      -0.394480       -10.7343
  75   2.0000      -0.389076       -10.5873
  76   2.0000      -0.383289       -10.4298
  77   2.0000      -0.377028       -10.2595
  78   2.0000      -0.375233       -10.2106
  79   2.0000      -0.368911       -10.0386
  80   2.0000      -0.364658        -9.9228
  81   2.0000      -0.362176        -9.8553
  82   2.0000      -0.359231        -9.7752
  83   2.0000      -0.357149        -9.7185
  84   2.0000      -0.349397        -9.5076
  85   2.0000      -0.335782        -9.1371
  86   2.0000      -0.325105        -8.8466
  87   2.0000      -0.317355        -8.6357
  88   2.0000      -0.312752        -8.5104
  89   2.0000      -0.309063        -8.4100
  90   2.0000      -0.303458        -8.2575
  91   2.0000      -0.293969        -7.9993
  92   2.0000      -0.283560        -7.7161
  93   2.0000      -0.279030        -7.5928
  94   2.0000      -0.272135        -7.4052
  95   2.0000      -0.245136        -6.6705
  96   2.0000      -0.230368        -6.2686
  97   2.0000      -0.227048        -6.1783
  98   2.0000      -0.218475        -5.9450
  99   2.0000      -0.214400        -5.8341
 100   2.0000      -0.212596        -5.7850
 101   0.0000      -0.044830        -1.2199
 102   0.0000      -0.022921        -0.6237
 103   0.0000      -0.000338        -0.0092
 104   0.0000       0.001529         0.0416
 105   0.0000       0.015415         0.4195

MULLIKEN ATOMIC CHARGES
-----------------------
   0 C :   -0.440672
   1 C :   -0.154158
   2 O :   -0.289614
   3 P :    0.690329
   4 S :   -0.494007
   5 O :   -0.256391
   6 C :   -0.154548
   7 C :   -0.441474
   8 S :   -0.124439
   9 C :   -0.238514
  10 S :   -0.160711
  11 P :    0.647570
  12 S :   -0.443773
  13 O :   -0.292490
  14 C :   -0.168169
  15 C :   -0.442941
  16 O :   -0.256080
  17 C :   -0.099461
  18 C :   -0.487335
  19 H :    0.154118
  20 H :    0.154887
  21 H :    0.147912
  22 H :    0.153748
  23 H :    0.170820
  24 H :    0.177489
  25 H :    0.146024
  26 H :    0.147864
  27 H :    0.155317
  28 H :    0.171050
  29 H :    0.215944
  30 H :    0.213882
  31 H :    0.175238
  32 H :    0.147452
  33 H :    0.153251
  34 H :    0.180462
  35 H :    0.147988
  36 H :    0.170220
  37 H :    0.154059
  38 H :    0.165031
  39 H :    0.160283
  40 H :    0.143837
Sum of atomic charges:   -0.0000000

LOEWDIN ATOMIC CHARGES
----------------------
   0 C :   -0.385564
   1 C :    0.021267
   2 O :   -0.663740
   3 P :    0.373799
   4 S :   -0.138817
   5 O :   -0.676138
   6 C :    0.015777
   7 C :   -0.399475
   8 S :    0.178198
   9 C :   -0.424848
  10 S :    0.142934
  11 P :    0.382590
  12 S :   -0.101391
  13 O :   -0.672914
  14 C :    0.022403
  15 C :   -0.408622
  16 O :   -0.650893
  17 C :    0.019182
  18 C :   -0.392325
  19 H :    0.159708
  20 H :    0.160368
  21 H :    0.160510
  22 H :    0.172961
  23 H :    0.180872
  24 H :    0.182469
  25 H :    0.177259
  26 H :    0.159870
  27 H :    0.160493
  28 H :    0.166477
  29 H :    0.191888
  30 H :    0.191567
  31 H :    0.180900
  32 H :    0.179001
  33 H :    0.160051
  34 H :    0.166896
  35 H :    0.159529
  36 H :    0.187109
  37 H :    0.175151
  38 H :    0.164904
  39 H :    0.162915
  40 H :    0.157675

  Mayer bond orders larger than 0.100000
B(  0-C ,  1-C ) :   0.9572 B(  0-C , 19-H ) :   0.9713 B(  0-C , 20-H ) :   0.9716
B(  0-C , 21-H ) :   0.9642 B(  1-C ,  2-O ) :   0.7772 B(  1-C , 22-H ) :   0.9458
B(  1-C , 23-H ) :   0.9523 B(  2-O ,  3-P ) :   1.0947 B(  3-P ,  4-S ) :   1.7304
B(  3-P ,  5-O ) :   1.1464 B(  3-P ,  8-S ) :   1.0848 B(  5-O ,  6-C ) :   0.7766
B(  6-C ,  7-C ) :   0.9253 B(  6-C , 24-H ) :   0.9622 B(  6-C , 25-H ) :   0.9609
B(  7-C , 26-H ) :   0.9623 B(  7-C , 27-H ) :   0.9716 B(  7-C , 28-H ) :   0.9592
B(  8-S ,  9-C ) :   0.9169 B(  9-C , 10-S ) :   0.9083 B(  9-C , 29-H ) :   0.9063
B(  9-C , 30-H ) :   0.9048 B( 10-S , 11-P ) :   1.0127 B( 11-P , 12-S ) :   1.8394
B( 11-P , 13-O ) :   1.0330 B( 11-P , 16-O ) :   1.1411 B( 13-O , 14-C ) :   0.8180
B( 14-C , 15-C ) :   0.9182 B( 14-C , 31-H ) :   0.9683 B( 14-C , 32-H ) :   0.9616
B( 15-C , 33-H ) :   0.9672 B( 15-C , 34-H ) :   0.9632 B( 15-C , 35-H ) :   0.9563
B( 16-O , 17-C ) :   0.7340 B( 17-C , 18-C ) :   0.9312 B( 17-C , 36-H ) :   0.9534
B( 17-C , 37-H ) :   0.9697 B( 18-C , 38-H ) :   0.9712 B( 18-C , 39-H ) :   0.9738
B( 18-C , 40-H ) :   0.9662

Dispersion correction           -0.021270680
FINAL SINGLE POINT ENERGY     -2932.464616688414

DIPOLE MOMENT
-------------

Method             : SCF
Type of density    : Electron Density
Multiplicity       :   1
Irrep              :   0
Energy             : -2932.4897172497876454 Eh
Relativity type    :
Basis              : AO
                                X                 Y                 Z
Electronic contribution:     -3.988632368      10.778148168     -13.426230314
Nuclear contribution   :      4.136210384     -11.650512212      14.769501250
                        -----------------------------------------
Total Dipole Moment    :      0.147578016      -0.872364043       1.343270936
                        -----------------------------------------
Magnitude (a.u.)       :      1.608469801
Magnitude (Debye)      :      4.088405324

Rotational constants in cm-1:             0.013174             0.004608             0.004399
Rotational constants in MHz :           394.947222           138.143395           131.885026

                             ****ORCA TERMINATED NORMALLY****
TOTAL RUN TIME: 0 days 0 hours 1 minutes 18 seconds 824 msec
