                         Program Version 6.0.0  -   RELEASE  -
|  1> ! r2scan-3c def2/J RI DEFGRID2 scfconv6 printgap
|  2> %output
|  3>     printlevel normal
|  4> end
|  5> %cpcm
|  6>     smd true
|  7>     smdsolvent "water"
|  8> end
|  9> * xyz 0 1
| 10> C 5.3125073345 -2.0880376911 -1.3411688706
| 11> C 4.2831516383 -0.9797354859 -1.4351070367
| 12> O 3.2150339251 -1.2876553013 -0.5167991322
| 13> P 2.2256011781 -0.1707432699 0.0225076216
| 14> S 3.0806122406 1.4731643088 0.6712641752
| 15> O 1.3669323542 -0.9833506607 1.0726290426
| 16> C 1.6777752439 -0.9558833598 2.4841273397
| 17> C 2.9757738328 -1.6759128888 2.7799558821
| 18> S 0.8499867209 0.0694014595 -1.5669531816
| 19> C 0.1128561009 1.6079822895 -0.9479682492
| 20> S -0.8752469679 1.3652574821 0.5440774749
| 21> P -2.4415228379 0.2607679015 -0.4077153796
| 22> S -2.904881591 0.8301732985 -2.2172520921
| 23> O -3.6176800967 0.2878744914 0.6606631054
| 24> C -4.5993224386 1.3403794795 0.70776996
| 25> C -3.9989207887 2.6753376722 1.0970759489
| 26> O -1.9728043768 -1.2441282824 -0.3616455179
| 27> C -1.7216189309 -1.9618572652 0.8709642133
| 28> C -2.8980488983 -2.8521190149 1.2133814704
| 29> H 5.7293151833 -2.1295916739 -0.3389045833
| 30> H 4.8488779602 -3.0430798364 -1.5702756347
| 31> H 6.1089318082 -1.8947259859 -2.0522001085
| 32> H 3.8588589782 -0.9116931913 -2.4404658153
| 33> H 4.7111330591 -0.0093805438 -1.1609836411
| 34> H 1.7289976316 0.0888309624 2.8066466446
| 35> H 0.8240690174 -1.4477002768 2.9516063218
| 36> H 3.1334523901 -1.709696685 3.8533408361
| 37> H 2.9439494397 -2.6874007417 2.3840581594
| 38> H 3.8050838616 -1.142292561 2.3169863595
| 39> H -0.5235434855 1.989780001 -1.7464638486
| 40> H 0.9045207149 2.3128147948 -0.693337287
| 41> H -5.0791947335 1.4058253151 -0.2732912055
| 42> H -5.3173795884 0.990916123 1.4510335176
| 43> H -3.4180040689 2.5791997006 2.0110129647
| 44> H -3.3474266514 3.0379735436 0.3035973121
| 45> H -4.7971291212 3.3943640173 1.2508908093
| 46> H -0.8193127699 -2.5442562156 0.6725152581
| 47> H -1.524838041 -1.2382517152 1.6670538001
| 48> H -3.780876396 -2.2491304339 1.4084100345
| 49> H -3.1075664527 -3.5234028085 0.3851300394
| 50> H -2.6581983765 -3.4353955858 2.0968686922
| 51> *
| 52>
| 53>                          ****END OF INPUT****

CARTESIAN COORDINATES (ANGSTROEM)
---------------------------------
  C      5.312507   -2.088038   -1.341169
  C      4.283152   -0.979735   -1.435107
  O      3.215034   -1.287655   -0.516799
  P      2.225601   -0.170743    0.022508
  S      3.080612    1.473164    0.671264
  O      1.366932   -0.983351    1.072629
  C      1.677775   -0.955883    2.484127
  C      2.975774   -1.675913    2.779956
  S      0.849987    0.069401   -1.566953
  C      0.112856    1.607982   -0.947968
  S     -0.875247    1.365257    0.544077
  P     -2.441523    0.260768   -0.407715
  S     -2.904882    0.830173   -2.217252
  O     -3.617680    0.287874    0.660663
  C     -4.599322    1.340379    0.707770
  C     -3.998921    2.675338    1.097076
  O     -1.972804   -1.244128   -0.361646
  C     -1.721619   -1.961857    0.870964
  C     -2.898049   -2.852119    1.213381
  H      5.729315   -2.129592   -0.338905
  H      4.848878   -3.043080   -1.570276
  H      6.108932   -1.894726   -2.052200
  H      3.858859   -0.911693   -2.440466
  H      4.711133   -0.009381   -1.160984
  H      1.728998    0.088831    2.806647
  H      0.824069   -1.447700    2.951606
  H      3.133452   -1.709697    3.853341
  H      2.943949   -2.687401    2.384058
  H      3.805084   -1.142293    2.316986
  H     -0.523543    1.989780   -1.746464
  H      0.904521    2.312815   -0.693337
  H     -5.079195    1.405825   -0.273291
  H     -5.317380    0.990916    1.451034
  H     -3.418004    2.579200    2.011013
  H     -3.347427    3.037974    0.303597
  H     -4.797129    3.394364    1.250891
  H     -0.819313   -2.544256    0.672515
  H     -1.524838   -1.238252    1.667054
  H     -3.780876   -2.249130    1.408410
  H     -3.107566   -3.523403    0.385130
  H     -2.658198   -3.435396    2.096869

 Total Charge           Charge          ....    0
 Multiplicity           Mult            ....    1
 Number of Electrons    NEL             ....  202
 Basis Dimension        Dim             ....  539

ORBITAL ENERGIES
----------------

  NO   OCC          E(Eh)            E(eV)
   0   2.0000     -88.578964     -2410.3561
   1   2.0000     -88.575887     -2410.2724
   2   2.0000     -88.530882     -2409.0478
   3   2.0000     -88.528724     -2408.9891
   4   2.0000     -76.920178     -2093.1045
   5   2.0000     -76.919060     -2093.0740
   6   2.0000     -18.996883      -516.9315
   7   2.0000     -18.996555      -516.9225
   8   2.0000     -18.993921      -516.8509
   9   2.0000     -18.993024      -516.8265
  10   2.0000     -10.102863      -274.9129
  11   2.0000     -10.091185      -274.5951
  12   2.0000     -10.091114      -274.5932
  13   2.0000     -10.090640      -274.5803
  14   2.0000     -10.089752      -274.5561
  15   2.0000     -10.019807      -272.6528
  16   2.0000     -10.018819      -272.6259
  17   2.0000     -10.018616      -272.6204
  18   2.0000     -10.018315      -272.6122
  19   2.0000      -7.873184      -214.2402
  20   2.0000      -7.870218      -214.1595
  21   2.0000      -7.826054      -212.9578
  22   2.0000      -7.823838      -212.8974
  23   2.0000      -6.598685      -179.5594
  24   2.0000      -6.597811      -179.5356
  25   2.0000      -5.819990      -158.3700
  26   2.0000      -5.817070      -158.2905
  27   2.0000      -5.817048      -158.2899
  28   2.0000      -5.814151      -158.2111
  29   2.0000      -5.810387      -158.1087
  30   2.0000      -5.807313      -158.0250
  31   2.0000      -5.773631      -157.1085
  32   2.0000      -5.771323      -157.0457
  33   2.0000      -5.766214      -156.9066
  34   2.0000      -5.766164      -156.9053
  35   2.0000      -5.764116      -156.8496
  36   2.0000      -5.763936      -156.8447
  37   2.0000      -4.744515      -129.1048
  38   2.0000      -4.743491      -129.0770
  39   2.0000      -4.743127      -129.0671
  40   2.0000      -4.742731      -129.0563
  41   2.0000      -4.742290      -129.0443
  42   2.0000      -4.741713      -129.0286
  43   2.0000      -1.054353       -28.6904
  44   2.0000      -1.053590       -28.6696
  45   2.0000      -1.014108       -27.5953
  46   2.0000      -1.012616       -27.5547
  47   2.0000      -0.803800       -21.8725
  48   2.0000      -0.756289       -20.5797
  49   2.0000      -0.744911       -20.2701
  50   2.0000      -0.726368       -19.7655
  51   2.0000      -0.724698       -19.7200
  52   2.0000      -0.709831       -19.3155
  53   2.0000      -0.689155       -18.7529
  54   2.0000      -0.674901       -18.3650
  55   2.0000      -0.629811       -17.1380
  56   2.0000      -0.620860       -16.8945
  57   2.0000      -0.602312       -16.3897
  58   2.0000      -0.593297       -16.1444
  59   2.0000      -0.589962       -16.0537
  60   2.0000      -0.528608       -14.3842
  61   2.0000      -0.519372       -14.1328
  62   2.0000      -0.495476       -13.4826
  63   2.0000      -0.490764       -13.3544
  64   2.0000      -0.476526       -12.9669
  65   2.0000      -0.464580       -12.6419
  66   2.0000      -0.454406       -12.3650
  67   2.0000      -0.445529       -12.1235
  68   2.0000      -0.439681       -11.9643
  69   2.0000      -0.434051       -11.8111
  70   2.0000      -0.423337       -11.5196
  71   2.0000      -0.411270       -11.1912
  72   2.0000      -0.406143       -11.0517
  73   2.0000      -0.396914       -10.8006
  74   2.0000      -0.393526       -10.7084
  75   2.0000      -0.384950       -10.4750
  76   2.0000      -0.382201       -10.4002
  77   2.0000      -0.371758       -10.1161
  78   2.0000      -0.363804        -9.8996
  79   2.0000      -0.363128        -9.8812
  80   2.0000      -0.354034        -9.6338
  81   2.0000      -0.352792        -9.6000
  82   2.0000      -0.351979        -9.5778
  83   2.0000      -0.348557        -9.4847
  84   2.0000      -0.345110        -9.3909
  85   2.0000      -0.331599        -9.0233
  86   2.0000      -0.322222        -8.7681
  87   2.0000      -0.313115        -8.5203
  88   2.0000      -0.308367        -8.3911
  89   2.0000      -0.304466        -8.2849
  90   2.0000      -0.299556        -8.1513
  91   2.0000      -0.291293        -7.9265
  92   2.0000      -0.282684        -7.6922
  93   2.0000      -0.278519        -7.5789
  94   2.0000      -0.274563        -7.4712
  95   2.0000      -0.250747        -6.8232
  96   2.0000      -0.238961        -6.5025
  97   2.0000      -0.236467        -6.4346
  98   2.0000      -0.227651        -6.1947
  99   2.0000      -0.223760        -6.0888
 100   2.0000      -0.220377        -5.9968
 101   0.0000      -0.051400        -1.3987
 102   0.0000      -0.030547        -0.8312
 103   0.0000      -0.005699        -0.1551
 104   0.0000      -0.003223        -0.0877
 105   0.0000       0.014160         0.3853

MULLIKEN ATOMIC CHARGES
-----------------------
   0 C :   -0.483139
   1 C :   -0.146062
   2 O :   -0.314441
   3 P :    0.722763
   4 S :   -0.536192
   5 O :   -0.279620
   6 C :   -0.147222
   7 C :   -0.484108
   8 S :   -0.153303
   9 C :   -0.246013
  10 S :   -0.158711
  11 P :    0.663015
  12 S :   -0.498911
  13 O :   -0.308562
  14 C :   -0.160573
  15 C :   -0.480645
  16 O :   -0.289773
  17 C :   -0.086579
  18 C :   -0.532896
  19 H :    0.166226
  20 H :    0.166390
  21 H :    0.169911
  22 H :    0.172249
  23 H :    0.172267
  24 H :    0.177937
  25 H :    0.180480
  26 H :    0.172914
  27 H :    0.170411
  28 H :    0.168647
  29 H :    0.232046
  30 H :    0.233305
  31 H :    0.179785
  32 H :    0.176346
  33 H :    0.168346
  34 H :    0.174211
  35 H :    0.172752
  36 H :    0.181078
  37 H :    0.175311
  38 H :    0.170234
  39 H :    0.168744
  40 H :    0.171381
Sum of atomic charges:    0.0000000

LOEWDIN ATOMIC CHARGES
----------------------
   0 C :   -0.389176
   1 C :    0.025648
   2 O :   -0.675526
   3 P :    0.378337
   4 S :   -0.164973
   5 O :   -0.684180
   6 C :    0.022157
   7 C :   -0.402760
   8 S :    0.159643
   9 C :   -0.420537
  10 S :    0.148073
  11 P :    0.385216
  12 S :   -0.142888
  13 O :   -0.675318
  14 C :    0.028693
  15 C :   -0.411295
  16 O :   -0.675361
  17 C :    0.025677
  18 C :   -0.394496
  19 H :    0.162630
  20 H :    0.163472
  21 H :    0.169084
  22 H :    0.180168
  23 H :    0.181883
  24 H :    0.182655
  25 H :    0.191216
  26 H :    0.169226
  27 H :    0.164284
  28 H :    0.162935
  29 H :    0.196531
  30 H :    0.197009
  31 H :    0.181942
  32 H :    0.191506
  33 H :    0.163789
  34 H :    0.161840
  35 H :    0.168587
  36 H :    0.192072
  37 H :    0.183835
  38 H :    0.165140
  39 H :    0.164297
  40 H :    0.168965

  Mayer bond orders larger than 0.100000
B(  0-C ,  1-C ) :   0.9532 B(  0-C , 19-H ) :   0.9687 B(  0-C , 20-H ) :   0.9688
B(  0-C , 21-H ) :   0.9583 B(  1-C ,  2-O ) :   0.7694 B(  1-C , 22-H ) :   0.9374
B(  1-C , 23-H ) :   0.9489 B(  2-O ,  3-P ) :   1.1024 B(  3-P ,  4-S ) :   1.6978
B(  3-P ,  5-O ) :   1.1571 B(  3-P ,  8-S ) :   1.0907 B(  5-O ,  6-C ) :   0.7640
B(  6-C ,  7-C ) :   0.9121 B(  6-C , 24-H ) :   0.9588 B(  6-C , 25-H ) :   0.9502
B(  7-C , 26-H ) :   0.9563 B(  7-C , 27-H ) :   0.9710 B(  7-C , 28-H ) :   0.9592
B(  8-S ,  9-C ) :   0.9036 B(  9-C , 10-S ) :   0.8988 B(  9-C , 29-H ) :   0.9021
B(  9-C , 30-H ) :   0.9016 B( 10-S , 11-P ) :   1.0218 B( 11-P , 12-S ) :   1.8151
B( 11-P , 13-O ) :   1.0481 B( 11-P , 16-O ) :   1.1473 B( 13-O , 14-C ) :   0.8054
B( 14-C , 15-C ) :   0.9057 B( 14-C , 31-H ) :   0.9672 B( 14-C , 32-H ) :   0.9506
B( 15-C , 33-H ) :   0.9645 B( 15-C , 34-H ) :   0.9652 B( 15-C , 35-H ) :   0.9510
B( 16-O , 17-C ) :   0.7212 B( 17-C , 18-C ) :   0.9281 B( 17-C , 36-H ) :   0.9453
B( 17-C , 37-H ) :   0.9562 B( 18-C , 38-H ) :   0.9699 B( 18-C , 39-H ) :   0.9725
B( 18-C , 40-H ) :   0.9589

Dispersion correction           -0.021270680
FINAL SINGLE POINT ENERGY     -2932.474221100537

DIPOLE MOMENT
-------------

Method             : SCF
Type of density    : Electron Density
Multiplicity       :   1
Irrep              :   0
Energy             : -2932.4993216619104714 Eh
Relativity type    :
Basis              : AO
                                X                 Y                 Z
Electronic contribution:     -3.986794118      10.651582642     -12.754828161
Nuclear contribution   :      4.136210384     -11.650512212      14.769501250
                        -----------------------------------------
Total Dipole Moment    :      0.149416267      -0.998929570       2.014673088
                        -----------------------------------------
Magnitude (a.u.)       :      2.253684352
Magnitude (Debye)      :      5.728410379

Rotational constants in cm-1:             0.013174             0.004608             0.004399
Rotational constants in MHz :           394.947222           138.143395           131.885026

                             ****ORCA TERMINATED NORMALLY****
TOTAL RUN TIME: 0 days 0 hours 1 minutes 47 seconds 803 msec
