                         Program Version 6.0.0  -   RELEASE  -
|  1> ! pbe def2-sv(p) def2/J RI DEFGRID1 loosescf d4 GCP(DFT/SV(P)) printgap
|  2> %output
|  3>     printlevel normal
|  4> end
|  5> * xyz 0 1
|  6> C 4.7663952268 -1.2243502534 -1.0212126853
|  7> C 4.6949459336 0.1851084987 -0.4704304188
|  8> O 3.5192022762 0.3935715628 0.3313849641
|  9> P 2.0528577243 0.4273126169 -0.2902342124
| 10> S 1.9737392572 1.3100177143 -2.045038832
| 11> O 1.2551409753 1.0857194914 0.9105211631
| 12> C 1.3474685996 2.5038108571 1.1667567122
| 13> C 0.4890547597 2.8103310332 2.3748991779
| 14> S 1.3900752401 -1.5530092308 -0.1545309937
| 15> C 0.1154694259 -1.5682442865 -1.462930548
| 16> S -1.5353880721 -1.9316388447 -0.8311193686
| 17> P -1.9303665175 -0.0814764648 0.143803477
| 18> S -1.4023078343 1.5126863372 -0.8624627965
| 19> O -1.3223262335 -0.1250873184 1.5926090113
| 20> C -1.6795705638 -1.111635356 2.5997133332
| 21> C -0.5966393786 -2.1627724121 2.732709618
| 22> O -3.4871652011 -0.2011650693 0.4414967327
| 23> C -4.4598739891 -0.1282764486 -0.620914436
| 24> C -5.8149686503 0.1264649311 0.0070903046
| 25> H 4.6502869756 -1.9498638196 -0.2201641324
| 26> H 3.9740093704 -1.3764266334 -1.7526917419
| 27> H 5.7258801331 -1.3704498356 -1.5067112307
| 28> H 4.6897602836 0.9164445434 -1.2850993275
| 29> H 5.5178622244 0.3945119837 0.2142816542
| 30> H 2.3970461902 2.7570015399 1.339835894
| 31> H 0.9909597367 3.0344122432 0.2768081372
| 32> H 0.846957185 2.253800745 3.2359626933
| 33> H 0.5326492753 3.8745129164 2.5823048818
| 34> H -0.5401375749 2.5244422667 2.1716779019
| 35> H 0.3554141477 -2.3711031021 -2.1549622557
| 36> H 0.1178607289 -0.5975891147 -1.9665828903
| 37> H -1.7809053869 -0.5295563372 3.5169845792
| 38> H -2.6406988462 -1.5560468982 2.3373340141
| 39> H 0.3684185738 -1.6874607856 2.8887661371
| 40> H -0.8253219164 -2.7962457774 3.583872641
| 41> H -0.5375497868 -2.7781637295 1.8382732361
| 42> H -4.1725320163 0.6808787914 -1.3003640798
| 43> H -4.4410555333 -1.07643922 -1.1645614974
| 44> H -5.8017397846 1.0642038714 0.5554592355
| 45> H -6.564228077 0.1798939624 -0.7757567611
| 46> H -6.0655223569 -0.6789816093 0.6910018869
| 47> *
| 48>
| 49>                          ****END OF INPUT****

CARTESIAN COORDINATES (ANGSTROEM)
---------------------------------
  C      4.766395   -1.224350   -1.021213
  C      4.694946    0.185108   -0.470430
  O      3.519202    0.393572    0.331385
  P      2.052858    0.427313   -0.290234
  S      1.973739    1.310018   -2.045039
  O      1.255141    1.085719    0.910521
  C      1.347469    2.503811    1.166757
  C      0.489055    2.810331    2.374899
  S      1.390075   -1.553009   -0.154531
  C      0.115469   -1.568244   -1.462931
  S     -1.535388   -1.931639   -0.831119
  P     -1.930367   -0.081476    0.143803
  S     -1.402308    1.512686   -0.862463
  O     -1.322326   -0.125087    1.592609
  C     -1.679571   -1.111635    2.599713
  C     -0.596639   -2.162772    2.732710
  O     -3.487165   -0.201165    0.441497
  C     -4.459874   -0.128276   -0.620914
  C     -5.814969    0.126465    0.007090
  H      4.650287   -1.949864   -0.220164
  H      3.974009   -1.376427   -1.752692
  H      5.725880   -1.370450   -1.506711
  H      4.689760    0.916445   -1.285099
  H      5.517862    0.394512    0.214282
  H      2.397046    2.757002    1.339836
  H      0.990960    3.034412    0.276808
  H      0.846957    2.253801    3.235963
  H      0.532649    3.874513    2.582305
  H     -0.540138    2.524442    2.171678
  H      0.355414   -2.371103   -2.154962
  H      0.117861   -0.597589   -1.966583
  H     -1.780905   -0.529556    3.516985
  H     -2.640699   -1.556047    2.337334
  H      0.368419   -1.687461    2.888766
  H     -0.825322   -2.796246    3.583873
  H     -0.537550   -2.778164    1.838273
  H     -4.172532    0.680879   -1.300364
  H     -4.441056   -1.076439   -1.164561
  H     -5.801740    1.064204    0.555459
  H     -6.564228    0.179894   -0.775757
  H     -6.065522   -0.678982    0.691002

 Total Charge           Charge          ....    0
 Multiplicity           Mult            ....    1
 Number of Electrons    NEL             ....  202
 Basis Dimension        Dim             ....  334

ORBITAL ENERGIES
----------------

  NO   OCC          E(Eh)            E(eV)
   0   2.0000     -88.044240     -2395.8056
   1   2.0000     -88.041783     -2395.7387
   2   2.0000     -87.980909     -2394.0822
   3   2.0000     -87.978461     -2394.0156
   4   2.0000     -76.424513     -2079.6167
   5   2.0000     -76.418458     -2079.4520
   6   2.0000     -18.795226      -511.4441
   7   2.0000     -18.791395      -511.3398
   8   2.0000     -18.786772      -511.2141
   9   2.0000     -18.777365      -510.9581
  10   2.0000      -9.955868      -270.9130
  11   2.0000      -9.955414      -270.9006
  12   2.0000      -9.954338      -270.8713
  13   2.0000      -9.946569      -270.6599
  14   2.0000      -9.938123      -270.4301
  15   2.0000      -9.890070      -269.1225
  16   2.0000      -9.881650      -268.8934
  17   2.0000      -9.880244      -268.8551
  18   2.0000      -9.872814      -268.6529
  19   2.0000      -7.689431      -209.2401
  20   2.0000      -7.687022      -209.1745
  21   2.0000      -7.625833      -207.5095
  22   2.0000      -7.623426      -207.4440
  23   2.0000      -6.422064      -174.7533
  24   2.0000      -6.416211      -174.5940
  25   2.0000      -5.717207      -155.5731
  26   2.0000      -5.714876      -155.5097
  27   2.0000      -5.713784      -155.4800
  28   2.0000      -5.711527      -155.4186
  29   2.0000      -5.706651      -155.2859
  30   2.0000      -5.703896      -155.2109
  31   2.0000      -5.654856      -153.8765
  32   2.0000      -5.652310      -153.8072
  33   2.0000      -5.646337      -153.6447
  34   2.0000      -5.645978      -153.6349
  35   2.0000      -5.644196      -153.5864
  36   2.0000      -5.643488      -153.5671
  37   2.0000      -4.644945      -126.3954
  38   2.0000      -4.643887      -126.3666
  39   2.0000      -4.642147      -126.3192
  40   2.0000      -4.638608      -126.2230
  41   2.0000      -4.637778      -126.2004
  42   2.0000      -4.636974      -126.1785
  43   2.0000      -0.989422       -26.9235
  44   2.0000      -0.978479       -26.6258
  45   2.0000      -0.945160       -25.7191
  46   2.0000      -0.934617       -25.4322
  47   2.0000      -0.762640       -20.7525
  48   2.0000      -0.720706       -19.6114
  49   2.0000      -0.707098       -19.2411
  50   2.0000      -0.691671       -18.8213
  51   2.0000      -0.681083       -18.5332
  52   2.0000      -0.671797       -18.2805
  53   2.0000      -0.646080       -17.5807
  54   2.0000      -0.629439       -17.1279
  55   2.0000      -0.593883       -16.1604
  56   2.0000      -0.584219       -15.8974
  57   2.0000      -0.573043       -15.5933
  58   2.0000      -0.565155       -15.3786
  59   2.0000      -0.554697       -15.0941
  60   2.0000      -0.509367       -13.8606
  61   2.0000      -0.495021       -13.4702
  62   2.0000      -0.478673       -13.0254
  63   2.0000      -0.465683       -12.6719
  64   2.0000      -0.450543       -12.2599
  65   2.0000      -0.445696       -12.1280
  66   2.0000      -0.437818       -11.9136
  67   2.0000      -0.434831       -11.8324
  68   2.0000      -0.427817       -11.6415
  69   2.0000      -0.417983       -11.3739
  70   2.0000      -0.409513       -11.1434
  71   2.0000      -0.389273       -10.5926
  72   2.0000      -0.386243       -10.5102
  73   2.0000      -0.382450       -10.4070
  74   2.0000      -0.380866       -10.3639
  75   2.0000      -0.367546       -10.0014
  76   2.0000      -0.362091        -9.8530
  77   2.0000      -0.353420        -9.6170
  78   2.0000      -0.350878        -9.5479
  79   2.0000      -0.348079        -9.4717
  80   2.0000      -0.345189        -9.3931
  81   2.0000      -0.342825        -9.3287
  82   2.0000      -0.337836        -9.1930
  83   2.0000      -0.333012        -9.0617
  84   2.0000      -0.323725        -8.8090
  85   2.0000      -0.315410        -8.5828
  86   2.0000      -0.307900        -8.3784
  87   2.0000      -0.304831        -8.2949
  88   2.0000      -0.297656        -8.0996
  89   2.0000      -0.290351        -7.9009
  90   2.0000      -0.279058        -7.5936
  91   2.0000      -0.271589        -7.3903
  92   2.0000      -0.262892        -7.1536
  93   2.0000      -0.260809        -7.0970
  94   2.0000      -0.256139        -6.9699
  95   2.0000      -0.235680        -6.4132
  96   2.0000      -0.220374        -5.9967
  97   2.0000      -0.212568        -5.7843
  98   2.0000      -0.201440        -5.4815
  99   2.0000      -0.191450        -5.2096
 100   2.0000      -0.182373        -4.9626
 101   0.0000      -0.041189        -1.1208
 102   0.0000      -0.030971        -0.8428
 103   0.0000      -0.008678        -0.2361
 104   0.0000       0.012947         0.3523
 105   0.0000       0.018484         0.5030

MULLIKEN ATOMIC CHARGES
-----------------------
   0 C :   -0.311552
   1 C :   -0.001732
   2 O :   -0.380799
   3 P :    0.611943
   4 S :   -0.321852
   5 O :   -0.356633
   6 C :   -0.003585
   7 C :   -0.278589
   8 S :   -0.090337
   9 C :   -0.354334
  10 S :   -0.119235
  11 P :    0.603362
  12 S :   -0.291975
  13 O :   -0.343132
  14 C :   -0.016781
  15 C :   -0.285689
  16 O :   -0.386503
  17 C :   -0.011799
  18 C :   -0.280555
  19 H :    0.115267
  20 H :    0.121146
  21 H :    0.110881
  22 H :    0.109555
  23 H :    0.101473
  24 H :    0.094680
  25 H :    0.112563
  26 H :    0.104162
  27 H :    0.103269
  28 H :    0.125594
  29 H :    0.182671
  30 H :    0.211156
  31 H :    0.109367
  32 H :    0.105482
  33 H :    0.124370
  34 H :    0.105407
  35 H :    0.122173
  36 H :    0.106938
  37 H :    0.104443
  38 H :    0.121886
  39 H :    0.113586
  40 H :    0.113708
Sum of atomic charges:    0.0000000

LOEWDIN ATOMIC CHARGES
----------------------
   0 C :   -0.369304
   1 C :   -0.121029
   2 O :   -0.249296
   3 P :    0.567405
   4 S :   -0.315574
   5 O :   -0.236598
   6 C :   -0.117898
   7 C :   -0.352522
   8 S :    0.096328
   9 C :   -0.477611
  10 S :    0.061835
  11 P :    0.561170
  12 S :   -0.287090
  13 O :   -0.224857
  14 C :   -0.109270
  15 C :   -0.363860
  16 O :   -0.252392
  17 C :   -0.120833
  18 C :   -0.350262
  19 H :    0.123029
  20 H :    0.119725
  21 H :    0.129755
  22 H :    0.109268
  23 H :    0.116736
  24 H :    0.106156
  25 H :    0.110519
  26 H :    0.121281
  27 H :    0.127003
  28 H :    0.126725
  29 H :    0.137472
  30 H :    0.127761
  31 H :    0.121593
  32 H :    0.109488
  33 H :    0.127661
  34 H :    0.127298
  35 H :    0.114844
  36 H :    0.110211
  37 H :    0.108346
  38 H :    0.129694
  39 H :    0.131728
  40 H :    0.125367

  Mayer bond orders larger than 0.100000
B(  0-C ,  1-C ) :   1.1659 B(  0-C , 19-H ) :   0.9450 B(  0-C , 20-H ) :   0.9363
B(  0-C , 21-H ) :   0.9385 B(  1-C ,  2-O ) :   0.9134 B(  1-C , 22-H ) :   0.9126
B(  1-C , 23-H ) :   0.9338 B(  2-O ,  3-P ) :   1.0933 B(  3-P ,  4-S ) :   1.6070
B(  3-P ,  5-O ) :   1.1417 B(  3-P ,  8-S ) :   0.9721 B(  4-S ,  8-S ) :   0.1165
B(  5-O ,  6-C ) :   0.8959 B(  6-C ,  7-C ) :   1.1658 B(  6-C , 24-H ) :   0.9265
B(  6-C , 25-H ) :   0.9148 B(  7-C , 26-H ) :   0.9505 B(  7-C , 27-H ) :   0.9411
B(  7-C , 28-H ) :   0.9412 B(  8-S ,  9-C ) :   0.9932 B(  9-C , 10-S ) :   1.0101
B(  9-C , 29-H ) :   0.9111 B(  9-C , 30-H ) :   0.8466 B( 10-S , 11-P ) :   0.9339
B( 10-S , 12-S ) :   0.1059 B( 11-P , 12-S ) :   1.6561 B( 11-P , 13-O ) :   1.1459
B( 11-P , 16-O ) :   1.0790 B( 13-O , 14-C ) :   0.8921 B( 14-C , 15-C ) :   1.1691
B( 14-C , 31-H ) :   0.9344 B( 14-C , 32-H ) :   0.9189 B( 15-C , 33-H ) :   0.9427
B( 15-C , 34-H ) :   0.9370 B( 15-C , 35-H ) :   0.9325 B( 16-O , 17-C ) :   0.9027
B( 17-C , 18-C ) :   1.1604 B( 17-C , 36-H ) :   0.9090 B( 17-C , 37-H ) :   0.9285
B( 18-C , 38-H ) :   0.9507 B( 18-C , 39-H ) :   0.9418 B( 18-C , 40-H ) :   0.9514

Dispersion correction           -0.067259426
FINAL SINGLE POINT ENERGY     -2929.520829200602

DIPOLE MOMENT
-------------

Method             : SCF
Type of density    : Electron Density
Multiplicity       :   1
Irrep              :   0
Energy             : -2929.6389938755428375 Eh
Relativity type    :
Basis              : AO
                                X                 Y                 Z
Electronic contribution:      2.744219456       0.372744155     -11.622218769
Nuclear contribution   :     -3.126878327      -1.293709333      12.587420026
                        -----------------------------------------
Total Dipole Moment    :     -0.382658872      -0.920965179       0.965201256
                        -----------------------------------------
Magnitude (a.u.)       :      1.387882609
Magnitude (Debye)      :      3.527717241

Rotational constants in cm-1:             0.012804             0.005272             0.005087
Rotational constants in MHz :           383.846252           158.058910           152.504576

                             ****ORCA TERMINATED NORMALLY****
TOTAL RUN TIME: 0 days 0 hours 0 minutes 21 seconds 599 msec
