                         Program Version 6.0.0  -   RELEASE  -
|  1> ! pbe def2-sv(p) def2/J RI DEFGRID1 loosescf d4 GCP(DFT/SV(P)) printgap
|  2> %output
|  3>     printlevel normal
|  4> end
|  5> * xyz 0 1
|  6> C 2.8150489486 0.7506653432 -2.3867911956
|  7> C 2.6517561642 1.6237658484 -1.1601035471
|  8> O 1.6512997182 1.1155263958 -0.2408630916
|  9> P 1.847189604 -0.0527166323 0.8048225301
| 10> S 0.5502137933 0.1708434828 2.2577790573
| 11> O 3.3777078839 0.0982388317 1.1950934953
| 12> C 4.1860075652 -0.9373949829 1.785769459
| 13> C 3.5707201999 -1.5192767335 3.0405137192
| 14> S 1.8199039201 -1.9183013622 -0.2340005764
| 15> C 0.2732497054 -1.7587358822 -1.1582708729
| 16> S -1.2106979927 -1.5964542622 -0.1186028613
| 17> P -1.9986349152 0.2393090396 -0.8703626338
| 18> S -0.9798278096 1.0969865002 -2.2982318171
| 19> O -2.3118114969 1.1613947611 0.3874258389
| 20> C -1.5644973729 2.3356638134 0.7375179882
| 21> C -2.3084694272 3.5739850252 0.2795688677
| 22> O -3.4398680058 -0.1605979293 -1.3792609101
| 23> C -4.3282553762 -1.1343428402 -0.7854747004
| 24> C -4.5960437814 -0.8628011984 0.6788157627
| 25> H 3.5331439463 1.2199748199 -3.0519042926
| 26> H 3.1793682319 -0.2374336293 -2.1152839282
| 27> H 1.8653261741 0.6579880758 -2.9092224086
| 28> H 2.2638156331 2.6073131596 -1.4298054387
| 29> H 3.5917315177 1.7270117016 -0.6165354738
| 30> H 4.3415225286 -1.7170856107 1.0351306542
| 31> H 5.1296434251 -0.4327424691 2.0006783446
| 32> H 4.256716166 -2.2368186394 3.4788206258
| 33> H 3.360698204 -0.7326696916 3.7615788415
| 34> H 2.6352678904 -2.0234871914 2.8006319475
| 35> H 0.1879191468 -2.6836110365 -1.7234631071
| 36> H 0.3207592645 -0.89201568 -1.8236630839
| 37> H -1.4584604095 2.2987982238 1.8236413832
| 38> H -0.570803832 2.2883212673 0.2818047811
| 39> H -1.7613046587 4.4562990619 0.5952663574
| 40> H -2.3928886317 3.574389717 -0.8056998052
| 41> H -3.3047509055 3.5921279543 0.7118815912
| 42> H -5.2338556476 -1.0439769733 -1.3871479631
| 43> H -3.8876471897 -2.1254525295 -0.9219959147
| 44> H -3.671958477 -0.9439538349 1.2507877584
| 45> H -5.0001873146 0.1372859995 0.8118854134
| 46> H -5.3069276991 -1.5926777307 1.0534932481
| 47> *
| 48>
| 49>                          ****END OF INPUT****

CARTESIAN COORDINATES (ANGSTROEM)
---------------------------------
  C      2.815049    0.750665   -2.386791
  C      2.651756    1.623766   -1.160104
  O      1.651300    1.115526   -0.240863
  P      1.847190   -0.052717    0.804823
  S      0.550214    0.170843    2.257779
  O      3.377708    0.098239    1.195093
  C      4.186008   -0.937395    1.785769
  C      3.570720   -1.519277    3.040514
  S      1.819904   -1.918301   -0.234001
  C      0.273250   -1.758736   -1.158271
  S     -1.210698   -1.596454   -0.118603
  P     -1.998635    0.239309   -0.870363
  S     -0.979828    1.096987   -2.298232
  O     -2.311811    1.161395    0.387426
  C     -1.564497    2.335664    0.737518
  C     -2.308469    3.573985    0.279569
  O     -3.439868   -0.160598   -1.379261
  C     -4.328255   -1.134343   -0.785475
  C     -4.596044   -0.862801    0.678816
  H      3.533144    1.219975   -3.051904
  H      3.179368   -0.237434   -2.115284
  H      1.865326    0.657988   -2.909222
  H      2.263816    2.607313   -1.429805
  H      3.591732    1.727012   -0.616535
  H      4.341523   -1.717086    1.035131
  H      5.129643   -0.432742    2.000678
  H      4.256716   -2.236819    3.478821
  H      3.360698   -0.732670    3.761579
  H      2.635268   -2.023487    2.800632
  H      0.187919   -2.683611   -1.723463
  H      0.320759   -0.892016   -1.823663
  H     -1.458460    2.298798    1.823641
  H     -0.570804    2.288321    0.281805
  H     -1.761305    4.456299    0.595266
  H     -2.392889    3.574390   -0.805700
  H     -3.304751    3.592128    0.711882
  H     -5.233856   -1.043977   -1.387148
  H     -3.887647   -2.125453   -0.921996
  H     -3.671958   -0.943954    1.250788
  H     -5.000187    0.137286    0.811885
  H     -5.306928   -1.592678    1.053493

 Total Charge           Charge          ....    0
 Multiplicity           Mult            ....    1
 Number of Electrons    NEL             ....  202
 Basis Dimension        Dim             ....  334

ORBITAL ENERGIES
----------------

  NO   OCC          E(Eh)            E(eV)
   0   2.0000     -88.044963     -2395.8252
   1   2.0000     -88.039163     -2395.6674
   2   2.0000     -87.983846     -2394.1622
   3   2.0000     -87.976804     -2393.9705
   4   2.0000     -76.426272     -2079.6646
   5   2.0000     -76.422246     -2079.5550
   6   2.0000     -18.795665      -511.4561
   7   2.0000     -18.789345      -511.2841
   8   2.0000     -18.784745      -511.1589
   9   2.0000     -18.781757      -511.0776
  10   2.0000      -9.962764      -271.1006
  11   2.0000      -9.956535      -270.9311
  12   2.0000      -9.953584      -270.8508
  13   2.0000      -9.952350      -270.8172
  14   2.0000      -9.934062      -270.3196
  15   2.0000      -9.885373      -268.9947
  16   2.0000      -9.885259      -268.9916
  17   2.0000      -9.882219      -268.9088
  18   2.0000      -9.871403      -268.6145
  19   2.0000      -7.689829      -209.2509
  20   2.0000      -7.683734      -209.0850
  21   2.0000      -7.629075      -207.5977
  22   2.0000      -7.621805      -207.3998
  23   2.0000      -6.423215      -174.7846
  24   2.0000      -6.419858      -174.6932
  25   2.0000      -5.717598      -155.5837
  26   2.0000      -5.714308      -155.4942
  27   2.0000      -5.711616      -155.4210
  28   2.0000      -5.708329      -155.3315
  29   2.0000      -5.706982      -155.2949
  30   2.0000      -5.700657      -155.1228
  31   2.0000      -5.657909      -153.9595
  32   2.0000      -5.650926      -153.7695
  33   2.0000      -5.649857      -153.7404
  34   2.0000      -5.649018      -153.7176
  35   2.0000      -5.642431      -153.5383
  36   2.0000      -5.641751      -153.5198
  37   2.0000      -4.646472      -126.4369
  38   2.0000      -4.645254      -126.4038
  39   2.0000      -4.642870      -126.3389
  40   2.0000      -4.642383      -126.3257
  41   2.0000      -4.641448      -126.3002
  42   2.0000      -4.640594      -126.2770
  43   2.0000      -0.988880       -26.9088
  44   2.0000      -0.978255       -26.6197
  45   2.0000      -0.944431       -25.6993
  46   2.0000      -0.936514       -25.4838
  47   2.0000      -0.760422       -20.6921
  48   2.0000      -0.718962       -19.5639
  49   2.0000      -0.709617       -19.3097
  50   2.0000      -0.691993       -18.8301
  51   2.0000      -0.684192       -18.6178
  52   2.0000      -0.672378       -18.2963
  53   2.0000      -0.649075       -17.6622
  54   2.0000      -0.635795       -17.3009
  55   2.0000      -0.593443       -16.1484
  56   2.0000      -0.587830       -15.9957
  57   2.0000      -0.578811       -15.7502
  58   2.0000      -0.568862       -15.4795
  59   2.0000      -0.559570       -15.2267
  60   2.0000      -0.501194       -13.6382
  61   2.0000      -0.489987       -13.3332
  62   2.0000      -0.472224       -12.8499
  63   2.0000      -0.469663       -12.7802
  64   2.0000      -0.453354       -12.3364
  65   2.0000      -0.449428       -12.2296
  66   2.0000      -0.439295       -11.9538
  67   2.0000      -0.434242       -11.8163
  68   2.0000      -0.423031       -11.5113
  69   2.0000      -0.419063       -11.4033
  70   2.0000      -0.411040       -11.1850
  71   2.0000      -0.400690       -10.9033
  72   2.0000      -0.397027       -10.8037
  73   2.0000      -0.385618       -10.4932
  74   2.0000      -0.373250       -10.1566
  75   2.0000      -0.368306       -10.0221
  76   2.0000      -0.355455        -9.6724
  77   2.0000      -0.353668        -9.6238
  78   2.0000      -0.352050        -9.5798
  79   2.0000      -0.347595        -9.4585
  80   2.0000      -0.344638        -9.3781
  81   2.0000      -0.342684        -9.3249
  82   2.0000      -0.341710        -9.2984
  83   2.0000      -0.337585        -9.1862
  84   2.0000      -0.327809        -8.9201
  85   2.0000      -0.323733        -8.8092
  86   2.0000      -0.306813        -8.3488
  87   2.0000      -0.299633        -8.1534
  88   2.0000      -0.291901        -7.9430
  89   2.0000      -0.290537        -7.9059
  90   2.0000      -0.278449        -7.5770
  91   2.0000      -0.275378        -7.4934
  92   2.0000      -0.268591        -7.3087
  93   2.0000      -0.259210        -7.0535
  94   2.0000      -0.254595        -6.9279
  95   2.0000      -0.236853        -6.4451
  96   2.0000      -0.220397        -5.9973
  97   2.0000      -0.203880        -5.5479
  98   2.0000      -0.200439        -5.4542
  99   2.0000      -0.190850        -5.1933
 100   2.0000      -0.181927        -4.9505
 101   0.0000      -0.045515        -1.2385
 102   0.0000      -0.030985        -0.8431
 103   0.0000      -0.016546        -0.4503
 104   0.0000      -0.004216        -0.1147
 105   0.0000       0.022394         0.6094

MULLIKEN ATOMIC CHARGES
-----------------------
   0 C :   -0.334845
   1 C :    0.006164
   2 O :   -0.354907
   3 P :    0.606847
   4 S :   -0.302334
   5 O :   -0.381722
   6 C :   -0.015704
   7 C :   -0.311436
   8 S :   -0.134879
   9 C :   -0.340679
  10 S :   -0.103892
  11 P :    0.624872
  12 S :   -0.324483
  13 O :   -0.375516
  14 C :   -0.030343
  15 C :   -0.277059
  16 O :   -0.363550
  17 C :   -0.005601
  18 C :   -0.316672
  19 H :    0.109645
  20 H :    0.118270
  21 H :    0.147073
  22 H :    0.110128
  23 H :    0.108531
  24 H :    0.116149
  25 H :    0.111160
  26 H :    0.112256
  27 H :    0.129123
  28 H :    0.130956
  29 H :    0.181824
  30 H :    0.205977
  31 H :    0.109435
  32 H :    0.128076
  33 H :    0.105070
  34 H :    0.114835
  35 H :    0.105297
  36 H :    0.110260
  37 H :    0.109959
  38 H :    0.134948
  39 H :    0.123213
  40 H :    0.113554
Sum of atomic charges:    0.0000000

LOEWDIN ATOMIC CHARGES
----------------------
   0 C :   -0.372821
   1 C :   -0.109424
   2 O :   -0.232353
   3 P :    0.563894
   4 S :   -0.300053
   5 O :   -0.244916
   6 C :   -0.115332
   7 C :   -0.370171
   8 S :    0.061047
   9 C :   -0.479252
  10 S :    0.080846
  11 P :    0.577380
  12 S :   -0.299486
  13 O :   -0.238251
  14 C :   -0.127829
  15 C :   -0.359261
  16 O :   -0.240751
  17 C :   -0.116778
  18 C :   -0.366650
  19 H :    0.130727
  20 H :    0.115620
  21 H :    0.126879
  22 H :    0.122469
  23 H :    0.112243
  24 H :    0.108194
  25 H :    0.122200
  26 H :    0.130543
  27 H :    0.131580
  28 H :    0.123216
  29 H :    0.137952
  30 H :    0.120497
  31 H :    0.113774
  32 H :    0.109549
  33 H :    0.127604
  34 H :    0.123011
  35 H :    0.121003
  36 H :    0.122445
  37 H :    0.107273
  38 H :    0.122485
  39 H :    0.129463
  40 H :    0.131437

  Mayer bond orders larger than 0.100000
B(  0-C ,  1-C ) :   1.1744 B(  0-C , 19-H ) :   0.9356 B(  0-C , 20-H ) :   0.9340
B(  0-C , 21-H ) :   0.9283 B(  1-C ,  2-O ) :   0.8904 B(  1-C , 22-H ) :   0.9306
B(  1-C , 23-H ) :   0.9247 B(  2-O ,  3-P ) :   1.1207 B(  3-P ,  4-S ) :   1.6812
B(  3-P ,  5-O ) :   1.0752 B(  3-P ,  8-S ) :   0.9326 B(  4-S ,  8-S ) :   0.1132
B(  5-O ,  6-C ) :   0.9133 B(  6-C ,  7-C ) :   1.1670 B(  6-C , 24-H ) :   0.9244
B(  6-C , 25-H ) :   0.9333 B(  7-C , 26-H ) :   0.9342 B(  7-C , 27-H ) :   0.9419
B(  7-C , 28-H ) :   0.9317 B(  8-S ,  9-C ) :   0.9959 B(  9-C , 10-S ) :   1.0172
B(  9-C , 29-H ) :   0.9119 B(  9-C , 30-H ) :   0.8390 B( 10-S , 11-P ) :   0.9458
B( 10-S , 12-S ) :   0.1124 B( 11-P , 12-S ) :   1.6012 B( 11-P , 13-O ) :   1.1144
B( 11-P , 16-O ) :   1.1387 B( 12-S , 30-H ) :   0.1134 B( 13-O , 14-C ) :   0.8875
B( 14-C , 15-C ) :   1.1524 B( 14-C , 31-H ) :   0.9278 B( 14-C , 32-H ) :   0.9054
B( 15-C , 33-H ) :   0.9423 B( 15-C , 34-H ) :   0.9420 B( 15-C , 35-H ) :   0.9481
B( 16-O , 17-C ) :   0.9084 B( 17-C , 18-C ) :   1.1679 B( 17-C , 36-H ) :   0.9331
B( 17-C , 37-H ) :   0.9183 B( 18-C , 38-H ) :   0.9351 B( 18-C , 39-H ) :   0.9435
B( 18-C , 40-H ) :   0.9354

Dispersion correction           -0.068196282
FINAL SINGLE POINT ENERGY     -2929.507516041411

DIPOLE MOMENT
-------------

Method             : SCF
Type of density    : Electron Density
Multiplicity       :   1
Irrep              :   0
Energy             : -2929.6262437574000614 Eh
Relativity type    :
Basis              : AO
                                X                 Y                 Z
Electronic contribution:     -1.321022902      -5.946018632      -2.722778450
Nuclear contribution   :      2.068117987       5.464066904       2.715851112
                        -----------------------------------------
Total Dipole Moment    :      0.747095085      -0.481951728      -0.006927338
                        -----------------------------------------
Magnitude (a.u.)       :      0.889087466
Magnitude (Debye)      :      2.259880742

Rotational constants in cm-1:             0.012119             0.005509             0.005268
Rotational constants in MHz :           363.324225           165.144290           157.928663

                             ****ORCA TERMINATED NORMALLY****
TOTAL RUN TIME: 0 days 0 hours 0 minutes 22 seconds 24 msec
