                         Program Version 6.0.0  -   RELEASE  -
|  1> ! pbe def2-sv(p) def2/J RI DEFGRID1 loosescf d4 GCP(DFT/SV(P)) printgap
|  2> %output
|  3>     printlevel normal
|  4> end
|  5> * xyz 0 1
|  6> C 5.8418259653 -0.481396882 -0.519593015
|  7> C 4.397577787 -0.7956162273 -0.8522995205
|  8> O 3.5691999081 0.1937871962 -0.2083795936
|  9> P 2.0469566081 0.3988737179 -0.6323697724
| 10> S 1.765342299 0.6522628089 -2.5490794042
| 11> O 1.6569527904 1.6270721552 0.2678451451
| 12> C 1.9321172229 1.6579732964 1.6937147973
| 13> C 1.0207690003 2.6920820203 2.3191028103
| 14> S 1.1563486448 -1.3427338999 0.2084847468
| 15> C -0.1030785813 -1.737471536 -1.0490862036
| 16> S -1.7423541002 -1.9464790146 -0.3331873281
| 17> P -2.0199518977 0.0652560956 0.3078142979
| 18> S -1.3463900653 1.4530620348 -0.9070671996
| 19> O -1.3231344505 0.2348825828 1.7102949782
| 20> C -1.2648519146 -0.734342634 2.7905012193
| 21> C -2.6153725597 -1.2960069191 3.1767908784
| 22> O -3.5596795403 0.1325487833 0.68058904
| 23> C -4.6418911072 -0.3388999345 -0.142287775
| 24> C -4.6346850922 0.2669561156 -1.5300209369
| 25> H 6.4827458744 -1.2204538906 -0.988689584
| 26> H 6.1028168352 0.506183884 -0.8894819154
| 27> H 5.9894812724 -0.5060595122 0.556063449
| 28> H 4.1054529085 -1.7799059059 -0.4760053527
| 29> H 4.213047227 -0.7531846079 -1.9308412149
| 30> H 1.7495038053 0.6597282951 2.1039528184
| 31> H 2.9853364739 1.9152159637 1.81983138
| 32> H 1.1997560613 3.664798239 1.8697215718
| 33> H -0.0190656981 2.4217039667 2.1507917855
| 34> H 1.2159688427 2.7427880514 3.3853665134
| 35> H 0.1558479111 -2.6888058309 -1.5067837267
| 36> H -0.1109595612 -0.9310266342 -1.7882275511
| 37> H -0.5811241229 -1.5322149856 2.4853821496
| 38> H -0.8221221072 -0.162365415 3.6076071442
| 39> H -3.3149262055 -0.4900602214 3.3821041861
| 40> H -3.0139329178 -1.9184549664 2.3786113105
| 41> H -2.4960916378 -1.9035639241 4.0687141864
| 42> H -4.5782025053 -1.429191343 -0.1976770074
| 43> H -5.533602822 -0.0458345022 0.4145380015
| 44> H -5.5137118536 -0.0633534293 -2.074008016
| 45> H -4.6337126323 1.352955601 -1.470621765
| 46> H -3.7433441357 -0.0441037676 -2.0734972413
| 47> *
| 48>
| 49>                          ****END OF INPUT****

CARTESIAN COORDINATES (ANGSTROEM)
---------------------------------
  C      5.841826   -0.481397   -0.519593
  C      4.397578   -0.795616   -0.852300
  O      3.569200    0.193787   -0.208380
  P      2.046957    0.398874   -0.632370
  S      1.765342    0.652263   -2.549079
  O      1.656953    1.627072    0.267845
  C      1.932117    1.657973    1.693715
  C      1.020769    2.692082    2.319103
  S      1.156349   -1.342734    0.208485
  C     -0.103079   -1.737472   -1.049086
  S     -1.742354   -1.946479   -0.333187
  P     -2.019952    0.065256    0.307814
  S     -1.346390    1.453062   -0.907067
  O     -1.323134    0.234883    1.710295
  C     -1.264852   -0.734343    2.790501
  C     -2.615373   -1.296007    3.176791
  O     -3.559680    0.132549    0.680589
  C     -4.641891   -0.338900   -0.142288
  C     -4.634685    0.266956   -1.530021
  H      6.482746   -1.220454   -0.988690
  H      6.102817    0.506184   -0.889482
  H      5.989481   -0.506060    0.556063
  H      4.105453   -1.779906   -0.476005
  H      4.213047   -0.753185   -1.930841
  H      1.749504    0.659728    2.103953
  H      2.985336    1.915216    1.819831
  H      1.199756    3.664798    1.869722
  H     -0.019066    2.421704    2.150792
  H      1.215969    2.742788    3.385367
  H      0.155848   -2.688806   -1.506784
  H     -0.110960   -0.931027   -1.788228
  H     -0.581124   -1.532215    2.485382
  H     -0.822122   -0.162365    3.607607
  H     -3.314926   -0.490060    3.382104
  H     -3.013933   -1.918455    2.378611
  H     -2.496092   -1.903564    4.068714
  H     -4.578203   -1.429191   -0.197677
  H     -5.533603   -0.045835    0.414538
  H     -5.513712   -0.063353   -2.074008
  H     -4.633713    1.352956   -1.470622
  H     -3.743344   -0.044104   -2.073497

 Total Charge           Charge          ....    0
 Multiplicity           Mult            ....    1
 Number of Electrons    NEL             ....  202
 Basis Dimension        Dim             ....  334

ORBITAL ENERGIES
----------------

  NO   OCC          E(Eh)            E(eV)
   0   2.0000     -88.048426     -2395.9195
   1   2.0000     -88.040867     -2395.7138
   2   2.0000     -87.978531     -2394.0175
   3   2.0000     -87.974574     -2393.9099
   4   2.0000     -76.424401     -2079.6137
   5   2.0000     -76.419501     -2079.4804
   6   2.0000     -18.792450      -511.3686
   7   2.0000     -18.790483      -511.3150
   8   2.0000     -18.786827      -511.2155
   9   2.0000     -18.783560      -511.1266
  10   2.0000      -9.959396      -271.0089
  11   2.0000      -9.957344      -270.9531
  12   2.0000      -9.955008      -270.8895
  13   2.0000      -9.949809      -270.7481
  14   2.0000      -9.948052      -270.7002
  15   2.0000      -9.891028      -269.1486
  16   2.0000      -9.886089      -269.0141
  17   2.0000      -9.881436      -268.8876
  18   2.0000      -9.876694      -268.7585
  19   2.0000      -7.693263      -209.3443
  20   2.0000      -7.685411      -209.1307
  21   2.0000      -7.623760      -207.4531
  22   2.0000      -7.619427      -207.3351
  23   2.0000      -6.421286      -174.7321
  24   2.0000      -6.416988      -174.6151
  25   2.0000      -5.721015      -155.6767
  26   2.0000      -5.717535      -155.5820
  27   2.0000      -5.713225      -155.4648
  28   2.0000      -5.710664      -155.3951
  29   2.0000      -5.709799      -155.3715
  30   2.0000      -5.702623      -155.1763
  31   2.0000      -5.652884      -153.8228
  32   2.0000      -5.648652      -153.7076
  33   2.0000      -5.644205      -153.5866
  34   2.0000      -5.643850      -153.5770
  35   2.0000      -5.639979      -153.4716
  36   2.0000      -5.639384      -153.4555
  37   2.0000      -4.644031      -126.3705
  38   2.0000      -4.643586      -126.3584
  39   2.0000      -4.641131      -126.2916
  40   2.0000      -4.639724      -126.2533
  41   2.0000      -4.638757      -126.2270
  42   2.0000      -4.637303      -126.1874
  43   2.0000      -0.986899       -26.8549
  44   2.0000      -0.982454       -26.7339
  45   2.0000      -0.945122       -25.7181
  46   2.0000      -0.937061       -25.4987
  47   2.0000      -0.763059       -20.7639
  48   2.0000      -0.719508       -19.5788
  49   2.0000      -0.711492       -19.3607
  50   2.0000      -0.692214       -18.8361
  51   2.0000      -0.686019       -18.6675
  52   2.0000      -0.676388       -18.4055
  53   2.0000      -0.646800       -17.6003
  54   2.0000      -0.630682       -17.1617
  55   2.0000      -0.589451       -16.0398
  56   2.0000      -0.581333       -15.8189
  57   2.0000      -0.579488       -15.7687
  58   2.0000      -0.567830       -15.4514
  59   2.0000      -0.563109       -15.3230
  60   2.0000      -0.508039       -13.8244
  61   2.0000      -0.493117       -13.4184
  62   2.0000      -0.477054       -12.9813
  63   2.0000      -0.473436       -12.8829
  64   2.0000      -0.452934       -12.3249
  65   2.0000      -0.449852       -12.2411
  66   2.0000      -0.440309       -11.9814
  67   2.0000      -0.434339       -11.8190
  68   2.0000      -0.432130       -11.7588
  69   2.0000      -0.416404       -11.3309
  70   2.0000      -0.410496       -11.1702
  71   2.0000      -0.402954       -10.9649
  72   2.0000      -0.395055       -10.7500
  73   2.0000      -0.390799       -10.6342
  74   2.0000      -0.372813       -10.1448
  75   2.0000      -0.364518        -9.9190
  76   2.0000      -0.360958        -9.8222
  77   2.0000      -0.355246        -9.6667
  78   2.0000      -0.349307        -9.5051
  79   2.0000      -0.347464        -9.4550
  80   2.0000      -0.346138        -9.4189
  81   2.0000      -0.343887        -9.3576
  82   2.0000      -0.339743        -9.2449
  83   2.0000      -0.336750        -9.1634
  84   2.0000      -0.330736        -8.9998
  85   2.0000      -0.319425        -8.6920
  86   2.0000      -0.309786        -8.4297
  87   2.0000      -0.297217        -8.0877
  88   2.0000      -0.294863        -8.0236
  89   2.0000      -0.292702        -7.9648
  90   2.0000      -0.288188        -7.8420
  91   2.0000      -0.277398        -7.5484
  92   2.0000      -0.264400        -7.1947
  93   2.0000      -0.263121        -7.1599
  94   2.0000      -0.254058        -6.9133
  95   2.0000      -0.239088        -6.5059
  96   2.0000      -0.222258        -6.0480
  97   2.0000      -0.209239        -5.6937
  98   2.0000      -0.195862        -5.3297
  99   2.0000      -0.187234        -5.0949
 100   2.0000      -0.179593        -4.8870
 101   0.0000      -0.042825        -1.1653
 102   0.0000      -0.031294        -0.8515
 103   0.0000      -0.009484        -0.2581
 104   0.0000       0.008664         0.2358
 105   0.0000       0.020541         0.5590

MULLIKEN ATOMIC CHARGES
-----------------------
   0 C :   -0.279809
   1 C :   -0.006565
   2 O :   -0.391152
   3 P :    0.613231
   4 S :   -0.290370
   5 O :   -0.344430
   6 C :   -0.015837
   7 C :   -0.289818
   8 S :   -0.139924
   9 C :   -0.332190
  10 S :   -0.130901
  11 P :    0.582123
  12 S :   -0.274915
  13 O :   -0.354889
  14 C :   -0.005694
  15 C :   -0.303832
  16 O :   -0.372360
  17 C :   -0.013176
  18 C :   -0.306382
  19 H :    0.110714
  20 H :    0.121299
  21 H :    0.112096
  22 H :    0.096586
  23 H :    0.102458
  24 H :    0.099595
  25 H :    0.106349
  26 H :    0.119421
  27 H :    0.141775
  28 H :    0.099175
  29 H :    0.179317
  30 H :    0.210528
  31 H :    0.112827
  32 H :    0.105702
  33 H :    0.124588
  34 H :    0.116041
  35 H :    0.113260
  36 H :    0.109762
  37 H :    0.109200
  38 H :    0.109817
  39 H :    0.128279
  40 H :    0.128099
Sum of atomic charges:   -0.0000000

LOEWDIN ATOMIC CHARGES
----------------------
   0 C :   -0.350676
   1 C :   -0.123170
   2 O :   -0.255097
   3 P :    0.570125
   4 S :   -0.293952
   5 O :   -0.225228
   6 C :   -0.110852
   7 C :   -0.355838
   8 S :    0.056549
   9 C :   -0.477338
  10 S :    0.060782
  11 P :    0.558671
  12 S :   -0.284281
  13 O :   -0.232611
  14 C :   -0.115648
  15 C :   -0.366826
  16 O :   -0.242086
  17 C :   -0.114749
  18 C :   -0.368947
  19 H :    0.130187
  20 H :    0.129217
  21 H :    0.124658
  22 H :    0.104941
  23 H :    0.107429
  24 H :    0.101453
  25 H :    0.113511
  26 H :    0.130056
  27 H :    0.131859
  28 H :    0.124777
  29 H :    0.135909
  30 H :    0.126394
  31 H :    0.103191
  32 H :    0.119288
  33 H :    0.129185
  34 H :    0.116823
  35 H :    0.131545
  36 H :    0.106131
  37 H :    0.121292
  38 H :    0.129348
  39 H :    0.131535
  40 H :    0.122442

  Mayer bond orders larger than 0.100000
B(  0-C ,  1-C ) :   1.1595 B(  0-C , 19-H ) :   0.9424 B(  0-C , 20-H ) :   0.9510
B(  0-C , 21-H ) :   0.9513 B(  1-C ,  2-O ) :   0.9099 B(  1-C , 22-H ) :   0.9253
B(  1-C , 23-H ) :   0.9090 B(  2-O ,  3-P ) :   1.0669 B(  3-P ,  4-S ) :   1.6520
B(  3-P ,  5-O ) :   1.1492 B(  3-P ,  8-S ) :   0.9356 B(  4-S ,  8-S ) :   0.1136
B(  5-O ,  6-C ) :   0.8919 B(  6-C ,  7-C ) :   1.1662 B(  6-C , 24-H ) :   0.9146
B(  6-C , 25-H ) :   0.9309 B(  7-C , 26-H ) :   0.9478 B(  7-C , 27-H ) :   0.9332
B(  7-C , 28-H ) :   0.9396 B(  8-S ,  9-C ) :   0.9952 B(  9-C , 10-S ) :   1.0040
B(  9-C , 29-H ) :   0.9103 B(  9-C , 30-H ) :   0.8431 B( 10-S , 11-P ) :   0.9184
B( 10-S , 12-S ) :   0.1077 B( 11-P , 12-S ) :   1.6706 B( 11-P , 13-O ) :   1.1194
B( 11-P , 16-O ) :   1.0911 B( 13-O , 14-C ) :   0.9007 B( 14-C , 15-C ) :   1.1705
B( 14-C , 31-H ) :   0.9127 B( 14-C , 32-H ) :   0.9332 B( 15-C , 33-H ) :   0.9419
B( 15-C , 34-H ) :   0.9396 B( 15-C , 35-H ) :   0.9353 B( 16-O , 17-C ) :   0.9135
B( 17-C , 18-C ) :   1.1672 B( 17-C , 36-H ) :   0.9257 B( 17-C , 37-H ) :   0.9337
B( 18-C , 38-H ) :   0.9347 B( 18-C , 39-H ) :   0.9425 B( 18-C , 40-H ) :   0.9323

Dispersion correction           -0.067309796
FINAL SINGLE POINT ENERGY     -2929.513846418844

DIPOLE MOMENT
-------------

Method             : SCF
Type of density    : Electron Density
Multiplicity       :   1
Irrep              :   0
Energy             : -2929.6325680104623643 Eh
Relativity type    :
Basis              : AO
                                X                 Y                 Z
Electronic contribution:     -0.043172473       1.031860533     -12.724489575
Nuclear contribution   :     -0.165102898      -2.416884299      14.340071510
                        -----------------------------------------
Total Dipole Moment    :     -0.208275371      -1.385023767       1.615581935
                        -----------------------------------------
Magnitude (a.u.)       :      2.138170819
Magnitude (Debye)      :      5.434798312

Rotational constants in cm-1:             0.013061             0.005159             0.004873
Rotational constants in MHz :           391.572354           154.663519           146.085652

                             ****ORCA TERMINATED NORMALLY****
TOTAL RUN TIME: 0 days 0 hours 0 minutes 21 seconds 236 msec
