                         Program Version 6.0.0  -   RELEASE  -
|  1> ! pbe def2-sv(p) def2/J RI DEFGRID1 loosescf d4 GCP(DFT/SV(P)) printgap
|  2> %output
|  3>     printlevel normal
|  4> end
|  5> * xyz 0 1
|  6> C 1.0566236505 -0.8680727856 3.2048980213
|  7> C 1.2419054411 0.4735259747 2.5230846881
|  8> O 2.4293380903 0.517459088 1.7149187233
|  9> P 2.6317879856 -0.2152341264 0.3253555964
| 10> S 2.8408941778 -2.1692510839 0.3126925098
| 11> O 3.9338871542 0.5913048537 -0.0642968568
| 12> C 4.8714087617 0.0917698555 -1.0338090192
| 13> C 4.3167118667 0.1495820828 -2.4433998101
| 14> S 1.1029242119 0.5554495407 -0.9545722608
| 15> C 0.1525932378 -0.9677361702 -1.1992346166
| 16> S -1.0010714024 -1.320094482 0.1565894023
| 17> P -2.3051367012 0.2957330559 -0.2176570662
| 18> S -2.6442887706 0.7670979337 -2.0941740159
| 19> O -1.6001555817 1.4120615715 0.6632691391
| 20> C -1.8321128543 2.8185301558 0.4450170932
| 21> C -3.2378192384 3.2225356007 0.8363426692
| 22> O -3.5975135277 -0.0276891249 0.6470787571
| 23> C -4.7136435094 -0.7645652799 0.118204966
| 24> C -4.3614485108 -2.2109100655 -0.1637906396
| 25> H 0.2086453829 -0.8104638071 3.8797979127
| 26> H 0.8664285159 -1.6486500849 2.4703204545
| 27> H 1.9496963865 -1.1285201973 3.7671038661
| 28> H 1.4015280566 1.2685518766 3.2542749913
| 29> H 0.3726223919 0.7198154748 1.9049312545
| 30> H 5.7401140652 0.7408940277 -0.9164923097
| 31> H 5.137449994 -0.9362763121 -0.7665158674
| 32> H 5.0984194071 -0.1147992993 -3.148288061
| 33> H 3.493475272 -0.555600566 -2.5496495205
| 34> H 3.953034351 1.149749027 -2.6651019576
| 35> H 0.833900624 -1.8180884875 -1.250854598
| 36> H -0.407212505 -0.8408306388 -2.1249806078
| 37> H -1.0805518212 3.3089640773 1.0651685861
| 38> H -1.6414276746 3.0398483457 -0.6101474702
| 39> H -3.9578312459 2.7528681799 0.1673643403
| 40> H -3.4483413638 2.9090485743 1.8554564066
| 41> H -3.3370397483 4.3007857161 0.7599789595
| 42> H -5.4753695839 -0.6788242883 0.8941864737
| 43> H -5.053894246 -0.2677556472 -0.7961534013
| 44> H -3.9204271468 -2.671845066 0.7165406164
| 45> H -5.2596635125 -2.7521026673 -0.4434781202
| 46> H -3.6464400996 -2.2677878975 -0.9837131577
| 47> *
| 48>
| 49>                          ****END OF INPUT****

CARTESIAN COORDINATES (ANGSTROEM)
---------------------------------
  C      1.056624   -0.868073    3.204898
  C      1.241905    0.473526    2.523085
  O      2.429338    0.517459    1.714919
  P      2.631788   -0.215234    0.325356
  S      2.840894   -2.169251    0.312693
  O      3.933887    0.591305   -0.064297
  C      4.871409    0.091770   -1.033809
  C      4.316712    0.149582   -2.443400
  S      1.102924    0.555450   -0.954572
  C      0.152593   -0.967736   -1.199235
  S     -1.001071   -1.320094    0.156589
  P     -2.305137    0.295733   -0.217657
  S     -2.644289    0.767098   -2.094174
  O     -1.600156    1.412062    0.663269
  C     -1.832113    2.818530    0.445017
  C     -3.237819    3.222536    0.836343
  O     -3.597514   -0.027689    0.647079
  C     -4.713644   -0.764565    0.118205
  C     -4.361449   -2.210910   -0.163791
  H      0.208645   -0.810464    3.879798
  H      0.866429   -1.648650    2.470320
  H      1.949696   -1.128520    3.767104
  H      1.401528    1.268552    3.254275
  H      0.372622    0.719815    1.904931
  H      5.740114    0.740894   -0.916492
  H      5.137450   -0.936276   -0.766516
  H      5.098419   -0.114799   -3.148288
  H      3.493475   -0.555601   -2.549650
  H      3.953034    1.149749   -2.665102
  H      0.833901   -1.818088   -1.250855
  H     -0.407213   -0.840831   -2.124981
  H     -1.080552    3.308964    1.065169
  H     -1.641428    3.039848   -0.610147
  H     -3.957831    2.752868    0.167364
  H     -3.448341    2.909049    1.855456
  H     -3.337040    4.300786    0.759979
  H     -5.475370   -0.678824    0.894186
  H     -5.053894   -0.267756   -0.796153
  H     -3.920427   -2.671845    0.716541
  H     -5.259664   -2.752103   -0.443478
  H     -3.646440   -2.267788   -0.983713

 Total Charge           Charge          ....    0
 Multiplicity           Mult            ....    1
 Number of Electrons    NEL             ....  202
 Basis Dimension        Dim             ....  334

ORBITAL ENERGIES
----------------

  NO   OCC          E(Eh)            E(eV)
   0   2.0000     -88.047498     -2395.8942
   1   2.0000     -88.043173     -2395.7765
   2   2.0000     -87.996405     -2394.5039
   3   2.0000     -87.990578     -2394.3454
   4   2.0000     -76.432543     -2079.8352
   5   2.0000     -76.426540     -2079.6719
   6   2.0000     -18.800672      -511.5923
   7   2.0000     -18.796522      -511.4794
   8   2.0000     -18.789308      -511.2831
   9   2.0000     -18.786630      -511.2102
  10   2.0000      -9.958303      -270.9792
  11   2.0000      -9.955039      -270.8904
  12   2.0000      -9.954353      -270.8717
  13   2.0000      -9.949927      -270.7513
  14   2.0000      -9.945725      -270.6369
  15   2.0000      -9.888413      -269.0774
  16   2.0000      -9.888036      -269.0671
  17   2.0000      -9.882034      -268.9038
  18   2.0000      -9.873873      -268.6817
  19   2.0000      -7.692407      -209.3210
  20   2.0000      -7.687854      -209.1971
  21   2.0000      -7.641239      -207.9287
  22   2.0000      -7.635435      -207.7708
  23   2.0000      -6.430230      -174.9755
  24   2.0000      -6.423788      -174.8002
  25   2.0000      -5.720186      -155.6542
  26   2.0000      -5.717033      -155.5684
  27   2.0000      -5.715686      -155.5317
  28   2.0000      -5.712371      -155.4415
  29   2.0000      -5.709347      -155.3592
  30   2.0000      -5.704932      -155.2391
  31   2.0000      -5.669989      -154.2882
  32   2.0000      -5.664199      -154.1307
  33   2.0000      -5.661933      -154.0690
  34   2.0000      -5.661545      -154.0585
  35   2.0000      -5.656007      -153.9078
  36   2.0000      -5.655820      -153.9027
  37   2.0000      -4.652628      -126.6045
  38   2.0000      -4.651975      -126.5867
  39   2.0000      -4.650833      -126.5556
  40   2.0000      -4.646018      -126.4246
  41   2.0000      -4.645851      -126.4200
  42   2.0000      -4.644284      -126.3774
  43   2.0000      -0.993599       -27.0372
  44   2.0000      -0.986903       -26.8550
  45   2.0000      -0.952725       -25.9250
  46   2.0000      -0.941674       -25.6243
  47   2.0000      -0.765980       -20.8434
  48   2.0000      -0.722774       -19.6677
  49   2.0000      -0.710022       -19.3207
  50   2.0000      -0.691944       -18.8287
  51   2.0000      -0.680498       -18.5173
  52   2.0000      -0.676653       -18.4127
  53   2.0000      -0.655077       -17.8256
  54   2.0000      -0.642134       -17.4733
  55   2.0000      -0.607314       -16.5258
  56   2.0000      -0.596267       -16.2253
  57   2.0000      -0.577493       -15.7144
  58   2.0000      -0.566786       -15.4230
  59   2.0000      -0.561426       -15.2772
  60   2.0000      -0.500142       -13.6096
  61   2.0000      -0.491666       -13.3789
  62   2.0000      -0.478960       -13.0332
  63   2.0000      -0.466077       -12.6826
  64   2.0000      -0.460538       -12.5319
  65   2.0000      -0.445265       -12.1163
  66   2.0000      -0.443943       -12.0803
  67   2.0000      -0.433961       -11.8087
  68   2.0000      -0.423909       -11.5351
  69   2.0000      -0.417586       -11.3631
  70   2.0000      -0.410781       -11.1779
  71   2.0000      -0.404594       -11.0096
  72   2.0000      -0.397951       -10.8288
  73   2.0000      -0.391985       -10.6665
  74   2.0000      -0.382219       -10.4007
  75   2.0000      -0.377536       -10.2733
  76   2.0000      -0.370194       -10.0735
  77   2.0000      -0.361415        -9.8346
  78   2.0000      -0.356657        -9.7051
  79   2.0000      -0.352906        -9.6031
  80   2.0000      -0.348446        -9.4817
  81   2.0000      -0.343895        -9.3579
  82   2.0000      -0.340214        -9.2577
  83   2.0000      -0.337342        -9.1795
  84   2.0000      -0.332427        -9.0458
  85   2.0000      -0.320937        -8.7331
  86   2.0000      -0.311596        -8.4790
  87   2.0000      -0.300980        -8.1901
  88   2.0000      -0.296307        -8.0629
  89   2.0000      -0.289816        -7.8863
  90   2.0000      -0.284848        -7.7511
  91   2.0000      -0.278647        -7.5824
  92   2.0000      -0.270095        -7.3497
  93   2.0000      -0.267206        -7.2710
  94   2.0000      -0.258143        -7.0244
  95   2.0000      -0.238512        -6.4903
  96   2.0000      -0.220377        -5.9968
  97   2.0000      -0.218053        -5.9335
  98   2.0000      -0.209965        -5.7134
  99   2.0000      -0.207782        -5.6540
 100   2.0000      -0.203998        -5.5511
 101   0.0000      -0.048383        -1.3166
 102   0.0000      -0.030573        -0.8319
 103   0.0000      -0.006739        -0.1834
 104   0.0000      -0.003027        -0.0824
 105   0.0000       0.011473         0.3122

MULLIKEN ATOMIC CHARGES
-----------------------
   0 C :   -0.304955
   1 C :   -0.044755
   2 O :   -0.352660
   3 P :    0.605097
   4 S :   -0.332110
   5 O :   -0.357026
   6 C :   -0.005253
   7 C :   -0.309194
   8 S :   -0.093307
   9 C :   -0.362767
  10 S :   -0.075960
  11 P :    0.612650
  12 S :   -0.331115
  13 O :   -0.356954
  14 C :   -0.001448
  15 C :   -0.307037
  16 O :   -0.370226
  17 C :   -0.006052
  18 C :   -0.316729
  19 H :    0.104115
  20 H :    0.131853
  21 H :    0.114258
  22 H :    0.101084
  23 H :    0.141447
  24 H :    0.106928
  25 H :    0.114021
  26 H :    0.111705
  27 H :    0.120107
  28 H :    0.118259
  29 H :    0.193955
  30 H :    0.192602
  31 H :    0.106124
  32 H :    0.114649
  33 H :    0.122204
  34 H :    0.117180
  35 H :    0.114358
  36 H :    0.107922
  37 H :    0.112473
  38 H :    0.120677
  39 H :    0.115719
  40 H :    0.128161
Sum of atomic charges:    0.0000000

LOEWDIN ATOMIC CHARGES
----------------------
   0 C :   -0.367314
   1 C :   -0.125471
   2 O :   -0.231849
   3 P :    0.572343
   4 S :   -0.309350
   5 O :   -0.233863
   6 C :   -0.119409
   7 C :   -0.367495
   8 S :    0.082090
   9 C :   -0.487670
  10 S :    0.106695
  11 P :    0.573089
  12 S :   -0.319216
  13 O :   -0.236474
  14 C :   -0.117063
  15 C :   -0.364308
  16 O :   -0.242166
  17 C :   -0.118675
  18 C :   -0.369382
  19 H :    0.127737
  20 H :    0.115218
  21 H :    0.125495
  22 H :    0.117591
  23 H :    0.106038
  24 H :    0.119648
  25 H :    0.110251
  26 H :    0.130137
  27 H :    0.119197
  28 H :    0.125322
  29 H :    0.126618
  30 H :    0.129737
  31 H :    0.118822
  32 H :    0.111879
  33 H :    0.122495
  34 H :    0.126686
  35 H :    0.131440
  36 H :    0.120029
  37 H :    0.111327
  38 H :    0.125569
  39 H :    0.132492
  40 H :    0.121763

  Mayer bond orders larger than 0.100000
B(  0-C ,  1-C ) :   1.1636 B(  0-C , 19-H ) :   0.9387 B(  0-C , 20-H ) :   0.9307
B(  0-C , 21-H ) :   0.9453 B(  1-C ,  2-O ) :   0.9119 B(  1-C , 22-H ) :   0.9346
B(  1-C , 23-H ) :   0.8959 B(  2-O ,  3-P ) :   1.1397 B(  3-P ,  4-S ) :   1.5953
B(  3-P ,  5-O ) :   1.1323 B(  3-P ,  8-S ) :   0.9326 B(  4-S ,  8-S ) :   0.1208
B(  5-O ,  6-C ) :   0.9122 B(  6-C ,  7-C ) :   1.1633 B(  6-C , 24-H ) :   0.9339
B(  6-C , 25-H ) :   0.9142 B(  7-C , 26-H ) :   0.9386 B(  7-C , 27-H ) :   0.9385
B(  7-C , 28-H ) :   0.9450 B(  8-S ,  9-C ) :   1.0121 B(  9-C , 10-S ) :   0.9998
B(  9-C , 29-H ) :   0.8642 B(  9-C , 30-H ) :   0.8767 B( 10-S , 11-P ) :   0.9653
B( 10-S , 12-S ) :   0.1085 B( 11-P , 12-S ) :   1.5928 B( 11-P , 13-O ) :   1.1159
B( 11-P , 16-O ) :   1.1129 B( 13-O , 14-C ) :   0.9006 B( 14-C , 15-C ) :   1.1636
B( 14-C , 31-H ) :   0.9338 B( 14-C , 32-H ) :   0.9173 B( 15-C , 33-H ) :   0.9374
B( 15-C , 34-H ) :   0.9458 B( 15-C , 35-H ) :   0.9392 B( 16-O , 17-C ) :   0.9053
B( 17-C , 18-C ) :   1.1665 B( 17-C , 36-H ) :   0.9336 B( 17-C , 37-H ) :   0.9168
B( 18-C , 38-H ) :   0.9442 B( 18-C , 39-H ) :   0.9374 B( 18-C , 40-H ) :   0.9354

Dispersion correction           -0.066062643
FINAL SINGLE POINT ENERGY     -2929.528180414415

DIPOLE MOMENT
-------------

Method             : SCF
Type of density    : Electron Density
Multiplicity       :   1
Irrep              :   0
Energy             : -2929.6471263841312975 Eh
Relativity type    :
Basis              : AO
                                X                 Y                 Z
Electronic contribution:      7.203073821      -2.912250345      -3.903641792
Nuclear contribution   :     -7.950811878       3.497999494       4.225065689
                        -----------------------------------------
Total Dipole Moment    :     -0.747738058       0.585749149       0.321423897
                        -----------------------------------------
Magnitude (a.u.)       :      1.002759986
Magnitude (Debye)      :      2.548813327

Rotational constants in cm-1:             0.013000             0.004611             0.004557
Rotational constants in MHz :           389.734606           138.245713           136.622080

                             ****ORCA TERMINATED NORMALLY****
TOTAL RUN TIME: 0 days 0 hours 0 minutes 21 seconds 262 msec
