                         Program Version 6.0.0  -   RELEASE  -
|  1> ! pbe def2-sv(p) def2/J RI DEFGRID1 loosescf d4 GCP(DFT/SV(P)) printgap
|  2> %output
|  3>     printlevel normal
|  4> end
|  5> * xyz 0 1
|  6> C 4.6615588845 -1.6967161216 -1.6442155884
|  7> C 4.7126524506 -0.325610415 -1.0029228881
|  8> O 3.7077320527 -0.1739353772 0.0148314855
|  9> P 2.1657401567 -0.045454533 -0.3352105774
| 10> S 1.7731304563 0.9657026836 -1.9763663067
| 11> O 1.5535965095 0.4381733089 1.0444438644
| 12> C 2.1081632894 1.490941242 1.8639709443
| 13> C 2.287911922 2.7871978049 1.1039751931
| 14> S 1.4295507292 -2.0250852978 -0.3611294404
| 15> C -0.2924584485 -1.6493008557 -0.7733945483
| 16> S -1.328206361 -1.4788306879 0.7169397065
| 17> P -2.272403671 0.3733661702 0.249611395
| 18> S -1.1733883998 1.95090675 -0.0937830356
| 19> O -3.3303813422 0.5230521651 1.4277392364
| 20> C -3.0105317074 1.1937986961 2.660551971
| 21> C -1.9444769408 0.4597988516 3.4474782547
| 22> O -3.1843094041 0.0361950351 -0.9929730554
| 23> C -4.2197244224 -0.9823508558 -0.9535460124
| 24> C -4.2990272268 -1.6332719931 -2.3188550226
| 25> H 4.6943752468 -2.471483917 -0.8827062493
| 26> H 3.7397125142 -1.8049441105 -2.2138093341
| 27> H 5.5066265684 -1.811368659 -2.3152853638
| 28> H 4.5650769605 0.4566254528 -1.7547583811
| 29> H 5.6509340492 -0.1614354542 -0.471353685
| 30> H 1.3772478077 1.6020952206 2.6668986366
| 31> H 3.0586315961 1.1352563978 2.2675160215
| 32> H 1.3431943887 3.0939541529 0.6577684279
| 33> H 2.6336830343 3.5606131561 1.7822325814
| 34> H 3.0183213328 2.6574106977 0.3058575817
| 35> H -0.6632458068 -2.4901175294 -1.3532461212
| 36> H -0.329129716 -0.7196110318 -1.347999793
| 37> H -2.6827117998 2.2106572243 2.4227433899
| 38> H -3.9610216112 1.222837031 3.1948497463
| 39> H -1.003643737 0.4770404883 2.8976205599
| 40> H -1.8031491778 0.9486705291 4.4060005046
| 41> H -2.234831126 -0.5757364887 3.6068618517
| 42> H -3.9720861574 -1.7080020755 -0.173716291
| 43> H -5.1516384271 -0.4775627287 -0.6945292587
| 44> H -5.1048277836 -2.360132043 -2.3191887784
| 45> H -4.4921914104 -0.88091001 -3.0783338344
| 46> H -3.3647172702 -2.1348334847 -2.5567408531
| 47> *
| 48>
| 49>                          ****END OF INPUT****

CARTESIAN COORDINATES (ANGSTROEM)
---------------------------------
  C      4.661559   -1.696716   -1.644216
  C      4.712652   -0.325610   -1.002923
  O      3.707732   -0.173935    0.014831
  P      2.165740   -0.045455   -0.335211
  S      1.773130    0.965703   -1.976366
  O      1.553597    0.438173    1.044444
  C      2.108163    1.490941    1.863971
  C      2.287912    2.787198    1.103975
  S      1.429551   -2.025085   -0.361129
  C     -0.292458   -1.649301   -0.773395
  S     -1.328206   -1.478831    0.716940
  P     -2.272404    0.373366    0.249611
  S     -1.173388    1.950907   -0.093783
  O     -3.330381    0.523052    1.427739
  C     -3.010532    1.193799    2.660552
  C     -1.944477    0.459799    3.447478
  O     -3.184309    0.036195   -0.992973
  C     -4.219724   -0.982351   -0.953546
  C     -4.299027   -1.633272   -2.318855
  H      4.694375   -2.471484   -0.882706
  H      3.739713   -1.804944   -2.213809
  H      5.506627   -1.811369   -2.315285
  H      4.565077    0.456625   -1.754758
  H      5.650934   -0.161435   -0.471354
  H      1.377248    1.602095    2.666899
  H      3.058632    1.135256    2.267516
  H      1.343194    3.093954    0.657768
  H      2.633683    3.560613    1.782233
  H      3.018321    2.657411    0.305858
  H     -0.663246   -2.490118   -1.353246
  H     -0.329130   -0.719611   -1.348000
  H     -2.682712    2.210657    2.422743
  H     -3.961022    1.222837    3.194850
  H     -1.003644    0.477040    2.897621
  H     -1.803149    0.948671    4.406001
  H     -2.234831   -0.575736    3.606862
  H     -3.972086   -1.708002   -0.173716
  H     -5.151638   -0.477563   -0.694529
  H     -5.104828   -2.360132   -2.319189
  H     -4.492191   -0.880910   -3.078334
  H     -3.364717   -2.134833   -2.556741

 Total Charge           Charge          ....    0
 Multiplicity           Mult            ....    1
 Number of Electrons    NEL             ....  202
 Basis Dimension        Dim             ....  334

ORBITAL ENERGIES
----------------

  NO   OCC          E(Eh)            E(eV)
   0   2.0000     -88.038454     -2395.6481
   1   2.0000     -88.037649     -2395.6262
   2   2.0000     -87.978988     -2394.0300
   3   2.0000     -87.977767     -2393.9967
   4   2.0000     -76.422836     -2079.5711
   5   2.0000     -76.420915     -2079.5188
   6   2.0000     -18.796036      -511.4661
   7   2.0000     -18.791641      -511.3465
   8   2.0000     -18.788768      -511.2684
   9   2.0000     -18.782139      -511.0880
  10   2.0000      -9.955139      -270.8931
  11   2.0000      -9.953564      -270.8502
  12   2.0000      -9.952995      -270.8348
  13   2.0000      -9.952674      -270.8260
  14   2.0000      -9.948806      -270.7208
  15   2.0000      -9.889415      -269.1047
  16   2.0000      -9.885441      -268.9965
  17   2.0000      -9.884451      -268.9696
  18   2.0000      -9.874371      -268.6953
  19   2.0000      -7.684117      -209.0954
  20   2.0000      -7.682593      -209.0540
  21   2.0000      -7.623863      -207.4558
  22   2.0000      -7.622889      -207.4293
  23   2.0000      -6.420185      -174.7021
  24   2.0000      -6.418479      -174.6557
  25   2.0000      -5.712032      -155.4323
  26   2.0000      -5.710448      -155.3892
  27   2.0000      -5.708757      -155.3432
  28   2.0000      -5.707111      -155.2984
  29   2.0000      -5.700796      -155.1265
  30   2.0000      -5.699622      -155.0946
  31   2.0000      -5.652785      -153.8201
  32   2.0000      -5.651924      -153.7967
  33   2.0000      -5.644650      -153.5987
  34   2.0000      -5.643910      -153.5786
  35   2.0000      -5.643570      -153.5694
  36   2.0000      -5.642821      -153.5490
  37   2.0000      -4.643226      -126.3486
  38   2.0000      -4.641742      -126.3082
  39   2.0000      -4.641555      -126.3031
  40   2.0000      -4.640415      -126.2721
  41   2.0000      -4.640175      -126.2656
  42   2.0000      -4.638531      -126.2209
  43   2.0000      -0.986120       -26.8337
  44   2.0000      -0.985635       -26.8205
  45   2.0000      -0.942996       -25.6602
  46   2.0000      -0.940980       -25.6054
  47   2.0000      -0.759558       -20.6686
  48   2.0000      -0.719260       -19.5721
  49   2.0000      -0.707567       -19.2539
  50   2.0000      -0.689655       -18.7665
  51   2.0000      -0.686657       -18.6849
  52   2.0000      -0.672787       -18.3075
  53   2.0000      -0.648984       -17.6598
  54   2.0000      -0.630020       -17.1437
  55   2.0000      -0.595922       -16.2159
  56   2.0000      -0.588311       -16.0088
  57   2.0000      -0.573830       -15.6147
  58   2.0000      -0.571639       -15.5551
  59   2.0000      -0.556075       -15.1316
  60   2.0000      -0.504116       -13.7177
  61   2.0000      -0.492957       -13.4140
  62   2.0000      -0.472867       -12.8674
  63   2.0000      -0.468340       -12.7442
  64   2.0000      -0.455422       -12.3927
  65   2.0000      -0.448566       -12.2061
  66   2.0000      -0.438365       -11.9285
  67   2.0000      -0.433659       -11.8005
  68   2.0000      -0.427817       -11.6415
  69   2.0000      -0.416421       -11.3314
  70   2.0000      -0.412565       -11.2265
  71   2.0000      -0.405006       -11.0208
  72   2.0000      -0.390181       -10.6174
  73   2.0000      -0.385475       -10.4893
  74   2.0000      -0.377934       -10.2841
  75   2.0000      -0.368115       -10.0169
  76   2.0000      -0.363095        -9.8803
  77   2.0000      -0.358385        -9.7521
  78   2.0000      -0.353268        -9.6129
  79   2.0000      -0.351219        -9.5572
  80   2.0000      -0.345076        -9.3900
  81   2.0000      -0.339792        -9.2462
  82   2.0000      -0.339407        -9.2357
  83   2.0000      -0.334948        -9.1144
  84   2.0000      -0.329032        -8.9534
  85   2.0000      -0.317747        -8.6463
  86   2.0000      -0.309539        -8.4230
  87   2.0000      -0.300093        -8.1660
  88   2.0000      -0.294705        -8.0193
  89   2.0000      -0.292271        -7.9531
  90   2.0000      -0.284374        -7.7382
  91   2.0000      -0.273827        -7.4512
  92   2.0000      -0.266765        -7.2590
  93   2.0000      -0.258270        -7.0279
  94   2.0000      -0.256000        -6.9661
  95   2.0000      -0.234010        -6.3677
  96   2.0000      -0.218197        -5.9375
  97   2.0000      -0.211117        -5.7448
  98   2.0000      -0.193400        -5.2627
  99   2.0000      -0.191334        -5.2065
 100   2.0000      -0.180585        -4.9140
 101   0.0000      -0.036774        -1.0007
 102   0.0000      -0.030458        -0.8288
 103   0.0000      -0.017519        -0.4767
 104   0.0000       0.013238         0.3602
 105   0.0000       0.025201         0.6858

MULLIKEN ATOMIC CHARGES
-----------------------
   0 C :   -0.318776
   1 C :   -0.005817
   2 O :   -0.379402
   3 P :    0.620306
   4 S :   -0.306543
   5 O :   -0.364454
   6 C :    0.003674
   7 C :   -0.326625
   8 S :   -0.083328
   9 C :   -0.361679
  10 S :   -0.093102
  11 P :    0.573805
  12 S :   -0.288124
  13 O :   -0.383505
  14 C :    0.003830
  15 C :   -0.351254
  16 O :   -0.363319
  17 C :   -0.011023
  18 C :   -0.283185
  19 H :    0.117769
  20 H :    0.130057
  21 H :    0.114909
  22 H :    0.112591
  23 H :    0.103788
  24 H :    0.107722
  25 H :    0.105287
  26 H :    0.145377
  27 H :    0.105195
  28 H :    0.121636
  29 H :    0.185923
  30 H :    0.201810
  31 H :    0.109282
  32 H :    0.104499
  33 H :    0.157763
  34 H :    0.113732
  35 H :    0.120231
  36 H :    0.101770
  37 H :    0.108999
  38 H :    0.110719
  39 H :    0.125273
  40 H :    0.114190
Sum of atomic charges:   -0.0000000

LOEWDIN ATOMIC CHARGES
----------------------
   0 C :   -0.370015
   1 C :   -0.121197
   2 O :   -0.242490
   3 P :    0.578262
   4 S :   -0.307102
   5 O :   -0.241133
   6 C :   -0.107701
   7 C :   -0.370702
   8 S :    0.082524
   9 C :   -0.477717
  10 S :    0.066424
  11 P :    0.561188
  12 S :   -0.288194
  13 O :   -0.251092
  14 C :   -0.116583
  15 C :   -0.375173
  16 O :   -0.243013
  17 C :   -0.117455
  18 C :   -0.350869
  19 H :    0.124759
  20 H :    0.122810
  21 H :    0.132348
  22 H :    0.110747
  23 H :    0.117703
  24 H :    0.117297
  25 H :    0.111222
  26 H :    0.129071
  27 H :    0.127210
  28 H :    0.119661
  29 H :    0.133758
  30 H :    0.127948
  31 H :    0.111321
  32 H :    0.118332
  33 H :    0.125591
  34 H :    0.131203
  35 H :    0.124798
  36 H :    0.102196
  37 H :    0.117853
  38 H :    0.130236
  39 H :    0.131473
  40 H :    0.124502

  Mayer bond orders larger than 0.100000
B(  0-C ,  1-C ) :   1.1676 B(  0-C , 19-H ) :   0.9453 B(  0-C , 20-H ) :   0.9332
B(  0-C , 21-H ) :   0.9383 B(  1-C ,  2-O ) :   0.9040 B(  1-C , 22-H ) :   0.9112
B(  1-C , 23-H ) :   0.9324 B(  2-O ,  3-P ) :   1.0885 B(  3-P ,  4-S ) :   1.6271
B(  3-P ,  5-O ) :   1.1277 B(  3-P ,  8-S ) :   0.9471 B(  4-S ,  8-S ) :   0.1153
B(  5-O ,  6-C ) :   0.9075 B(  6-C ,  7-C ) :   1.1694 B(  6-C , 24-H ) :   0.9258
B(  6-C , 25-H ) :   0.9334 B(  7-C , 26-H ) :   0.9357 B(  7-C , 27-H ) :   0.9347
B(  7-C , 28-H ) :   0.9347 B(  8-S ,  9-C ) :   1.0170 B(  9-C , 10-S ) :   0.9715
B(  9-C , 29-H ) :   0.9083 B(  9-C , 30-H ) :   0.8517 B( 10-S , 11-P ) :   0.9568
B( 10-S , 12-S ) :   0.1118 B( 11-P , 12-S ) :   1.6688 B( 11-P , 13-O ) :   1.0779
B( 11-P , 16-O ) :   1.1158 B( 13-O , 14-C ) :   0.9088 B( 14-C , 15-C ) :   1.1635
B( 14-C , 31-H ) :   0.9165 B( 14-C , 32-H ) :   0.9337 B( 15-C , 33-H ) :   0.9222
B( 15-C , 34-H ) :   0.9376 B( 15-C , 35-H ) :   0.9413 B( 16-O , 17-C ) :   0.8937
B( 17-C , 18-C ) :   1.1626 B( 17-C , 36-H ) :   0.9074 B( 17-C , 37-H ) :   0.9322
B( 18-C , 38-H ) :   0.9409 B( 18-C , 39-H ) :   0.9485 B( 18-C , 40-H ) :   0.9489

Dispersion correction           -0.065762602
FINAL SINGLE POINT ENERGY     -2929.512474920382

DIPOLE MOMENT
-------------

Method             : SCF
Type of density    : Electron Density
Multiplicity       :   1
Irrep              :   0
Energy             : -2929.6316975230465687 Eh
Relativity type    :
Basis              : AO
                                X                 Y                 Z
Electronic contribution:     -0.915052941      -0.310879791      -3.930750489
Nuclear contribution   :      0.830072784      -0.480490133       4.882890003
                        -----------------------------------------
Total Dipole Moment    :     -0.084980157      -0.791369925       0.952139514
                        -----------------------------------------
Magnitude (a.u.)       :      1.240990588
Magnitude (Debye)      :      3.154347394

Rotational constants in cm-1:             0.012102             0.005283             0.004600
Rotational constants in MHz :           362.823424           158.391343           137.912993

                             ****ORCA TERMINATED NORMALLY****
TOTAL RUN TIME: 0 days 0 hours 0 minutes 21 seconds 124 msec
