                         Program Version 6.0.0  -   RELEASE  -
|  1> ! r2scan-3c def2/J RI DEFGRID2 scfconv6 printgap
|  2> %output
|  3>     printlevel normal
|  4> end
|  5> * xyz 0 1
|  6> C 4.3676344532 2.1544679479 -0.8946663962
|  7> C 4.6332121643 0.6683273905 -0.7681835013
|  8> O 3.4293313076 -0.1104888653 -0.8955611958
|  9> P 2.2792729496 -0.0790567562 0.1981040641
| 10> S 2.8976312067 0.0150625415 2.058645065
| 11> O 1.417709869 -1.3490107672 -0.1890714464
| 12> C 1.6268699467 -2.6463387631 0.3991442223
| 13> C 2.9605225736 -3.2392567527 -0.0019131665
| 14> S 0.9713071133 1.4373137321 -0.4595263302
| 15> C 0.0538531606 1.6031639983 1.0950743133
| 16> S -0.8946107544 0.1184249946 1.5462712609
| 17> P -2.0399275943 -0.1539718209 -0.2225048403
| 18> S -1.3539326013 -1.1332228133 -1.7657108011
| 19> O -2.4414398207 1.3714025631 -0.4806207461
| 20> C -2.7786588823 1.8483214305 -1.7981480264
| 21> C -4.1652520405 1.3928244541 -2.2039560522
| 22> O -3.319983701 -0.9050045899 0.3357993018
| 23> C -4.1538782782 -0.3660322164 1.3930982719
| 24> C -5.5764225827 -0.8260266582 1.1473258242
| 25> H 3.7814070561 2.5014510693 -0.0446295291
| 26> H 5.3128270476 2.6875109271 -0.9121920258
| 27> H 3.8167303851 2.3632289016 -1.8084264171
| 28> H 5.0893649868 0.4409699055 0.2007707614
| 29> H 5.2683980984 0.3003760236 -1.5749273693
| 30> H 1.553374383 -2.5463496483 1.4875811743
| 31> H 0.7883582841 -3.2365392677 0.0243848218
| 32> H 3.7708725559 -2.6438021757 0.4177263383
| 33> H 3.0319956738 -4.2533099599 0.3786567678
| 34> H 3.0531483739 -3.2491635189 -1.0849630775
| 35> H -0.6197007003 2.4471885721 0.9767734479
| 36> H 0.7526499752 1.7615208478 1.9172413672
| 37> H -2.7113182066 2.9338049596 -1.7154902484
| 38> H -2.0280757403 1.4815634582 -2.5050680541
| 39> H -4.4035354245 1.7921748154 -3.1846201755
| 40> H -4.1921504539 0.3041784516 -2.2494569291
| 41> H -4.9039345573 1.7386089857 -1.4853400987
| 42> H -3.7673830009 -0.7483287861 2.3404698314
| 43> H -4.077230114 0.7239930558 1.3846716995
| 44> H -5.6134380779 -1.9110685626 1.1139687461
| 45> H -6.2097823044 -0.468909373 1.9529861945
| 46> H -5.942337264 -0.4366175697 0.2012600073
| 47> *
| 48>
| 49>                          ****END OF INPUT****

CARTESIAN COORDINATES (ANGSTROEM)
---------------------------------
  C      4.367634    2.154468   -0.894666
  C      4.633212    0.668327   -0.768184
  O      3.429331   -0.110489   -0.895561
  P      2.279273   -0.079057    0.198104
  S      2.897631    0.015063    2.058645
  O      1.417710   -1.349011   -0.189071
  C      1.626870   -2.646339    0.399144
  C      2.960523   -3.239257   -0.001913
  S      0.971307    1.437314   -0.459526
  C      0.053853    1.603164    1.095074
  S     -0.894611    0.118425    1.546271
  P     -2.039928   -0.153972   -0.222505
  S     -1.353933   -1.133223   -1.765711
  O     -2.441440    1.371403   -0.480621
  C     -2.778659    1.848321   -1.798148
  C     -4.165252    1.392824   -2.203956
  O     -3.319984   -0.905005    0.335799
  C     -4.153878   -0.366032    1.393098
  C     -5.576423   -0.826027    1.147326
  H      3.781407    2.501451   -0.044630
  H      5.312827    2.687511   -0.912192
  H      3.816730    2.363229   -1.808426
  H      5.089365    0.440970    0.200771
  H      5.268398    0.300376   -1.574927
  H      1.553374   -2.546350    1.487581
  H      0.788358   -3.236539    0.024385
  H      3.770873   -2.643802    0.417726
  H      3.031996   -4.253310    0.378657
  H      3.053148   -3.249164   -1.084963
  H     -0.619701    2.447189    0.976773
  H      0.752650    1.761521    1.917241
  H     -2.711318    2.933805   -1.715490
  H     -2.028076    1.481563   -2.505068
  H     -4.403535    1.792175   -3.184620
  H     -4.192150    0.304178   -2.249457
  H     -4.903935    1.738609   -1.485340
  H     -3.767383   -0.748329    2.340470
  H     -4.077230    0.723993    1.384672
  H     -5.613438   -1.911069    1.113969
  H     -6.209782   -0.468909    1.952986
  H     -5.942337   -0.436618    0.201260

 Total Charge           Charge          ....    0
 Multiplicity           Mult            ....    1
 Number of Electrons    NEL             ....  202
 Basis Dimension        Dim             ....  539

ORBITAL ENERGIES
----------------

  NO   OCC          E(Eh)            E(eV)
   0   2.0000     -88.573336     -2410.2030
   1   2.0000     -88.571045     -2410.1407
   2   2.0000     -88.518181     -2408.7021
   3   2.0000     -88.510012     -2408.4799
   4   2.0000     -76.909963     -2092.8265
   5   2.0000     -76.909421     -2092.8117
   6   2.0000     -18.992669      -516.8168
   7   2.0000     -18.990691      -516.7630
   8   2.0000     -18.989266      -516.7242
   9   2.0000     -18.978271      -516.4250
  10   2.0000     -10.107264      -275.0326
  11   2.0000     -10.100935      -274.8604
  12   2.0000     -10.098165      -274.7850
  13   2.0000     -10.097111      -274.7564
  14   2.0000     -10.086108      -274.4569
  15   2.0000     -10.035121      -273.0695
  16   2.0000     -10.031368      -272.9674
  17   2.0000     -10.027680      -272.8671
  18   2.0000     -10.020455      -272.6704
  19   2.0000      -7.867886      -214.0961
  20   2.0000      -7.865346      -214.0269
  21   2.0000      -7.813028      -212.6033
  22   2.0000      -7.804803      -212.3795
  23   2.0000      -6.588537      -179.2832
  24   2.0000      -6.587651      -179.2591
  25   2.0000      -5.814770      -158.2279
  26   2.0000      -5.812515      -158.1666
  27   2.0000      -5.811819      -158.1476
  28   2.0000      -5.808987      -158.0706
  29   2.0000      -5.804868      -157.9585
  30   2.0000      -5.802381      -157.8908
  31   2.0000      -5.760569      -156.7530
  32   2.0000      -5.753410      -156.5583
  33   2.0000      -5.753023      -156.5477
  34   2.0000      -5.752692      -156.5387
  35   2.0000      -5.745023      -156.3300
  36   2.0000      -5.744635      -156.3195
  37   2.0000      -4.733865      -128.8150
  38   2.0000      -4.733728      -128.8113
  39   2.0000      -4.733391      -128.8021
  40   2.0000      -4.732512      -128.7782
  41   2.0000      -4.732512      -128.7782
  42   2.0000      -4.730925      -128.7350
  43   2.0000      -1.046796       -28.4848
  44   2.0000      -1.044485       -28.4219
  45   2.0000      -1.009773       -27.4773
  46   2.0000      -1.004589       -27.3363
  47   2.0000      -0.799874       -21.7657
  48   2.0000      -0.757626       -20.6161
  49   2.0000      -0.745952       -20.2984
  50   2.0000      -0.736118       -20.0308
  51   2.0000      -0.725983       -19.7550
  52   2.0000      -0.705456       -19.1964
  53   2.0000      -0.683017       -18.5858
  54   2.0000      -0.667756       -18.1706
  55   2.0000      -0.629550       -17.1309
  56   2.0000      -0.618720       -16.8362
  57   2.0000      -0.604921       -16.4607
  58   2.0000      -0.600234       -16.3332
  59   2.0000      -0.591886       -16.1060
  60   2.0000      -0.528269       -14.3749
  61   2.0000      -0.512509       -13.9461
  62   2.0000      -0.500839       -13.6285
  63   2.0000      -0.487073       -13.2539
  64   2.0000      -0.473919       -12.8960
  65   2.0000      -0.460271       -12.5246
  66   2.0000      -0.457952       -12.4615
  67   2.0000      -0.453416       -12.3381
  68   2.0000      -0.439593       -11.9619
  69   2.0000      -0.425953       -11.5908
  70   2.0000      -0.420387       -11.4393
  71   2.0000      -0.412458       -11.2236
  72   2.0000      -0.408822       -11.1246
  73   2.0000      -0.403839       -10.9890
  74   2.0000      -0.398628       -10.8472
  75   2.0000      -0.389046       -10.5865
  76   2.0000      -0.379931       -10.3384
  77   2.0000      -0.373223       -10.1559
  78   2.0000      -0.370988       -10.0951
  79   2.0000      -0.362834        -9.8732
  80   2.0000      -0.361408        -9.8344
  81   2.0000      -0.358217        -9.7476
  82   2.0000      -0.358044        -9.7429
  83   2.0000      -0.350939        -9.5495
  84   2.0000      -0.344234        -9.3671
  85   2.0000      -0.331995        -9.0340
  86   2.0000      -0.323932        -8.8146
  87   2.0000      -0.319837        -8.7032
  88   2.0000      -0.307372        -8.3640
  89   2.0000      -0.296347        -8.0640
  90   2.0000      -0.291979        -7.9452
  91   2.0000      -0.283464        -7.7134
  92   2.0000      -0.281640        -7.6638
  93   2.0000      -0.279787        -7.6134
  94   2.0000      -0.276014        -7.5107
  95   2.0000      -0.245735        -6.6868
  96   2.0000      -0.227901        -6.2015
  97   2.0000      -0.220108        -5.9894
  98   2.0000      -0.216499        -5.8912
  99   2.0000      -0.205608        -5.5949
 100   2.0000      -0.200755        -5.4628
 101   0.0000      -0.048168        -1.3107
 102   0.0000      -0.021308        -0.5798
 103   0.0000      -0.008600        -0.2340
 104   0.0000       0.008439         0.2296
 105   0.0000       0.020536         0.5588

MULLIKEN ATOMIC CHARGES
-----------------------
   0 C :   -0.454604
   1 C :   -0.150036
   2 O :   -0.304224
   3 P :    0.713706
   4 S :   -0.492736
   5 O :   -0.253323
   6 C :   -0.163689
   7 C :   -0.446504
   8 S :   -0.130829
   9 C :   -0.218052
  10 S :   -0.159229
  11 P :    0.696821
  12 S :   -0.426900
  13 O :   -0.333385
  14 C :   -0.145509
  15 C :   -0.463778
  16 O :   -0.281998
  17 C :   -0.121438
  18 C :   -0.455352
  19 H :    0.176464
  20 H :    0.147722
  21 H :    0.156436
  22 H :    0.172240
  23 H :    0.149190
  24 H :    0.169266
  25 H :    0.166189
  26 H :    0.163629
  27 H :    0.145516
  28 H :    0.159152
  29 H :    0.187366
  30 H :    0.209599
  31 H :    0.146806
  32 H :    0.181989
  33 H :    0.149132
  34 H :    0.184941
  35 H :    0.147724
  36 H :    0.154601
  37 H :    0.161820
  38 H :    0.159997
  39 H :    0.147450
  40 H :    0.153831
Sum of atomic charges:   -0.0000000

LOEWDIN ATOMIC CHARGES
----------------------
   0 C :   -0.407554
   1 C :    0.019718
   2 O :   -0.657134
   3 P :    0.379373
   4 S :   -0.135334
   5 O :   -0.681909
   6 C :    0.018809
   7 C :   -0.399946
   8 S :    0.177241
   9 C :   -0.412117
  10 S :    0.170771
  11 P :    0.379750
  12 S :   -0.066729
  13 O :   -0.707404
  14 C :    0.016006
  15 C :   -0.400557
  16 O :   -0.667528
  17 C :    0.014832
  18 C :   -0.386502
  19 H :    0.165219
  20 H :    0.159115
  21 H :    0.160422
  22 H :    0.179561
  23 H :    0.179824
  24 H :    0.179295
  25 H :    0.186334
  26 H :    0.162621
  27 H :    0.158566
  28 H :    0.161794
  29 H :    0.183186
  30 H :    0.191311
  31 H :    0.176619
  32 H :    0.183990
  33 H :    0.161029
  34 H :    0.169435
  35 H :    0.154834
  36 H :    0.174599
  37 H :    0.176993
  38 H :    0.163025
  39 H :    0.159267
  40 H :    0.159171

  Mayer bond orders larger than 0.100000
B(  0-C ,  1-C ) :   0.9214 B(  0-C , 19-H ) :   0.9632 B(  0-C , 20-H ) :   0.9587
B(  0-C , 21-H ) :   0.9685 B(  1-C ,  2-O ) :   0.8116 B(  1-C , 22-H ) :   0.9678
B(  1-C , 23-H ) :   0.9579 B(  2-O ,  3-P ) :   1.0673 B(  3-P ,  4-S ) :   1.7311
B(  3-P ,  5-O ) :   1.1641 B(  3-P ,  8-S ) :   1.0816 B(  5-O ,  6-C ) :   0.7887
B(  6-C ,  7-C ) :   0.9162 B(  6-C , 24-H ) :   0.9670 B(  6-C , 25-H ) :   0.9592
B(  7-C , 26-H ) :   0.9621 B(  7-C , 27-H ) :   0.9623 B(  7-C , 28-H ) :   0.9725
B(  8-S ,  9-C ) :   0.9160 B(  9-C , 10-S ) :   0.9023 B(  9-C , 29-H ) :   0.9163
B(  9-C , 30-H ) :   0.9112 B( 10-S , 11-P ) :   1.0328 B( 11-P , 12-S ) :   1.8667
B( 11-P , 13-O ) :   1.0447 B( 11-P , 16-O ) :   1.1125 B( 13-O , 14-C ) :   0.8005
B( 14-C , 15-C ) :   0.9220 B( 14-C , 31-H ) :   0.9619 B( 14-C , 32-H ) :   0.9581
B( 15-C , 33-H ) :   0.9609 B( 15-C , 34-H ) :   0.9606 B( 15-C , 35-H ) :   0.9731
B( 16-O , 17-C ) :   0.7424 B( 17-C , 18-C ) :   0.9574 B( 17-C , 36-H ) :   0.9415
B( 17-C , 37-H ) :   0.9637 B( 18-C , 38-H ) :   0.9716 B( 18-C , 39-H ) :   0.9662
B( 18-C , 40-H ) :   0.9709

Dispersion correction           -0.021671624
FINAL SINGLE POINT ENERGY     -2932.457492357769

DIPOLE MOMENT
-------------

Method             : SCF
Type of density    : Electron Density
Multiplicity       :   1
Irrep              :   0
Energy             : -2932.4821268695091021 Eh
Relativity type    :
Basis              : AO
                                X                 Y                 Z
Electronic contribution:      7.330237646      -1.086592419       3.919360408
Nuclear contribution   :     -8.013995633       2.040745397      -3.947228461
                        -----------------------------------------
Total Dipole Moment    :     -0.683757987       0.954152978      -0.027868053
                        -----------------------------------------
Magnitude (a.u.)       :      1.174184619
Magnitude (Debye)      :      2.984540115

Rotational constants in cm-1:             0.013815             0.004768             0.004485
Rotational constants in MHz :           414.174754           142.940190           134.471424

                             ****ORCA TERMINATED NORMALLY****
TOTAL RUN TIME: 0 days 0 hours 1 minutes 22 seconds 564 msec
