                         Program Version 6.0.0  -   RELEASE  -
|  1> ! r2scan-3c def2/J RI DEFGRID2 scfconv6 printgap
|  2> %output
|  3>     printlevel normal
|  4> end
|  5> %cpcm
|  6>     smd true
|  7>     smdsolvent "water"
|  8> end
|  9> * xyz 0 1
| 10> C 4.3676344532 2.1544679479 -0.8946663962
| 11> C 4.6332121643 0.6683273905 -0.7681835013
| 12> O 3.4293313076 -0.1104888653 -0.8955611958
| 13> P 2.2792729496 -0.0790567562 0.1981040641
| 14> S 2.8976312067 0.0150625415 2.058645065
| 15> O 1.417709869 -1.3490107672 -0.1890714464
| 16> C 1.6268699467 -2.6463387631 0.3991442223
| 17> C 2.9605225736 -3.2392567527 -0.0019131665
| 18> S 0.9713071133 1.4373137321 -0.4595263302
| 19> C 0.0538531606 1.6031639983 1.0950743133
| 20> S -0.8946107544 0.1184249946 1.5462712609
| 21> P -2.0399275943 -0.1539718209 -0.2225048403
| 22> S -1.3539326013 -1.1332228133 -1.7657108011
| 23> O -2.4414398207 1.3714025631 -0.4806207461
| 24> C -2.7786588823 1.8483214305 -1.7981480264
| 25> C -4.1652520405 1.3928244541 -2.2039560522
| 26> O -3.319983701 -0.9050045899 0.3357993018
| 27> C -4.1538782782 -0.3660322164 1.3930982719
| 28> C -5.5764225827 -0.8260266582 1.1473258242
| 29> H 3.7814070561 2.5014510693 -0.0446295291
| 30> H 5.3128270476 2.6875109271 -0.9121920258
| 31> H 3.8167303851 2.3632289016 -1.8084264171
| 32> H 5.0893649868 0.4409699055 0.2007707614
| 33> H 5.2683980984 0.3003760236 -1.5749273693
| 34> H 1.553374383 -2.5463496483 1.4875811743
| 35> H 0.7883582841 -3.2365392677 0.0243848218
| 36> H 3.7708725559 -2.6438021757 0.4177263383
| 37> H 3.0319956738 -4.2533099599 0.3786567678
| 38> H 3.0531483739 -3.2491635189 -1.0849630775
| 39> H -0.6197007003 2.4471885721 0.9767734479
| 40> H 0.7526499752 1.7615208478 1.9172413672
| 41> H -2.7113182066 2.9338049596 -1.7154902484
| 42> H -2.0280757403 1.4815634582 -2.5050680541
| 43> H -4.4035354245 1.7921748154 -3.1846201755
| 44> H -4.1921504539 0.3041784516 -2.2494569291
| 45> H -4.9039345573 1.7386089857 -1.4853400987
| 46> H -3.7673830009 -0.7483287861 2.3404698314
| 47> H -4.077230114 0.7239930558 1.3846716995
| 48> H -5.6134380779 -1.9110685626 1.1139687461
| 49> H -6.2097823044 -0.468909373 1.9529861945
| 50> H -5.942337264 -0.4366175697 0.2012600073
| 51> *
| 52>
| 53>                          ****END OF INPUT****

CARTESIAN COORDINATES (ANGSTROEM)
---------------------------------
  C      4.367634    2.154468   -0.894666
  C      4.633212    0.668327   -0.768184
  O      3.429331   -0.110489   -0.895561
  P      2.279273   -0.079057    0.198104
  S      2.897631    0.015063    2.058645
  O      1.417710   -1.349011   -0.189071
  C      1.626870   -2.646339    0.399144
  C      2.960523   -3.239257   -0.001913
  S      0.971307    1.437314   -0.459526
  C      0.053853    1.603164    1.095074
  S     -0.894611    0.118425    1.546271
  P     -2.039928   -0.153972   -0.222505
  S     -1.353933   -1.133223   -1.765711
  O     -2.441440    1.371403   -0.480621
  C     -2.778659    1.848321   -1.798148
  C     -4.165252    1.392824   -2.203956
  O     -3.319984   -0.905005    0.335799
  C     -4.153878   -0.366032    1.393098
  C     -5.576423   -0.826027    1.147326
  H      3.781407    2.501451   -0.044630
  H      5.312827    2.687511   -0.912192
  H      3.816730    2.363229   -1.808426
  H      5.089365    0.440970    0.200771
  H      5.268398    0.300376   -1.574927
  H      1.553374   -2.546350    1.487581
  H      0.788358   -3.236539    0.024385
  H      3.770873   -2.643802    0.417726
  H      3.031996   -4.253310    0.378657
  H      3.053148   -3.249164   -1.084963
  H     -0.619701    2.447189    0.976773
  H      0.752650    1.761521    1.917241
  H     -2.711318    2.933805   -1.715490
  H     -2.028076    1.481563   -2.505068
  H     -4.403535    1.792175   -3.184620
  H     -4.192150    0.304178   -2.249457
  H     -4.903935    1.738609   -1.485340
  H     -3.767383   -0.748329    2.340470
  H     -4.077230    0.723993    1.384672
  H     -5.613438   -1.911069    1.113969
  H     -6.209782   -0.468909    1.952986
  H     -5.942337   -0.436618    0.201260

 Total Charge           Charge          ....    0
 Multiplicity           Mult            ....    1
 Number of Electrons    NEL             ....  202
 Basis Dimension        Dim             ....  539

ORBITAL ENERGIES
----------------

  NO   OCC          E(Eh)            E(eV)
   0   2.0000     -88.577680     -2410.3212
   1   2.0000     -88.575148     -2410.2523
   2   2.0000     -88.526762     -2408.9357
   3   2.0000     -88.521421     -2408.7903
   4   2.0000     -76.916918     -2093.0157
   5   2.0000     -76.916175     -2092.9955
   6   2.0000     -18.995482      -516.8933
   7   2.0000     -18.992727      -516.8184
   8   2.0000     -18.992396      -516.8094
   9   2.0000     -18.985993      -516.6351
  10   2.0000     -10.105093      -274.9735
  11   2.0000     -10.089956      -274.5616
  12   2.0000     -10.089672      -274.5539
  13   2.0000     -10.087451      -274.4935
  14   2.0000     -10.086816      -274.4762
  15   2.0000     -10.019657      -272.6487
  16   2.0000     -10.018596      -272.6199
  17   2.0000     -10.018115      -272.6068
  18   2.0000     -10.017732      -272.5963
  19   2.0000      -7.872200      -214.2135
  20   2.0000      -7.869475      -214.1393
  21   2.0000      -7.821873      -212.8440
  22   2.0000      -7.816623      -212.7011
  23   2.0000      -6.595584      -179.4750
  24   2.0000      -6.594398      -179.4427
  25   2.0000      -5.819067      -158.3449
  26   2.0000      -5.816645      -158.2790
  27   2.0000      -5.816124      -158.2648
  28   2.0000      -5.813093      -158.1823
  29   2.0000      -5.809223      -158.0770
  30   2.0000      -5.806541      -158.0040
  31   2.0000      -5.769367      -156.9924
  32   2.0000      -5.764385      -156.8569
  33   2.0000      -5.762221      -156.7980
  34   2.0000      -5.761899      -156.7892
  35   2.0000      -5.756815      -156.6509
  36   2.0000      -5.756532      -156.6432
  37   2.0000      -4.740899      -129.0064
  38   2.0000      -4.740453      -128.9943
  39   2.0000      -4.740388      -128.9925
  40   2.0000      -4.739569      -128.9702
  41   2.0000      -4.739229      -128.9610
  42   2.0000      -4.737848      -128.9234
  43   2.0000      -1.050278       -28.5795
  44   2.0000      -1.047835       -28.5130
  45   2.0000      -1.010514       -27.4975
  46   2.0000      -1.010366       -27.4935
  47   2.0000      -0.801569       -21.8118
  48   2.0000      -0.754535       -20.5319
  49   2.0000      -0.742395       -20.2016
  50   2.0000      -0.725832       -19.7509
  51   2.0000      -0.722483       -19.6598
  52   2.0000      -0.705978       -19.2107
  53   2.0000      -0.686981       -18.6937
  54   2.0000      -0.674667       -18.3586
  55   2.0000      -0.630639       -17.1606
  56   2.0000      -0.614048       -16.7091
  57   2.0000      -0.598473       -16.2853
  58   2.0000      -0.597197       -16.2506
  59   2.0000      -0.590978       -16.0813
  60   2.0000      -0.524982       -14.2855
  61   2.0000      -0.512113       -13.9353
  62   2.0000      -0.496155       -13.5011
  63   2.0000      -0.487837       -13.2747
  64   2.0000      -0.473319       -12.8797
  65   2.0000      -0.455620       -12.3980
  66   2.0000      -0.453381       -12.3371
  67   2.0000      -0.451596       -12.2886
  68   2.0000      -0.437456       -11.9038
  69   2.0000      -0.422903       -11.5078
  70   2.0000      -0.417036       -11.3481
  71   2.0000      -0.409634       -11.1467
  72   2.0000      -0.405840       -11.0435
  73   2.0000      -0.405090       -11.0231
  74   2.0000      -0.400086       -10.8869
  75   2.0000      -0.386396       -10.5144
  76   2.0000      -0.375585       -10.2202
  77   2.0000      -0.367958       -10.0126
  78   2.0000      -0.362363        -9.8604
  79   2.0000      -0.361368        -9.8333
  80   2.0000      -0.352876        -9.6022
  81   2.0000      -0.350860        -9.5474
  82   2.0000      -0.348260        -9.4766
  83   2.0000      -0.347839        -9.4652
  84   2.0000      -0.343955        -9.3595
  85   2.0000      -0.330730        -8.9996
  86   2.0000      -0.320200        -8.7131
  87   2.0000      -0.315601        -8.5879
  88   2.0000      -0.304550        -8.2872
  89   2.0000      -0.296808        -8.0765
  90   2.0000      -0.294833        -8.0228
  91   2.0000      -0.286211        -7.7882
  92   2.0000      -0.281227        -7.6526
  93   2.0000      -0.278648        -7.5824
  94   2.0000      -0.278263        -7.5719
  95   2.0000      -0.251376        -6.8403
  96   2.0000      -0.234461        -6.3800
  97   2.0000      -0.229675        -6.2498
  98   2.0000      -0.226195        -6.1551
  99   2.0000      -0.215175        -5.8552
 100   2.0000      -0.212663        -5.7868
 101   0.0000      -0.053287        -1.4500
 102   0.0000      -0.028031        -0.7628
 103   0.0000      -0.013552        -0.3688
 104   0.0000       0.003498         0.0952
 105   0.0000       0.016635         0.4527

MULLIKEN ATOMIC CHARGES
-----------------------
   0 C :   -0.488219
   1 C :   -0.151622
   2 O :   -0.330708
   3 P :    0.741025
   4 S :   -0.538569
   5 O :   -0.275652
   6 C :   -0.165008
   7 C :   -0.483538
   8 S :   -0.137655
   9 C :   -0.223962
  10 S :   -0.175925
  11 P :    0.720586
  12 S :   -0.497791
  13 O :   -0.341557
  14 C :   -0.135780
  15 C :   -0.491838
  16 O :   -0.314238
  17 C :   -0.109560
  18 C :   -0.505128
  19 H :    0.173104
  20 H :    0.173104
  21 H :    0.169272
  22 H :    0.178490
  23 H :    0.175608
  24 H :    0.175009
  25 H :    0.177735
  26 H :    0.167949
  27 H :    0.171202
  28 H :    0.169436
  29 H :    0.224661
  30 H :    0.226568
  31 H :    0.176015
  32 H :    0.176699
  33 H :    0.171349
  34 H :    0.172099
  35 H :    0.169131
  36 H :    0.172257
  37 H :    0.178216
  38 H :    0.167796
  39 H :    0.171007
  40 H :    0.168435
Sum of atomic charges:    0.0000000

LOEWDIN ATOMIC CHARGES
----------------------
   0 C :   -0.410016
   1 C :    0.025195
   2 O :   -0.672105
   3 P :    0.382642
   4 S :   -0.162809
   5 O :   -0.698514
   6 C :    0.019880
   7 C :   -0.403102
   8 S :    0.175469
   9 C :   -0.401743
  10 S :    0.165032
  11 P :    0.384135
  12 S :   -0.117443
  13 O :   -0.704592
  14 C :    0.022409
  15 C :   -0.402509
  16 O :   -0.687378
  17 C :    0.021989
  18 C :   -0.390236
  19 H :    0.161668
  20 H :    0.168534
  21 H :    0.163625
  22 H :    0.181698
  23 H :    0.190955
  24 H :    0.181013
  25 H :    0.190370
  26 H :    0.162381
  27 H :    0.167995
  28 H :    0.163923
  29 H :    0.197354
  30 H :    0.197300
  31 H :    0.189052
  32 H :    0.181925
  33 H :    0.168568
  34 H :    0.163170
  35 H :    0.162935
  36 H :    0.181513
  37 H :    0.184108
  38 H :    0.163811
  39 H :    0.169159
  40 H :    0.162639

  Mayer bond orders larger than 0.100000
B(  0-C ,  1-C ) :   0.9091 B(  0-C , 19-H ) :   0.9637 B(  0-C , 20-H ) :   0.9533
B(  0-C , 21-H ) :   0.9656 B(  1-C ,  2-O ) :   0.7994 B(  1-C , 22-H ) :   0.9657
B(  1-C , 23-H ) :   0.9483 B(  2-O ,  3-P ) :   1.0733 B(  3-P ,  4-S ) :   1.6899
B(  3-P ,  5-O ) :   1.1673 B(  3-P ,  8-S ) :   1.0996 B(  5-O ,  6-C ) :   0.7799
B(  6-C ,  7-C ) :   0.9086 B(  6-C , 24-H ) :   0.9620 B(  6-C , 25-H ) :   0.9537
B(  7-C , 26-H ) :   0.9604 B(  7-C , 27-H ) :   0.9563 B(  7-C , 28-H ) :   0.9713
B(  8-S ,  9-C ) :   0.9129 B(  9-C , 10-S ) :   0.8933 B(  9-C , 29-H ) :   0.9055
B(  9-C , 30-H ) :   0.9072 B( 10-S , 11-P ) :   1.0460 B( 11-P , 12-S ) :   1.8232
B( 11-P , 13-O ) :   1.0665 B( 11-P , 16-O ) :   1.1209 B( 13-O , 14-C ) :   0.7851
B( 14-C , 15-C ) :   0.9174 B( 14-C , 31-H ) :   0.9519 B( 14-C , 32-H ) :   0.9574
B( 15-C , 33-H ) :   0.9567 B( 15-C , 34-H ) :   0.9629 B( 15-C , 35-H ) :   0.9677
B( 16-O , 17-C ) :   0.7345 B( 17-C , 18-C ) :   0.9494 B( 17-C , 36-H ) :   0.9345
B( 17-C , 37-H ) :   0.9519 B( 18-C , 38-H ) :   0.9706 B( 18-C , 39-H ) :   0.9590
B( 18-C , 40-H ) :   0.9690

Dispersion correction           -0.021671624
FINAL SINGLE POINT ENERGY     -2932.467671143764

DIPOLE MOMENT
-------------

Method             : SCF
Type of density    : Electron Density
Multiplicity       :   1
Irrep              :   0
Energy             : -2932.4923056555039693 Eh
Relativity type    :
Basis              : AO
                                X                 Y                 Z
Electronic contribution:      7.122694597      -0.429585050       4.116748710
Nuclear contribution   :     -8.013995633       2.040745397      -3.947228461
                        -----------------------------------------
Total Dipole Moment    :     -0.891301036       1.611160347       0.169520249
                        -----------------------------------------
Magnitude (a.u.)       :      1.849051734
Magnitude (Debye)      :      4.699916000

Rotational constants in cm-1:             0.013815             0.004768             0.004485
Rotational constants in MHz :           414.174754           142.940190           134.471424

                             ****ORCA TERMINATED NORMALLY****
TOTAL RUN TIME: 0 days 0 hours 1 minutes 48 seconds 849 msec
