                         Program Version 6.0.0  -   RELEASE  -
|  1> ! pbe def2-sv(p) def2/J RI DEFGRID1 loosescf d4 GCP(DFT/SV(P)) printgap
|  2> %output
|  3>     printlevel normal
|  4> end
|  5> * xyz 0 1
|  6> C 1.5957095181 -2.5022336781 -2.3959614918
|  7> C 1.9038858976 -2.5031338319 -0.9114368026
|  8> O 2.8628917555 -1.4766694079 -0.5880861197
|  9> P 2.4505501445 -0.0226571596 -0.0992730232
| 10> S 1.3005636418 1.001899627 -1.310622453
| 11> O 3.8418375054 0.6883796228 0.0614624526
| 12> C 4.8157517244 0.4781615096 1.115324591
| 13> C 5.1513981835 -0.9800733146 1.3365331129
| 14> S 1.714600908 -0.3297136339 1.8897526072
| 15> C 0.0674162856 0.3748812462 1.7396017592
| 16> S -1.029710104 -0.6817305992 0.7389879713
| 17> P -2.4051835775 0.8260918373 0.1294940739
| 18> S -1.7327241651 2.6639165494 0.1406234617
| 19> O -3.6301462668 0.6933150759 1.1106405944
| 20> C -4.3671948779 -0.5410710703 1.3054939694
| 21> C -5.6083864617 -0.5696041908 0.4378453109
| 22> O -2.9982282608 0.2797374026 -1.2358914885
| 23> C -2.2013053952 0.0629362397 -2.4196237485
| 24> C -2.0402278673 -1.4255282202 -2.659596239
| 25> H 1.1509136589 -1.5526230953 -2.6844252189
| 26> H 2.5094595146 -2.6441868678 -2.9660542636
| 27> H 0.9020156962 -3.3059751684 -2.6197644775
| 28> H 2.385720389 -3.4340543971 -0.6066504328
| 29> H 0.9949104485 -2.3529179088 -0.3199863099
| 30> H 5.6808345016 1.0436494859 0.7653866814
| 31> H 4.4226003835 0.9300558484 2.0294029381
| 32> H 5.9614255349 -1.0485983412 2.0562259925
| 33> H 4.2854444887 -1.5102232125 1.7287965062
| 34> H 5.4587900516 -1.4420685951 0.40224053
| 35> H 0.1148915278 1.3569922231 1.2608909087
| 36> H -0.325036525 0.4473407014 2.7512097895
| 37> H -3.7073061744 -1.3853339492 1.0857486199
| 38> H -4.6239651589 -0.5378894727 2.3662319523
| 39> H -5.3347025232 -0.5491255147 -0.6134456178
| 40> H -6.1671078784 -1.4763158519 0.6475879601
| 41> H -6.2313492587 0.2944763203 0.6520406778
| 42> H -2.7530268503 0.5417130123 -3.230740403
| 43> H -1.232914009 0.559894529 -2.3070115338
| 44> H -1.5045109622 -1.8840407421 -1.8317292263
| 45> H -3.0154000686 -1.8943609817 -2.7540545878
| 46> H -1.4782722406 -1.5761952824 -3.5754767637
| 47> *
| 48>
| 49>                          ****END OF INPUT****

CARTESIAN COORDINATES (ANGSTROEM)
---------------------------------
  C      1.595710   -2.502234   -2.395961
  C      1.903886   -2.503134   -0.911437
  O      2.862892   -1.476669   -0.588086
  P      2.450550   -0.022657   -0.099273
  S      1.300564    1.001900   -1.310622
  O      3.841838    0.688380    0.061462
  C      4.815752    0.478162    1.115325
  C      5.151398   -0.980073    1.336533
  S      1.714601   -0.329714    1.889753
  C      0.067416    0.374881    1.739602
  S     -1.029710   -0.681731    0.738988
  P     -2.405184    0.826092    0.129494
  S     -1.732724    2.663917    0.140623
  O     -3.630146    0.693315    1.110641
  C     -4.367195   -0.541071    1.305494
  C     -5.608386   -0.569604    0.437845
  O     -2.998228    0.279737   -1.235891
  C     -2.201305    0.062936   -2.419624
  C     -2.040228   -1.425528   -2.659596
  H      1.150914   -1.552623   -2.684425
  H      2.509460   -2.644187   -2.966054
  H      0.902016   -3.305975   -2.619764
  H      2.385720   -3.434054   -0.606650
  H      0.994910   -2.352918   -0.319986
  H      5.680835    1.043649    0.765387
  H      4.422600    0.930056    2.029403
  H      5.961426   -1.048598    2.056226
  H      4.285444   -1.510223    1.728797
  H      5.458790   -1.442069    0.402241
  H      0.114892    1.356992    1.260891
  H     -0.325037    0.447341    2.751210
  H     -3.707306   -1.385334    1.085749
  H     -4.623965   -0.537889    2.366232
  H     -5.334703   -0.549126   -0.613446
  H     -6.167108   -1.476316    0.647588
  H     -6.231349    0.294476    0.652041
  H     -2.753027    0.541713   -3.230740
  H     -1.232914    0.559895   -2.307012
  H     -1.504511   -1.884041   -1.831729
  H     -3.015400   -1.894361   -2.754055
  H     -1.478272   -1.576195   -3.575477

 Total Charge           Charge          ....    0
 Multiplicity           Mult            ....    1
 Number of Electrons    NEL             ....  202
 Basis Dimension        Dim             ....  334

ORBITAL ENERGIES
----------------

  NO   OCC          E(Eh)            E(eV)
   0   2.0000     -88.049364     -2395.9450
   1   2.0000     -88.041010     -2395.7177
   2   2.0000     -87.981695     -2394.1036
   3   2.0000     -87.977611     -2393.9925
   4   2.0000     -76.426833     -2079.6799
   5   2.0000     -76.421818     -2079.5434
   6   2.0000     -18.793130      -511.3871
   7   2.0000     -18.792712      -511.3757
   8   2.0000     -18.790650      -511.3196
   9   2.0000     -18.787451      -511.2325
  10   2.0000      -9.960772      -271.0464
  11   2.0000      -9.955063      -270.8910
  12   2.0000      -9.955016      -270.8897
  13   2.0000      -9.952934      -270.8331
  14   2.0000      -9.951084      -270.7828
  15   2.0000      -9.893191      -269.2074
  16   2.0000      -9.887866      -269.0625
  17   2.0000      -9.885362      -268.9944
  18   2.0000      -9.882579      -268.9186
  19   2.0000      -7.694014      -209.3648
  20   2.0000      -7.685397      -209.1303
  21   2.0000      -7.626482      -207.5271
  22   2.0000      -7.622899      -207.4296
  23   2.0000      -6.424078      -174.8080
  24   2.0000      -6.419411      -174.6811
  25   2.0000      -5.721885      -155.7004
  26   2.0000      -5.718288      -155.6025
  27   2.0000      -5.713141      -155.4625
  28   2.0000      -5.711341      -155.4135
  29   2.0000      -5.710071      -155.3789
  30   2.0000      -5.702477      -155.1723
  31   2.0000      -5.655615      -153.8971
  32   2.0000      -5.652018      -153.7992
  33   2.0000      -5.646909      -153.6602
  34   2.0000      -5.646608      -153.6520
  35   2.0000      -5.643353      -153.5635
  36   2.0000      -5.642991      -153.5536
  37   2.0000      -4.646748      -126.4444
  38   2.0000      -4.646048      -126.4254
  39   2.0000      -4.644307      -126.3780
  40   2.0000      -4.642250      -126.3221
  41   2.0000      -4.641285      -126.2958
  42   2.0000      -4.639493      -126.2470
  43   2.0000      -0.987883       -26.8817
  44   2.0000      -0.986432       -26.8422
  45   2.0000      -0.946013       -25.7423
  46   2.0000      -0.943031       -25.6612
  47   2.0000      -0.762493       -20.7485
  48   2.0000      -0.721682       -19.6380
  49   2.0000      -0.713802       -19.4235
  50   2.0000      -0.693800       -18.8792
  51   2.0000      -0.690727       -18.7956
  52   2.0000      -0.676332       -18.4039
  53   2.0000      -0.649238       -17.6667
  54   2.0000      -0.632766       -17.2184
  55   2.0000      -0.595536       -16.2054
  56   2.0000      -0.589525       -16.0418
  57   2.0000      -0.574785       -15.6407
  58   2.0000      -0.572253       -15.5718
  59   2.0000      -0.565508       -15.3882
  60   2.0000      -0.507270       -13.8035
  61   2.0000      -0.495953       -13.4956
  62   2.0000      -0.480462       -13.0740
  63   2.0000      -0.477766       -13.0007
  64   2.0000      -0.453481       -12.3398
  65   2.0000      -0.448860       -12.2141
  66   2.0000      -0.441795       -12.0219
  67   2.0000      -0.439806       -11.9677
  68   2.0000      -0.434109       -11.8127
  69   2.0000      -0.418209       -11.3801
  70   2.0000      -0.404567       -11.0088
  71   2.0000      -0.401267       -10.9190
  72   2.0000      -0.393999       -10.7212
  73   2.0000      -0.390680       -10.6310
  74   2.0000      -0.386738       -10.5237
  75   2.0000      -0.369894       -10.0653
  76   2.0000      -0.360546        -9.8110
  77   2.0000      -0.359814        -9.7910
  78   2.0000      -0.356862        -9.7107
  79   2.0000      -0.354835        -9.6556
  80   2.0000      -0.353039        -9.6067
  81   2.0000      -0.349211        -9.5025
  82   2.0000      -0.346987        -9.4420
  83   2.0000      -0.335386        -9.1263
  84   2.0000      -0.333301        -9.0696
  85   2.0000      -0.318466        -8.6659
  86   2.0000      -0.315667        -8.5897
  87   2.0000      -0.296235        -8.0610
  88   2.0000      -0.292802        -7.9676
  89   2.0000      -0.292296        -7.9538
  90   2.0000      -0.288425        -7.8484
  91   2.0000      -0.278221        -7.5708
  92   2.0000      -0.274877        -7.4798
  93   2.0000      -0.263621        -7.1735
  94   2.0000      -0.258786        -7.0419
  95   2.0000      -0.240114        -6.5338
  96   2.0000      -0.223365        -6.0781
  97   2.0000      -0.206484        -5.6187
  98   2.0000      -0.195557        -5.3214
  99   2.0000      -0.191853        -5.2206
 100   2.0000      -0.185795        -5.0557
 101   0.0000      -0.047450        -1.2912
 102   0.0000      -0.031741        -0.8637
 103   0.0000      -0.012869        -0.3502
 104   0.0000       0.006410         0.1744
 105   0.0000       0.011126         0.3027

MULLIKEN ATOMIC CHARGES
-----------------------
   0 C :   -0.298507
   1 C :   -0.022403
   2 O :   -0.371186
   3 P :    0.592597
   4 S :   -0.293281
   5 O :   -0.356151
   6 C :   -0.003886
   7 C :   -0.318629
   8 S :   -0.135648
   9 C :   -0.321648
  10 S :   -0.142247
  11 P :    0.601000
  12 S :   -0.291821
  13 O :   -0.355386
  14 C :   -0.011042
  15 C :   -0.289516
  16 O :   -0.381415
  17 C :   -0.021617
  18 C :   -0.309796
  19 H :    0.133989
  20 H :    0.113401
  21 H :    0.106781
  22 H :    0.103096
  23 H :    0.115604
  24 H :    0.115189
  25 H :    0.115113
  26 H :    0.117423
  27 H :    0.125277
  28 H :    0.127926
  29 H :    0.212049
  30 H :    0.180611
  31 H :    0.096633
  32 H :    0.108384
  33 H :    0.122693
  34 H :    0.107376
  35 H :    0.120821
  36 H :    0.109870
  37 H :    0.139381
  38 H :    0.128963
  39 H :    0.112485
  40 H :    0.117516
Sum of atomic charges:   -0.0000000

LOEWDIN ATOMIC CHARGES
----------------------
   0 C :   -0.363367
   1 C :   -0.117360
   2 O :   -0.244833
   3 P :    0.563497
   4 S :   -0.287024
   5 O :   -0.232431
   6 C :   -0.111628
   7 C :   -0.367851
   8 S :    0.065207
   9 C :   -0.479817
  10 S :    0.054377
  11 P :    0.563784
  12 S :   -0.291390
  13 O :   -0.238645
  14 C :   -0.115393
  15 C :   -0.360018
  16 O :   -0.243745
  17 C :   -0.116870
  18 C :   -0.359649
  19 H :    0.123683
  20 H :    0.126150
  21 H :    0.126499
  22 H :    0.117111
  23 H :    0.098806
  24 H :    0.125195
  25 H :    0.112969
  26 H :    0.133279
  27 H :    0.117581
  28 H :    0.131171
  29 H :    0.125018
  30 H :    0.135434
  31 H :    0.100624
  32 H :    0.120620
  33 H :    0.125632
  34 H :    0.128189
  35 H :    0.129421
  36 H :    0.121204
  37 H :    0.110764
  38 H :    0.118605
  39 H :    0.123623
  40 H :    0.131580

  Mayer bond orders larger than 0.100000
B(  0-C ,  1-C ) :   1.1703 B(  0-C , 19-H ) :   0.9250 B(  0-C , 20-H ) :   0.9447
B(  0-C , 21-H ) :   0.9374 B(  1-C ,  2-O ) :   0.9048 B(  1-C , 22-H ) :   0.9348
B(  1-C , 23-H ) :   0.9038 B(  2-O ,  3-P ) :   1.0876 B(  3-P ,  4-S ) :   1.6576
B(  3-P ,  5-O ) :   1.1528 B(  3-P ,  8-S ) :   0.9207 B(  4-S ,  8-S ) :   0.1145
B(  5-O ,  6-C ) :   0.8999 B(  6-C ,  7-C ) :   1.1684 B(  6-C , 24-H ) :   0.9342
B(  6-C , 25-H ) :   0.9249 B(  7-C , 26-H ) :   0.9341 B(  7-C , 27-H ) :   0.9381
B(  7-C , 28-H ) :   0.9412 B(  8-S ,  9-C ) :   1.0129 B(  9-C , 10-S ) :   0.9790
B(  9-C , 29-H ) :   0.8462 B(  9-C , 30-H ) :   0.9079 B( 10-S , 11-P ) :   0.9345
B( 10-S , 12-S ) :   0.1173 B( 11-P , 12-S ) :   1.6752 B( 11-P , 13-O ) :   1.1341
B( 11-P , 16-O ) :   1.0921 B( 13-O , 14-C ) :   0.8979 B( 14-C , 15-C ) :   1.1631
B( 14-C , 31-H ) :   0.9120 B( 14-C , 32-H ) :   0.9366 B( 15-C , 33-H ) :   0.9409
B( 15-C , 34-H ) :   0.9400 B( 15-C , 35-H ) :   0.9467 B( 16-O , 17-C ) :   0.8873
B( 17-C , 18-C ) :   1.1674 B( 17-C , 36-H ) :   0.9330 B( 17-C , 37-H ) :   0.8993
B( 18-C , 38-H ) :   0.9356 B( 18-C , 39-H ) :   0.9457 B( 18-C , 40-H ) :   0.9370

Dispersion correction           -0.065456565
FINAL SINGLE POINT ENERGY     -2929.512670256397

DIPOLE MOMENT
-------------

Method             : SCF
Type of density    : Electron Density
Multiplicity       :   1
Irrep              :   0
Energy             : -2929.6324138109289379 Eh
Relativity type    :
Basis              : AO
                                X                 Y                 Z
Electronic contribution:      2.645768159      18.768000230       7.743030470
Nuclear contribution   :     -2.398328015     -20.887413895      -7.362451903
                        -----------------------------------------
Total Dipole Moment    :      0.247440145      -2.119413665       0.380578568
                        -----------------------------------------
Magnitude (a.u.)       :      2.167482631
Magnitude (Debye)      :      5.509303017

Rotational constants in cm-1:             0.013649             0.004702             0.004365
Rotational constants in MHz :           409.171815           140.969051           130.856817

                             ****ORCA TERMINATED NORMALLY****
TOTAL RUN TIME: 0 days 0 hours 0 minutes 21 seconds 893 msec
