                         Program Version 6.0.0  -   RELEASE  -
|  1> ! pbe def2-sv(p) def2/J RI DEFGRID1 loosescf d4 GCP(DFT/SV(P)) printgap
|  2> %output
|  3>     printlevel normal
|  4> end
|  5> * xyz 0 1
|  6> C 3.7726470101 -0.2132375424 -2.4205975801
|  7> C 2.3408848401 -0.0886230062 -1.9461876832
|  8> O 2.2828296157 0.6067001852 -0.6757135541
|  9> P 2.2222703412 -0.1266691348 0.714514859
| 10> S 2.5026262876 1.0922068342 2.215223603
| 11> O 3.2973546831 -1.2832987782 0.5533478599
| 12> C 3.6025591988 -2.1662798899 1.6543020567
| 13> C 4.8904326436 -2.8921054802 1.323170616
| 14> S 0.3929347713 -1.2263462517 0.7823520694
| 15> C -0.5740506344 -0.0052401575 1.702102753
| 16> S -0.9473526809 1.4990988455 0.7541869885
| 17> P -2.1007130182 0.620370522 -0.8159692587
| 18> S -1.1094673195 -0.0685873997 -2.3519785329
| 19> O -3.0573851355 1.7943822156 -1.2664014101
| 20> C -4.299432098 2.1846762675 -0.6298913752
| 21> C -4.1304501685 2.588367666 0.8188285193
| 22> O -3.0201031321 -0.426483354 -0.0417078893
| 23> C -3.065627147 -1.8308211682 -0.3688225937
| 24> C -4.1051212055 -2.0912029366 -1.4399221972
| 25> H 3.7771668701 -0.6704408514 -3.4049860948
| 26> H 4.2305340992 0.7704912477 -2.4783407129
| 27> H 4.3457809437 -0.8292649498 -1.732919846
| 28> H 1.8643208596 -1.0669375613 -1.8413115192
| 29> H 1.7426232436 0.5239657806 -2.6235502221
| 30> H 3.7012289971 -1.564574242 2.5635934523
| 31> H 2.7687513477 -2.8634299618 1.7729323534
| 32> H 5.7004528443 -2.1787804548 1.1992048438
| 33> H 5.1334282804 -3.5710386659 2.1337833223
| 34> H 4.7733329829 -3.457738006 0.4033032904
| 35> H 0.0028867082 0.3308770684 2.5647365846
| 36> H -1.4961208045 -0.4930621266 2.0055164329
| 37> H -4.6358897026 3.0219559983 -1.2433526255
| 38> H -5.0005623712 1.352646298 -0.7215201218
| 39> H -3.8459969613 1.7287243377 1.4213917426
| 40> H -3.3630711478 3.3529210341 0.9146828371
| 41> H -5.0735549962 2.9815128383 1.1860315926
| 42> H -2.0759335853 -2.1554898179 -0.702703754
| 43> H -3.3201361282 -2.3249548583 0.5699093842
| 44> H -3.8305844658 -1.5671590162 -2.3540874897
| 45> H -4.1491017306 -3.1560420854 -1.6442306814
| 46> H -5.0826935942 -1.7474848385 -1.1127244017
| 47> *
| 48>
| 49>                          ****END OF INPUT****

CARTESIAN COORDINATES (ANGSTROEM)
---------------------------------
  C      3.772647   -0.213238   -2.420598
  C      2.340885   -0.088623   -1.946188
  O      2.282830    0.606700   -0.675714
  P      2.222270   -0.126669    0.714515
  S      2.502626    1.092207    2.215224
  O      3.297355   -1.283299    0.553348
  C      3.602559   -2.166280    1.654302
  C      4.890433   -2.892105    1.323171
  S      0.392935   -1.226346    0.782352
  C     -0.574051   -0.005240    1.702103
  S     -0.947353    1.499099    0.754187
  P     -2.100713    0.620371   -0.815969
  S     -1.109467   -0.068587   -2.351979
  O     -3.057385    1.794382   -1.266401
  C     -4.299432    2.184676   -0.629891
  C     -4.130450    2.588368    0.818829
  O     -3.020103   -0.426483   -0.041708
  C     -3.065627   -1.830821   -0.368823
  C     -4.105121   -2.091203   -1.439922
  H      3.777167   -0.670441   -3.404986
  H      4.230534    0.770491   -2.478341
  H      4.345781   -0.829265   -1.732920
  H      1.864321   -1.066938   -1.841312
  H      1.742623    0.523966   -2.623550
  H      3.701229   -1.564574    2.563593
  H      2.768751   -2.863430    1.772932
  H      5.700453   -2.178780    1.199205
  H      5.133428   -3.571039    2.133783
  H      4.773333   -3.457738    0.403303
  H      0.002887    0.330877    2.564737
  H     -1.496121   -0.493062    2.005516
  H     -4.635890    3.021956   -1.243353
  H     -5.000562    1.352646   -0.721520
  H     -3.845997    1.728724    1.421392
  H     -3.363071    3.352921    0.914683
  H     -5.073555    2.981513    1.186032
  H     -2.075934   -2.155490   -0.702704
  H     -3.320136   -2.324955    0.569909
  H     -3.830584   -1.567159   -2.354087
  H     -4.149102   -3.156042   -1.644231
  H     -5.082694   -1.747485   -1.112724

 Total Charge           Charge          ....    0
 Multiplicity           Mult            ....    1
 Number of Electrons    NEL             ....  202
 Basis Dimension        Dim             ....  334

ORBITAL ENERGIES
----------------

  NO   OCC          E(Eh)            E(eV)
   0   2.0000     -88.039609     -2395.6795
   1   2.0000     -88.035859     -2395.5775
   2   2.0000     -87.982748     -2394.1323
   3   2.0000     -87.980763     -2394.0783
   4   2.0000     -76.426750     -2079.6776
   5   2.0000     -76.423174     -2079.5803
   6   2.0000     -18.800910      -511.5988
   7   2.0000     -18.794952      -511.4366
   8   2.0000     -18.791582      -511.3449
   9   2.0000     -18.785270      -511.1732
  10   2.0000      -9.959456      -271.0106
  11   2.0000      -9.958202      -270.9765
  12   2.0000      -9.954438      -270.8740
  13   2.0000      -9.954157      -270.8664
  14   2.0000      -9.943433      -270.5746
  15   2.0000      -9.890355      -269.1302
  16   2.0000      -9.887931      -269.0643
  17   2.0000      -9.887872      -269.0627
  18   2.0000      -9.877731      -268.7867
  19   2.0000      -7.684480      -209.1053
  20   2.0000      -7.680708      -209.0027
  21   2.0000      -7.628083      -207.5707
  22   2.0000      -7.626087      -207.5164
  23   2.0000      -6.424028      -174.8067
  24   2.0000      -6.420845      -174.7201
  25   2.0000      -5.712187      -155.4365
  26   2.0000      -5.709008      -155.3500
  27   2.0000      -5.708763      -155.3433
  28   2.0000      -5.705288      -155.2488
  29   2.0000      -5.701641      -155.1495
  30   2.0000      -5.697459      -155.0357
  31   2.0000      -5.657064      -153.9365
  32   2.0000      -5.655010      -153.8806
  33   2.0000      -5.648536      -153.7045
  34   2.0000      -5.648288      -153.6977
  35   2.0000      -5.646714      -153.6549
  36   2.0000      -5.646131      -153.6390
  37   2.0000      -4.647422      -126.4628
  38   2.0000      -4.645427      -126.4085
  39   2.0000      -4.644127      -126.3731
  40   2.0000      -4.643737      -126.3625
  41   2.0000      -4.642560      -126.3305
  42   2.0000      -4.641040      -126.2891
  43   2.0000      -0.989204       -26.9176
  44   2.0000      -0.986867       -26.8540
  45   2.0000      -0.948137       -25.8001
  46   2.0000      -0.942239       -25.6396
  47   2.0000      -0.760257       -20.6877
  48   2.0000      -0.721415       -19.6307
  49   2.0000      -0.710383       -19.3305
  50   2.0000      -0.695838       -18.9347
  51   2.0000      -0.689128       -18.7521
  52   2.0000      -0.670317       -18.2403
  53   2.0000      -0.648563       -17.6483
  54   2.0000      -0.635475       -17.2921
  55   2.0000      -0.594779       -16.1848
  56   2.0000      -0.586182       -15.9508
  57   2.0000      -0.581632       -15.8270
  58   2.0000      -0.564634       -15.3645
  59   2.0000      -0.563445       -15.3321
  60   2.0000      -0.509491       -13.8640
  61   2.0000      -0.500078       -13.6078
  62   2.0000      -0.479882       -13.0583
  63   2.0000      -0.476107       -12.9555
  64   2.0000      -0.456552       -12.4234
  65   2.0000      -0.448708       -12.2100
  66   2.0000      -0.443094       -12.0572
  67   2.0000      -0.435650       -11.8546
  68   2.0000      -0.427409       -11.6304
  69   2.0000      -0.414259       -11.2726
  70   2.0000      -0.407880       -11.0990
  71   2.0000      -0.396262       -10.7828
  72   2.0000      -0.387650       -10.5485
  73   2.0000      -0.384196       -10.4545
  74   2.0000      -0.380307       -10.3487
  75   2.0000      -0.374333       -10.1861
  76   2.0000      -0.366294        -9.9674
  77   2.0000      -0.358386        -9.7522
  78   2.0000      -0.355193        -9.6653
  79   2.0000      -0.353008        -9.6058
  80   2.0000      -0.348956        -9.4956
  81   2.0000      -0.346578        -9.4309
  82   2.0000      -0.344057        -9.3623
  83   2.0000      -0.339717        -9.2442
  84   2.0000      -0.331231        -9.0133
  85   2.0000      -0.321670        -8.7531
  86   2.0000      -0.311259        -8.4698
  87   2.0000      -0.303947        -8.2708
  88   2.0000      -0.300525        -8.1777
  89   2.0000      -0.295214        -8.0332
  90   2.0000      -0.286520        -7.7966
  91   2.0000      -0.273648        -7.4463
  92   2.0000      -0.269187        -7.3250
  93   2.0000      -0.262350        -7.1389
  94   2.0000      -0.256703        -6.9852
  95   2.0000      -0.237747        -6.4694
  96   2.0000      -0.215682        -5.8690
  97   2.0000      -0.205292        -5.5863
  98   2.0000      -0.202712        -5.5161
  99   2.0000      -0.194771        -5.3000
 100   2.0000      -0.188340        -5.1250
 101   0.0000      -0.045148        -1.2285
 102   0.0000      -0.018848        -0.5129
 103   0.0000      -0.010686        -0.2908
 104   0.0000       0.001894         0.0515
 105   0.0000       0.014618         0.3978

MULLIKEN ATOMIC CHARGES
-----------------------
   0 C :   -0.284394
   1 C :   -0.018824
   2 O :   -0.346083
   3 P :    0.617669
   4 S :   -0.316498
   5 O :   -0.385023
   6 C :   -0.010910
   7 C :   -0.282778
   8 S :   -0.115171
   9 C :   -0.367119
  10 S :   -0.072170
  11 P :    0.622007
  12 S :   -0.309204
  13 O :   -0.366354
  14 C :    0.001438
  15 C :   -0.320508
  16 O :   -0.398334
  17 C :   -0.024023
  18 C :   -0.293561
  19 H :    0.108011
  20 H :    0.117994
  21 H :    0.117318
  22 H :    0.102449
  23 H :    0.124869
  24 H :    0.105814
  25 H :    0.102438
  26 H :    0.123690
  27 H :    0.113118
  28 H :    0.116721
  29 H :    0.194173
  30 H :    0.182855
  31 H :    0.112528
  32 H :    0.105018
  33 H :    0.125517
  34 H :    0.129700
  35 H :    0.112635
  36 H :    0.122897
  37 H :    0.102591
  38 H :    0.125999
  39 H :    0.111996
  40 H :    0.111508
Sum of atomic charges:   -0.0000000

LOEWDIN ATOMIC CHARGES
----------------------
   0 C :   -0.360435
   1 C :   -0.115802
   2 O :   -0.224956
   3 P :    0.572894
   4 S :   -0.308836
   5 O :   -0.247658
   6 C :   -0.120934
   7 C :   -0.350648
   8 S :    0.059101
   9 C :   -0.485118
  10 S :    0.089564
  11 P :    0.570713
  12 S :   -0.302848
  13 O :   -0.243146
  14 C :   -0.107454
  15 C :   -0.371740
  16 O :   -0.253432
  17 C :   -0.123275
  18 C :   -0.361866
  19 H :    0.129003
  20 H :    0.128144
  21 H :    0.122798
  22 H :    0.104593
  23 H :    0.120242
  24 H :    0.110010
  25 H :    0.107554
  26 H :    0.129816
  27 H :    0.131478
  28 H :    0.126178
  29 H :    0.129106
  30 H :    0.128705
  31 H :    0.123556
  32 H :    0.112163
  33 H :    0.120305
  34 H :    0.127658
  35 H :    0.130777
  36 H :    0.108960
  37 H :    0.115131
  38 H :    0.126195
  39 H :    0.131533
  40 H :    0.121970

  Mayer bond orders larger than 0.100000
B(  0-C ,  1-C ) :   1.1562 B(  0-C , 19-H ) :   0.9407 B(  0-C , 20-H ) :   0.9462
B(  0-C , 21-H ) :   0.9412 B(  1-C ,  2-O ) :   0.8823 B(  1-C , 22-H ) :   0.9195
B(  1-C , 23-H ) :   0.9258 B(  2-O ,  3-P ) :   1.1658 B(  3-P ,  4-S ) :   1.6451
B(  3-P ,  5-O ) :   1.0751 B(  3-P ,  8-S ) :   0.9369 B(  4-S ,  8-S ) :   0.1098
B(  5-O ,  6-C ) :   0.9050 B(  6-C ,  7-C ) :   1.1595 B(  6-C , 24-H ) :   0.9106
B(  6-C , 25-H ) :   0.9262 B(  7-C , 26-H ) :   0.9504 B(  7-C , 27-H ) :   0.9418
B(  7-C , 28-H ) :   0.9506 B(  8-S ,  9-C ) :   1.0113 B(  9-C , 10-S ) :   1.0023
B(  9-C , 29-H ) :   0.8718 B(  9-C , 30-H ) :   0.8993 B( 10-S , 11-P ) :   0.9607
B( 10-S , 12-S ) :   0.1015 B( 11-P , 12-S ) :   1.6534 B( 11-P , 13-O ) :   1.1372
B( 11-P , 16-O ) :   1.0462 B( 13-O , 14-C ) :   0.8997 B( 14-C , 15-C ) :   1.1702
B( 14-C , 31-H ) :   0.9351 B( 14-C , 32-H ) :   0.9298 B( 15-C , 33-H ) :   0.9389
B( 15-C , 34-H ) :   0.9406 B( 15-C , 35-H ) :   0.9337 B( 16-O , 17-C ) :   0.8926
B( 17-C , 18-C ) :   1.1687 B( 17-C , 36-H ) :   0.9039 B( 17-C , 37-H ) :   0.9316
B( 18-C , 38-H ) :   0.9366 B( 18-C , 39-H ) :   0.9395 B( 18-C , 40-H ) :   0.9460

Dispersion correction           -0.064751325
FINAL SINGLE POINT ENERGY     -2929.516147975905

DIPOLE MOMENT
-------------

Method             : SCF
Type of density    : Electron Density
Multiplicity       :   1
Irrep              :   0
Energy             : -2929.6361278426525132 Eh
Relativity type    :
Basis              : AO
                                X                 Y                 Z
Electronic contribution:      2.656558811      11.822906226       3.196484002
Nuclear contribution   :     -3.736398809     -13.211884565      -2.902506155
                        -----------------------------------------
Total Dipole Moment    :     -1.079839999      -1.388978340       0.293977847
                        -----------------------------------------
Magnitude (a.u.)       :      1.783742758
Magnitude (Debye)      :      4.533913774

Rotational constants in cm-1:             0.013118             0.004618             0.004374
Rotational constants in MHz :           393.270594           138.451210           131.127100

                             ****ORCA TERMINATED NORMALLY****
TOTAL RUN TIME: 0 days 0 hours 0 minutes 20 seconds 877 msec
