                         Program Version 6.0.0  -   RELEASE  -
|  1> ! pbe def2-sv(p) def2/J RI DEFGRID1 loosescf d4 GCP(DFT/SV(P)) printgap
|  2> %output
|  3>     printlevel normal
|  4> end
|  5> * xyz 0 1
|  6> C 3.1366893988 2.2287305249 -1.8911047906
|  7> C 1.982782054 1.2584628137 -1.7544324246
|  8> O 1.4641614673 1.2764003023 -0.4007702366
|  9> P 1.8230781953 0.179658994 0.6700340159
| 10> S 1.2154042885 0.6592921872 2.4645280595
| 11> O 3.3974278871 0.0636341307 0.4587222425
| 12> C 4.2328719841 -0.9122104398 1.1088865079
| 13> C 4.6580412295 -0.4587780493 2.4919846584
| 14> S 1.1814943109 -1.7289026825 -0.0565163347
| 15> C -0.1275134188 -2.1098083959 1.1339751087
| 16> S -1.7927747121 -2.1673610122 0.4105414177
| 17> P -1.8510478181 -0.2766889915 -0.5615929616
| 18> S -1.114070747 -0.2045902271 -2.3799152825
| 19> O -1.1952736974 0.6604563822 0.5334749454
| 20> C -1.7113170823 1.9666169111 0.8834181836
| 21> C -1.5385868672 2.9537526898 -0.2500869718
| 22> O -3.3860401514 0.1110617095 -0.485100674
| 23> C -4.3454892431 -0.3249406587 -1.4693332459
| 24> C -5.4475834442 0.712493545 -1.5451753274
| 25> H 3.9618136507 1.9243422057 -1.2527983209
| 26> H 3.4652693651 2.2399086483 -2.9255106196
| 27> H 2.8198715795 3.2275794017 -1.6039197624
| 28> H 2.2820488614 0.2385170507 -2.0095397079
| 29> H 1.1370704533 1.5445017921 -2.3836761284
| 30> H 3.6995171447 -1.8661540651 1.1521635328
| 31> H 5.0934185595 -1.0082437767 0.4437279146
| 32> H 3.7942682237 -0.3663953913 3.1463146093
| 33> H 5.3433886736 -1.1889758163 2.9100294655
| 34> H 5.1531832255 0.5067070697 2.4340374606
| 35> H -0.0954023429 -1.3645754829 1.9344466625
| 36> H 0.0512947925 -3.1111875498 1.5183963024
| 37> H -2.7603975872 1.8565619789 1.1616254876
| 38> H -1.1186470073 2.2442664766 1.7575401576
| 39> H -2.0789929527 2.6075582733 -1.1306938125
| 40> H -1.9256171442 3.9215247143 0.0525802616
| 41> H -0.48522493 3.0478510188 -0.5033348484
| 42> H -3.8337527351 -0.4378588919 -2.4313621789
| 43> H -4.7305611911 -1.2962868961 -1.1503426253
| 44> H -6.1969122024 0.3797591278 -2.2557716804
| 45> H -5.9081991632 0.8379654613 -0.5695659428
| 46> H -5.0451467547 1.6673521804 -1.872164911
| 47> *
| 48>
| 49>                          ****END OF INPUT****

CARTESIAN COORDINATES (ANGSTROEM)
---------------------------------
  C      3.136689    2.228731   -1.891105
  C      1.982782    1.258463   -1.754432
  O      1.464161    1.276400   -0.400770
  P      1.823078    0.179659    0.670034
  S      1.215404    0.659292    2.464528
  O      3.397428    0.063634    0.458722
  C      4.232872   -0.912210    1.108887
  C      4.658041   -0.458778    2.491985
  S      1.181494   -1.728903   -0.056516
  C     -0.127513   -2.109808    1.133975
  S     -1.792775   -2.167361    0.410541
  P     -1.851048   -0.276689   -0.561593
  S     -1.114071   -0.204590   -2.379915
  O     -1.195274    0.660456    0.533475
  C     -1.711317    1.966617    0.883418
  C     -1.538587    2.953753   -0.250087
  O     -3.386040    0.111062   -0.485101
  C     -4.345489   -0.324941   -1.469333
  C     -5.447583    0.712494   -1.545175
  H      3.961814    1.924342   -1.252798
  H      3.465269    2.239909   -2.925511
  H      2.819872    3.227579   -1.603920
  H      2.282049    0.238517   -2.009540
  H      1.137070    1.544502   -2.383676
  H      3.699517   -1.866154    1.152164
  H      5.093419   -1.008244    0.443728
  H      3.794268   -0.366395    3.146315
  H      5.343389   -1.188976    2.910029
  H      5.153183    0.506707    2.434037
  H     -0.095402   -1.364575    1.934447
  H      0.051295   -3.111188    1.518396
  H     -2.760398    1.856562    1.161625
  H     -1.118647    2.244266    1.757540
  H     -2.078993    2.607558   -1.130694
  H     -1.925617    3.921525    0.052580
  H     -0.485225    3.047851   -0.503335
  H     -3.833753   -0.437859   -2.431362
  H     -4.730561   -1.296287   -1.150343
  H     -6.196912    0.379759   -2.255772
  H     -5.908199    0.837965   -0.569566
  H     -5.045147    1.667352   -1.872165

 Total Charge           Charge          ....    0
 Multiplicity           Mult            ....    1
 Number of Electrons    NEL             ....  202
 Basis Dimension        Dim             ....  334

ORBITAL ENERGIES
----------------

  NO   OCC          E(Eh)            E(eV)
   0   2.0000     -88.041849     -2395.7405
   1   2.0000     -88.033069     -2395.5016
   2   2.0000     -87.985744     -2394.2138
   3   2.0000     -87.980853     -2394.0807
   4   2.0000     -76.426362     -2079.6670
   5   2.0000     -76.424423     -2079.6143
   6   2.0000     -18.794988      -511.4376
   7   2.0000     -18.793995      -511.4106
   8   2.0000     -18.788513      -511.2614
   9   2.0000     -18.785005      -511.1660
  10   2.0000      -9.954324      -270.8709
  11   2.0000      -9.954248      -270.8689
  12   2.0000      -9.951969      -270.8068
  13   2.0000      -9.947292      -270.6796
  14   2.0000      -9.945263      -270.6244
  15   2.0000      -9.890250      -269.1274
  16   2.0000      -9.881397      -268.8865
  17   2.0000      -9.880133      -268.8521
  18   2.0000      -9.876568      -268.7551
  19   2.0000      -7.686301      -209.1549
  20   2.0000      -7.678955      -208.9550
  21   2.0000      -7.630803      -207.6447
  22   2.0000      -7.625908      -207.5115
  23   2.0000      -6.423479      -174.7918
  24   2.0000      -6.421745      -174.7446
  25   2.0000      -5.714068      -155.4877
  26   2.0000      -5.710765      -155.3978
  27   2.0000      -5.707054      -155.2968
  28   2.0000      -5.703569      -155.2020
  29   2.0000      -5.703493      -155.1999
  30   2.0000      -5.695499      -154.9824
  31   2.0000      -5.659821      -154.0116
  32   2.0000      -5.654693      -153.8720
  33   2.0000      -5.651446      -153.7837
  34   2.0000      -5.650720      -153.7639
  35   2.0000      -5.646635      -153.6527
  36   2.0000      -5.646093      -153.6380
  37   2.0000      -4.646248      -126.4308
  38   2.0000      -4.645242      -126.4035
  39   2.0000      -4.645092      -126.3994
  40   2.0000      -4.643848      -126.3655
  41   2.0000      -4.643397      -126.3532
  42   2.0000      -4.641634      -126.3053
  43   2.0000      -0.988596       -26.9011
  44   2.0000      -0.986520       -26.8446
  45   2.0000      -0.943575       -25.6760
  46   2.0000      -0.941147       -25.6099
  47   2.0000      -0.758230       -20.6325
  48   2.0000      -0.719413       -19.5762
  49   2.0000      -0.707898       -19.2629
  50   2.0000      -0.688065       -18.7232
  51   2.0000      -0.687798       -18.7159
  52   2.0000      -0.669092       -18.2069
  53   2.0000      -0.647684       -17.6244
  54   2.0000      -0.637564       -17.3490
  55   2.0000      -0.590405       -16.0657
  56   2.0000      -0.585415       -15.9300
  57   2.0000      -0.571699       -15.5567
  58   2.0000      -0.569669       -15.5015
  59   2.0000      -0.563235       -15.3264
  60   2.0000      -0.507906       -13.8208
  61   2.0000      -0.500714       -13.6251
  62   2.0000      -0.476177       -12.9574
  63   2.0000      -0.471545       -12.8314
  64   2.0000      -0.449344       -12.2273
  65   2.0000      -0.446279       -12.1439
  66   2.0000      -0.440067       -11.9748
  67   2.0000      -0.433854       -11.8058
  68   2.0000      -0.422742       -11.5034
  69   2.0000      -0.412451       -11.2234
  70   2.0000      -0.403855       -10.9895
  71   2.0000      -0.398254       -10.8370
  72   2.0000      -0.396801       -10.7975
  73   2.0000      -0.383021       -10.4225
  74   2.0000      -0.379955       -10.3391
  75   2.0000      -0.365720        -9.9517
  76   2.0000      -0.359617        -9.7857
  77   2.0000      -0.356387        -9.6978
  78   2.0000      -0.354071        -9.6348
  79   2.0000      -0.350933        -9.5494
  80   2.0000      -0.343873        -9.3572
  81   2.0000      -0.340649        -9.2695
  82   2.0000      -0.337054        -9.1717
  83   2.0000      -0.334275        -9.0961
  84   2.0000      -0.331923        -9.0321
  85   2.0000      -0.318164        -8.6577
  86   2.0000      -0.315319        -8.5803
  87   2.0000      -0.302739        -8.2380
  88   2.0000      -0.295666        -8.0455
  89   2.0000      -0.293078        -7.9751
  90   2.0000      -0.282967        -7.6999
  91   2.0000      -0.274520        -7.4701
  92   2.0000      -0.267291        -7.2734
  93   2.0000      -0.260263        -7.0821
  94   2.0000      -0.254403        -6.9226
  95   2.0000      -0.235439        -6.4066
  96   2.0000      -0.221526        -6.0280
  97   2.0000      -0.206525        -5.6198
  98   2.0000      -0.200338        -5.4515
  99   2.0000      -0.191446        -5.2095
 100   2.0000      -0.187295        -5.0966
 101   0.0000      -0.046694        -1.2706
 102   0.0000      -0.032402        -0.8817
 103   0.0000      -0.012756        -0.3471
 104   0.0000       0.006344         0.1726
 105   0.0000       0.015388         0.4187

MULLIKEN ATOMIC CHARGES
-----------------------
   0 C :   -0.282056
   1 C :   -0.017373
   2 O :   -0.357040
   3 P :    0.624490
   4 S :   -0.306896
   5 O :   -0.379620
   6 C :   -0.007231
   7 C :   -0.296887
   8 S :   -0.105251
   9 C :   -0.340489
  10 S :   -0.113190
  11 P :    0.640418
  12 S :   -0.320962
  13 O :   -0.375551
  14 C :    0.002007
  15 C :   -0.324517
  16 O :   -0.386924
  17 C :   -0.010684
  18 C :   -0.288940
  19 H :    0.117159
  20 H :    0.108764
  21 H :    0.115259
  22 H :    0.103325
  23 H :    0.124135
  24 H :    0.099625
  25 H :    0.104255
  26 H :    0.129545
  27 H :    0.106432
  28 H :    0.113800
  29 H :    0.199897
  30 H :    0.178825
  31 H :    0.106784
  32 H :    0.115229
  33 H :    0.116962
  34 H :    0.106088
  35 H :    0.134761
  36 H :    0.108688
  37 H :    0.104167
  38 H :    0.113491
  39 H :    0.117851
  40 H :    0.121655
Sum of atomic charges:    0.0000000

LOEWDIN ATOMIC CHARGES
----------------------
   0 C :   -0.358612
   1 C :   -0.118149
   2 O :   -0.225969
   3 P :    0.576965
   4 S :   -0.287408
   5 O :   -0.245572
   6 C :   -0.118984
   7 C :   -0.365753
   8 S :    0.079068
   9 C :   -0.480248
  10 S :    0.054000
  11 P :    0.570363
  12 S :   -0.309910
  13 O :   -0.240811
  14 C :   -0.112151
  15 C :   -0.366613
  16 O :   -0.245602
  17 C :   -0.121016
  18 C :   -0.351678
  19 H :    0.124305
  20 H :    0.129396
  21 H :    0.126413
  22 H :    0.106986
  23 H :    0.115519
  24 H :    0.101681
  25 H :    0.117544
  26 H :    0.122860
  27 H :    0.128257
  28 H :    0.126365
  29 H :    0.121993
  30 H :    0.136869
  31 H :    0.111217
  32 H :    0.116778
  33 H :    0.117443
  34 H :    0.127598
  35 H :    0.129988
  36 H :    0.107335
  37 H :    0.113110
  38 H :    0.131828
  39 H :    0.126807
  40 H :    0.127788

  Mayer bond orders larger than 0.100000
B(  0-C ,  1-C ) :   1.1616 B(  0-C , 19-H ) :   0.9415 B(  0-C , 20-H ) :   0.9405
B(  0-C , 21-H ) :   0.9484 B(  1-C ,  2-O ) :   0.8751 B(  1-C , 22-H ) :   0.9213
B(  1-C , 23-H ) :   0.9177 B(  2-O ,  3-P ) :   1.1389 B(  3-P ,  4-S ) :   1.6180
B(  3-P ,  5-O ) :   1.0708 B(  3-P ,  8-S ) :   0.9542 B(  4-S ,  8-S ) :   0.1190
B(  4-S , 29-H ) :   0.1185 B(  5-O ,  6-C ) :   0.9109 B(  6-C ,  7-C ) :   1.1654
B(  6-C , 24-H ) :   0.9109 B(  6-C , 25-H ) :   0.9361 B(  7-C , 26-H ) :   0.9305
B(  7-C , 27-H ) :   0.9385 B(  7-C , 28-H ) :   0.9476 B(  8-S ,  9-C ) :   1.0106
B(  9-C , 10-S ) :   0.9956 B(  9-C , 29-H ) :   0.8483 B(  9-C , 30-H ) :   0.9126
B( 10-S , 11-P ) :   0.9573 B( 10-S , 12-S ) :   0.1163 B( 11-P , 12-S ) :   1.6445
B( 11-P , 13-O ) :   1.1129 B( 11-P , 16-O ) :   1.0749 B( 13-O , 14-C ) :   0.8893
B( 14-C , 15-C ) :   1.1717 B( 14-C , 31-H ) :   0.9276 B( 14-C , 32-H ) :   0.9154
B( 15-C , 33-H ) :   0.9346 B( 15-C , 34-H ) :   0.9376 B( 15-C , 35-H ) :   0.9373
B( 16-O , 17-C ) :   0.9048 B( 17-C , 18-C ) :   1.1607 B( 17-C , 36-H ) :   0.9009
B( 17-C , 37-H ) :   0.9317 B( 18-C , 38-H ) :   0.9414 B( 18-C , 39-H ) :   0.9505
B( 18-C , 40-H ) :   0.9510

Dispersion correction           -0.067853621
FINAL SINGLE POINT ENERGY     -2929.513142518758

DIPOLE MOMENT
-------------

Method             : SCF
Type of density    : Electron Density
Multiplicity       :   1
Irrep              :   0
Energy             : -2929.6331395798911217 Eh
Relativity type    :
Basis              : AO
                                X                 Y                 Z
Electronic contribution:     -2.498427918     -14.758588204       3.306975056
Nuclear contribution   :      2.504062460      14.857498875      -3.464623980
                        -----------------------------------------
Total Dipole Moment    :      0.005634543       0.098910672      -0.157648925
                        -----------------------------------------
Magnitude (a.u.)       :      0.186194126
Magnitude (Debye)      :      0.473267856

Rotational constants in cm-1:             0.013311             0.005375             0.004969
Rotational constants in MHz :           399.058034           161.127797           148.971702

                             ****ORCA TERMINATED NORMALLY****
TOTAL RUN TIME: 0 days 0 hours 0 minutes 21 seconds 746 msec
