                         Program Version 6.0.0  -   RELEASE  -
|  1> ! pbe def2-sv(p) def2/J RI DEFGRID1 loosescf d4 GCP(DFT/SV(P)) printgap
|  2> %output
|  3>     printlevel normal
|  4> end
|  5> * xyz 0 1
|  6> C 0.0586325224 -1.5875623649 2.9361286206
|  7> C 1.3852987296 -1.5369664862 2.2076318008
|  8> O 1.5052556567 -0.2568261214 1.5471903478
|  9> P 2.315690464 -0.0237904162 0.210226756
| 10> S 3.1063567142 -1.636815032 -0.584592562
| 11> O 3.2936948994 1.1077660411 0.7370508512
| 12> C 4.1587878785 1.8904337617 -0.1091499631
| 13> C 5.4466915252 1.1558927265 -0.4275977962
| 14> S 1.0223304629 1.0711775 -1.0689660957
| 15> C 0.3062466043 -0.3629119516 -1.9138241104
| 16> S -0.6218302959 -1.4369339524 -0.7902175903
| 17> P -2.0747196661 0.0078847353 -0.2380853475
| 18> S -2.6815341336 1.1793914483 -1.6932118712
| 19> O -1.4039842049 0.7249007704 0.9995425575
| 20> C -1.5858267318 2.1250564637 1.2783823001
| 21> C -2.9525126585 2.3823400101 1.8766240169
| 22> O -3.162537628 -0.8742817335 0.5086933865
| 23> C -4.0103628908 -1.8208544784 -0.1729223479
| 24> C -5.2955637892 -1.1672588795 -0.6428491198
| 25> H -0.0185426216 -2.534747938 3.4599547114
| 26> H -0.0040680438 -0.7717382253 3.6502117399
| 27> H -0.7662524661 -1.4997690086 2.233185097
| 28> H 1.4643336854 -2.3335492875 1.4600142853
| 29> H 2.2218260243 -1.6206113814 2.9054969373
| 30> H 3.620045492 2.1573224076 -1.0231752715
| 31> H 4.3514774009 2.7918762411 0.4757854614
| 32> H 5.2408041156 0.2583090895 -1.0063912391
| 33> H 6.0959589203 1.8073513838 -1.0035982039
| 34> H 5.9496959465 0.8677993708 0.4915207272
| 35> H 1.1023390138 -0.9720610409 -2.3414839932
| 36> H -0.358844063 0.0291411428 -2.6829576019
| 37> H -0.7789872961 2.365209277 1.9723965417
| 38> H -1.4528653921 2.6909354505 0.3499798774
| 39> H -3.7218110288 2.1211984371 1.1506160275
| 40> H -3.0926426761 1.7785383066 2.768971034
| 41> H -3.0457779703 3.4337025607 2.1294022206
| 42> H -3.4605023809 -2.2584844609 -1.0113022866
| 43> H -4.2079510651 -2.5924140904 0.5735709316
| 44> H -5.9311506208 -1.9182238858 -1.1008457567
| 45> H -5.8170017563 -0.7202620376 0.1989511202
| 46> H -5.0809837426 -0.3913559697 -1.3743541936
| 47> *
| 48>
| 49>                          ****END OF INPUT****

CARTESIAN COORDINATES (ANGSTROEM)
---------------------------------
  C      0.058633   -1.587562    2.936129
  C      1.385299   -1.536966    2.207632
  O      1.505256   -0.256826    1.547190
  P      2.315690   -0.023790    0.210227
  S      3.106357   -1.636815   -0.584593
  O      3.293695    1.107766    0.737051
  C      4.158788    1.890434   -0.109150
  C      5.446692    1.155893   -0.427598
  S      1.022330    1.071177   -1.068966
  C      0.306247   -0.362912   -1.913824
  S     -0.621830   -1.436934   -0.790218
  P     -2.074720    0.007885   -0.238085
  S     -2.681534    1.179391   -1.693212
  O     -1.403984    0.724901    0.999543
  C     -1.585827    2.125056    1.278382
  C     -2.952513    2.382340    1.876624
  O     -3.162538   -0.874282    0.508693
  C     -4.010363   -1.820854   -0.172922
  C     -5.295564   -1.167259   -0.642849
  H     -0.018543   -2.534748    3.459955
  H     -0.004068   -0.771738    3.650212
  H     -0.766252   -1.499769    2.233185
  H      1.464334   -2.333549    1.460014
  H      2.221826   -1.620611    2.905497
  H      3.620045    2.157322   -1.023175
  H      4.351477    2.791876    0.475785
  H      5.240804    0.258309   -1.006391
  H      6.095959    1.807351   -1.003598
  H      5.949696    0.867799    0.491521
  H      1.102339   -0.972061   -2.341484
  H     -0.358844    0.029141   -2.682958
  H     -0.778987    2.365209    1.972397
  H     -1.452865    2.690935    0.349980
  H     -3.721811    2.121198    1.150616
  H     -3.092643    1.778538    2.768971
  H     -3.045778    3.433703    2.129402
  H     -3.460502   -2.258484   -1.011302
  H     -4.207951   -2.592414    0.573571
  H     -5.931151   -1.918224   -1.100846
  H     -5.817002   -0.720262    0.198951
  H     -5.080984   -0.391356   -1.374354

 Total Charge           Charge          ....    0
 Multiplicity           Mult            ....    1
 Number of Electrons    NEL             ....  202
 Basis Dimension        Dim             ....  334

ORBITAL ENERGIES
----------------

  NO   OCC          E(Eh)            E(eV)
   0   2.0000     -88.045499     -2395.8398
   1   2.0000     -88.043103     -2395.7746
   2   2.0000     -87.992214     -2394.3899
   3   2.0000     -87.986891     -2394.2450
   4   2.0000     -76.430450     -2079.7783
   5   2.0000     -76.426100     -2079.6599
   6   2.0000     -18.799677      -511.5652
   7   2.0000     -18.792715      -511.3758
   8   2.0000     -18.790829      -511.3244
   9   2.0000     -18.785663      -511.1839
  10   2.0000      -9.959088      -271.0006
  11   2.0000      -9.955197      -270.8947
  12   2.0000      -9.954713      -270.8815
  13   2.0000      -9.949090      -270.7285
  14   2.0000      -9.945140      -270.6210
  15   2.0000      -9.884204      -268.9629
  16   2.0000      -9.882596      -268.9191
  17   2.0000      -9.880455      -268.8608
  18   2.0000      -9.877392      -268.7775
  19   2.0000      -7.690244      -209.2622
  20   2.0000      -7.687903      -209.1985
  21   2.0000      -7.637051      -207.8147
  22   2.0000      -7.631857      -207.6734
  23   2.0000      -6.427663      -174.9056
  24   2.0000      -6.423369      -174.7888
  25   2.0000      -5.717996      -155.5946
  26   2.0000      -5.715694      -155.5319
  27   2.0000      -5.714832      -155.5085
  28   2.0000      -5.712401      -155.4423
  29   2.0000      -5.707306      -155.3037
  30   2.0000      -5.704991      -155.2407
  31   2.0000      -5.665853      -154.1757
  32   2.0000      -5.660662      -154.0344
  33   2.0000      -5.657598      -153.9511
  34   2.0000      -5.657416      -153.9461
  35   2.0000      -5.652398      -153.8096
  36   2.0000      -5.652207      -153.8044
  37   2.0000      -4.650043      -126.5341
  38   2.0000      -4.649540      -126.5204
  39   2.0000      -4.648229      -126.4847
  40   2.0000      -4.645645      -126.4144
  41   2.0000      -4.645319      -126.4056
  42   2.0000      -4.643947      -126.3682
  43   2.0000      -0.991235       -26.9729
  44   2.0000      -0.984948       -26.8018
  45   2.0000      -0.949216       -25.8295
  46   2.0000      -0.941446       -25.6181
  47   2.0000      -0.767043       -20.8723
  48   2.0000      -0.722288       -19.6545
  49   2.0000      -0.709786       -19.3143
  50   2.0000      -0.687139       -18.6980
  51   2.0000      -0.682506       -18.5719
  52   2.0000      -0.674124       -18.3438
  53   2.0000      -0.651767       -17.7355
  54   2.0000      -0.640450       -17.4275
  55   2.0000      -0.600272       -16.3342
  56   2.0000      -0.592817       -16.1314
  57   2.0000      -0.573697       -15.6111
  58   2.0000      -0.567876       -15.4527
  59   2.0000      -0.557743       -15.1770
  60   2.0000      -0.505858       -13.7651
  61   2.0000      -0.498010       -13.5515
  62   2.0000      -0.478241       -13.0136
  63   2.0000      -0.474580       -12.9140
  64   2.0000      -0.456884       -12.4324
  65   2.0000      -0.442380       -12.0378
  66   2.0000      -0.439829       -11.9684
  67   2.0000      -0.432408       -11.7664
  68   2.0000      -0.422628       -11.5003
  69   2.0000      -0.409836       -11.1522
  70   2.0000      -0.407552       -11.0901
  71   2.0000      -0.403491       -10.9796
  72   2.0000      -0.394608       -10.7378
  73   2.0000      -0.390789       -10.6339
  74   2.0000      -0.382504       -10.4085
  75   2.0000      -0.378351       -10.2955
  76   2.0000      -0.366206        -9.9650
  77   2.0000      -0.353412        -9.6168
  78   2.0000      -0.349583        -9.5126
  79   2.0000      -0.349222        -9.5028
  80   2.0000      -0.347906        -9.4670
  81   2.0000      -0.343189        -9.3386
  82   2.0000      -0.338291        -9.2054
  83   2.0000      -0.335669        -9.1340
  84   2.0000      -0.328592        -8.9415
  85   2.0000      -0.327015        -8.8985
  86   2.0000      -0.311858        -8.4861
  87   2.0000      -0.301164        -8.1951
  88   2.0000      -0.296199        -8.0600
  89   2.0000      -0.288590        -7.8529
  90   2.0000      -0.284795        -7.7497
  91   2.0000      -0.278106        -7.5676
  92   2.0000      -0.271035        -7.3752
  93   2.0000      -0.268185        -7.2977
  94   2.0000      -0.255715        -6.9584
  95   2.0000      -0.234248        -6.3742
  96   2.0000      -0.220964        -6.0127
  97   2.0000      -0.214650        -5.8409
  98   2.0000      -0.209031        -5.6880
  99   2.0000      -0.200430        -5.4540
 100   2.0000      -0.199744        -5.4353
 101   0.0000      -0.047812        -1.3010
 102   0.0000      -0.024812        -0.6752
 103   0.0000      -0.004456        -0.1213
 104   0.0000      -0.001202        -0.0327
 105   0.0000       0.009594         0.2611

MULLIKEN ATOMIC CHARGES
-----------------------
   0 C :   -0.286855
   1 C :   -0.005658
   2 O :   -0.360055
   3 P :    0.616725
   4 S :   -0.339197
   5 O :   -0.363215
   6 C :   -0.014962
   7 C :   -0.298936
   8 S :   -0.092886
   9 C :   -0.360146
  10 S :   -0.083761
  11 P :    0.614862
  12 S :   -0.325978
  13 O :   -0.355249
  14 C :   -0.004731
  15 C :   -0.300110
  16 O :   -0.372461
  17 C :   -0.013631
  18 C :   -0.296521
  19 H :    0.103190
  20 H :    0.108453
  21 H :    0.124965
  22 H :    0.113832
  23 H :    0.101359
  24 H :    0.107049
  25 H :    0.107588
  26 H :    0.130962
  27 H :    0.107372
  28 H :    0.115519
  29 H :    0.193754
  30 H :    0.191783
  31 H :    0.106896
  32 H :    0.113655
  33 H :    0.120488
  34 H :    0.114413
  35 H :    0.111273
  36 H :    0.105304
  37 H :    0.109470
  38 H :    0.109355
  39 H :    0.114818
  40 H :    0.131268
Sum of atomic charges:    0.0000000

LOEWDIN ATOMIC CHARGES
----------------------
   0 C :   -0.354814
   1 C :   -0.116218
   2 O :   -0.236726
   3 P :    0.568661
   4 S :   -0.318069
   5 O :   -0.241114
   6 C :   -0.117021
   7 C :   -0.365219
   8 S :    0.085131
   9 C :   -0.482838
  10 S :    0.090879
  11 P :    0.570489
  12 S :   -0.315874
  13 O :   -0.224506
  14 C :   -0.119417
  15 C :   -0.362993
  16 O :   -0.242218
  17 C :   -0.116017
  18 C :   -0.364148
  19 H :    0.127017
  20 H :    0.123750
  21 H :    0.117412
  22 H :    0.104904
  23 H :    0.112262
  24 H :    0.104819
  25 H :    0.119395
  26 H :    0.123830
  27 H :    0.128567
  28 H :    0.127091
  29 H :    0.130230
  30 H :    0.130134
  31 H :    0.119315
  32 H :    0.108037
  33 H :    0.121862
  34 H :    0.125308
  35 H :    0.130047
  36 H :    0.107534
  37 H :    0.120051
  38 H :    0.129748
  39 H :    0.126125
  40 H :    0.124594

  Mayer bond orders larger than 0.100000
B(  0-C ,  1-C ) :   1.1638 B(  0-C , 19-H ) :   0.9398 B(  0-C , 20-H ) :   0.9488
B(  0-C , 21-H ) :   0.9380 B(  1-C ,  2-O ) :   0.8945 B(  1-C , 22-H ) :   0.9056
B(  1-C , 23-H ) :   0.9346 B(  2-O ,  3-P ) :   1.1421 B(  3-P ,  4-S ) :   1.6034
B(  3-P ,  5-O ) :   1.1287 B(  3-P ,  8-S ) :   0.9435 B(  4-S ,  8-S ) :   0.1103
B(  5-O ,  6-C ) :   0.9117 B(  6-C ,  7-C ) :   1.1645 B(  6-C , 24-H ) :   0.9164
B(  6-C , 25-H ) :   0.9358 B(  7-C , 26-H ) :   0.9322 B(  7-C , 27-H ) :   0.9385
B(  7-C , 28-H ) :   0.9476 B(  8-S ,  9-C ) :   1.0095 B(  9-C , 10-S ) :   1.0026
B(  9-C , 29-H ) :   0.8790 B(  9-C , 30-H ) :   0.8809 B( 10-S , 11-P ) :   0.9534
B( 10-S , 12-S ) :   0.1066 B( 11-P , 12-S ) :   1.5916 B( 11-P , 13-O ) :   1.1236
B( 11-P , 16-O ) :   1.1000 B( 13-O , 14-C ) :   0.8970 B( 14-C , 15-C ) :   1.1638
B( 14-C , 31-H ) :   0.9323 B( 14-C , 32-H ) :   0.9117 B( 15-C , 33-H ) :   0.9362
B( 15-C , 34-H ) :   0.9473 B( 15-C , 35-H ) :   0.9404 B( 16-O , 17-C ) :   0.9053
B( 17-C , 18-C ) :   1.1678 B( 17-C , 36-H ) :   0.9161 B( 17-C , 37-H ) :   0.9354
B( 18-C , 38-H ) :   0.9390 B( 18-C , 39-H ) :   0.9471 B( 18-C , 40-H ) :   0.9315

Dispersion correction           -0.066869969
FINAL SINGLE POINT ENERGY     -2929.526335703925

DIPOLE MOMENT
-------------

Method             : SCF
Type of density    : Electron Density
Multiplicity       :   1
Irrep              :   0
Energy             : -2929.6444299970689826 Eh
Relativity type    :
Basis              : AO
                                X                 Y                 Z
Electronic contribution:      7.088740061      -2.353908799     -11.008865555
Nuclear contribution   :     -7.451143130       2.570392677      11.717761848
                        -----------------------------------------
Total Dipole Moment    :     -0.362403069       0.216483878       0.708896293
                        -----------------------------------------
Magnitude (a.u.)       :      0.825066790
Magnitude (Debye)      :      2.097153117

Rotational constants in cm-1:             0.013643             0.004921             0.004804
Rotational constants in MHz :           409.017442           147.540029           144.029880

                             ****ORCA TERMINATED NORMALLY****
TOTAL RUN TIME: 0 days 0 hours 0 minutes 21 seconds 575 msec
