                         Program Version 6.0.0  -   RELEASE  -
|  1> ! pbe def2-sv(p) def2/J RI DEFGRID1 loosescf d4 GCP(DFT/SV(P)) printgap
|  2> %output
|  3>     printlevel normal
|  4> end
|  5> * xyz 0 1
|  6> C 4.4346628499 0.9310699314 -2.0842684135
|  7> C 3.1307961727 0.160234473 -2.0608135489
|  8> O 2.2516902425 0.6798570516 -1.0347901179
|  9> P 2.085728279 0.0526913365 0.3994888269
| 10> S 0.8829200938 1.173504588 1.4542492501
| 11> O 3.5855512386 -0.0655140867 0.909546154
| 12> C 4.0329997363 -0.9274610828 1.9738196207
| 13> C 3.2167373516 -0.7751166798 3.239579307
| 14> S 1.5720031855 -1.9986453143 0.0998027032
| 15> C -0.0287618567 -1.7881954178 -0.7091763979
| 16> S -1.3704029615 -1.3503731439 0.4397958607
| 17> P -2.228951995 0.2549255863 -0.6714163644
| 18> S -0.9759673658 1.1839333199 -1.8610191451
| 19> O -3.07505813 1.0665759102 0.3933399614
| 20> C -2.5780482047 1.849457763 1.4929598722
| 21> C -2.1390465775 3.2260222192 1.0379425601
| 22> O -3.3760789867 -0.3586098165 -1.5649577719
| 23> C -4.6983258882 -0.7502211089 -1.1223517378
| 24> C -4.6720934664 -1.8911033306 -0.1270429766
| 25> H 4.9639284347 0.8041962449 -1.1435502814
| 26> H 5.0506456368 0.5618540722 -2.8982246594
| 27> H 4.2363498363 1.9888741213 -2.2341314165
| 28> H 3.3029743981 -0.904646209 -1.8791289899
| 29> H 2.5714627199 0.2939025079 -2.9894211056
| 30> H 3.9951257166 -1.958475526 1.6114454121
| 31> H 5.0701405902 -0.6251647785 2.1295894005
| 32> H 3.6484175366 -1.3900410716 4.0226250866
| 33> H 3.203987405 0.2637974792 3.5611193427
| 34> H 2.1893177863 -1.0926379251 3.0648070044
| 35> H -0.2577835442 -2.750952546 -1.1582813417
| 36> H 0.0396090375 -0.9983891481 -1.4635710839
| 37> H -3.4284945612 1.909016651 2.1748703712
| 38> H -1.7513921086 1.3230445492 1.9760720846
| 39> H -1.2743735081 3.1453927777 0.3818100735
| 40> H -2.9433519756 3.7235155454 0.5023128263
| 41> H -1.8585152122 3.8140396771 1.9055130908
| 42> H -5.18945295 0.1274574167 -0.6990448861
| 43> H -5.1914020617 -1.040091288 -2.0516784029
| 44> H -4.1937260997 -1.5788601516 0.7992038967
| 45> H -5.6925336914 -2.1932364638 0.0873285782
| 46> H -4.1264114401 -2.7387528989 -0.5331654668
| 47> *
| 48>
| 49>                          ****END OF INPUT****

CARTESIAN COORDINATES (ANGSTROEM)
---------------------------------
  C      4.434663    0.931070   -2.084268
  C      3.130796    0.160234   -2.060814
  O      2.251690    0.679857   -1.034790
  P      2.085728    0.052691    0.399489
  S      0.882920    1.173505    1.454249
  O      3.585551   -0.065514    0.909546
  C      4.033000   -0.927461    1.973820
  C      3.216737   -0.775117    3.239579
  S      1.572003   -1.998645    0.099803
  C     -0.028762   -1.788195   -0.709176
  S     -1.370403   -1.350373    0.439796
  P     -2.228952    0.254926   -0.671416
  S     -0.975967    1.183933   -1.861019
  O     -3.075058    1.066576    0.393340
  C     -2.578048    1.849458    1.492960
  C     -2.139047    3.226022    1.037943
  O     -3.376079   -0.358610   -1.564958
  C     -4.698326   -0.750221   -1.122352
  C     -4.672093   -1.891103   -0.127043
  H      4.963928    0.804196   -1.143550
  H      5.050646    0.561854   -2.898225
  H      4.236350    1.988874   -2.234131
  H      3.302974   -0.904646   -1.879129
  H      2.571463    0.293903   -2.989421
  H      3.995126   -1.958476    1.611445
  H      5.070141   -0.625165    2.129589
  H      3.648418   -1.390041    4.022625
  H      3.203987    0.263797    3.561119
  H      2.189318   -1.092638    3.064807
  H     -0.257784   -2.750953   -1.158281
  H      0.039609   -0.998389   -1.463571
  H     -3.428495    1.909017    2.174870
  H     -1.751392    1.323045    1.976072
  H     -1.274374    3.145393    0.381810
  H     -2.943352    3.723516    0.502313
  H     -1.858515    3.814040    1.905513
  H     -5.189453    0.127457   -0.699045
  H     -5.191402   -1.040091   -2.051678
  H     -4.193726   -1.578860    0.799204
  H     -5.692534   -2.193236    0.087329
  H     -4.126411   -2.738753   -0.533165

 Total Charge           Charge          ....    0
 Multiplicity           Mult            ....    1
 Number of Electrons    NEL             ....  202
 Basis Dimension        Dim             ....  334

ORBITAL ENERGIES
----------------

  NO   OCC          E(Eh)            E(eV)
   0   2.0000     -88.044482     -2395.8122
   1   2.0000     -88.034260     -2395.5340
   2   2.0000     -87.975123     -2393.9248
   3   2.0000     -87.974234     -2393.9006
   4   2.0000     -76.423001     -2079.5756
   5   2.0000     -76.419846     -2079.4897
   6   2.0000     -18.792765      -511.3771
   7   2.0000     -18.792381      -511.3667
   8   2.0000     -18.785872      -511.1896
   9   2.0000     -18.779503      -511.0162
  10   2.0000      -9.960057      -271.0269
  11   2.0000      -9.953111      -270.8379
  12   2.0000      -9.951285      -270.7882
  13   2.0000      -9.950648      -270.7709
  14   2.0000      -9.947284      -270.6793
  15   2.0000      -9.885443      -268.9966
  16   2.0000      -9.883106      -268.9330
  17   2.0000      -9.882582      -268.9187
  18   2.0000      -9.870710      -268.5957
  19   2.0000      -7.689337      -209.2375
  20   2.0000      -7.679164      -208.9607
  21   2.0000      -7.620335      -207.3599
  22   2.0000      -7.619419      -207.3349
  23   2.0000      -6.420133      -174.7007
  24   2.0000      -6.417035      -174.6164
  25   2.0000      -5.716963      -155.5665
  26   2.0000      -5.713722      -155.4783
  27   2.0000      -5.707037      -155.2964
  28   2.0000      -5.706729      -155.2880
  29   2.0000      -5.703797      -155.2082
  30   2.0000      -5.696053      -154.9975
  31   2.0000      -5.649411      -153.7283
  32   2.0000      -5.648490      -153.7032
  33   2.0000      -5.640730      -153.4921
  34   2.0000      -5.640476      -153.4852
  35   2.0000      -5.640347      -153.4816
  36   2.0000      -5.639060      -153.4466
  37   2.0000      -4.643114      -126.3456
  38   2.0000      -4.642296      -126.3233
  39   2.0000      -4.640069      -126.2627
  40   2.0000      -4.639914      -126.2585
  41   2.0000      -4.638682      -126.2249
  42   2.0000      -4.637234      -126.1855
  43   2.0000      -0.986084       -26.8327
  44   2.0000      -0.983005       -26.7489
  45   2.0000      -0.943134       -25.6640
  46   2.0000      -0.936915       -25.4948
  47   2.0000      -0.758765       -20.6470
  48   2.0000      -0.717833       -19.5332
  49   2.0000      -0.709021       -19.2934
  50   2.0000      -0.690070       -18.7778
  51   2.0000      -0.685358       -18.6495
  52   2.0000      -0.672674       -18.3044
  53   2.0000      -0.647521       -17.6199
  54   2.0000      -0.630431       -17.1549
  55   2.0000      -0.587937       -15.9986
  56   2.0000      -0.584497       -15.9050
  57   2.0000      -0.573793       -15.6137
  58   2.0000      -0.572427       -15.5765
  59   2.0000      -0.562534       -15.3073
  60   2.0000      -0.502053       -13.6615
  61   2.0000      -0.492821       -13.4103
  62   2.0000      -0.472424       -12.8553
  63   2.0000      -0.468806       -12.7569
  64   2.0000      -0.453442       -12.3388
  65   2.0000      -0.445724       -12.1288
  66   2.0000      -0.437091       -11.8939
  67   2.0000      -0.434296       -11.8178
  68   2.0000      -0.424974       -11.5641
  69   2.0000      -0.420367       -11.4388
  70   2.0000      -0.411055       -11.1854
  71   2.0000      -0.396156       -10.7799
  72   2.0000      -0.393872       -10.7178
  73   2.0000      -0.387743       -10.5510
  74   2.0000      -0.383836       -10.4447
  75   2.0000      -0.359039        -9.7699
  76   2.0000      -0.354403        -9.6438
  77   2.0000      -0.352294        -9.5864
  78   2.0000      -0.350828        -9.5465
  79   2.0000      -0.346573        -9.4307
  80   2.0000      -0.345215        -9.3938
  81   2.0000      -0.341474        -9.2920
  82   2.0000      -0.337784        -9.1916
  83   2.0000      -0.335128        -9.1193
  84   2.0000      -0.325706        -8.8629
  85   2.0000      -0.318997        -8.6804
  86   2.0000      -0.313028        -8.5179
  87   2.0000      -0.296162        -8.0590
  88   2.0000      -0.289883        -7.8881
  89   2.0000      -0.285650        -7.7729
  90   2.0000      -0.283863        -7.7243
  91   2.0000      -0.275336        -7.4923
  92   2.0000      -0.269525        -7.3342
  93   2.0000      -0.259848        -7.0708
  94   2.0000      -0.253434        -6.8963
  95   2.0000      -0.241660        -6.5759
  96   2.0000      -0.218517        -5.9461
  97   2.0000      -0.197401        -5.3716
  98   2.0000      -0.194745        -5.2993
  99   2.0000      -0.183684        -4.9983
 100   2.0000      -0.178048        -4.8449
 101   0.0000      -0.037307        -1.0152
 102   0.0000      -0.027779        -0.7559
 103   0.0000      -0.015536        -0.4227
 104   0.0000       0.002272         0.0618
 105   0.0000       0.021026         0.5721

MULLIKEN ATOMIC CHARGES
-----------------------
   0 C :   -0.286225
   1 C :   -0.013916
   2 O :   -0.342196
   3 P :    0.605474
   4 S :   -0.309594
   5 O :   -0.380343
   6 C :   -0.013832
   7 C :   -0.311425
   8 S :   -0.127905
   9 C :   -0.338171
  10 S :   -0.102466
  11 P :    0.618107
  12 S :   -0.299713
  13 O :   -0.386624
  14 C :   -0.016205
  15 C :   -0.306652
  16 O :   -0.364871
  17 C :    0.006823
  18 C :   -0.313778
  19 H :    0.118607
  20 H :    0.107277
  21 H :    0.122687
  22 H :    0.093897
  23 H :    0.112878
  24 H :    0.114471
  25 H :    0.110465
  26 H :    0.110716
  27 H :    0.128777
  28 H :    0.129108
  29 H :    0.181176
  30 H :    0.192375
  31 H :    0.098151
  32 H :    0.131072
  33 H :    0.148167
  34 H :    0.109266
  35 H :    0.107110
  36 H :    0.107556
  37 H :    0.107112
  38 H :    0.122657
  39 H :    0.111190
  40 H :    0.118799
Sum of atomic charges:    0.0000000

LOEWDIN ATOMIC CHARGES
----------------------
   0 C :   -0.358409
   1 C :   -0.117046
   2 O :   -0.223993
   3 P :    0.569146
   4 S :   -0.299741
   5 O :   -0.246573
   6 C :   -0.114870
   7 C :   -0.371161
   8 S :    0.060458
   9 C :   -0.482664
  10 S :    0.067683
  11 P :    0.568592
  12 S :   -0.295316
  13 O :   -0.239067
  14 C :   -0.115312
  15 C :   -0.365554
  16 O :   -0.245112
  17 C :   -0.109804
  18 C :   -0.368091
  19 H :    0.125222
  20 H :    0.128293
  21 H :    0.130035
  22 H :    0.100422
  23 H :    0.121743
  24 H :    0.108155
  25 H :    0.121695
  26 H :    0.129813
  27 H :    0.130975
  28 H :    0.122410
  29 H :    0.135465
  30 H :    0.120806
  31 H :    0.114864
  32 H :    0.108358
  33 H :    0.128808
  34 H :    0.123639
  35 H :    0.129606
  36 H :    0.113508
  37 H :    0.120821
  38 H :    0.117158
  39 H :    0.129740
  40 H :    0.125298

  Mayer bond orders larger than 0.100000
B(  0-C ,  1-C ) :   1.1667 B(  0-C , 19-H ) :   0.9433 B(  0-C , 20-H ) :   0.9403
B(  0-C , 21-H ) :   0.9473 B(  1-C ,  2-O ) :   0.8959 B(  1-C , 22-H ) :   0.9103
B(  1-C , 23-H ) :   0.9322 B(  2-O ,  3-P ) :   1.1396 B(  3-P ,  4-S ) :   1.6711
B(  3-P ,  5-O ) :   1.0757 B(  3-P ,  8-S ) :   0.9378 B(  4-S ,  8-S ) :   0.1140
B(  5-O ,  6-C ) :   0.9134 B(  6-C ,  7-C ) :   1.1680 B(  6-C , 24-H ) :   0.9264
B(  6-C , 25-H ) :   0.9332 B(  7-C , 26-H ) :   0.9337 B(  7-C , 27-H ) :   0.9413
B(  7-C , 28-H ) :   0.9312 B(  8-S ,  9-C ) :   0.9991 B(  9-C , 10-S ) :   1.0007
B(  9-C , 29-H ) :   0.9114 B(  9-C , 30-H ) :   0.8434 B( 10-S , 11-P ) :   0.9436
B( 10-S , 12-S ) :   0.1191 B( 11-P , 12-S ) :   1.6425 B( 11-P , 13-O ) :   1.0957
B( 11-P , 16-O ) :   1.1202 B( 12-S , 30-H ) :   0.1249 B( 13-O , 14-C ) :   0.8955
B( 14-C , 15-C ) :   1.1747 B( 14-C , 31-H ) :   0.9346 B( 14-C , 32-H ) :   0.9103
B( 15-C , 33-H ) :   0.9282 B( 15-C , 34-H ) :   0.9463 B( 15-C , 35-H ) :   0.9385
B( 16-O , 17-C ) :   0.9085 B( 17-C , 18-C ) :   1.1694 B( 17-C , 36-H ) :   0.9273
B( 17-C , 37-H ) :   0.9353 B( 18-C , 38-H ) :   0.9398 B( 18-C , 39-H ) :   0.9362
B( 18-C , 40-H ) :   0.9440

Dispersion correction           -0.066346075
FINAL SINGLE POINT ENERGY     -2929.507274204469

DIPOLE MOMENT
-------------

Method             : SCF
Type of density    : Electron Density
Multiplicity       :   1
Irrep              :   0
Energy             : -2929.6260562684069555 Eh
Relativity type    :
Basis              : AO
                                X                 Y                 Z
Electronic contribution:     -2.143867030      -1.539519618      -4.687646337
Nuclear contribution   :      2.334064737       0.414992034       5.066981204
                        -----------------------------------------
Total Dipole Moment    :      0.190197707      -1.124527584       0.379334867
                        -----------------------------------------
Magnitude (a.u.)       :      1.201928616
Magnitude (Debye)      :      3.055059751

Rotational constants in cm-1:             0.012580             0.004886             0.004870
Rotational constants in MHz :           377.152496           146.473914           146.005955

                             ****ORCA TERMINATED NORMALLY****
TOTAL RUN TIME: 0 days 0 hours 0 minutes 20 seconds 919 msec
