                         Program Version 6.0.1  -  RELEASE   -
|  1> ! pbe def2-sv(p) def2/J RI DEFGRID1 loosescf d4 GCP(DFT/SV(P)) printgap
|  2> %output
|  3>     printlevel normal
|  4> end
|  5> * xyz 0 1
|  6> C 4.4027864942 -3.406752244 -1.5767470847
|  7> C 3.0050192533 -2.9767699033 -1.9935136236
|  8> O 2.6766204775 -1.6861303051 -1.4459654534
|  9> C 2.1728847523 -1.6306036741 -0.2297223247
| 10> O 1.9662480408 -2.5896352398 0.4783149894
| 11> C 1.8641919336 -0.2001004248 0.1785151963
| 12> C 0.9886613358 0.4757985384 -0.8788978441
| 13> H 1.5518556342 0.6080732097 -1.8050363173
| 14> C 0.4764990485 1.8095939337 -0.3757290086
| 15> O -0.7114495584 2.0176904258 -0.2048842388
| 16> O 1.4305009484 2.659637449 -0.1477990927
| 17> C 1.0905499429 3.9349048077 0.4466634924
| 18> C 1.015339339 3.8106947453 1.9592583042
| 19> S -0.4625216215 -0.5399408697 -1.332600035
| 20> P -1.7579944458 -0.1530323213 0.2918323121
| 21> S -1.197684271 0.3010170533 2.1269192552
| 22> O -3.0802569352 0.588904089 -0.2127571551
| 23> C -3.4554371331 1.9357859118 0.0759052616
| 24> O -2.3011546397 -1.6651901583 0.2144030685
| 25> C -3.309462498 -2.1423709873 1.1076055922
| 26> H 4.6465095802 -4.3480107975 -2.058091992
| 27> H 5.1293116953 -2.654507568 -1.8708220593
| 28> H 4.4459209202 -3.5410812088 -0.4982898171
| 29> H 2.2580578936 -3.6992237447 -1.6528035308
| 30> H 2.9342686287 -2.8387636889 -3.0723287801
| 31> H 2.7980604344 0.3560244156 0.2746576953
| 32> H 1.359337339 -0.2292594345 1.1466799095
| 33> H 1.8983271459 4.5975955037 0.1379487666
| 34> H 0.1360692018 4.2703182007 0.0343306238
| 35> H 1.9697480714 3.4819245849 2.3600480514
| 36> H 0.7611785439 4.7747538552 2.3866137901
| 37> H 0.2522253882 3.0878850662 2.2439458671
| 38> H -3.0370088276 2.2445372179 1.0347451489
| 39> H -4.5426157305 1.9390292842 0.1135723777
| 40> H -3.0919221657 2.5908563461 -0.7126891429
| 41> H -4.2804798609 -1.735097931 0.8272122128
| 42> H -3.0685709119 -1.855236652 2.1336981825
| 43> H -3.3033239274 -3.2248553357 1.007856612
| 44> *
| 45>
| 46>                          ****END OF INPUT****

CARTESIAN COORDINATES (ANGSTROEM)
---------------------------------
  C      4.402786   -3.406752   -1.576747
  C      3.005019   -2.976770   -1.993514
  O      2.676620   -1.686130   -1.445965
  C      2.172885   -1.630604   -0.229722
  O      1.966248   -2.589635    0.478315
  C      1.864192   -0.200100    0.178515
  C      0.988661    0.475799   -0.878898
  H      1.551856    0.608073   -1.805036
  C      0.476499    1.809594   -0.375729
  O     -0.711450    2.017690   -0.204884
  O      1.430501    2.659637   -0.147799
  C      1.090550    3.934905    0.446663
  C      1.015339    3.810695    1.959258
  S     -0.462522   -0.539941   -1.332600
  P     -1.757994   -0.153032    0.291832
  S     -1.197684    0.301017    2.126919
  O     -3.080257    0.588904   -0.212757
  C     -3.455437    1.935786    0.075905
  O     -2.301155   -1.665190    0.214403
  C     -3.309462   -2.142371    1.107606
  H      4.646510   -4.348011   -2.058092
  H      5.129312   -2.654508   -1.870822
  H      4.445921   -3.541081   -0.498290
  H      2.258058   -3.699224   -1.652804
  H      2.934269   -2.838764   -3.072329
  H      2.798060    0.356024    0.274658
  H      1.359337   -0.229259    1.146680
  H      1.898327    4.597596    0.137949
  H      0.136069    4.270318    0.034331
  H      1.969748    3.481925    2.360048
  H      0.761179    4.774754    2.386614
  H      0.252225    3.087885    2.243946
  H     -3.037009    2.244537    1.034745
  H     -4.542616    1.939029    0.113572
  H     -3.091922    2.590856   -0.712689
  H     -4.280480   -1.735098    0.827212
  H     -3.068571   -1.855237    2.133698
  H     -3.303324   -3.224855    1.007857

 Total Charge           Charge          ....    0
 Multiplicity           Mult            ....    1
 Number of Electrons    NEL             ....  174
 Basis Dimension        Dim             ....  316

ORBITAL ENERGIES
----------------

  NO   OCC          E(Eh)            E(eV)
   0   2.0000     -88.033680     -2395.5182
   1   2.0000     -87.971879     -2393.8365
   2   2.0000     -76.417843     -2079.4352
   3   2.0000     -18.830558      -512.4055
   4   2.0000     -18.801397      -511.6120
   5   2.0000     -18.780191      -511.0350
   6   2.0000     -18.767985      -510.7028
   7   2.0000     -18.766685      -510.6675
   8   2.0000     -18.733435      -509.7627
   9   2.0000     -10.035093      -273.0688
  10   2.0000     -10.006407      -272.2882
  11   2.0000      -9.963706      -271.1262
  12   2.0000      -9.952943      -270.8333
  13   2.0000      -9.946935      -270.6698
  14   2.0000      -9.932192      -270.2687
  15   2.0000      -9.926935      -270.1256
  16   2.0000      -9.906168      -269.5605
  17   2.0000      -9.891952      -269.1737
  18   2.0000      -9.886397      -269.0225
  19   2.0000      -7.678676      -208.9474
  20   2.0000      -7.616859      -207.2653
  21   2.0000      -6.413499      -174.5202
  22   2.0000      -5.706968      -155.2945
  23   2.0000      -5.703394      -155.1972
  24   2.0000      -5.694977      -154.9682
  25   2.0000      -5.645937      -153.6338
  26   2.0000      -5.637750      -153.4110
  27   2.0000      -5.636535      -153.3779
  28   2.0000      -4.636138      -126.1557
  29   2.0000      -4.635522      -126.1390
  30   2.0000      -4.634130      -126.1011
  31   2.0000      -1.040722       -28.3195
  32   2.0000      -1.008716       -27.4486
  33   2.0000      -0.968169       -26.3452
  34   2.0000      -0.945384       -25.7252
  35   2.0000      -0.922600       -25.1052
  36   2.0000      -0.910814       -24.7845
  37   2.0000      -0.768406       -20.9094
  38   2.0000      -0.719039       -19.5660
  39   2.0000      -0.707517       -19.2525
  40   2.0000      -0.685779       -18.6610
  41   2.0000      -0.648863       -17.6565
  42   2.0000      -0.629187       -17.1210
  43   2.0000      -0.619630       -16.8610
  44   2.0000      -0.614840       -16.7306
  45   2.0000      -0.594352       -16.1731
  46   2.0000      -0.568953       -15.4820
  47   2.0000      -0.513806       -13.9814
  48   2.0000      -0.507091       -13.7986
  49   2.0000      -0.497612       -13.5407
  50   2.0000      -0.485647       -13.2151
  51   2.0000      -0.466248       -12.6872
  52   2.0000      -0.461794       -12.5661
  53   2.0000      -0.451327       -12.2812
  54   2.0000      -0.441241       -12.0068
  55   2.0000      -0.431608       -11.7446
  56   2.0000      -0.422908       -11.5079
  57   2.0000      -0.417084       -11.3494
  58   2.0000      -0.408717       -11.1217
  59   2.0000      -0.404372       -11.0035
  60   2.0000      -0.398179       -10.8350
  61   2.0000      -0.395010       -10.7488
  62   2.0000      -0.386943       -10.5293
  63   2.0000      -0.385059       -10.4780
  64   2.0000      -0.373960       -10.1760
  65   2.0000      -0.370174       -10.0729
  66   2.0000      -0.360798        -9.8178
  67   2.0000      -0.357031        -9.7153
  68   2.0000      -0.348610        -9.4862
  69   2.0000      -0.341215        -9.2849
  70   2.0000      -0.337075        -9.1723
  71   2.0000      -0.328165        -8.9298
  72   2.0000      -0.325262        -8.8508
  73   2.0000      -0.311814        -8.4849
  74   2.0000      -0.303944        -8.2707
  75   2.0000      -0.294155        -8.0044
  76   2.0000      -0.292005        -7.9459
  77   2.0000      -0.287025        -7.8103
  78   2.0000      -0.274890        -7.4801
  79   2.0000      -0.260817        -7.0972
  80   2.0000      -0.257667        -7.0115
  81   2.0000      -0.256680        -6.9846
  82   2.0000      -0.246385        -6.7045
  83   2.0000      -0.215988        -5.8773
  84   2.0000      -0.211673        -5.7599
  85   2.0000      -0.191740        -5.2175
  86   2.0000      -0.184738        -5.0270
  87   0.0000      -0.050733        -1.3805
  88   0.0000      -0.039750        -1.0816
  89   0.0000      -0.014007        -0.3812
  90   0.0000       0.007684         0.2091
  91   0.0000       0.033999         0.9252

MULLIKEN ATOMIC CHARGES
-----------------------
   0 C :   -0.305738
   1 C :   -0.008380
   2 O :   -0.243013
   3 C :    0.128797
   4 O :   -0.180853
   5 C :   -0.080554
   6 C :   -0.331958
   7 H :    0.151081
   8 C :    0.237907
   9 O :   -0.199484
  10 O :   -0.213758
  11 C :   -0.012861
  12 C :   -0.318149
  13 S :   -0.057753
  14 P :    0.649271
  15 S :   -0.347637
  16 O :   -0.389825
  17 C :   -0.084180
  18 O :   -0.389766
  19 C :   -0.095673
  20 H :    0.113483
  21 H :    0.110768
  22 H :    0.129146
  23 H :    0.114137
  24 H :    0.101117
  25 H :    0.116948
  26 H :    0.122918
  27 H :    0.110175
  28 H :    0.113224
  29 H :    0.117563
  30 H :    0.115664
  31 H :    0.147666
  32 H :    0.112059
  33 H :    0.114594
  34 H :    0.112830
  35 H :    0.105204
  36 H :    0.113506
  37 H :    0.121523
Sum of atomic charges:    0.0000000

LOEWDIN ATOMIC CHARGES
----------------------
   0 C :   -0.356583
   1 C :   -0.109801
   2 O :   -0.066120
   3 C :    0.022919
   4 O :   -0.151255
   5 C :   -0.254993
   6 C :   -0.263985
   7 H :    0.149848
   8 C :    0.031203
   9 O :   -0.154775
  10 O :   -0.030567
  11 C :   -0.104610
  12 C :   -0.359708
  13 S :    0.129312
  14 P :    0.592528
  15 S :   -0.337146
  16 O :   -0.251989
  17 C :   -0.211856
  18 O :   -0.267870
  19 C :   -0.215856
  20 H :    0.130975
  21 H :    0.123309
  22 H :    0.131493
  23 H :    0.123381
  24 H :    0.117023
  25 H :    0.142215
  26 H :    0.136348
  27 H :    0.121559
  28 H :    0.122064
  29 H :    0.127272
  30 H :    0.132955
  31 H :    0.133017
  32 H :    0.107185
  33 H :    0.115045
  34 H :    0.111430
  35 H :    0.107814
  36 H :    0.107714
  37 H :    0.120505

  Mayer bond orders larger than 0.100000
B(  0-C ,  1-C ) :   1.1741 B(  0-C , 20-H ) :   0.9443 B(  0-C , 21-H ) :   0.9487
B(  0-C , 22-H ) :   0.9457 B(  1-C ,  2-O ) :   0.9147 B(  1-C , 23-H ) :   0.9142
B(  1-C , 24-H ) :   0.9375 B(  2-O ,  3-C ) :   1.1994 B(  3-C ,  4-O ) :   2.0821
B(  3-C ,  5-C ) :   1.0206 B(  5-C ,  6-C ) :   1.0353 B(  5-C , 25-H ) :   0.8746
B(  5-C , 26-H ) :   0.8782 B(  6-C ,  7-H ) :   0.8582 B(  6-C ,  8-C ) :   0.9222
B(  6-C , 13-S ) :   1.0450 B(  8-C ,  9-O ) :   1.9011 B(  8-C , 10-O ) :   1.2957
B(  9-O , 14-P ) :   0.1335 B( 10-O , 11-C ) :   0.8913 B( 11-C , 12-C ) :   1.1773
B( 11-C , 27-H ) :   0.9361 B( 11-C , 28-H ) :   0.9159 B( 12-C , 29-H ) :   0.9477
B( 12-C , 30-H ) :   0.9407 B( 12-C , 31-H ) :   0.9286 B( 13-S , 14-P ) :   0.9289
B( 13-S , 15-S ) :   0.1093 B( 14-P , 15-S ) :   1.5447 B( 14-P , 16-O ) :   1.0947
B( 14-P , 18-O ) :   1.0790 B( 16-O , 17-C ) :   0.9325 B( 17-C , 32-H ) :   0.9347
B( 17-C , 33-H ) :   0.9545 B( 17-C , 34-H ) :   0.9534 B( 18-O , 19-C ) :   0.9415
B( 19-C , 35-H ) :   0.9509 B( 19-C , 36-H ) :   0.9330 B( 19-C , 37-H ) :   0.9607

Dispersion correction           -0.051989444
FINAL SINGLE POINT ENERGY     -1979.012607046615

DIPOLE MOMENT
-------------

Method             : SCF
Type of density    : Electron Density
Multiplicity       :   1
Irrep              :   0
Energy             : -1979.1430786483042539 Eh
Relativity type    :
Basis              : AO
                                X                 Y                 Z
Electronic contribution:     -9.247752473      -2.393640518      -2.481746585
Nuclear contribution   :      9.890360365       3.722128311       1.602379679
                        -----------------------------------------
Total Dipole Moment    :      0.642607892       1.328487794      -0.879366906
                        -----------------------------------------
Magnitude (a.u.)       :      1.717879762
Magnitude (Debye)      :      4.366503343

Rotational constants in cm-1:             0.012059             0.007514             0.005551
Rotational constants in MHz :           361.511583           225.277516           166.426999

                             ****ORCA TERMINATED NORMALLY****
TOTAL RUN TIME: 0 days 0 hours 0 minutes 37 seconds 442 msec
