                         Program Version 6.0.0  -   RELEASE  -
|  1> ! pbe def2-sv(p) def2/J RI DEFGRID1 loosescf d4 GCP(DFT/SV(P)) printgap
|  2> %output
|  3>     printlevel normal
|  4> end
|  5> * xyz 0 1
|  6> C 4.3928554807 -0.9827224167 -2.37680201
|  7> C 3.4728021953 -2.0532276199 -1.8266640652
|  8> O 2.9850131712 -1.7461610221 -0.5075170775
|  9> P 2.2168121387 -0.4221257266 -0.0953591901
| 10> S 3.2722915305 1.2091386612 0.2002951805
| 11> O 1.5105865584 -0.9845180428 1.2064176043
| 12> C 1.6185367346 -0.3797434951 2.5125635712
| 13> C 0.3495922312 -0.6591880025 3.2910769007
| 14> S 0.7139119577 -0.2791778791 -1.5881480084
| 15> C 0.225766767 1.425126825 -1.2330585218
| 16> S -0.4765095491 1.623845036 0.4269263473
| 17> P -2.1590493593 0.3887301329 0.1279780354
| 18> S -3.0501810683 0.4588659836 -1.6207100827
| 19> O -3.110365043 0.7016211096 1.3651081826
| 20> C -4.1306578876 1.7143642468 1.3209243687
| 21> C -3.5441577738 3.1094799426 1.2515481909
| 22> O -1.5540937343 -1.0082589609 0.5564233807
| 23> C -2.1752309412 -2.2757509493 0.2490904321
| 24> C -1.1517878199 -3.1822167408 -0.4060959785
| 25> H 3.8421261773 -0.0562555899 -2.5330670165
| 26> H 5.205032127 -0.7868418199 -1.6806271457
| 27> H 4.8039630536 -1.3137041641 -3.3250590965
| 28> H 3.9990306651 -2.9996193488 -1.689579572
| 29> H 2.6124369289 -2.200499515 -2.4856318715
| 30> H 2.4866407837 -0.8258492628 3.0041708087
| 31> H 1.7902518962 0.6958684098 2.3979196225
| 32> H 0.4537032697 -0.2488505829 4.2902655413
| 33> H -0.5068498242 -0.1990358109 2.8044873396
| 34> H 0.1818581563 -1.7303544398 3.3551251531
| 35> H -0.5162232224 1.6985574882 -1.9825217576
| 36> H 1.0997678787 2.0750575 -1.276017588
| 37> H -4.7696929465 1.5218373592 0.453262741
| 38> H -4.6948071802 1.5579639905 2.2412270997
| 39> H -2.828063378 3.2599273997 2.0555949297
| 40> H -3.0358527476 3.2528485371 0.2987659842
| 41> H -4.3422968448 3.8398224493 1.3372842934
| 42> H -2.5235706899 -2.685332035 1.1992756294
| 43> H -3.0314060097 -2.1051113626 -0.4116884525
| 44> H -0.2520118134 -3.2233887284 0.2032035088
| 45> H -1.5679080566 -4.1793671395 -0.5060507882
| 46> H -0.8882518484 -2.8027397218 -1.3905857305
| 47> *
| 48>
| 49>                          ****END OF INPUT****

CARTESIAN COORDINATES (ANGSTROEM)
---------------------------------
  C      4.392855   -0.982722   -2.376802
  C      3.472802   -2.053228   -1.826664
  O      2.985013   -1.746161   -0.507517
  P      2.216812   -0.422126   -0.095359
  S      3.272292    1.209139    0.200295
  O      1.510587   -0.984518    1.206418
  C      1.618537   -0.379743    2.512564
  C      0.349592   -0.659188    3.291077
  S      0.713912   -0.279178   -1.588148
  C      0.225767    1.425127   -1.233059
  S     -0.476510    1.623845    0.426926
  P     -2.159049    0.388730    0.127978
  S     -3.050181    0.458866   -1.620710
  O     -3.110365    0.701621    1.365108
  C     -4.130658    1.714364    1.320924
  C     -3.544158    3.109480    1.251548
  O     -1.554094   -1.008259    0.556423
  C     -2.175231   -2.275751    0.249090
  C     -1.151788   -3.182217   -0.406096
  H      3.842126   -0.056256   -2.533067
  H      5.205032   -0.786842   -1.680627
  H      4.803963   -1.313704   -3.325059
  H      3.999031   -2.999619   -1.689580
  H      2.612437   -2.200500   -2.485632
  H      2.486641   -0.825849    3.004171
  H      1.790252    0.695868    2.397920
  H      0.453703   -0.248851    4.290266
  H     -0.506850   -0.199036    2.804487
  H      0.181858   -1.730354    3.355125
  H     -0.516223    1.698557   -1.982522
  H      1.099768    2.075058   -1.276018
  H     -4.769693    1.521837    0.453263
  H     -4.694807    1.557964    2.241227
  H     -2.828063    3.259927    2.055595
  H     -3.035853    3.252849    0.298766
  H     -4.342297    3.839822    1.337284
  H     -2.523571   -2.685332    1.199276
  H     -3.031406   -2.105111   -0.411688
  H     -0.252012   -3.223389    0.203204
  H     -1.567908   -4.179367   -0.506051
  H     -0.888252   -2.802740   -1.390586

 Total Charge           Charge          ....    0
 Multiplicity           Mult            ....    1
 Number of Electrons    NEL             ....  202
 Basis Dimension        Dim             ....  334

ORBITAL ENERGIES
----------------

  NO   OCC          E(Eh)            E(eV)
   0   2.0000     -88.047733     -2395.9006
   1   2.0000     -88.044179     -2395.8039
   2   2.0000     -87.991408     -2394.3679
   3   2.0000     -87.985666     -2394.2117
   4   2.0000     -76.429169     -2079.7434
   5   2.0000     -76.426628     -2079.6743
   6   2.0000     -18.796917      -511.4901
   7   2.0000     -18.792790      -511.3778
   8   2.0000     -18.788839      -511.2703
   9   2.0000     -18.784855      -511.1619
  10   2.0000      -9.957743      -270.9640
  11   2.0000      -9.956985      -270.9433
  12   2.0000      -9.954432      -270.8739
  13   2.0000      -9.950764      -270.7741
  14   2.0000      -9.944009      -270.5902
  15   2.0000      -9.886134      -269.0154
  16   2.0000      -9.882772      -268.9239
  17   2.0000      -9.879979      -268.8479
  18   2.0000      -9.877213      -268.7726
  19   2.0000      -7.692535      -209.3245
  20   2.0000      -7.688922      -209.2262
  21   2.0000      -7.636319      -207.7948
  22   2.0000      -7.630658      -207.6408
  23   2.0000      -6.426548      -174.8753
  24   2.0000      -6.423609      -174.7953
  25   2.0000      -5.720362      -155.6590
  26   2.0000      -5.717166      -155.5720
  27   2.0000      -5.716731      -155.5602
  28   2.0000      -5.713422      -155.4701
  29   2.0000      -5.709433      -155.3616
  30   2.0000      -5.705975      -155.2675
  31   2.0000      -5.665087      -154.1548
  32   2.0000      -5.659567      -154.0046
  33   2.0000      -5.657047      -153.9361
  34   2.0000      -5.656554      -153.9227
  35   2.0000      -5.651268      -153.7788
  36   2.0000      -5.650853      -153.7675
  37   2.0000      -4.649043      -126.5069
  38   2.0000      -4.648287      -126.4863
  39   2.0000      -4.647111      -126.4543
  40   2.0000      -4.645943      -126.4225
  41   2.0000      -4.645611      -126.4135
  42   2.0000      -4.644125      -126.3731
  43   2.0000      -0.988080       -26.8870
  44   2.0000      -0.984765       -26.7968
  45   2.0000      -0.946162       -25.7464
  46   2.0000      -0.940947       -25.6045
  47   2.0000      -0.768784       -20.9197
  48   2.0000      -0.722624       -19.6636
  49   2.0000      -0.709985       -19.3197
  50   2.0000      -0.687426       -18.7058
  51   2.0000      -0.683387       -18.5959
  52   2.0000      -0.674463       -18.3531
  53   2.0000      -0.650729       -17.7072
  54   2.0000      -0.640418       -17.4267
  55   2.0000      -0.602277       -16.3888
  56   2.0000      -0.592756       -16.1297
  57   2.0000      -0.574884       -15.6434
  58   2.0000      -0.566862       -15.4251
  59   2.0000      -0.556548       -15.1445
  60   2.0000      -0.503602       -13.7037
  61   2.0000      -0.499131       -13.5820
  62   2.0000      -0.474080       -12.9004
  63   2.0000      -0.469815       -12.7843
  64   2.0000      -0.462162       -12.5761
  65   2.0000      -0.442628       -12.0445
  66   2.0000      -0.439986       -11.9726
  67   2.0000      -0.431143       -11.7320
  68   2.0000      -0.424143       -11.5415
  69   2.0000      -0.417973       -11.3736
  70   2.0000      -0.414207       -11.2711
  71   2.0000      -0.398911       -10.8549
  72   2.0000      -0.390657       -10.6303
  73   2.0000      -0.387792       -10.5524
  74   2.0000      -0.382533       -10.4092
  75   2.0000      -0.379984       -10.3399
  76   2.0000      -0.363706        -9.8969
  77   2.0000      -0.353943        -9.6313
  78   2.0000      -0.351740        -9.5713
  79   2.0000      -0.348604        -9.4860
  80   2.0000      -0.346408        -9.4262
  81   2.0000      -0.344151        -9.3648
  82   2.0000      -0.340456        -9.2643
  83   2.0000      -0.338596        -9.2137
  84   2.0000      -0.329429        -8.9642
  85   2.0000      -0.322816        -8.7843
  86   2.0000      -0.308082        -8.3833
  87   2.0000      -0.298728        -8.1288
  88   2.0000      -0.296424        -8.0661
  89   2.0000      -0.289910        -7.8889
  90   2.0000      -0.282325        -7.6825
  91   2.0000      -0.278182        -7.5697
  92   2.0000      -0.271746        -7.3946
  93   2.0000      -0.266718        -7.2578
  94   2.0000      -0.254697        -6.9306
  95   2.0000      -0.233845        -6.3632
  96   2.0000      -0.220297        -5.9946
  97   2.0000      -0.214621        -5.8401
  98   2.0000      -0.208675        -5.6783
  99   2.0000      -0.200974        -5.4688
 100   2.0000      -0.199066        -5.4169
 101   0.0000      -0.049567        -1.3488
 102   0.0000      -0.026494        -0.7209
 103   0.0000      -0.005804        -0.1579
 104   0.0000      -0.001373        -0.0374
 105   0.0000       0.004051         0.1102

MULLIKEN ATOMIC CHARGES
-----------------------
   0 C :   -0.307622
   1 C :   -0.013537
   2 O :   -0.365987
   3 P :    0.615981
   4 S :   -0.335497
   5 O :   -0.359338
   6 C :   -0.005479
   7 C :   -0.288501
   8 S :   -0.096773
   9 C :   -0.353752
  10 S :   -0.075346
  11 P :    0.615054
  12 S :   -0.330154
  13 O :   -0.378985
  14 C :   -0.004163
  15 C :   -0.316649
  16 O :   -0.358217
  17 C :   -0.003001
  18 C :   -0.295898
  19 H :    0.124580
  20 H :    0.126068
  21 H :    0.110837
  22 H :    0.109777
  23 H :    0.114723
  24 H :    0.101021
  25 H :    0.112701
  26 H :    0.103611
  27 H :    0.124950
  28 H :    0.108369
  29 H :    0.190172
  30 H :    0.193510
  31 H :    0.112195
  32 H :    0.106009
  33 H :    0.118315
  34 H :    0.126494
  35 H :    0.114589
  36 H :    0.102849
  37 H :    0.103483
  38 H :    0.125095
  39 H :    0.104982
  40 H :    0.123535
Sum of atomic charges:    0.0000000

LOEWDIN ATOMIC CHARGES
----------------------
   0 C :   -0.368756
   1 C :   -0.115307
   2 O :   -0.240372
   3 P :    0.571885
   4 S :   -0.318953
   5 O :   -0.235881
   6 C :   -0.118455
   7 C :   -0.355372
   8 S :    0.090273
   9 C :   -0.481041
  10 S :    0.107484
  11 P :    0.569390
  12 S :   -0.326169
  13 O :   -0.247394
  14 C :   -0.119360
  15 C :   -0.369150
  16 O :   -0.232369
  17 C :   -0.112383
  18 C :   -0.358989
  19 H :    0.120898
  20 H :    0.130085
  21 H :    0.129701
  22 H :    0.121698
  23 H :    0.108034
  24 H :    0.112131
  25 H :    0.103587
  26 H :    0.127158
  27 H :    0.117167
  28 H :    0.123107
  29 H :    0.131244
  30 H :    0.130845
  31 H :    0.111071
  32 H :    0.119129
  33 H :    0.124543
  34 H :    0.121069
  35 H :    0.131797
  36 H :    0.114958
  37 H :    0.106850
  38 H :    0.127238
  39 H :    0.126615
  40 H :    0.121990

  Mayer bond orders larger than 0.100000
B(  0-C ,  1-C ) :   1.1640 B(  0-C , 19-H ) :   0.9335 B(  0-C , 20-H ) :   0.9434
B(  0-C , 21-H ) :   0.9356 B(  1-C ,  2-O ) :   0.9161 B(  1-C , 22-H ) :   0.9339
B(  1-C , 23-H ) :   0.9252 B(  2-O ,  3-P ) :   1.1257 B(  3-P ,  4-S ) :   1.6000
B(  3-P ,  5-O ) :   1.1292 B(  3-P ,  8-S ) :   0.9367 B(  4-S ,  8-S ) :   0.1088
B(  5-O ,  6-C ) :   0.8966 B(  6-C ,  7-C ) :   1.1632 B(  6-C , 24-H ) :   0.9348
B(  6-C , 25-H ) :   0.9040 B(  7-C , 26-H ) :   0.9400 B(  7-C , 27-H ) :   0.9381
B(  7-C , 28-H ) :   0.9485 B(  8-S ,  9-C ) :   1.0144 B(  9-C , 10-S ) :   1.0000
B(  9-C , 29-H ) :   0.8836 B(  9-C , 30-H ) :   0.8788 B( 10-S , 11-P ) :   0.9604
B( 10-S , 12-S ) :   0.1057 B( 11-P , 12-S ) :   1.5935 B( 11-P , 13-O ) :   1.0939
B( 11-P , 16-O ) :   1.1247 B( 13-O , 14-C ) :   0.9092 B( 14-C , 15-C ) :   1.1646
B( 14-C , 31-H ) :   0.9158 B( 14-C , 32-H ) :   0.9336 B( 15-C , 33-H ) :   0.9450
B( 15-C , 34-H ) :   0.9355 B( 15-C , 35-H ) :   0.9379 B( 16-O , 17-C ) :   0.8965
B( 17-C , 18-C ) :   1.1686 B( 17-C , 36-H ) :   0.9341 B( 17-C , 37-H ) :   0.9066
B( 18-C , 38-H ) :   0.9444 B( 18-C , 39-H ) :   0.9396 B( 18-C , 40-H ) :   0.9438

Dispersion correction           -0.068066346
FINAL SINGLE POINT ENERGY     -2929.524411539025

DIPOLE MOMENT
-------------

Method             : SCF
Type of density    : Electron Density
Multiplicity       :   1
Irrep              :   0
Energy             : -2929.6419117731411461 Eh
Relativity type    :
Basis              : AO
                                X                 Y                 Z
Electronic contribution:      1.970162480       6.464237680      -5.666655559
Nuclear contribution   :     -2.396072247      -7.096485683       6.050936732
                        -----------------------------------------
Total Dipole Moment    :     -0.425909767      -0.632248003       0.384281173
                        -----------------------------------------
Magnitude (a.u.)       :      0.853702927
Magnitude (Debye)      :      2.169940392

Rotational constants in cm-1:             0.012624             0.005380             0.005150
Rotational constants in MHz :           378.455612           161.282536           154.387230

                             ****ORCA TERMINATED NORMALLY****
TOTAL RUN TIME: 0 days 0 hours 0 minutes 21 seconds 742 msec
