                         Program Version 6.0.0  -   RELEASE  -
|  1> ! pbe def2-sv(p) def2/J RI DEFGRID1 loosescf d4 GCP(DFT/SV(P)) printgap
|  2> %output
|  3>     printlevel normal
|  4> end
|  5> * xyz 0 1
|  6> C 5.401950684 -0.1374736722 -0.7671344307
|  7> C 4.4143734407 -0.8387643364 0.1454037654
|  8> O 3.3754301898 0.0655631465 0.569366045
|  9> P 1.9665570956 0.1471029738 -0.1680901934
| 10> S 2.0268598928 0.3871184119 -2.116911804
| 11> O 1.2610712063 1.2716022197 0.6921005195
| 12> C 1.3179192832 2.6640297606 0.3305509752
| 13> C 2.7224238917 3.2161283751 0.4398827794
| 14> S 1.0517719846 -1.6117847248 0.5249859255
| 15> C -0.1702017802 -1.9324535981 -0.7940296932
| 16> S -1.8604790387 -1.9877036896 -0.1724737977
| 17> P -2.1297389483 0.1012755637 0.1317337366
| 18> S -1.3958718886 1.2381670643 -1.2849496754
| 19> O -1.503767427 0.524090631 1.5156574231
| 20> C -1.9429370806 0.0569524632 2.8176414025
| 21> C -1.0842887963 -1.0901132472 3.3113335777
| 22> O -3.6824212027 0.2121632604 0.4443722654
| 23> C -4.7323073313 -0.4097814924 -0.3218553967
| 24> C -4.6937398101 -0.0278034464 -1.7861807677
| 25> H 5.8211390342 0.7314910387 -0.2676617706
| 26> H 6.2011682388 -0.82489961 -1.0243237886
| 27> H 4.905167283 0.185281328 -1.6796595809
| 28> H 4.8901805353 -1.1657822551 1.0717372901
| 29> H 3.9627138204 -1.6994338901 -0.3562843683
| 30> H 0.9298813809 2.7738787517 -0.6880789599
| 31> H 0.6299588605 3.1413628003 1.0302085135
| 32> H 3.1237582199 3.0255845268 1.4318285575
| 33> H 3.3628774954 2.7364158299 -0.2995097748
| 34> H 2.7035091976 4.2849910957 0.2514954937
| 35> H 0.0336305549 -2.9158267719 -1.2094517901
| 36> H -0.0766666142 -1.1528600557 -1.5558901334
| 37> H -1.8360761547 0.9335413042 3.4588185653
| 38> H -2.9946776402 -0.2268168135 2.7555409373
| 39> H -1.3710789063 -1.3285016072 4.3306934372
| 40> H -1.2164076587 -1.9728690879 2.6903500485
| 41> H -0.034555883 -0.8077442771 3.2920519705
| 42> H -4.6461529251 -1.4930193319 -0.2018866849
| 43> H -5.6442013829 -0.0518270965 0.1594001563
| 44> H -5.54958996 -0.4601239542 -2.2942790149
| 45> H -4.7160175058 1.0537719218 -1.8976106656
| 46> H -3.7808528005 -0.4000027583 -2.2490501489
| 47> *
| 48>
| 49>                          ****END OF INPUT****

CARTESIAN COORDINATES (ANGSTROEM)
---------------------------------
  C      5.401951   -0.137474   -0.767134
  C      4.414373   -0.838764    0.145404
  O      3.375430    0.065563    0.569366
  P      1.966557    0.147103   -0.168090
  S      2.026860    0.387118   -2.116912
  O      1.261071    1.271602    0.692101
  C      1.317919    2.664030    0.330551
  C      2.722424    3.216128    0.439883
  S      1.051772   -1.611785    0.524986
  C     -0.170202   -1.932454   -0.794030
  S     -1.860479   -1.987704   -0.172474
  P     -2.129739    0.101276    0.131734
  S     -1.395872    1.238167   -1.284950
  O     -1.503767    0.524091    1.515657
  C     -1.942937    0.056952    2.817641
  C     -1.084289   -1.090113    3.311334
  O     -3.682421    0.212163    0.444372
  C     -4.732307   -0.409781   -0.321855
  C     -4.693740   -0.027803   -1.786181
  H      5.821139    0.731491   -0.267662
  H      6.201168   -0.824900   -1.024324
  H      4.905167    0.185281   -1.679660
  H      4.890181   -1.165782    1.071737
  H      3.962714   -1.699434   -0.356284
  H      0.929881    2.773879   -0.688079
  H      0.629959    3.141363    1.030209
  H      3.123758    3.025585    1.431829
  H      3.362877    2.736416   -0.299510
  H      2.703509    4.284991    0.251495
  H      0.033631   -2.915827   -1.209452
  H     -0.076667   -1.152860   -1.555890
  H     -1.836076    0.933541    3.458819
  H     -2.994678   -0.226817    2.755541
  H     -1.371079   -1.328502    4.330693
  H     -1.216408   -1.972869    2.690350
  H     -0.034556   -0.807744    3.292052
  H     -4.646153   -1.493019   -0.201887
  H     -5.644201   -0.051827    0.159400
  H     -5.549590   -0.460124   -2.294279
  H     -4.716018    1.053772   -1.897611
  H     -3.780853   -0.400003   -2.249050

 Total Charge           Charge          ....    0
 Multiplicity           Mult            ....    1
 Number of Electrons    NEL             ....  202
 Basis Dimension        Dim             ....  334

ORBITAL ENERGIES
----------------

  NO   OCC          E(Eh)            E(eV)
   0   2.0000     -88.046748     -2395.8738
   1   2.0000     -88.039819     -2395.6853
   2   2.0000     -87.980021     -2394.0581
   3   2.0000     -87.978273     -2394.0105
   4   2.0000     -76.424739     -2079.6229
   5   2.0000     -76.419880     -2079.4907
   6   2.0000     -18.796651      -511.4829
   7   2.0000     -18.787146      -511.2242
   8   2.0000     -18.786850      -511.2162
   9   2.0000     -18.778409      -510.9865
  10   2.0000      -9.960902      -271.0499
  11   2.0000      -9.954985      -270.8889
  12   2.0000      -9.952390      -270.8183
  13   2.0000      -9.950013      -270.7536
  14   2.0000      -9.937173      -270.4042
  15   2.0000      -9.883392      -268.9408
  16   2.0000      -9.880095      -268.8511
  17   2.0000      -9.877752      -268.7873
  18   2.0000      -9.874345      -268.6946
  19   2.0000      -7.691715      -209.3022
  20   2.0000      -7.685044      -209.1207
  21   2.0000      -7.624930      -207.4849
  22   2.0000      -7.623208      -207.4380
  23   2.0000      -6.421924      -174.7494
  24   2.0000      -6.417378      -174.6257
  25   2.0000      -5.719420      -155.6333
  26   2.0000      -5.716079      -155.5424
  27   2.0000      -5.712899      -155.4559
  28   2.0000      -5.709423      -155.3613
  29   2.0000      -5.709025      -155.3505
  30   2.0000      -5.702070      -155.1612
  31   2.0000      -5.653806      -153.8479
  32   2.0000      -5.652308      -153.8071
  33   2.0000      -5.645667      -153.6264
  34   2.0000      -5.645028      -153.6090
  35   2.0000      -5.643718      -153.5734
  36   2.0000      -5.643271      -153.5612
  37   2.0000      -4.644820      -126.3920
  38   2.0000      -4.643969      -126.3688
  39   2.0000      -4.641854      -126.3113
  40   2.0000      -4.639707      -126.2528
  41   2.0000      -4.639068      -126.2355
  42   2.0000      -4.638155      -126.2106
  43   2.0000      -0.987994       -26.8847
  44   2.0000      -0.979267       -26.6472
  45   2.0000      -0.942743       -25.6533
  46   2.0000      -0.936476       -25.4828
  47   2.0000      -0.762670       -20.7533
  48   2.0000      -0.719033       -19.5659
  49   2.0000      -0.706965       -19.2375
  50   2.0000      -0.689712       -18.7680
  51   2.0000      -0.680080       -18.5059
  52   2.0000      -0.672159       -18.2904
  53   2.0000      -0.648120       -17.6362
  54   2.0000      -0.632087       -17.2000
  55   2.0000      -0.593457       -16.1488
  56   2.0000      -0.586829       -15.9684
  57   2.0000      -0.576378       -15.6840
  58   2.0000      -0.565840       -15.3973
  59   2.0000      -0.558301       -15.1921
  60   2.0000      -0.503295       -13.6953
  61   2.0000      -0.493553       -13.4302
  62   2.0000      -0.471637       -12.8339
  63   2.0000      -0.465512       -12.6672
  64   2.0000      -0.452264       -12.3067
  65   2.0000      -0.441237       -12.0067
  66   2.0000      -0.437939       -11.9169
  67   2.0000      -0.433245       -11.7892
  68   2.0000      -0.429882       -11.6977
  69   2.0000      -0.414628       -11.2826
  70   2.0000      -0.408113       -11.1053
  71   2.0000      -0.398051       -10.8315
  72   2.0000      -0.393358       -10.7038
  73   2.0000      -0.383935       -10.4474
  74   2.0000      -0.379717       -10.3326
  75   2.0000      -0.366504        -9.9731
  76   2.0000      -0.355976        -9.6866
  77   2.0000      -0.354011        -9.6331
  78   2.0000      -0.349947        -9.5225
  79   2.0000      -0.344308        -9.3691
  80   2.0000      -0.343062        -9.3352
  81   2.0000      -0.341879        -9.3030
  82   2.0000      -0.339587        -9.2406
  83   2.0000      -0.332436        -9.0461
  84   2.0000      -0.327900        -8.9226
  85   2.0000      -0.316616        -8.6156
  86   2.0000      -0.308412        -8.3923
  87   2.0000      -0.298629        -8.1261
  88   2.0000      -0.292721        -7.9653
  89   2.0000      -0.291160        -7.9229
  90   2.0000      -0.276914        -7.5352
  91   2.0000      -0.273390        -7.4393
  92   2.0000      -0.265074        -7.2130
  93   2.0000      -0.259296        -7.0558
  94   2.0000      -0.256947        -6.9919
  95   2.0000      -0.235241        -6.4012
  96   2.0000      -0.221706        -6.0329
  97   2.0000      -0.210120        -5.7177
  98   2.0000      -0.199210        -5.4208
  99   2.0000      -0.190726        -5.1899
 100   2.0000      -0.182090        -4.9549
 101   0.0000      -0.039699        -1.0803
 102   0.0000      -0.029071        -0.7911
 103   0.0000      -0.011490        -0.3126
 104   0.0000       0.014264         0.3881
 105   0.0000       0.018827         0.5123

MULLIKEN ATOMIC CHARGES
-----------------------
   0 C :   -0.292287
   1 C :   -0.007307
   2 O :   -0.375366
   3 P :    0.607359
   4 S :   -0.320365
   5 O :   -0.351503
   6 C :   -0.001943
   7 C :   -0.305558
   8 S :   -0.096067
   9 C :   -0.349281
  10 S :   -0.128082
  11 P :    0.604304
  12 S :   -0.294472
  13 O :   -0.343535
  14 C :   -0.011879
  15 C :   -0.293338
  16 O :   -0.381720
  17 C :   -0.015465
  18 C :   -0.305988
  19 H :    0.113605
  20 H :    0.105775
  21 H :    0.128432
  22 H :    0.104360
  23 H :    0.097379
  24 H :    0.123012
  25 H :    0.100829
  26 H :    0.111485
  27 H :    0.123571
  28 H :    0.108415
  29 H :    0.182023
  30 H :    0.212929
  31 H :    0.107829
  32 H :    0.101124
  33 H :    0.104736
  34 H :    0.119684
  35 H :    0.127265
  36 H :    0.114541
  37 H :    0.109520
  38 H :    0.110859
  39 H :    0.127208
  40 H :    0.127911
Sum of atomic charges:    0.0000000

LOEWDIN ATOMIC CHARGES
----------------------
   0 C :   -0.363678
   1 C :   -0.117613
   2 O :   -0.247762
   3 P :    0.568043
   4 S :   -0.313772
   5 O :   -0.229328
   6 C :   -0.118563
   7 C :   -0.366872
   8 S :    0.086609
   9 C :   -0.477887
  10 S :    0.064260
  11 P :    0.562635
  12 S :   -0.284324
  13 O :   -0.228925
  14 C :   -0.110483
  15 C :   -0.366534
  16 O :   -0.245145
  17 C :   -0.115132
  18 C :   -0.368677
  19 H :    0.124639
  20 H :    0.127820
  21 H :    0.124396
  22 H :    0.117159
  23 H :    0.105414
  24 H :    0.109008
  25 H :    0.117934
  26 H :    0.123578
  27 H :    0.121286
  28 H :    0.128884
  29 H :    0.137078
  30 H :    0.127020
  31 H :    0.121102
  32 H :    0.107997
  33 H :    0.126795
  34 H :    0.114416
  35 H :    0.126390
  36 H :    0.107382
  37 H :    0.121307
  38 H :    0.129962
  39 H :    0.131149
  40 H :    0.122431

  Mayer bond orders larger than 0.100000
B(  0-C ,  1-C ) :   1.1680 B(  0-C , 19-H ) :   0.9458 B(  0-C , 20-H ) :   0.9399
B(  0-C , 21-H ) :   0.9307 B(  1-C ,  2-O ) :   0.9085 B(  1-C , 22-H ) :   0.9361
B(  1-C , 23-H ) :   0.9129 B(  2-O ,  3-P ) :   1.0937 B(  3-P ,  4-S ) :   1.5994
B(  3-P ,  5-O ) :   1.1520 B(  3-P ,  8-S ) :   0.9682 B(  4-S ,  8-S ) :   0.1161
B(  5-O ,  6-C ) :   0.9011 B(  6-C ,  7-C ) :   1.1578 B(  6-C , 24-H ) :   0.9122
B(  6-C , 25-H ) :   0.9358 B(  7-C , 26-H ) :   0.9448 B(  7-C , 27-H ) :   0.9343
B(  7-C , 28-H ) :   0.9389 B(  8-S ,  9-C ) :   0.9932 B(  9-C , 10-S ) :   1.0108
B(  9-C , 29-H ) :   0.9109 B(  9-C , 30-H ) :   0.8438 B( 10-S , 11-P ) :   0.9252
B( 10-S , 12-S ) :   0.1063 B( 11-P , 12-S ) :   1.6533 B( 11-P , 13-O ) :   1.1451
B( 11-P , 16-O ) :   1.0831 B( 13-O , 14-C ) :   0.8989 B( 14-C , 15-C ) :   1.1702
B( 14-C , 31-H ) :   0.9351 B( 14-C , 32-H ) :   0.9197 B( 15-C , 33-H ) :   0.9371
B( 15-C , 34-H ) :   0.9340 B( 15-C , 35-H ) :   0.9411 B( 16-O , 17-C ) :   0.9108
B( 17-C , 18-C ) :   1.1673 B( 17-C , 36-H ) :   0.9256 B( 17-C , 37-H ) :   0.9332
B( 18-C , 38-H ) :   0.9350 B( 18-C , 39-H ) :   0.9432 B( 18-C , 40-H ) :   0.9315

Dispersion correction           -0.068074965
FINAL SINGLE POINT ENERGY     -2929.517731521792

DIPOLE MOMENT
-------------

Method             : SCF
Type of density    : Electron Density
Multiplicity       :   1
Irrep              :   0
Energy             : -2929.6353744514581194 Eh
Relativity type    :
Basis              : AO
                                X                 Y                 Z
Electronic contribution:     -5.070788499      -4.631151164      -5.339796644
Nuclear contribution   :      4.550063624       3.962559266       6.499660441
                        -----------------------------------------
Total Dipole Moment    :     -0.520724874      -0.668591897       1.159863796
                        -----------------------------------------
Magnitude (a.u.)       :      1.436472605
Magnitude (Debye)      :      3.651223195

Rotational constants in cm-1:             0.013407             0.005168             0.005021
Rotational constants in MHz :           401.936050           154.923703           150.519997

                             ****ORCA TERMINATED NORMALLY****
TOTAL RUN TIME: 0 days 0 hours 0 minutes 21 seconds 226 msec
