                         Program Version 6.0.0  -   RELEASE  -
|  1> ! pbe def2-sv(p) def2/J RI DEFGRID1 loosescf d4 GCP(DFT/SV(P)) printgap
|  2> %output
|  3>     printlevel normal
|  4> end
|  5> * xyz 0 1
|  6> C 4.9363850079 -1.6239239078 -0.7400637509
|  7> C 4.4293350096 -0.5339226087 -1.6607363451
|  8> O 3.03508796 -0.2402479871 -1.4340493252
|  9> P 2.5347139087 0.4410971849 -0.088922982
| 10> S 3.7503781391 1.7413130533 0.7268651596
| 11> O 2.2010658076 -0.8347593657 0.8104669572
| 12> C 2.1401985954 -0.7659594426 2.2430098421
| 13> C 0.9953331225 0.0985231338 2.7301187124
| 14> S 0.6770171651 1.1658257774 -0.7836137602
| 15> C 0.0143036495 -0.3828353646 -1.477070231
| 16> S -0.793911084 -1.4465973563 -0.2554796037
| 17> P -2.5051302147 -0.2476866169 -0.0073054032
| 18> S -3.23950909 0.6244452961 -1.6093412925
| 19> O -1.9976049049 0.6944773164 1.161325375
| 20> C -2.6945143059 1.9029653226 1.5380071073
| 21> C -2.0508502836 3.1116174655 0.8880667328
| 22> O -3.553401655 -1.1559751692 0.7727675186
| 23> C -4.5132531156 -1.9834443587 0.0924701069
| 24> C -3.853276852 -3.1407013287 -0.6290038369
| 25> H 4.2986725559 -2.5015462436 -0.8065183641
| 26> H 5.949922212 -1.8899671766 -1.023464903
| 27> H 4.9399802957 -1.2668364816 0.2888695366
| 28> H 4.4638159973 -0.8372774975 -2.7079703917
| 29> H 5.002955544 0.3876202791 -1.5208487248
| 30> H 2.0213826339 -1.8052392042 2.5516635445
| 31> H 3.0927876401 -0.3693050239 2.6090968125
| 32> H 0.9728522977 0.0892602782 3.8151147608
| 33> H 1.1391246368 1.1243845109 2.3891002741
| 34> H 0.0451162699 -0.267030722 2.348689269
| 35> H 0.8218868096 -0.954188537 -1.9235150711
| 36> H -0.7209894898 -0.0803287311 -2.2235317786
| 37> H -3.7465192112 1.8183276547 1.2518494964
| 38> H -2.6118422892 1.9424932639 2.6251933789
| 39> H -2.5396870847 4.0133132683 1.2423644162
| 40> H -0.9931908011 3.152697024 1.1341867825
| 41> H -2.1480087368 3.0550654141 -0.1941347189
| 42> H -5.1743905036 -2.3272116298 0.8889985158
| 43> H -5.071141296 -1.3582196794 -0.6121183297
| 44> H -3.2487341373 -2.767870405 -1.454787228
| 45> H -3.2121877487 -3.693997184 0.0525002079
| 46> H -4.6183224609 -3.8017753111 -1.0233478205
| 47> *
| 48>
| 49>                          ****END OF INPUT****

CARTESIAN COORDINATES (ANGSTROEM)
---------------------------------
  C      4.936385   -1.623924   -0.740064
  C      4.429335   -0.533923   -1.660736
  O      3.035088   -0.240248   -1.434049
  P      2.534714    0.441097   -0.088923
  S      3.750378    1.741313    0.726865
  O      2.201066   -0.834759    0.810467
  C      2.140199   -0.765959    2.243010
  C      0.995333    0.098523    2.730119
  S      0.677017    1.165826   -0.783614
  C      0.014304   -0.382835   -1.477070
  S     -0.793911   -1.446597   -0.255480
  P     -2.505130   -0.247687   -0.007305
  S     -3.239509    0.624445   -1.609341
  O     -1.997605    0.694477    1.161325
  C     -2.694514    1.902965    1.538007
  C     -2.050850    3.111617    0.888067
  O     -3.553402   -1.155975    0.772768
  C     -4.513253   -1.983444    0.092470
  C     -3.853277   -3.140701   -0.629004
  H      4.298673   -2.501546   -0.806518
  H      5.949922   -1.889967   -1.023465
  H      4.939980   -1.266836    0.288870
  H      4.463816   -0.837277   -2.707970
  H      5.002956    0.387620   -1.520849
  H      2.021383   -1.805239    2.551664
  H      3.092788   -0.369305    2.609097
  H      0.972852    0.089260    3.815115
  H      1.139125    1.124385    2.389100
  H      0.045116   -0.267031    2.348689
  H      0.821887   -0.954189   -1.923515
  H     -0.720989   -0.080329   -2.223532
  H     -3.746519    1.818328    1.251849
  H     -2.611842    1.942493    2.625193
  H     -2.539687    4.013313    1.242364
  H     -0.993191    3.152697    1.134187
  H     -2.148009    3.055065   -0.194135
  H     -5.174391   -2.327212    0.888999
  H     -5.071141   -1.358220   -0.612118
  H     -3.248734   -2.767870   -1.454787
  H     -3.212188   -3.693997    0.052500
  H     -4.618322   -3.801775   -1.023348

 Total Charge           Charge          ....    0
 Multiplicity           Mult            ....    1
 Number of Electrons    NEL             ....  202
 Basis Dimension        Dim             ....  334

ORBITAL ENERGIES
----------------

  NO   OCC          E(Eh)            E(eV)
   0   2.0000     -88.047186     -2395.8857
   1   2.0000     -88.039993     -2395.6900
   2   2.0000     -87.993882     -2394.4353
   3   2.0000     -87.988670     -2394.2934
   4   2.0000     -76.430767     -2079.7869
   5   2.0000     -76.426127     -2079.6606
   6   2.0000     -18.797666      -511.5105
   7   2.0000     -18.792848      -511.3794
   8   2.0000     -18.792649      -511.3740
   9   2.0000     -18.790124      -511.3053
  10   2.0000      -9.956824      -270.9389
  11   2.0000      -9.955660      -270.9073
  12   2.0000      -9.953943      -270.8605
  13   2.0000      -9.953923      -270.8600
  14   2.0000      -9.947899      -270.6961
  15   2.0000      -9.887660      -269.0569
  16   2.0000      -9.885813      -269.0066
  17   2.0000      -9.877988      -268.7937
  18   2.0000      -9.873976      -268.6846
  19   2.0000      -7.692476      -209.3229
  20   2.0000      -7.685265      -209.1267
  21   2.0000      -7.638714      -207.8600
  22   2.0000      -7.633783      -207.7258
  23   2.0000      -6.428495      -174.9282
  24   2.0000      -6.423869      -174.8024
  25   2.0000      -5.720237      -155.6556
  26   2.0000      -5.717123      -155.5708
  27   2.0000      -5.713502      -155.4723
  28   2.0000      -5.709667      -155.3679
  29   2.0000      -5.709317      -155.3584
  30   2.0000      -5.701924      -155.1572
  31   2.0000      -5.667482      -154.2200
  32   2.0000      -5.662722      -154.0905
  33   2.0000      -5.659501      -154.0028
  34   2.0000      -5.658896      -153.9864
  35   2.0000      -5.654474      -153.8661
  36   2.0000      -5.653873      -153.8497
  37   2.0000      -4.650993      -126.5600
  38   2.0000      -4.650141      -126.5368
  39   2.0000      -4.649101      -126.5085
  40   2.0000      -4.646249      -126.4309
  41   2.0000      -4.645792      -126.4184
  42   2.0000      -4.644368      -126.3797
  43   2.0000      -0.990384       -26.9497
  44   2.0000      -0.986219       -26.8364
  45   2.0000      -0.948429       -25.8081
  46   2.0000      -0.945179       -25.7196
  47   2.0000      -0.766291       -20.8518
  48   2.0000      -0.723998       -19.7010
  49   2.0000      -0.707930       -19.2638
  50   2.0000      -0.687638       -18.7116
  51   2.0000      -0.683849       -18.6085
  52   2.0000      -0.674953       -18.3664
  53   2.0000      -0.656764       -17.8714
  54   2.0000      -0.641296       -17.4506
  55   2.0000      -0.602172       -16.3859
  56   2.0000      -0.594650       -16.1813
  57   2.0000      -0.576266       -15.6810
  58   2.0000      -0.570933       -15.5359
  59   2.0000      -0.559720       -15.2308
  60   2.0000      -0.503163       -13.6918
  61   2.0000      -0.493147       -13.4192
  62   2.0000      -0.473022       -12.8716
  63   2.0000      -0.470328       -12.7983
  64   2.0000      -0.462933       -12.5971
  65   2.0000      -0.445414       -12.1203
  66   2.0000      -0.442136       -12.0311
  67   2.0000      -0.437352       -11.9009
  68   2.0000      -0.429589       -11.6897
  69   2.0000      -0.414961       -11.2917
  70   2.0000      -0.411120       -11.1871
  71   2.0000      -0.398317       -10.8388
  72   2.0000      -0.395376       -10.7587
  73   2.0000      -0.392795       -10.6885
  74   2.0000      -0.381367       -10.3775
  75   2.0000      -0.379834       -10.3358
  76   2.0000      -0.365671        -9.9504
  77   2.0000      -0.357411        -9.7256
  78   2.0000      -0.353295        -9.6137
  79   2.0000      -0.351338        -9.5604
  80   2.0000      -0.347173        -9.4471
  81   2.0000      -0.343635        -9.3508
  82   2.0000      -0.341378        -9.2894
  83   2.0000      -0.337914        -9.1951
  84   2.0000      -0.329411        -8.9637
  85   2.0000      -0.319611        -8.6971
  86   2.0000      -0.310004        -8.4356
  87   2.0000      -0.299953        -8.1621
  88   2.0000      -0.295306        -8.0357
  89   2.0000      -0.290232        -7.8976
  90   2.0000      -0.286359        -7.7922
  91   2.0000      -0.279931        -7.6173
  92   2.0000      -0.274344        -7.4653
  93   2.0000      -0.268489        -7.3060
  94   2.0000      -0.258232        -7.0269
  95   2.0000      -0.232597        -6.3293
  96   2.0000      -0.217931        -5.9302
  97   2.0000      -0.213225        -5.8021
  98   2.0000      -0.209644        -5.7047
  99   2.0000      -0.207347        -5.6422
 100   2.0000      -0.203496        -5.5374
 101   0.0000      -0.043030        -1.1709
 102   0.0000      -0.023796        -0.6475
 103   0.0000      -0.016171        -0.4400
 104   0.0000       0.001835         0.0499
 105   0.0000       0.009592         0.2610

MULLIKEN ATOMIC CHARGES
-----------------------
   0 C :   -0.308098
   1 C :   -0.003460
   2 O :   -0.384377
   3 P :    0.607198
   4 S :   -0.320154
   5 O :   -0.378990
   6 C :    0.001115
   7 C :   -0.337174
   8 S :   -0.053643
   9 C :   -0.376008
  10 S :   -0.065339
  11 P :    0.609354
  12 S :   -0.334101
  13 O :   -0.356646
  14 C :   -0.000844
  15 C :   -0.298320
  16 O :   -0.372490
  17 C :   -0.005888
  18 C :   -0.316456
  19 H :    0.115597
  20 H :    0.113101
  21 H :    0.124868
  22 H :    0.105690
  23 H :    0.114992
  24 H :    0.101662
  25 H :    0.107183
  26 H :    0.104688
  27 H :    0.123094
  28 H :    0.142842
  29 H :    0.194566
  30 H :    0.196316
  31 H :    0.102018
  32 H :    0.107886
  33 H :    0.107196
  34 H :    0.128314
  35 H :    0.125793
  36 H :    0.106542
  37 H :    0.112935
  38 H :    0.126328
  39 H :    0.117890
  40 H :    0.114821
Sum of atomic charges:   -0.0000000

LOEWDIN ATOMIC CHARGES
----------------------
   0 C :   -0.365275
   1 C :   -0.115493
   2 O :   -0.249453
   3 P :    0.571676
   4 S :   -0.319092
   5 O :   -0.248069
   6 C :   -0.119766
   7 C :   -0.375863
   8 S :    0.102281
   9 C :   -0.482900
  10 S :    0.106989
  11 P :    0.572044
  12 S :   -0.320662
  13 O :   -0.235165
  14 C :   -0.111149
  15 C :   -0.362745
  16 O :   -0.245768
  17 C :   -0.119843
  18 C :   -0.369314
  19 H :    0.125883
  20 H :    0.130924
  21 H :    0.123411
  22 H :    0.118898
  23 H :    0.112972
  24 H :    0.117790
  25 H :    0.107477
  26 H :    0.127857
  27 H :    0.118732
  28 H :    0.121089
  29 H :    0.136218
  30 H :    0.130923
  31 H :    0.109282
  32 H :    0.119667
  33 H :    0.128169
  34 H :    0.126720
  35 H :    0.123859
  36 H :    0.119344
  37 H :    0.110890
  38 H :    0.120957
  39 H :    0.124578
  40 H :    0.131927

  Mayer bond orders larger than 0.100000
B(  0-C ,  1-C ) :   1.1626 B(  0-C , 19-H ) :   0.9462 B(  0-C , 20-H ) :   0.9380
B(  0-C , 21-H ) :   0.9360 B(  1-C ,  2-O ) :   0.9065 B(  1-C , 22-H ) :   0.9357
B(  1-C , 23-H ) :   0.9178 B(  2-O ,  3-P ) :   1.0912 B(  3-P ,  4-S ) :   1.6311
B(  3-P ,  5-O ) :   1.0856 B(  3-P ,  8-S ) :   0.9861 B(  5-O ,  6-C ) :   0.9041
B(  6-C ,  7-C ) :   1.1643 B(  6-C , 24-H ) :   0.9330 B(  6-C , 25-H ) :   0.9176
B(  7-C , 26-H ) :   0.9370 B(  7-C , 27-H ) :   0.9334 B(  7-C , 28-H ) :   0.9274
B(  8-S ,  9-C ) :   0.9861 B(  9-C , 10-S ) :   0.9998 B(  9-C , 29-H ) :   0.8887
B(  9-C , 30-H ) :   0.8719 B( 10-S , 11-P ) :   0.9696 B( 10-S , 12-S ) :   0.1104
B( 11-P , 12-S ) :   1.5843 B( 11-P , 13-O ) :   1.1318 B( 11-P , 16-O ) :   1.1133
B( 13-O , 14-C ) :   0.8879 B( 14-C , 15-C ) :   1.1711 B( 14-C , 31-H ) :   0.9160
B( 14-C , 32-H ) :   0.9333 B( 15-C , 33-H ) :   0.9391 B( 15-C , 34-H ) :   0.9428
B( 15-C , 35-H ) :   0.9367 B( 16-O , 17-C ) :   0.9084 B( 17-C , 18-C ) :   1.1648
B( 17-C , 36-H ) :   0.9336 B( 17-C , 37-H ) :   0.9152 B( 18-C , 38-H ) :   0.9353
B( 18-C , 39-H ) :   0.9452 B( 18-C , 40-H ) :   0.9380

Dispersion correction           -0.065685070
FINAL SINGLE POINT ENERGY     -2929.523684685020

DIPOLE MOMENT
-------------

Method             : SCF
Type of density    : Electron Density
Multiplicity       :   1
Irrep              :   0
Energy             : -2929.6441827432672653 Eh
Relativity type    :
Basis              : AO
                                X                 Y                 Z
Electronic contribution:      0.885729071       6.796432957      -6.970765547
Nuclear contribution   :     -1.296383165      -8.078055210       7.391869315
                        -----------------------------------------
Total Dipole Moment    :     -0.410654094      -1.281622253       0.421103767
                        -----------------------------------------
Magnitude (a.u.)       :      1.410149200
Magnitude (Debye)      :      3.584314417

Rotational constants in cm-1:             0.013459             0.004641             0.004292
Rotational constants in MHz :           403.480876           139.127592           128.676340

                             ****ORCA TERMINATED NORMALLY****
TOTAL RUN TIME: 0 days 0 hours 0 minutes 21 seconds 45 msec
