                         Program Version 6.0.0  -   RELEASE  -
|  1> ! pbe def2-sv(p) def2/J RI DEFGRID1 loosescf d4 GCP(DFT/SV(P)) printgap
|  2> %output
|  3>     printlevel normal
|  4> end
|  5> * xyz 0 1
|  6> C 3.5411965297 -2.2711572661 1.5982725871
|  7> C 2.1385160833 -2.1626022337 1.0362065462
|  8> O 1.7503583517 -0.7866861886 0.8571822005
|  9> P 2.3631958949 0.1113939936 -0.3180106969
| 10> S 2.9839501272 -0.8615645139 -1.8944702931
| 11> O 3.5269912591 0.971606395 0.3239015009
| 12> C 3.4421769752 1.630940139 1.611390806
| 13> C 3.0025546846 3.0733738321 1.4615397131
| 14> S 0.7543803125 1.4574091595 -0.6210487075
| 15> C -0.1639988958 0.3927627835 -1.7604366166
| 16> S -0.9217904645 -1.0289005845 -0.9479808312
| 17> P -2.5253500736 0.0705020019 -0.0562820495
| 18> S -3.3278728125 1.4498043658 -1.1871493494
| 19> O -1.971043614 0.7346002499 1.2576254845
| 20> C -1.318940723 -0.0012397892 2.3235695038
| 21> C -0.474305452 0.9819595603 3.1065364041
| 22> O -3.4500863805 -1.0780954808 0.5358468509
| 23> C -3.934889138 -2.2213804622 -0.1935372301
| 24> C -4.6595272447 -1.8403522928 -1.4671490626
| 25> H 4.2519582686 -1.8373118113 0.8950375174
| 26> H 3.6148404514 -1.7455559522 2.5466957636
| 27> H 3.7891216954 -3.317327661 1.7469892537
| 28> H 1.3927064259 -2.5661795288 1.722415535
| 29> H 2.0672198172 -2.6727465671 0.0707007751
| 30> H 2.7583045622 1.0704715226 2.2529039168
| 31> H 4.4574622051 1.569158132 2.0069182315
| 32> H 3.6706585594 3.59857643 0.784602419
| 33> H 1.9917374672 3.1305243352 1.0613849834
| 34> H 3.0270847781 3.5548215817 2.4342271065
| 35> H 0.5192452131 0.0035831402 -2.5159525864
| 36> H -0.9474179729 1.0083077428 -2.2058658198
| 37> H -2.0973474706 -0.4523837493 2.9414271509
| 38> H -0.7044287222 -0.7897841319 1.8788702378
| 39> H -1.0995654869 1.7775130922 3.500798331
| 40> H 0.0126040483 0.4634834833 3.9261694932
| 41> H 0.276634097 1.4228049162 2.4557715229
| 42> H -3.0828747372 -2.8708207817 -0.4129572296
| 43> H -4.604334955 -2.7117235658 0.5154412963
| 44> H -5.0745159429 -2.7313630046 -1.9271566292
| 45> H -5.4615444406 -1.1380911748 -1.2522161868
| 46> H -3.9698101851 -1.3687035695 -2.1658990394
| 47> *
| 48>
| 49>                          ****END OF INPUT****

CARTESIAN COORDINATES (ANGSTROEM)
---------------------------------
  C      3.541197   -2.271157    1.598273
  C      2.138516   -2.162602    1.036207
  O      1.750358   -0.786686    0.857182
  P      2.363196    0.111394   -0.318011
  S      2.983950   -0.861565   -1.894470
  O      3.526991    0.971606    0.323902
  C      3.442177    1.630940    1.611391
  C      3.002555    3.073374    1.461540
  S      0.754380    1.457409   -0.621049
  C     -0.163999    0.392763   -1.760437
  S     -0.921790   -1.028901   -0.947981
  P     -2.525350    0.070502   -0.056282
  S     -3.327873    1.449804   -1.187149
  O     -1.971044    0.734600    1.257625
  C     -1.318941   -0.001240    2.323570
  C     -0.474305    0.981960    3.106536
  O     -3.450086   -1.078095    0.535847
  C     -3.934889   -2.221380   -0.193537
  C     -4.659527   -1.840352   -1.467149
  H      4.251958   -1.837312    0.895038
  H      3.614840   -1.745556    2.546696
  H      3.789122   -3.317328    1.746989
  H      1.392706   -2.566180    1.722416
  H      2.067220   -2.672747    0.070701
  H      2.758305    1.070472    2.252904
  H      4.457462    1.569158    2.006918
  H      3.670659    3.598576    0.784602
  H      1.991737    3.130524    1.061385
  H      3.027085    3.554822    2.434227
  H      0.519245    0.003583   -2.515953
  H     -0.947418    1.008308   -2.205866
  H     -2.097347   -0.452384    2.941427
  H     -0.704429   -0.789784    1.878870
  H     -1.099565    1.777513    3.500798
  H      0.012604    0.463483    3.926169
  H      0.276634    1.422805    2.455772
  H     -3.082875   -2.870821   -0.412957
  H     -4.604335   -2.711724    0.515441
  H     -5.074516   -2.731363   -1.927157
  H     -5.461544   -1.138091   -1.252216
  H     -3.969810   -1.368704   -2.165899

 Total Charge           Charge          ....    0
 Multiplicity           Mult            ....    1
 Number of Electrons    NEL             ....  202
 Basis Dimension        Dim             ....  334

ORBITAL ENERGIES
----------------

  NO   OCC          E(Eh)            E(eV)
   0   2.0000     -88.044091     -2395.8015
   1   2.0000     -88.043670     -2395.7901
   2   2.0000     -87.990348     -2394.3391
   3   2.0000     -87.982124     -2394.1153
   4   2.0000     -76.430257     -2079.7730
   5   2.0000     -76.425919     -2079.6550
   6   2.0000     -18.800732      -511.5939
   7   2.0000     -18.797628      -511.5095
   8   2.0000     -18.796266      -511.4724
   9   2.0000     -18.789509      -511.2885
  10   2.0000      -9.965580      -271.1772
  11   2.0000      -9.961097      -271.0552
  12   2.0000      -9.956984      -270.9433
  13   2.0000      -9.953521      -270.8491
  14   2.0000      -9.952195      -270.8130
  15   2.0000      -9.895003      -269.2567
  16   2.0000      -9.891664      -269.1659
  17   2.0000      -9.888978      -269.0928
  18   2.0000      -9.884128      -268.9608
  19   2.0000      -7.689077      -209.2304
  20   2.0000      -7.688397      -209.2119
  21   2.0000      -7.635581      -207.7747
  22   2.0000      -7.627474      -207.5541
  23   2.0000      -6.428152      -174.9189
  24   2.0000      -6.423202      -174.7842
  25   2.0000      -5.716850      -155.5634
  26   2.0000      -5.716003      -155.5404
  27   2.0000      -5.713784      -155.4800
  28   2.0000      -5.712955      -155.4574
  29   2.0000      -5.705958      -155.2670
  30   2.0000      -5.705657      -155.2588
  31   2.0000      -5.664613      -154.1420
  32   2.0000      -5.656533      -153.9221
  33   2.0000      -5.656163      -153.9120
  34   2.0000      -5.655608      -153.8969
  35   2.0000      -5.648054      -153.6914
  36   2.0000      -5.647483      -153.6758
  37   2.0000      -4.651187      -126.5652
  38   2.0000      -4.649481      -126.5188
  39   2.0000      -4.648581      -126.4943
  40   2.0000      -4.646077      -126.4262
  41   2.0000      -4.645224      -126.4030
  42   2.0000      -4.643181      -126.3474
  43   2.0000      -0.991976       -26.9930
  44   2.0000      -0.989186       -26.9171
  45   2.0000      -0.951181       -25.8830
  46   2.0000      -0.945196       -25.7201
  47   2.0000      -0.766490       -20.8573
  48   2.0000      -0.726103       -19.7583
  49   2.0000      -0.715696       -19.4751
  50   2.0000      -0.698405       -19.0046
  51   2.0000      -0.691545       -18.8179
  52   2.0000      -0.678824       -18.4717
  53   2.0000      -0.652835       -17.7645
  54   2.0000      -0.639556       -17.4032
  55   2.0000      -0.598740       -16.2926
  56   2.0000      -0.589824       -16.0499
  57   2.0000      -0.586415       -15.9572
  58   2.0000      -0.572290       -15.5728
  59   2.0000      -0.564186       -15.3523
  60   2.0000      -0.510509       -13.8917
  61   2.0000      -0.502881       -13.6841
  62   2.0000      -0.485634       -13.2148
  63   2.0000      -0.476190       -12.9578
  64   2.0000      -0.462634       -12.5889
  65   2.0000      -0.454150       -12.3580
  66   2.0000      -0.445012       -12.1094
  67   2.0000      -0.437416       -11.9027
  68   2.0000      -0.431735       -11.7481
  69   2.0000      -0.419021       -11.4021
  70   2.0000      -0.415203       -11.2983
  71   2.0000      -0.406463       -11.0604
  72   2.0000      -0.396280       -10.7833
  73   2.0000      -0.386782       -10.5249
  74   2.0000      -0.380158       -10.3446
  75   2.0000      -0.379669       -10.3313
  76   2.0000      -0.365367        -9.9421
  77   2.0000      -0.363192        -9.8829
  78   2.0000      -0.360632        -9.8133
  79   2.0000      -0.355278        -9.6676
  80   2.0000      -0.351219        -9.5572
  81   2.0000      -0.349469        -9.5095
  82   2.0000      -0.346078        -9.4173
  83   2.0000      -0.342178        -9.3111
  84   2.0000      -0.340040        -9.2530
  85   2.0000      -0.325813        -8.8658
  86   2.0000      -0.319530        -8.6949
  87   2.0000      -0.308021        -8.3817
  88   2.0000      -0.298492        -8.1224
  89   2.0000      -0.295031        -8.0282
  90   2.0000      -0.287292        -7.8176
  91   2.0000      -0.277943        -7.5632
  92   2.0000      -0.276845        -7.5333
  93   2.0000      -0.273693        -7.4476
  94   2.0000      -0.259241        -7.0543
  95   2.0000      -0.235404        -6.4057
  96   2.0000      -0.220935        -6.0119
  97   2.0000      -0.212617        -5.7856
  98   2.0000      -0.204638        -5.5685
  99   2.0000      -0.200486        -5.4555
 100   2.0000      -0.196846        -5.3565
 101   0.0000      -0.045126        -1.2279
 102   0.0000      -0.025221        -0.6863
 103   0.0000      -0.007767        -0.2114
 104   0.0000      -0.000453        -0.0123
 105   0.0000       0.007285         0.1982

MULLIKEN ATOMIC CHARGES
-----------------------
   0 C :   -0.312684
   1 C :   -0.008936
   2 O :   -0.383911
   3 P :    0.622326
   4 S :   -0.311522
   5 O :   -0.365533
   6 C :   -0.039409
   7 C :   -0.308186
   8 S :   -0.089941
   9 C :   -0.358720
  10 S :   -0.110288
  11 P :    0.597522
  12 S :   -0.308102
  13 O :   -0.350954
  14 C :   -0.021018
  15 C :   -0.295492
  16 O :   -0.384191
  17 C :   -0.010907
  18 C :   -0.310224
  19 H :    0.131704
  20 H :    0.110996
  21 H :    0.115751
  22 H :    0.102722
  23 H :    0.115247
  24 H :    0.117291
  25 H :    0.113083
  26 H :    0.127125
  27 H :    0.146791
  28 H :    0.114530
  29 H :    0.195161
  30 H :    0.195709
  31 H :    0.104842
  32 H :    0.117631
  33 H :    0.119600
  34 H :    0.103347
  35 H :    0.129440
  36 H :    0.112450
  37 H :    0.108979
  38 H :    0.111744
  39 H :    0.128145
  40 H :    0.127883
Sum of atomic charges:   -0.0000000

LOEWDIN ATOMIC CHARGES
----------------------
   0 C :   -0.365395
   1 C :   -0.122318
   2 O :   -0.252411
   3 P :    0.572713
   4 S :   -0.304655
   5 O :   -0.240135
   6 C :   -0.117146
   7 C :   -0.361843
   8 S :    0.093328
   9 C :   -0.487759
  10 S :    0.066564
  11 P :    0.568274
  12 S :   -0.306837
  13 O :   -0.232246
  14 C :   -0.117187
  15 C :   -0.353525
  16 O :   -0.247623
  17 C :   -0.114079
  18 C :   -0.368963
  19 H :    0.126550
  20 H :    0.121535
  21 H :    0.132602
  22 H :    0.113787
  23 H :    0.110660
  24 H :    0.109176
  25 H :    0.122996
  26 H :    0.132959
  27 H :    0.120720
  28 H :    0.133016
  29 H :    0.129846
  30 H :    0.129247
  31 H :    0.113458
  32 H :    0.105384
  33 H :    0.129488
  34 H :    0.126334
  35 H :    0.120329
  36 H :    0.107970
  37 H :    0.121098
  38 H :    0.130350
  39 H :    0.131141
  40 H :    0.122596

  Mayer bond orders larger than 0.100000
B(  0-C ,  1-C ) :   1.1626 B(  0-C , 19-H ) :   0.9345 B(  0-C , 20-H ) :   0.9464
B(  0-C , 21-H ) :   0.9398 B(  1-C ,  2-O ) :   0.9042 B(  1-C , 22-H ) :   0.9298
B(  1-C , 23-H ) :   0.9124 B(  2-O ,  3-P ) :   1.0607 B(  3-P ,  4-S ) :   1.6329
B(  3-P ,  5-O ) :   1.1277 B(  3-P ,  8-S ) :   0.9667 B(  4-S ,  8-S ) :   0.1041
B(  5-O ,  6-C ) :   0.8990 B(  6-C ,  7-C ) :   1.1717 B(  6-C , 24-H ) :   0.9093
B(  6-C , 25-H ) :   0.9323 B(  7-C , 26-H ) :   0.9445 B(  7-C , 27-H ) :   0.9285
B(  7-C , 28-H ) :   0.9380 B(  8-S ,  9-C ) :   1.0036 B(  9-C , 10-S ) :   1.0083
B(  9-C , 29-H ) :   0.8709 B(  9-C , 30-H ) :   0.8636 B( 10-S , 11-P ) :   0.9380
B( 10-S , 12-S ) :   0.1088 B( 11-P , 12-S ) :   1.6485 B( 11-P , 13-O ) :   1.1434
B( 11-P , 16-O ) :   1.0866 B( 13-O , 14-C ) :   0.8873 B( 14-C , 15-C ) :   1.1686
B( 14-C , 31-H ) :   0.9303 B( 14-C , 32-H ) :   0.9038 B( 15-C , 33-H ) :   0.9465
B( 15-C , 34-H ) :   0.9407 B( 15-C , 35-H ) :   0.9327 B( 16-O , 17-C ) :   0.9134
B( 17-C , 18-C ) :   1.1669 B( 17-C , 36-H ) :   0.9268 B( 17-C , 37-H ) :   0.9334
B( 18-C , 38-H ) :   0.9348 B( 18-C , 39-H ) :   0.9432 B( 18-C , 40-H ) :   0.9320

Dispersion correction           -0.066254077
FINAL SINGLE POINT ENERGY     -2929.518630225695

DIPOLE MOMENT
-------------

Method             : SCF
Type of density    : Electron Density
Multiplicity       :   1
Irrep              :   0
Energy             : -2929.6387319441896580 Eh
Relativity type    :
Basis              : AO
                                X                 Y                 Z
Electronic contribution:     -4.295565472       5.300755385     -17.562578078
Nuclear contribution   :      4.649278319      -6.388816874      19.520757562
                        -----------------------------------------
Total Dipole Moment    :      0.353712847      -1.088061488       1.958179484
                        -----------------------------------------
Magnitude (a.u.)       :      2.267919194
Magnitude (Debye)      :      5.764592472

Rotational constants in cm-1:             0.012265             0.005030             0.004799
Rotational constants in MHz :           367.691369           150.806988           143.863715

                             ****ORCA TERMINATED NORMALLY****
TOTAL RUN TIME: 0 days 0 hours 0 minutes 21 seconds 499 msec
