                         Program Version 6.0.0  -   RELEASE  -
|  1> ! pbe def2-sv(p) def2/J RI DEFGRID1 loosescf d4 GCP(DFT/SV(P)) printgap
|  2> %output
|  3>     printlevel normal
|  4> end
|  5> * xyz 0 1
|  6> C 1.4126205513 2.1810073772 2.1728798099
|  7> C 2.7856931409 1.5714189566 2.3741040251
|  8> O 3.3304365648 1.048409357 1.149546362
|  9> P 2.8566800739 -0.3202764953 0.5132670816
| 10> S 2.5077734614 -1.7864493394 1.7752417347
| 11> O 4.1203494432 -0.4935565878 -0.4256114431
| 12> C 4.486502811 -1.7601762069 -0.9987173174
| 13> C 3.482535138 -2.2464316457 -2.0256797968
| 14> S 1.2692212895 0.1673010793 -0.8283022122
| 15> C -0.0363981276 -0.9218893288 -0.1842440052
| 16> S -1.2998892714 -0.0551292935 0.7772018683
| 17> P -2.7810500702 0.210320572 -0.745909619
| 18> S -2.327028852 -0.4182618164 -2.5392487928
| 19> O -3.2211686686 1.7389573143 -0.6377845954
| 20> C -2.5686414095 2.7983166104 -1.3567472449
| 21> C -1.1903637906 3.1018965134 -0.8049269446
| 22> O -4.0601740769 -0.5126223477 -0.1763058098
| 23> C -4.5818330497 -0.2676679084 1.1569153777
| 24> C -4.4396397208 -1.5191620678 1.9995667834
| 25> H 1.115217341 2.6973510845 3.0799255702
| 26> H 1.4358732317 2.8870188132 1.3465787825
| 27> H 0.6797365187 1.4044556287 1.9572722383
| 28> H 2.7503084974 0.7662443938 3.1155975357
| 29> H 3.5148249199 2.3225982215 2.6821092171
| 30> H 5.4600288677 -1.5678642101 -1.4519877153
| 31> H 4.5930244755 -2.4904184124 -0.1897934481
| 32> H 3.8774406836 -3.126291179 -2.5237179008
| 33> H 2.5442644694 -2.5112440165 -1.5393536625
| 34> H 3.2894951398 -1.471593965 -2.7636818743
| 35> H 0.4216671745 -1.6588221774 0.4789273784
| 36> H -0.5166029152 -1.3903608723 -1.0436330665
| 37> H -2.5102227244 2.5168541698 -2.4129053111
| 38> H -3.2444705653 3.6466251276 -1.2368096096
| 39> H -1.2402622898 3.2516463825 0.270750518
| 40> H -0.508256955 2.2803706225 -1.0203356064
| 41> H -0.8081180928 4.0015280147 -1.2764901881
| 42> H -4.0493938699 0.5753601758 1.6023079649
| 43> H -5.6299413075 -0.0032486747 1.0092636325
| 44> H -3.3899548659 -1.7536932671 2.1587565138
| 45> H -4.9161895698 -1.3561067238 2.9608962495
| 46> H -4.9158484037 -2.3584709668 1.5004781682
| 47> *
| 48>
| 49>                          ****END OF INPUT****

CARTESIAN COORDINATES (ANGSTROEM)
---------------------------------
  C      1.412621    2.181007    2.172880
  C      2.785693    1.571419    2.374104
  O      3.330437    1.048409    1.149546
  P      2.856680   -0.320276    0.513267
  S      2.507773   -1.786449    1.775242
  O      4.120349   -0.493557   -0.425611
  C      4.486503   -1.760176   -0.998717
  C      3.482535   -2.246432   -2.025680
  S      1.269221    0.167301   -0.828302
  C     -0.036398   -0.921889   -0.184244
  S     -1.299889   -0.055129    0.777202
  P     -2.781050    0.210321   -0.745910
  S     -2.327029   -0.418262   -2.539249
  O     -3.221169    1.738957   -0.637785
  C     -2.568641    2.798317   -1.356747
  C     -1.190364    3.101897   -0.804927
  O     -4.060174   -0.512622   -0.176306
  C     -4.581833   -0.267668    1.156915
  C     -4.439640   -1.519162    1.999567
  H      1.115217    2.697351    3.079926
  H      1.435873    2.887019    1.346579
  H      0.679737    1.404456    1.957272
  H      2.750308    0.766244    3.115598
  H      3.514825    2.322598    2.682109
  H      5.460029   -1.567864   -1.451988
  H      4.593024   -2.490418   -0.189793
  H      3.877441   -3.126291   -2.523718
  H      2.544264   -2.511244   -1.539354
  H      3.289495   -1.471594   -2.763682
  H      0.421667   -1.658822    0.478927
  H     -0.516603   -1.390361   -1.043633
  H     -2.510223    2.516854   -2.412905
  H     -3.244471    3.646625   -1.236810
  H     -1.240262    3.251646    0.270751
  H     -0.508257    2.280371   -1.020336
  H     -0.808118    4.001528   -1.276490
  H     -4.049394    0.575360    1.602308
  H     -5.629941   -0.003249    1.009264
  H     -3.389955   -1.753693    2.158757
  H     -4.916190   -1.356107    2.960896
  H     -4.915848   -2.358471    1.500478

 Total Charge           Charge          ....    0
 Multiplicity           Mult            ....    1
 Number of Electrons    NEL             ....  202
 Basis Dimension        Dim             ....  334

ORBITAL ENERGIES
----------------

  NO   OCC          E(Eh)            E(eV)
   0   2.0000     -88.046747     -2395.8738
   1   2.0000     -88.045548     -2395.8412
   2   2.0000     -87.996911     -2394.5177
   3   2.0000     -87.992590     -2394.4001
   4   2.0000     -76.430031     -2079.7669
   5   2.0000     -76.429038     -2079.7399
   6   2.0000     -18.793735      -511.4035
   7   2.0000     -18.792759      -511.3770
   8   2.0000     -18.790688      -511.3206
   9   2.0000     -18.790557      -511.3171
  10   2.0000      -9.960837      -271.0482
  11   2.0000      -9.953922      -270.8600
  12   2.0000      -9.953871      -270.8586
  13   2.0000      -9.953834      -270.8576
  14   2.0000      -9.951733      -270.8004
  15   2.0000      -9.887862      -269.0624
  16   2.0000      -9.884395      -268.9681
  17   2.0000      -9.884238      -268.9638
  18   2.0000      -9.883608      -268.9466
  19   2.0000      -7.690930      -209.2808
  20   2.0000      -7.689792      -209.2499
  21   2.0000      -7.641682      -207.9407
  22   2.0000      -7.637776      -207.8345
  23   2.0000      -6.427532      -174.9020
  24   2.0000      -6.426767      -174.8812
  25   2.0000      -5.718686      -155.6133
  26   2.0000      -5.717576      -155.5832
  27   2.0000      -5.715466      -155.5257
  28   2.0000      -5.714311      -155.4943
  29   2.0000      -5.708108      -155.3255
  30   2.0000      -5.706959      -155.2943
  31   2.0000      -5.670349      -154.2980
  32   2.0000      -5.666773      -154.2007
  33   2.0000      -5.662262      -154.0780
  34   2.0000      -5.662176      -154.0756
  35   2.0000      -5.658244      -153.9687
  36   2.0000      -5.657979      -153.9614
  37   2.0000      -4.649653      -126.5235
  38   2.0000      -4.649476      -126.5187
  39   2.0000      -4.649426      -126.5173
  40   2.0000      -4.648367      -126.4885
  41   2.0000      -4.648170      -126.4831
  42   2.0000      -4.647289      -126.4592
  43   2.0000      -0.990313       -26.9478
  44   2.0000      -0.989717       -26.9316
  45   2.0000      -0.945961       -25.7409
  46   2.0000      -0.945922       -25.7399
  47   2.0000      -0.761937       -20.7334
  48   2.0000      -0.723573       -19.6894
  49   2.0000      -0.714045       -19.4302
  50   2.0000      -0.690323       -18.7846
  51   2.0000      -0.684178       -18.6174
  52   2.0000      -0.681737       -18.5510
  53   2.0000      -0.654665       -17.8143
  54   2.0000      -0.641889       -17.4667
  55   2.0000      -0.607075       -16.5194
  56   2.0000      -0.593966       -16.1626
  57   2.0000      -0.577770       -15.7219
  58   2.0000      -0.570243       -15.5171
  59   2.0000      -0.559082       -15.2134
  60   2.0000      -0.506073       -13.7710
  61   2.0000      -0.496569       -13.5123
  62   2.0000      -0.475270       -12.9327
  63   2.0000      -0.468606       -12.7514
  64   2.0000      -0.461567       -12.5599
  65   2.0000      -0.449708       -12.2372
  66   2.0000      -0.443568       -12.0701
  67   2.0000      -0.439422       -11.9573
  68   2.0000      -0.432541       -11.7700
  69   2.0000      -0.422425       -11.4948
  70   2.0000      -0.410899       -11.1811
  71   2.0000      -0.398215       -10.8360
  72   2.0000      -0.396541       -10.7904
  73   2.0000      -0.390359       -10.6222
  74   2.0000      -0.383233       -10.4283
  75   2.0000      -0.371530       -10.1099
  76   2.0000      -0.370143       -10.0721
  77   2.0000      -0.358428        -9.7533
  78   2.0000      -0.354470        -9.6456
  79   2.0000      -0.353060        -9.6073
  80   2.0000      -0.348303        -9.4778
  81   2.0000      -0.347729        -9.4622
  82   2.0000      -0.342560        -9.3215
  83   2.0000      -0.340826        -9.2744
  84   2.0000      -0.338620        -9.2143
  85   2.0000      -0.317815        -8.6482
  86   2.0000      -0.312021        -8.4905
  87   2.0000      -0.303137        -8.2488
  88   2.0000      -0.301249        -8.1974
  89   2.0000      -0.297606        -8.0983
  90   2.0000      -0.290130        -7.8948
  91   2.0000      -0.274618        -7.4727
  92   2.0000      -0.269501        -7.3335
  93   2.0000      -0.266922        -7.2633
  94   2.0000      -0.259228        -7.0540
  95   2.0000      -0.229354        -6.2410
  96   2.0000      -0.222736        -6.0610
  97   2.0000      -0.217459        -5.9174
  98   2.0000      -0.213631        -5.8132
  99   2.0000      -0.209369        -5.6972
 100   2.0000      -0.206473        -5.6184
 101   0.0000      -0.046661        -1.2697
 102   0.0000      -0.040984        -1.1152
 103   0.0000      -0.019894        -0.5413
 104   0.0000       0.002682         0.0730
 105   0.0000       0.009081         0.2471

MULLIKEN ATOMIC CHARGES
-----------------------
   0 C :   -0.332163
   1 C :    0.001630
   2 O :   -0.354900
   3 P :    0.598119
   4 S :   -0.329737
   5 O :   -0.358355
   6 C :    0.000223
   7 C :   -0.315908
   8 S :   -0.088408
   9 C :   -0.353032
  10 S :   -0.116645
  11 P :    0.596527
  12 S :   -0.300538
  13 O :   -0.378845
  14 C :    0.004070
  15 C :   -0.338294
  16 O :   -0.356610
  17 C :   -0.017950
  18 C :   -0.283525
  19 H :    0.109684
  20 H :    0.123839
  21 H :    0.136578
  22 H :    0.110103
  23 H :    0.107186
  24 H :    0.108622
  25 H :    0.112305
  26 H :    0.113893
  27 H :    0.122893
  28 H :    0.123889
  29 H :    0.194183
  30 H :    0.194494
  31 H :    0.111261
  32 H :    0.104024
  33 H :    0.119386
  34 H :    0.144349
  35 H :    0.111630
  36 H :    0.107956
  37 H :    0.114902
  38 H :    0.121417
  39 H :    0.109701
  40 H :    0.122043
Sum of atomic charges:    0.0000000

LOEWDIN ATOMIC CHARGES
----------------------
   0 C :   -0.370244
   1 C :   -0.115613
   2 O :   -0.235017
   3 P :    0.571543
   4 S :   -0.308769
   5 O :   -0.236171
   6 C :   -0.115625
   7 C :   -0.368685
   8 S :    0.094732
   9 C :   -0.490516
  10 S :    0.080579
  11 P :    0.567513
  12 S :   -0.293888
  13 O :   -0.250317
  14 C :   -0.115884
  15 C :   -0.372479
  16 O :   -0.239699
  17 C :   -0.112077
  18 C :   -0.358238
  19 H :    0.129878
  20 H :    0.127191
  21 H :    0.110947
  22 H :    0.109654
  23 H :    0.119823
  24 H :    0.120794
  25 H :    0.111407
  26 H :    0.131132
  27 H :    0.120006
  28 H :    0.126978
  29 H :    0.123100
  30 H :    0.126088
  31 H :    0.111840
  32 H :    0.118282
  33 H :    0.124312
  34 H :    0.113037
  35 H :    0.130806
  36 H :    0.107195
  37 H :    0.123215
  38 H :    0.123033
  39 H :    0.129687
  40 H :    0.130450

  Mayer bond orders larger than 0.100000
B(  0-C ,  1-C ) :   1.1608 B(  0-C , 19-H ) :   0.9377 B(  0-C , 20-H ) :   0.9424
B(  0-C , 21-H ) :   0.9297 B(  1-C ,  2-O ) :   0.9159 B(  1-C , 22-H ) :   0.9153
B(  1-C , 23-H ) :   0.9339 B(  2-O ,  3-P ) :   1.1324 B(  3-P ,  4-S ) :   1.5835
B(  3-P ,  5-O ) :   1.1298 B(  3-P ,  8-S ) :   0.9495 B(  4-S ,  8-S ) :   0.1223
B(  4-S , 29-H ) :   0.1132 B(  5-O ,  6-C ) :   0.9145 B(  6-C ,  7-C ) :   1.1632
B(  6-C , 24-H ) :   0.9344 B(  6-C , 25-H ) :   0.9193 B(  7-C , 26-H ) :   0.9375
B(  7-C , 27-H ) :   0.9405 B(  7-C , 28-H ) :   0.9424 B(  8-S ,  9-C ) :   1.0134
B(  9-C , 10-S ) :   1.0179 B(  9-C , 29-H ) :   0.8496 B(  9-C , 30-H ) :   0.8603
B( 10-S , 11-P ) :   0.9340 B( 10-S , 12-S ) :   0.1125 B( 11-P , 12-S ) :   1.6419
B( 11-P , 13-O ) :   1.0906 B( 11-P , 16-O ) :   1.1455 B( 13-O , 14-C ) :   0.9124
B( 14-C , 15-C ) :   1.1622 B( 14-C , 31-H ) :   0.9169 B( 14-C , 32-H ) :   0.9340
B( 15-C , 33-H ) :   0.9424 B( 15-C , 34-H ) :   0.9259 B( 15-C , 35-H ) :   0.9371
B( 16-O , 17-C ) :   0.8863 B( 17-C , 18-C ) :   1.1633 B( 17-C , 36-H ) :   0.9185
B( 17-C , 37-H ) :   0.9337 B( 18-C , 38-H ) :   0.9405 B( 18-C , 39-H ) :   0.9398
B( 18-C , 40-H ) :   0.9460

Dispersion correction           -0.063330324
FINAL SINGLE POINT ENERGY     -2929.520605858404

DIPOLE MOMENT
-------------

Method             : SCF
Type of density    : Electron Density
Multiplicity       :   1
Irrep              :   0
Energy             : -2929.6414835399796175 Eh
Relativity type    :
Basis              : AO
                                X                 Y                 Z
Electronic contribution:      1.835754275      -5.557634354      -5.824042281
Nuclear contribution   :     -1.990205025       6.435241763       6.519776766
                        -----------------------------------------
Total Dipole Moment    :     -0.154450750       0.877607409       0.695734485
                        -----------------------------------------
Magnitude (a.u.)       :      1.130529200
Magnitude (Debye)      :      2.873576860

Rotational constants in cm-1:             0.011806             0.004295             0.004196
Rotational constants in MHz :           353.946064           128.773990           125.802791

                             ****ORCA TERMINATED NORMALLY****
TOTAL RUN TIME: 0 days 0 hours 0 minutes 20 seconds 661 msec
