                         Program Version 6.0.1  -  RELEASE   -
|  1> ! r2scan-3c def2/J RI DEFGRID2 scfconv6 printgap
|  2> %output
|  3>     printlevel normal
|  4> end
|  5> * xyz 0 1
|  6> C 4.8759639505 -3.3760722127 -1.1533106522
|  7> C 5.0136579746 -2.0552424789 -0.4132420499
|  8> O 3.8881960835 -1.8363641624 0.4606848284
|  9> C 2.8194952616 -1.2399571991 -0.0219796544
| 10> O 2.7075364997 -0.834423661 -1.1610435815
| 11> C 1.7400016482 -1.0921741753 1.0302944034
| 12> C 0.4747866227 -0.5916130765 0.360906445
| 13> H 0.0375831464 -1.3386775277 -0.3087722086
| 14> C 0.6707124697 0.6910024443 -0.4190827226
| 15> O -0.0212669352 0.9716540015 -1.3766602504
| 16> O 1.5712918714 1.4783126178 0.1185311213
| 17> C 1.7264488648 2.8053864279 -0.4225450616
| 18> C 0.8246324362 3.7784758454 0.3204651659
| 19> S -0.8027643088 -0.1386959651 1.5948408522
| 20> P -2.3737174874 0.1823528931 0.2369659596
| 21> S -2.5549252371 -1.0617209641 -1.2714215163
| 22> O -3.6543070734 0.1865982881 1.1946205593
| 23> C -4.2210813695 -1.0325767012 1.6901703049
| 24> O -2.2886018767 1.7430026091 -0.0589699951
| 25> C -2.8766031216 2.3072728546 -1.2425987714
| 26> H 4.0102066549 -3.3477232558 -1.81148461
| 27> H 5.7653894118 -3.547400511 -1.7505469834
| 28> H 4.7563927687 -4.19131872 -0.4453375041
| 29> H 5.0764873136 -1.2210536311 -1.1176640672
| 30> H 5.876969772 -2.0603513129 0.2521076032
| 31> H 2.0853751168 -0.3753848106 1.7775328196
| 32> H 1.5713607037 -2.0476618199 1.5253834237
| 33> H 2.7803425922 3.0423508443 -0.2763505379
| 34> H 1.4874131118 2.7761070894 -1.4890852621
| 35> H 1.0765879402 3.7896776479 1.3771963691
| 36> H 0.9510678066 4.7737888073 -0.0919826301
| 37> H -0.2156167959 3.4770778042 0.2126306531
| 38> H -5.2201218384 -0.7746080218 2.031897087
| 39> H -3.6177391798 -1.4109997896 2.5142887509
| 40> H -4.2692722015 -1.7734801648 0.8900367485
| 41> H -3.9424243965 2.0867937634 -1.2783630785
| 42> H -2.3784018729 1.9014879243 -2.124089423
| 43> H -2.7067640614 3.3781967191 -1.1668852148
| 44> *
| 45>
| 46>                          ****END OF INPUT****

CARTESIAN COORDINATES (ANGSTROEM)
---------------------------------
  C      4.875964   -3.376072   -1.153311
  C      5.013658   -2.055242   -0.413242
  O      3.888196   -1.836364    0.460685
  C      2.819495   -1.239957   -0.021980
  O      2.707536   -0.834424   -1.161044
  C      1.740002   -1.092174    1.030294
  C      0.474787   -0.591613    0.360906
  H      0.037583   -1.338678   -0.308772
  C      0.670712    0.691002   -0.419083
  O     -0.021267    0.971654   -1.376660
  O      1.571292    1.478313    0.118531
  C      1.726449    2.805386   -0.422545
  C      0.824632    3.778476    0.320465
  S     -0.802764   -0.138696    1.594841
  P     -2.373717    0.182353    0.236966
  S     -2.554925   -1.061721   -1.271422
  O     -3.654307    0.186598    1.194621
  C     -4.221081   -1.032577    1.690170
  O     -2.288602    1.743003   -0.058970
  C     -2.876603    2.307273   -1.242599
  H      4.010207   -3.347723   -1.811485
  H      5.765389   -3.547401   -1.750547
  H      4.756393   -4.191319   -0.445338
  H      5.076487   -1.221054   -1.117664
  H      5.876970   -2.060351    0.252108
  H      2.085375   -0.375385    1.777533
  H      1.571361   -2.047662    1.525383
  H      2.780343    3.042351   -0.276351
  H      1.487413    2.776107   -1.489085
  H      1.076588    3.789678    1.377196
  H      0.951068    4.773789   -0.091983
  H     -0.215617    3.477078    0.212631
  H     -5.220122   -0.774608    2.031897
  H     -3.617739   -1.411000    2.514289
  H     -4.269272   -1.773480    0.890037
  H     -3.942424    2.086794   -1.278363
  H     -2.378402    1.901488   -2.124089
  H     -2.706764    3.378197   -1.166885

 Total Charge           Charge          ....    0
 Multiplicity           Mult            ....    1
 Number of Electrons    NEL             ....  174
 Basis Dimension        Dim             ....  510

ORBITAL ENERGIES
----------------

  NO   OCC          E(Eh)            E(eV)
   0   2.0000     -88.579076     -2410.3592
   1   2.0000     -88.509790     -2408.4738
   2   2.0000     -76.907937     -2092.7713
   3   2.0000     -19.010741      -517.3086
   4   2.0000     -18.997374      -516.9448
   5   2.0000     -18.985214      -516.6139
   6   2.0000     -18.983254      -516.5606
   7   2.0000     -18.943705      -515.4844
   8   2.0000     -18.923228      -514.9272
   9   2.0000     -10.169453      -276.7249
  10   2.0000     -10.155118      -276.3348
  11   2.0000     -10.101368      -274.8722
  12   2.0000     -10.090453      -274.5752
  13   2.0000     -10.090270      -274.5702
  14   2.0000     -10.085802      -274.4486
  15   2.0000     -10.082477      -274.3581
  16   2.0000     -10.065524      -273.8968
  17   2.0000     -10.035899      -273.0907
  18   2.0000     -10.025967      -272.8204
  19   2.0000      -7.873270      -214.2426
  20   2.0000      -7.804409      -212.3688
  21   2.0000      -6.586207      -179.2198
  22   2.0000      -5.819946      -158.3688
  23   2.0000      -5.817326      -158.2975
  24   2.0000      -5.810421      -158.1096
  25   2.0000      -5.752214      -156.5257
  26   2.0000      -5.744910      -156.3269
  27   2.0000      -5.744070      -156.3041
  28   2.0000      -4.731562      -128.7524
  29   2.0000      -4.731181      -128.7420
  30   2.0000      -4.730038      -128.7109
  31   2.0000      -1.087998       -29.6059
  32   2.0000      -1.075315       -29.2608
  33   2.0000      -1.041245       -28.3337
  34   2.0000      -1.001137       -27.2423
  35   2.0000      -0.992128       -26.9972
  36   2.0000      -0.975286       -26.5389
  37   2.0000      -0.812812       -22.1177
  38   2.0000      -0.760688       -20.6994
  39   2.0000      -0.742193       -20.1961
  40   2.0000      -0.729934       -19.8625
  41   2.0000      -0.695558       -18.9271
  42   2.0000      -0.662016       -18.0144
  43   2.0000      -0.659574       -17.9479
  44   2.0000      -0.647034       -17.6067
  45   2.0000      -0.632088       -17.2000
  46   2.0000      -0.596993       -16.2450
  47   2.0000      -0.537711       -14.6318
  48   2.0000      -0.532211       -14.4822
  49   2.0000      -0.521313       -14.1856
  50   2.0000      -0.497624       -13.5410
  51   2.0000      -0.488184       -13.2842
  52   2.0000      -0.482174       -13.1206
  53   2.0000      -0.462727       -12.5915
  54   2.0000      -0.455323       -12.3900
  55   2.0000      -0.453054       -12.3282
  56   2.0000      -0.447511       -12.1774
  57   2.0000      -0.441082       -12.0025
  58   2.0000      -0.432258       -11.7624
  59   2.0000      -0.425123       -11.5682
  60   2.0000      -0.418867       -11.3979
  61   2.0000      -0.414375       -11.2757
  62   2.0000      -0.409668       -11.1476
  63   2.0000      -0.402312       -10.9475
  64   2.0000      -0.389636       -10.6025
  65   2.0000      -0.384398       -10.4600
  66   2.0000      -0.379343       -10.3225
  67   2.0000      -0.368564       -10.0291
  68   2.0000      -0.365518        -9.9462
  69   2.0000      -0.353433        -9.6174
  70   2.0000      -0.350845        -9.5470
  71   2.0000      -0.344735        -9.3807
  72   2.0000      -0.338470        -9.2102
  73   2.0000      -0.321058        -8.7364
  74   2.0000      -0.316638        -8.6162
  75   2.0000      -0.315949        -8.5974
  76   2.0000      -0.306746        -8.3470
  77   2.0000      -0.301785        -8.2120
  78   2.0000      -0.286032        -7.7833
  79   2.0000      -0.282743        -7.6938
  80   2.0000      -0.274748        -7.4763
  81   2.0000      -0.264460        -7.1963
  82   2.0000      -0.252492        -6.8707
  83   2.0000      -0.248855        -6.7717
  84   2.0000      -0.234295        -6.3755
  85   2.0000      -0.210020        -5.7149
  86   2.0000      -0.199456        -5.4275
  87   0.0000      -0.048324        -1.3150
  88   0.0000      -0.026751        -0.7279
  89   0.0000      -0.009748        -0.2653
  90   0.0000       0.019149         0.5211
  91   0.0000       0.021255         0.5784

MULLIKEN ATOMIC CHARGES
-----------------------
   0 C :   -0.465164
   1 C :   -0.138651
   2 O :   -0.166466
   3 C :    0.386982
   4 O :   -0.414472
   5 C :   -0.373357
   6 C :   -0.096958
   7 H :    0.248596
   8 C :    0.316030
   9 O :   -0.381969
  10 O :   -0.134393
  11 C :   -0.151584
  12 C :   -0.461905
  13 S :   -0.169792
  14 P :    0.739503
  15 S :   -0.454937
  16 O :   -0.326853
  17 C :   -0.292648
  18 O :   -0.316320
  19 C :   -0.295195
  20 H :    0.173277
  21 H :    0.149876
  22 H :    0.153762
  23 H :    0.169497
  24 H :    0.151043
  25 H :    0.196241
  26 H :    0.180229
  27 H :    0.148649
  28 H :    0.178838
  29 H :    0.151134
  30 H :    0.146329
  31 H :    0.175558
  32 H :    0.150845
  33 H :    0.152896
  34 H :    0.179439
  35 H :    0.151901
  36 H :    0.194428
  37 H :    0.145612
Sum of atomic charges:   -0.0000000

LOEWDIN ATOMIC CHARGES
----------------------
   0 C :   -0.387381
   1 C :    0.031594
   2 O :   -0.576838
   3 C :    0.374842
   4 O :   -0.418207
   5 C :   -0.209258
   6 C :   -0.187017
   7 H :    0.209520
   8 C :    0.339283
   9 O :   -0.430012
  10 O :   -0.585663
  11 C :    0.036438
  12 C :   -0.388532
  13 S :    0.218727
  14 P :    0.386667
  15 S :   -0.105042
  16 O :   -0.674915
  17 C :   -0.061070
  18 O :   -0.670858
  19 C :   -0.053992
  20 H :    0.165861
  21 H :    0.160851
  22 H :    0.158186
  23 H :    0.189251
  24 H :    0.179437
  25 H :    0.201240
  26 H :    0.188537
  27 H :    0.177552
  28 H :    0.192516
  29 H :    0.157921
  30 H :    0.157889
  31 H :    0.171423
  32 H :    0.176353
  33 H :    0.166422
  34 H :    0.177984
  35 H :    0.168916
  36 H :    0.185614
  37 H :    0.175760

  Mayer bond orders larger than 0.100000
B(  0-C ,  1-C ) :   0.9445 B(  0-C , 20-H ) :   0.9691 B(  0-C , 21-H ) :   0.9637
B(  0-C , 22-H ) :   0.9732 B(  1-C ,  2-O ) :   0.7974 B(  1-C , 23-H ) :   0.9659
B(  1-C , 24-H ) :   0.9613 B(  2-O ,  3-C ) :   1.1361 B(  3-C ,  4-O ) :   1.7760
B(  3-C ,  5-C ) :   0.9994 B(  4-O ,  8-C ) :   0.1037 B(  5-C ,  6-C ) :   0.9715
B(  5-C , 10-O ) :   0.1208 B(  5-C , 25-H ) :   0.9497 B(  5-C , 26-H ) :   0.9307
B(  6-C ,  7-H ) :   0.9579 B(  6-C ,  8-C ) :   0.8705 B(  6-C , 13-S ) :   0.8515
B(  8-C ,  9-O ) :   1.8236 B(  8-C , 10-O ) :   1.1031 B( 10-O , 11-C ) :   0.7938
B( 11-C , 12-C ) :   0.9298 B( 11-C , 27-H ) :   0.9627 B( 11-C , 28-H ) :   0.9759
B( 12-C , 29-H ) :   0.9714 B( 12-C , 30-H ) :   0.9680 B( 12-C , 31-H ) :   0.9671
B( 13-S , 14-P ) :   1.0625 B( 14-P , 15-S ) :   1.7772 B( 14-P , 16-O ) :   1.0676
B( 14-P , 18-O ) :   1.1689 B( 16-O , 17-C ) :   0.8330 B( 17-C , 32-H ) :   0.9674
B( 17-C , 33-H ) :   0.9608 B( 17-C , 34-H ) :   0.9589 B( 18-O , 19-C ) :   0.8072
B( 19-C , 35-H ) :   0.9608 B( 19-C , 36-H ) :   0.9537 B( 19-C , 37-H ) :   0.9667

Dispersion correction           -0.017068835
FINAL SINGLE POINT ENERGY     -1981.453602290466

DIPOLE MOMENT
-------------

Method             : SCF
Type of density    : Electron Density
Multiplicity       :   1
Irrep              :   0
Energy             : -1981.4737187615496623 Eh
Relativity type    :
Basis              : AO
                                X                 Y                 Z
Electronic contribution:    -13.394167546      -2.644845088       2.445601380
Nuclear contribution   :     14.564101917       2.839999908      -1.433658345
                        -----------------------------------------
Total Dipole Moment    :      1.169934371       0.195154820       1.011943035
                        -----------------------------------------
Magnitude (a.u.)       :      1.559121722
Magnitude (Debye)      :      3.962972474

Rotational constants in cm-1:             0.015294             0.005804             0.005006
Rotational constants in MHz :           458.510094           173.986357           150.063171

                             ****ORCA TERMINATED NORMALLY****
TOTAL RUN TIME: 0 days 0 hours 1 minutes 21 seconds 899 msec
