                         Program Version 6.0.1  -  RELEASE   -
|  1> ! r2scan-3c def2/J RI DEFGRID2 scfconv6 printgap
|  2> %output
|  3>     printlevel normal
|  4> end
|  5> %cpcm
|  6>     smd true
|  7>     smdsolvent "water"
|  8> end
|  9> * xyz 0 1
| 10> C 4.8759639505 -3.3760722127 -1.1533106522
| 11> C 5.0136579746 -2.0552424789 -0.4132420499
| 12> O 3.8881960835 -1.8363641624 0.4606848284
| 13> C 2.8194952616 -1.2399571991 -0.0219796544
| 14> O 2.7075364997 -0.834423661 -1.1610435815
| 15> C 1.7400016482 -1.0921741753 1.0302944034
| 16> C 0.4747866227 -0.5916130765 0.360906445
| 17> H 0.0375831464 -1.3386775277 -0.3087722086
| 18> C 0.6707124697 0.6910024443 -0.4190827226
| 19> O -0.0212669352 0.9716540015 -1.3766602504
| 20> O 1.5712918714 1.4783126178 0.1185311213
| 21> C 1.7264488648 2.8053864279 -0.4225450616
| 22> C 0.8246324362 3.7784758454 0.3204651659
| 23> S -0.8027643088 -0.1386959651 1.5948408522
| 24> P -2.3737174874 0.1823528931 0.2369659596
| 25> S -2.5549252371 -1.0617209641 -1.2714215163
| 26> O -3.6543070734 0.1865982881 1.1946205593
| 27> C -4.2210813695 -1.0325767012 1.6901703049
| 28> O -2.2886018767 1.7430026091 -0.0589699951
| 29> C -2.8766031216 2.3072728546 -1.2425987714
| 30> H 4.0102066549 -3.3477232558 -1.81148461
| 31> H 5.7653894118 -3.547400511 -1.7505469834
| 32> H 4.7563927687 -4.19131872 -0.4453375041
| 33> H 5.0764873136 -1.2210536311 -1.1176640672
| 34> H 5.876969772 -2.0603513129 0.2521076032
| 35> H 2.0853751168 -0.3753848106 1.7775328196
| 36> H 1.5713607037 -2.0476618199 1.5253834237
| 37> H 2.7803425922 3.0423508443 -0.2763505379
| 38> H 1.4874131118 2.7761070894 -1.4890852621
| 39> H 1.0765879402 3.7896776479 1.3771963691
| 40> H 0.9510678066 4.7737888073 -0.0919826301
| 41> H -0.2156167959 3.4770778042 0.2126306531
| 42> H -5.2201218384 -0.7746080218 2.031897087
| 43> H -3.6177391798 -1.4109997896 2.5142887509
| 44> H -4.2692722015 -1.7734801648 0.8900367485
| 45> H -3.9424243965 2.0867937634 -1.2783630785
| 46> H -2.3784018729 1.9014879243 -2.124089423
| 47> H -2.7067640614 3.3781967191 -1.1668852148
| 48> *
| 49>
| 50>                          ****END OF INPUT****

CARTESIAN COORDINATES (ANGSTROEM)
---------------------------------
  C      4.875964   -3.376072   -1.153311
  C      5.013658   -2.055242   -0.413242
  O      3.888196   -1.836364    0.460685
  C      2.819495   -1.239957   -0.021980
  O      2.707536   -0.834424   -1.161044
  C      1.740002   -1.092174    1.030294
  C      0.474787   -0.591613    0.360906
  H      0.037583   -1.338678   -0.308772
  C      0.670712    0.691002   -0.419083
  O     -0.021267    0.971654   -1.376660
  O      1.571292    1.478313    0.118531
  C      1.726449    2.805386   -0.422545
  C      0.824632    3.778476    0.320465
  S     -0.802764   -0.138696    1.594841
  P     -2.373717    0.182353    0.236966
  S     -2.554925   -1.061721   -1.271422
  O     -3.654307    0.186598    1.194621
  C     -4.221081   -1.032577    1.690170
  O     -2.288602    1.743003   -0.058970
  C     -2.876603    2.307273   -1.242599
  H      4.010207   -3.347723   -1.811485
  H      5.765389   -3.547401   -1.750547
  H      4.756393   -4.191319   -0.445338
  H      5.076487   -1.221054   -1.117664
  H      5.876970   -2.060351    0.252108
  H      2.085375   -0.375385    1.777533
  H      1.571361   -2.047662    1.525383
  H      2.780343    3.042351   -0.276351
  H      1.487413    2.776107   -1.489085
  H      1.076588    3.789678    1.377196
  H      0.951068    4.773789   -0.091983
  H     -0.215617    3.477078    0.212631
  H     -5.220122   -0.774608    2.031897
  H     -3.617739   -1.411000    2.514289
  H     -4.269272   -1.773480    0.890037
  H     -3.942424    2.086794   -1.278363
  H     -2.378402    1.901488   -2.124089
  H     -2.706764    3.378197   -1.166885

 Total Charge           Charge          ....    0
 Multiplicity           Mult            ....    1
 Number of Electrons    NEL             ....  174
 Basis Dimension        Dim             ....  510

ORBITAL ENERGIES
----------------

  NO   OCC          E(Eh)            E(eV)
   0   2.0000     -88.589071     -2410.6312
   1   2.0000     -88.526425     -2408.9265
   2   2.0000     -76.920836     -2093.1224
   3   2.0000     -19.010008      -517.2886
   4   2.0000     -19.007546      -517.2216
   5   2.0000     -18.994990      -516.8800
   6   2.0000     -18.994892      -516.8773
   7   2.0000     -18.952961      -515.7363
   8   2.0000     -18.943962      -515.4914
   9   2.0000     -10.175138      -276.8796
  10   2.0000     -10.171444      -276.7791
  11   2.0000     -10.096485      -274.7393
  12   2.0000     -10.087008      -274.4814
  13   2.0000     -10.086205      -274.4596
  14   2.0000     -10.082054      -274.3466
  15   2.0000     -10.080911      -274.3155
  16   2.0000     -10.059686      -273.7380
  17   2.0000     -10.019657      -272.6487
  18   2.0000     -10.019253      -272.6377
  19   2.0000      -7.883163      -214.5118
  20   2.0000      -7.821395      -212.8310
  21   2.0000      -6.599237      -179.5744
  22   2.0000      -5.829848      -158.6382
  23   2.0000      -5.827235      -158.5671
  24   2.0000      -5.820306      -158.3786
  25   2.0000      -5.769103      -156.9853
  26   2.0000      -5.761854      -156.7880
  27   2.0000      -5.761128      -156.7683
  28   2.0000      -4.744570      -129.1063
  29   2.0000      -4.744179      -129.0957
  30   2.0000      -4.743153      -129.0678
  31   2.0000      -1.090630       -29.6775
  32   2.0000      -1.086042       -29.5527
  33   2.0000      -1.051721       -28.6188
  34   2.0000      -1.010928       -27.5087
  35   2.0000      -0.999173       -27.1889
  36   2.0000      -0.994024       -27.0488
  37   2.0000      -0.817492       -22.2451
  38   2.0000      -0.755274       -20.5520
  39   2.0000      -0.742950       -20.2167
  40   2.0000      -0.728124       -19.8133
  41   2.0000      -0.695955       -18.9379
  42   2.0000      -0.670983       -18.2584
  43   2.0000      -0.662087       -18.0163
  44   2.0000      -0.649951       -17.6861
  45   2.0000      -0.626367       -17.0443
  46   2.0000      -0.597190       -16.2504
  47   2.0000      -0.539414       -14.6782
  48   2.0000      -0.528170       -14.3722
  49   2.0000      -0.523775       -14.2526
  50   2.0000      -0.499210       -13.5842
  51   2.0000      -0.492499       -13.4016
  52   2.0000      -0.486073       -13.2267
  53   2.0000      -0.468429       -12.7466
  54   2.0000      -0.462699       -12.5907
  55   2.0000      -0.459069       -12.4919
  56   2.0000      -0.450910       -12.2699
  57   2.0000      -0.446494       -12.1497
  58   2.0000      -0.440681       -11.9915
  59   2.0000      -0.426265       -11.5993
  60   2.0000      -0.417790       -11.3686
  61   2.0000      -0.414912       -11.2903
  62   2.0000      -0.411142       -11.1877
  63   2.0000      -0.404207       -10.9990
  64   2.0000      -0.389620       -10.6021
  65   2.0000      -0.381511       -10.3814
  66   2.0000      -0.378570       -10.3014
  67   2.0000      -0.364774        -9.9260
  68   2.0000      -0.361674        -9.8416
  69   2.0000      -0.357644        -9.7320
  70   2.0000      -0.347065        -9.4441
  71   2.0000      -0.341164        -9.2835
  72   2.0000      -0.338267        -9.2047
  73   2.0000      -0.325470        -8.8565
  74   2.0000      -0.321246        -8.7415
  75   2.0000      -0.311820        -8.4851
  76   2.0000      -0.308350        -8.3906
  77   2.0000      -0.307164        -8.3584
  78   2.0000      -0.293259        -7.9800
  79   2.0000      -0.285413        -7.7665
  80   2.0000      -0.282948        -7.6994
  81   2.0000      -0.277043        -7.5387
  82   2.0000      -0.264719        -7.2034
  83   2.0000      -0.262050        -7.1308
  84   2.0000      -0.248857        -6.7718
  85   2.0000      -0.226903        -6.1743
  86   2.0000      -0.217928        -5.9301
  87   0.0000      -0.059919        -1.6305
  88   0.0000      -0.030159        -0.8207
  89   0.0000      -0.023395        -0.6366
  90   0.0000       0.008076         0.2198
  91   0.0000       0.011226         0.3055

MULLIKEN ATOMIC CHARGES
-----------------------
   0 C :   -0.494358
   1 C :   -0.141135
   2 O :   -0.178165
   3 C :    0.417389
   4 O :   -0.483951
   5 C :   -0.371700
   6 C :   -0.110254
   7 H :    0.268929
   8 C :    0.295887
   9 O :   -0.437893
  10 O :   -0.150682
  11 C :   -0.139184
  12 C :   -0.498890
  13 S :   -0.159270
  14 P :    0.782365
  15 S :   -0.519706
  16 O :   -0.358393
  17 C :   -0.306327
  18 O :   -0.346591
  19 C :   -0.314867
  20 H :    0.169826
  21 H :    0.172076
  22 H :    0.167104
  23 H :    0.175263
  24 H :    0.177266
  25 H :    0.226816
  26 H :    0.212331
  27 H :    0.177809
  28 H :    0.179126
  29 H :    0.169152
  30 H :    0.172695
  31 H :    0.170650
  32 H :    0.179221
  33 H :    0.176650
  34 H :    0.178652
  35 H :    0.176898
  36 H :    0.183780
  37 H :    0.181479
Sum of atomic charges:   -0.0000000

LOEWDIN ATOMIC CHARGES
----------------------
   0 C :   -0.390763
   1 C :    0.037684
   2 O :   -0.574529
   3 C :    0.387036
   4 O :   -0.468569
   5 C :   -0.200714
   6 C :   -0.183939
   7 H :    0.211871
   8 C :    0.335536
   9 O :   -0.479244
  10 O :   -0.586815
  11 C :    0.042332
  12 C :   -0.390417
  13 S :    0.229872
  14 P :    0.391026
  15 S :   -0.146464
  16 O :   -0.688658
  17 C :   -0.055087
  18 O :   -0.686238
  19 C :   -0.051289
  20 H :    0.162887
  21 H :    0.168835
  22 H :    0.162703
  23 H :    0.191275
  24 H :    0.190924
  25 H :    0.212087
  26 H :    0.204172
  27 H :    0.190470
  28 H :    0.192898
  29 H :    0.162834
  30 H :    0.168725
  31 H :    0.167244
  32 H :    0.188481
  33 H :    0.176254
  34 H :    0.178332
  35 H :    0.177928
  36 H :    0.181307
  37 H :    0.190014

  Mayer bond orders larger than 0.100000
B(  0-C ,  1-C ) :   0.9404 B(  0-C , 20-H ) :   0.9684 B(  0-C , 21-H ) :   0.9590
B(  0-C , 22-H ) :   0.9694 B(  1-C ,  2-O ) :   0.7802 B(  1-C , 23-H ) :   0.9621
B(  1-C , 24-H ) :   0.9516 B(  2-O ,  3-C ) :   1.1583 B(  3-C ,  4-O ) :   1.7263
B(  3-C ,  5-C ) :   1.0071 B(  4-O ,  8-C ) :   0.1055 B(  5-C ,  6-C ) :   0.9785
B(  5-C , 10-O ) :   0.1078 B(  5-C , 25-H ) :   0.9457 B(  5-C , 26-H ) :   0.9081
B(  6-C ,  7-H ) :   0.9498 B(  6-C ,  8-C ) :   0.8684 B(  6-C , 13-S ) :   0.8400
B(  8-C ,  9-O ) :   1.7806 B(  8-C , 10-O ) :   1.1101 B( 10-O , 11-C ) :   0.7786
B( 11-C , 12-C ) :   0.9250 B( 11-C , 27-H ) :   0.9510 B( 11-C , 28-H ) :   0.9662
B( 12-C , 29-H ) :   0.9705 B( 12-C , 30-H ) :   0.9602 B( 12-C , 31-H ) :   0.9654
B( 13-S , 14-P ) :   1.0879 B( 14-P , 15-S ) :   1.7171 B( 14-P , 16-O ) :   1.0754
B( 14-P , 18-O ) :   1.1650 B( 16-O , 17-C ) :   0.8233 B( 17-C , 32-H ) :   0.9572
B( 17-C , 33-H ) :   0.9520 B( 17-C , 34-H ) :   0.9558 B( 18-O , 19-C ) :   0.7943
B( 19-C , 35-H ) :   0.9537 B( 19-C , 36-H ) :   0.9518 B( 19-C , 37-H ) :   0.9554

Dispersion correction           -0.017068835
FINAL SINGLE POINT ENERGY     -1981.468524502787

DIPOLE MOMENT
-------------

Method             : SCF
Type of density    : Electron Density
Multiplicity       :   1
Irrep              :   0
Energy             : -1981.4886409738705879 Eh
Relativity type    :
Basis              : AO
                                X                 Y                 Z
Electronic contribution:    -13.042259158      -2.652036519       3.214290178
Nuclear contribution   :     14.564101917       2.839999908      -1.433658345
                        -----------------------------------------
Total Dipole Moment    :      1.521842759       0.187963389       1.780631833
                        -----------------------------------------
Magnitude (a.u.)       :      2.349890496
Magnitude (Debye)      :      5.972946963

Rotational constants in cm-1:             0.015294             0.005804             0.005006
Rotational constants in MHz :           458.510094           173.986357           150.063171

                             ****ORCA TERMINATED NORMALLY****
TOTAL RUN TIME: 0 days 0 hours 1 minutes 50 seconds 218 msec
