                         Program Version 6.0.0  -   RELEASE  -
|  1> ! pbe def2-sv(p) def2/J RI DEFGRID1 loosescf d4 GCP(DFT/SV(P)) printgap
|  2> %output
|  3>     printlevel normal
|  4> end
|  5> * xyz 0 1
|  6> C 4.6403253792 -1.9364846985 -0.3767783102
|  7> C 4.6670133316 -0.7103569905 -1.2649593376
|  8> O 3.3434976195 -0.26314498 -1.6468715577
|  9> P 2.2207075445 0.2840820838 -0.6823939242
| 10> S 0.9608808086 1.3292416634 -1.763335298
| 11> O 3.0956824982 0.988758323 0.4339374688
| 12> C 2.6267796702 1.6772946193 1.6066968181
| 13> C 2.196336287 3.0929133997 1.2820555821
| 14> S 1.3574862145 -1.4004753596 0.3005502999
| 15> C -0.0069649857 -1.721788025 -0.8599302843
| 16> S -1.5985592857 -1.980239888 -0.0466470416
| 17> P -2.0765296627 0.0439891168 0.4393845242
| 18> S -0.8461442027 1.0466676559 1.5779550375
| 19> O -3.5736407408 -0.0961582992 0.9518859092
| 20> C -4.0268000256 -1.0429085348 1.9388364813
| 21> C -3.1987361165 -1.0164310387 3.2058496227
| 22> O -2.2449549023 0.7996698377 -0.9310769909
| 23> C -3.139311845 0.3869916189 -1.9917624917
| 24> C -4.4290735694 1.1796481339 -1.937400365
| 25> H 5.659533754 -2.2708872006 -0.2096690571
| 26> H 4.1828592041 -1.7032435392 0.5826781796
| 27> H 4.0747968575 -2.7361206443 -0.8479371964
| 28> H 5.1404313534 -0.9210904736 -2.2253050683
| 29> H 5.1777172113 0.118838276 -0.7727117534
| 30> H 1.8023296464 1.1189977838 2.0566890712
| 31> H 3.4893650567 1.6679829666 2.2757515176
| 32> H 1.3193419945 3.0791678935 0.6375664811
| 33> H 1.9381102714 3.6054639013 2.2027939662
| 34> H 2.9969822093 3.6271392128 0.7771913074
| 35> H 0.2018595473 -2.6456745972 -1.3927334281
| 36> H -0.0751657905 -0.8697633054 -1.5432416764
| 37> H -5.0577795465 -0.7400276833 2.1301204968
| 38> H -4.0080525926 -2.0378631514 1.4856119379
| 39> H -2.1781495355 -1.3337453727 2.9944324967
| 40> H -3.1662621937 -0.010380839 3.6179015264
| 41> H -3.6349020815 -1.6912666886 3.9352024755
| 42> H -2.5834218448 0.591541987 -2.9095076547
| 43> H -3.3296467119 -0.6865118894 -1.9023391853
| 44> H -4.2125367499 2.242805924 -1.9967698293
| 45> H -5.0572948965 0.8932758524 -2.7749938469
| 46> H -4.9539578367 0.9809521496 -1.0066979103
| 47> *
| 48>
| 49>                          ****END OF INPUT****

CARTESIAN COORDINATES (ANGSTROEM)
---------------------------------
  C      4.640325   -1.936485   -0.376778
  C      4.667013   -0.710357   -1.264959
  O      3.343498   -0.263145   -1.646872
  P      2.220708    0.284082   -0.682394
  S      0.960881    1.329242   -1.763335
  O      3.095682    0.988758    0.433937
  C      2.626780    1.677295    1.606697
  C      2.196336    3.092913    1.282056
  S      1.357486   -1.400475    0.300550
  C     -0.006965   -1.721788   -0.859930
  S     -1.598559   -1.980240   -0.046647
  P     -2.076530    0.043989    0.439385
  S     -0.846144    1.046668    1.577955
  O     -3.573641   -0.096158    0.951886
  C     -4.026800   -1.042909    1.938836
  C     -3.198736   -1.016431    3.205850
  O     -2.244955    0.799670   -0.931077
  C     -3.139312    0.386992   -1.991762
  C     -4.429074    1.179648   -1.937400
  H      5.659534   -2.270887   -0.209669
  H      4.182859   -1.703244    0.582678
  H      4.074797   -2.736121   -0.847937
  H      5.140431   -0.921090   -2.225305
  H      5.177717    0.118838   -0.772712
  H      1.802330    1.118998    2.056689
  H      3.489365    1.667983    2.275752
  H      1.319342    3.079168    0.637566
  H      1.938110    3.605464    2.202794
  H      2.996982    3.627139    0.777191
  H      0.201860   -2.645675   -1.392733
  H     -0.075166   -0.869763   -1.543242
  H     -5.057780   -0.740028    2.130120
  H     -4.008053   -2.037863    1.485612
  H     -2.178150   -1.333745    2.994432
  H     -3.166262   -0.010381    3.617902
  H     -3.634902   -1.691267    3.935202
  H     -2.583422    0.591542   -2.909508
  H     -3.329647   -0.686512   -1.902339
  H     -4.212537    2.242806   -1.996770
  H     -5.057295    0.893276   -2.774994
  H     -4.953958    0.980952   -1.006698

 Total Charge           Charge          ....    0
 Multiplicity           Mult            ....    1
 Number of Electrons    NEL             ....  202
 Basis Dimension        Dim             ....  334

ORBITAL ENERGIES
----------------

  NO   OCC          E(Eh)            E(eV)
   0   2.0000     -88.044451     -2395.8113
   1   2.0000     -88.034293     -2395.5349
   2   2.0000     -87.975058     -2393.9230
   3   2.0000     -87.974267     -2393.9015
   4   2.0000     -76.422984     -2079.5751
   5   2.0000     -76.419883     -2079.4907
   6   2.0000     -18.792704      -511.3755
   7   2.0000     -18.792440      -511.3683
   8   2.0000     -18.785831      -511.1885
   9   2.0000     -18.779595      -511.0188
  10   2.0000      -9.960029      -271.0262
  11   2.0000      -9.953124      -270.8383
  12   2.0000      -9.951328      -270.7894
  13   2.0000      -9.950597      -270.7695
  14   2.0000      -9.947261      -270.6787
  15   2.0000      -9.885464      -268.9972
  16   2.0000      -9.883067      -268.9319
  17   2.0000      -9.882555      -268.9180
  18   2.0000      -9.870622      -268.5933
  19   2.0000      -7.689310      -209.2368
  20   2.0000      -7.679196      -208.9615
  21   2.0000      -7.620273      -207.3582
  22   2.0000      -7.619449      -207.3358
  23   2.0000      -6.420111      -174.7001
  24   2.0000      -6.417080      -174.6176
  25   2.0000      -5.716931      -155.5656
  26   2.0000      -5.713710      -155.4780
  27   2.0000      -5.707068      -155.2972
  28   2.0000      -5.706693      -155.2870
  29   2.0000      -5.703831      -155.2091
  30   2.0000      -5.696079      -154.9982
  31   2.0000      -5.649329      -153.7261
  32   2.0000      -5.648537      -153.7045
  33   2.0000      -5.640678      -153.4906
  34   2.0000      -5.640425      -153.4838
  35   2.0000      -5.640352      -153.4818
  36   2.0000      -5.639099      -153.4477
  37   2.0000      -4.643097      -126.3451
  38   2.0000      -4.642282      -126.3229
  39   2.0000      -4.640095      -126.2634
  40   2.0000      -4.639883      -126.2576
  41   2.0000      -4.638732      -126.2263
  42   2.0000      -4.637291      -126.1871
  43   2.0000      -0.986050       -26.8318
  44   2.0000      -0.983061       -26.7504
  45   2.0000      -0.943110       -25.6633
  46   2.0000      -0.937005       -25.4972
  47   2.0000      -0.758761       -20.6469
  48   2.0000      -0.717849       -19.5337
  49   2.0000      -0.709046       -19.2941
  50   2.0000      -0.690031       -18.7767
  51   2.0000      -0.685338       -18.6490
  52   2.0000      -0.672672       -18.3043
  53   2.0000      -0.647483       -17.6189
  54   2.0000      -0.630460       -17.1557
  55   2.0000      -0.587899       -15.9975
  56   2.0000      -0.584483       -15.9046
  57   2.0000      -0.573805       -15.6140
  58   2.0000      -0.572378       -15.5752
  59   2.0000      -0.562565       -15.3082
  60   2.0000      -0.502057       -13.6617
  61   2.0000      -0.492850       -13.4111
  62   2.0000      -0.472445       -12.8559
  63   2.0000      -0.468840       -12.7578
  64   2.0000      -0.453417       -12.3381
  65   2.0000      -0.445725       -12.1288
  66   2.0000      -0.437060       -11.8930
  67   2.0000      -0.434233       -11.8161
  68   2.0000      -0.425027       -11.5656
  69   2.0000      -0.420370       -11.4388
  70   2.0000      -0.411025       -11.1846
  71   2.0000      -0.396140       -10.7795
  72   2.0000      -0.393902       -10.7186
  73   2.0000      -0.387752       -10.5513
  74   2.0000      -0.383796       -10.4436
  75   2.0000      -0.359011        -9.7692
  76   2.0000      -0.354405        -9.6439
  77   2.0000      -0.352292        -9.5863
  78   2.0000      -0.350864        -9.5475
  79   2.0000      -0.346527        -9.4295
  80   2.0000      -0.345216        -9.3938
  81   2.0000      -0.341465        -9.2917
  82   2.0000      -0.337758        -9.1909
  83   2.0000      -0.335106        -9.1187
  84   2.0000      -0.325678        -8.8621
  85   2.0000      -0.318934        -8.6786
  86   2.0000      -0.313080        -8.5193
  87   2.0000      -0.296122        -8.0579
  88   2.0000      -0.289937        -7.8896
  89   2.0000      -0.285668        -7.7734
  90   2.0000      -0.283826        -7.7233
  91   2.0000      -0.275309        -7.4915
  92   2.0000      -0.269540        -7.3346
  93   2.0000      -0.259848        -7.0708
  94   2.0000      -0.253467        -6.8972
  95   2.0000      -0.241664        -6.5760
  96   2.0000      -0.218508        -5.9459
  97   2.0000      -0.197228        -5.3669
  98   2.0000      -0.194776        -5.3001
  99   2.0000      -0.183618        -4.9965
 100   2.0000      -0.178212        -4.8494
 101   0.0000      -0.037306        -1.0151
 102   0.0000      -0.027752        -0.7552
 103   0.0000      -0.015527        -0.4225
 104   0.0000       0.002260         0.0615
 105   0.0000       0.021092         0.5739

MULLIKEN ATOMIC CHARGES
-----------------------
   0 C :   -0.313766
   1 C :    0.006575
   2 O :   -0.364736
   3 P :    0.618516
   4 S :   -0.300133
   5 O :   -0.386442
   6 C :   -0.016483
   7 C :   -0.306820
   8 S :   -0.102798
   9 C :   -0.338054
  10 S :   -0.127778
  11 P :    0.605370
  12 S :   -0.309668
  13 O :   -0.380413
  14 C :   -0.013815
  15 C :   -0.311442
  16 O :   -0.341776
  17 C :   -0.014711
  18 C :   -0.285340
  19 H :    0.111193
  20 H :    0.122729
  21 H :    0.118742
  22 H :    0.107119
  23 H :    0.107735
  24 H :    0.131138
  25 H :    0.098253
  26 H :    0.148318
  27 H :    0.107151
  28 H :    0.109180
  29 H :    0.181163
  30 H :    0.192329
  31 H :    0.110438
  32 H :    0.114477
  33 H :    0.129126
  34 H :    0.128818
  35 H :    0.110707
  36 H :    0.112908
  37 H :    0.093957
  38 H :    0.122746
  39 H :    0.107180
  40 H :    0.118307
Sum of atomic charges:   -0.0000000

LOEWDIN ATOMIC CHARGES
----------------------
   0 C :   -0.368020
   1 C :   -0.109819
   2 O :   -0.244988
   3 P :    0.568569
   4 S :   -0.295414
   5 O :   -0.239089
   6 C :   -0.115380
   7 C :   -0.365637
   8 S :    0.067775
   9 C :   -0.482584
  10 S :    0.060331
  11 P :    0.569031
  12 S :   -0.300025
  13 O :   -0.246657
  14 C :   -0.114845
  15 C :   -0.371069
  16 O :   -0.223708
  17 C :   -0.117180
  18 C :   -0.358204
  19 H :    0.129738
  20 H :    0.117183
  21 H :    0.125297
  22 H :    0.120818
  23 H :    0.113565
  24 H :    0.108396
  25 H :    0.114912
  26 H :    0.128811
  27 H :    0.129633
  28 H :    0.123602
  29 H :    0.135464
  30 H :    0.120814
  31 H :    0.121702
  32 H :    0.108114
  33 H :    0.122445
  34 H :    0.130990
  35 H :    0.129799
  36 H :    0.121663
  37 H :    0.100450
  38 H :    0.130051
  39 H :    0.128249
  40 H :    0.125218

  Mayer bond orders larger than 0.100000
B(  0-C ,  1-C ) :   1.1691 B(  0-C , 19-H ) :   0.9363 B(  0-C , 20-H ) :   0.9400
B(  0-C , 21-H ) :   0.9441 B(  1-C ,  2-O ) :   0.9085 B(  1-C , 22-H ) :   0.9353
B(  1-C , 23-H ) :   0.9273 B(  2-O ,  3-P ) :   1.1203 B(  3-P ,  4-S ) :   1.6424
B(  3-P ,  5-O ) :   1.0960 B(  3-P ,  8-S ) :   0.9437 B(  4-S ,  8-S ) :   0.1190
B(  4-S , 30-H ) :   0.1248 B(  5-O ,  6-C ) :   0.8957 B(  6-C ,  7-C ) :   1.1746
B(  6-C , 24-H ) :   0.9104 B(  6-C , 25-H ) :   0.9346 B(  7-C , 26-H ) :   0.9282
B(  7-C , 27-H ) :   0.9384 B(  7-C , 28-H ) :   0.9463 B(  8-S ,  9-C ) :   1.0007
B(  9-C , 10-S ) :   0.9992 B(  9-C , 29-H ) :   0.9114 B(  9-C , 30-H ) :   0.8435
B( 10-S , 11-P ) :   0.9375 B( 10-S , 12-S ) :   0.1139 B( 11-P , 12-S ) :   1.6714
B( 11-P , 13-O ) :   1.0757 B( 11-P , 16-O ) :   1.1397 B( 13-O , 14-C ) :   0.9136
B( 14-C , 15-C ) :   1.1675 B( 14-C , 31-H ) :   0.9332 B( 14-C , 32-H ) :   0.9264
B( 15-C , 33-H ) :   0.9314 B( 15-C , 34-H ) :   0.9414 B( 15-C , 35-H ) :   0.9337
B( 16-O , 17-C ) :   0.8961 B( 17-C , 18-C ) :   1.1670 B( 17-C , 36-H ) :   0.9319
B( 17-C , 37-H ) :   0.9102 B( 18-C , 38-H ) :   0.9473 B( 18-C , 39-H ) :   0.9404
B( 18-C , 40-H ) :   0.9433

Dispersion correction           -0.066359169
FINAL SINGLE POINT ENERGY     -2929.507209411557

DIPOLE MOMENT
-------------

Method             : SCF
Type of density    : Electron Density
Multiplicity       :   1
Irrep              :   0
Energy             : -2929.6259718758687995 Eh
Relativity type    :
Basis              : AO
                                X                 Y                 Z
Electronic contribution:      2.052132310      -1.168773195      -4.725949762
Nuclear contribution   :     -2.249230706       0.019422547       4.995332569
                        -----------------------------------------
Total Dipole Moment    :     -0.197098396      -1.149350648       0.269382807
                        -----------------------------------------
Magnitude (a.u.)       :      1.196838246
Magnitude (Debye)      :      3.042121060

Rotational constants in cm-1:             0.012573             0.004891             0.004874
Rotational constants in MHz :           376.931538           146.617064           146.120388

                             ****ORCA TERMINATED NORMALLY****
TOTAL RUN TIME: 0 days 0 hours 0 minutes 21 seconds 70 msec
