                         Program Version 6.0.0  -   RELEASE  -
|  1> ! pbe def2-sv(p) def2/J RI DEFGRID1 loosescf d4 GCP(DFT/SV(P)) printgap
|  2> %output
|  3>     printlevel normal
|  4> end
|  5> * xyz 0 1
|  6> C 4.5220169875 -1.5530515167 1.1490812383
|  7> C 4.5064557832 -0.0935308058 0.7426540555
|  8> O 3.1838953403 0.4707133378 0.7991096526
|  9> P 2.0320945737 0.0511228123 -0.2123101502
| 10> S 2.6317885009 -0.2651655173 -2.0563945017
| 11> O 0.9815989233 1.2251534748 0.0064025528
| 12> C 0.9852701905 2.4088976412 -0.8121602978
| 13> C 2.2146668293 3.2579875063 -0.5728314249
| 14> S 1.0686548857 -1.5023179074 0.8186491839
| 15> C -0.051402471 -2.0949946294 -0.4910870146
| 16> S -0.8481633657 -0.7708235746 -1.4460813739
| 17> P -2.0981397282 0.1839169424 -0.0022594279
| 18> S -2.7161115277 1.8953328527 -0.717931819
| 19> O -1.3487930109 0.3082159029 1.3729105889
| 20> C -1.5742497786 -0.478595407 2.5759709832
| 21> C -0.7254312466 0.1419100395 3.6647339934
| 22> O -3.1962983458 -0.9225780965 0.3416621824
| 23> C -4.1829468376 -1.3285248551 -0.6261720839
| 24> C -5.4579454973 -0.5231123615 -0.4721865398
| 25> H 5.5497033577 -1.8967930255 1.2086394651
| 26> H 4.0402423262 -1.6825522691 2.1148726193
| 27> H 3.9926721816 -2.1510618693 0.4085241654
| 28> H 4.8890775595 0.0252634957 -0.276184502
| 29> H 5.0835176394 0.5245806348 1.431618403
| 30> H 0.9181145666 2.1034201696 -1.8626437559
| 31> H 0.0665483296 2.9283597568 -0.5312589286
| 32> H 2.3177991757 3.4756675962 0.4870273914
| 33> H 3.1029957951 2.7280622303 -0.9154435123
| 34> H 2.1202749751 4.1862515776 -1.1274906969
| 35> H -0.7975977106 -2.7223073742 -0.0093950602
| 36> H 0.5203463871 -2.6615567504 -1.224393974
| 37> H -2.6373496289 -0.4399149244 2.8167680092
| 38> H -1.2743901107 -1.5104415582 2.385499274
| 39> H -0.8651928965 -0.4157495727 4.585024601
| 40> H 0.3228398794 0.1086798744 3.379125924
| 41> H -1.0128419804 1.1778491284 3.8206390704
| 42> H -3.7676227558 -1.2149937214 -1.6325197378
| 43> H -4.3556010102 -2.3862121933 -0.4176944707
| 44> H -5.2638744865 0.5290173271 -0.6694345579
| 45> H -6.1966588328 -0.8850649047 -1.1799229573
| 46> H -5.8465414892 -0.624822506 0.5371321167
| 47> *
| 48>
| 49>                          ****END OF INPUT****

CARTESIAN COORDINATES (ANGSTROEM)
---------------------------------
  C      4.522017   -1.553052    1.149081
  C      4.506456   -0.093531    0.742654
  O      3.183895    0.470713    0.799110
  P      2.032095    0.051123   -0.212310
  S      2.631789   -0.265166   -2.056395
  O      0.981599    1.225153    0.006403
  C      0.985270    2.408898   -0.812160
  C      2.214667    3.257988   -0.572831
  S      1.068655   -1.502318    0.818649
  C     -0.051402   -2.094995   -0.491087
  S     -0.848163   -0.770824   -1.446081
  P     -2.098140    0.183917   -0.002259
  S     -2.716112    1.895333   -0.717932
  O     -1.348793    0.308216    1.372911
  C     -1.574250   -0.478595    2.575971
  C     -0.725431    0.141910    3.664734
  O     -3.196298   -0.922578    0.341662
  C     -4.182947   -1.328525   -0.626172
  C     -5.457945   -0.523112   -0.472187
  H      5.549703   -1.896793    1.208639
  H      4.040242   -1.682552    2.114873
  H      3.992672   -2.151062    0.408524
  H      4.889078    0.025263   -0.276185
  H      5.083518    0.524581    1.431618
  H      0.918115    2.103420   -1.862644
  H      0.066548    2.928360   -0.531259
  H      2.317799    3.475668    0.487027
  H      3.102996    2.728062   -0.915444
  H      2.120275    4.186252   -1.127491
  H     -0.797598   -2.722307   -0.009395
  H      0.520346   -2.661557   -1.224394
  H     -2.637350   -0.439915    2.816768
  H     -1.274390   -1.510442    2.385499
  H     -0.865193   -0.415750    4.585025
  H      0.322840    0.108680    3.379126
  H     -1.012842    1.177849    3.820639
  H     -3.767623   -1.214994   -1.632520
  H     -4.355601   -2.386212   -0.417694
  H     -5.263874    0.529017   -0.669435
  H     -6.196659   -0.885065   -1.179923
  H     -5.846541   -0.624823    0.537132

 Total Charge           Charge          ....    0
 Multiplicity           Mult            ....    1
 Number of Electrons    NEL             ....  202
 Basis Dimension        Dim             ....  334

ORBITAL ENERGIES
----------------

  NO   OCC          E(Eh)            E(eV)
   0   2.0000     -88.045846     -2395.8493
   1   2.0000     -88.042211     -2395.7504
   2   2.0000     -87.985945     -2394.2193
   3   2.0000     -87.983275     -2394.1466
   4   2.0000     -76.427527     -2079.6987
   5   2.0000     -76.426187     -2079.6623
   6   2.0000     -18.796494      -511.4786
   7   2.0000     -18.794312      -511.4192
   8   2.0000     -18.790454      -511.3142
   9   2.0000     -18.781357      -511.0667
  10   2.0000      -9.963419      -271.1184
  11   2.0000      -9.958481      -270.9840
  12   2.0000      -9.956918      -270.9415
  13   2.0000      -9.952897      -270.8321
  14   2.0000      -9.934982      -270.3446
  15   2.0000      -9.886029      -269.0125
  16   2.0000      -9.885734      -269.0045
  17   2.0000      -9.882146      -268.9069
  18   2.0000      -9.873871      -268.6817
  19   2.0000      -7.690927      -209.2808
  20   2.0000      -7.686395      -209.1575
  21   2.0000      -7.630888      -207.6470
  22   2.0000      -7.628527      -207.5828
  23   2.0000      -6.424317      -174.8145
  24   2.0000      -6.423278      -174.7863
  25   2.0000      -5.718887      -155.6188
  26   2.0000      -5.715466      -155.5257
  27   2.0000      -5.714739      -155.5060
  28   2.0000      -5.710648      -155.3946
  29   2.0000      -5.707678      -155.3138
  30   2.0000      -5.703289      -155.1944
  31   2.0000      -5.659747      -154.0095
  32   2.0000      -5.657453      -153.9471
  33   2.0000      -5.651623      -153.7885
  34   2.0000      -5.651060      -153.7732
  35   2.0000      -5.649165      -153.7216
  36   2.0000      -5.648635      -153.7072
  37   2.0000      -4.647535      -126.4659
  38   2.0000      -4.646127      -126.4276
  39   2.0000      -4.645649      -126.4145
  40   2.0000      -4.645047      -126.3981
  41   2.0000      -4.644308      -126.3781
  42   2.0000      -4.644011      -126.3700
  43   2.0000      -0.989590       -26.9281
  44   2.0000      -0.983517       -26.7628
  45   2.0000      -0.944214       -25.6934
  46   2.0000      -0.940577       -25.5944
  47   2.0000      -0.764952       -20.8154
  48   2.0000      -0.723497       -19.6874
  49   2.0000      -0.707720       -19.2580
  50   2.0000      -0.690864       -18.7994
  51   2.0000      -0.683113       -18.5884
  52   2.0000      -0.671027       -18.2596
  53   2.0000      -0.652205       -17.7474
  54   2.0000      -0.637686       -17.3523
  55   2.0000      -0.598028       -16.2732
  56   2.0000      -0.583995       -15.8913
  57   2.0000      -0.576316       -15.6824
  58   2.0000      -0.569392       -15.4939
  59   2.0000      -0.563847       -15.3431
  60   2.0000      -0.511846       -13.9280
  61   2.0000      -0.489167       -13.3109
  62   2.0000      -0.484818       -13.1926
  63   2.0000      -0.468449       -12.7472
  64   2.0000      -0.458553       -12.4779
  65   2.0000      -0.441084       -12.0025
  66   2.0000      -0.439943       -11.9715
  67   2.0000      -0.436392       -11.8748
  68   2.0000      -0.428151       -11.6506
  69   2.0000      -0.412611       -11.2277
  70   2.0000      -0.408636       -11.1195
  71   2.0000      -0.397989       -10.8298
  72   2.0000      -0.386429       -10.5153
  73   2.0000      -0.385964       -10.5026
  74   2.0000      -0.381126       -10.3710
  75   2.0000      -0.378965       -10.3122
  76   2.0000      -0.364227        -9.9111
  77   2.0000      -0.357599        -9.7308
  78   2.0000      -0.354720        -9.6524
  79   2.0000      -0.353046        -9.6069
  80   2.0000      -0.345753        -9.4084
  81   2.0000      -0.344691        -9.3795
  82   2.0000      -0.338178        -9.2023
  83   2.0000      -0.336773        -9.1641
  84   2.0000      -0.327406        -8.9092
  85   2.0000      -0.323068        -8.7911
  86   2.0000      -0.309894        -8.4326
  87   2.0000      -0.301450        -8.2029
  88   2.0000      -0.295547        -8.0423
  89   2.0000      -0.294185        -8.0052
  90   2.0000      -0.281844        -7.6694
  91   2.0000      -0.272453        -7.4138
  92   2.0000      -0.268870        -7.3163
  93   2.0000      -0.262881        -7.1534
  94   2.0000      -0.254508        -6.9255
  95   2.0000      -0.231700        -6.3049
  96   2.0000      -0.224373        -6.1055
  97   2.0000      -0.205236        -5.5848
  98   2.0000      -0.201789        -5.4910
  99   2.0000      -0.200858        -5.4656
 100   2.0000      -0.193636        -5.2691
 101   0.0000      -0.048947        -1.3319
 102   0.0000      -0.023242        -0.6324
 103   0.0000      -0.009665        -0.2630
 104   0.0000      -0.000748        -0.0203
 105   0.0000       0.006165         0.1678

MULLIKEN ATOMIC CHARGES
-----------------------
   0 C :   -0.314579
   1 C :   -0.004994
   2 O :   -0.370648
   3 P :    0.617231
   4 S :   -0.328601
   5 O :   -0.358717
   6 C :   -0.012767
   7 C :   -0.302917
   8 S :   -0.107326
   9 C :   -0.331272
  10 S :   -0.082594
  11 P :    0.630787
  12 S :   -0.316100
  13 O :   -0.362192
  14 C :    0.000251
  15 C :   -0.278727
  16 O :   -0.391985
  17 C :   -0.009904
  18 C :   -0.289085
  19 H :    0.113718
  20 H :    0.115688
  21 H :    0.125826
  22 H :    0.112159
  23 H :    0.106083
  24 H :    0.111347
  25 H :    0.116787
  26 H :    0.112857
  27 H :    0.115422
  28 H :    0.110763
  29 H :    0.173940
  30 H :    0.191137
  31 H :    0.109723
  32 H :    0.094610
  33 H :    0.106733
  34 H :    0.122114
  35 H :    0.121330
  36 H :    0.103107
  37 H :    0.101869
  38 H :    0.131580
  39 H :    0.108050
  40 H :    0.109296
Sum of atomic charges:    0.0000000

LOEWDIN ATOMIC CHARGES
----------------------
   0 C :   -0.369689
   1 C :   -0.119883
   2 O :   -0.242929
   3 P :    0.569446
   4 S :   -0.327075
   5 O :   -0.234545
   6 C :   -0.125260
   7 C :   -0.365080
   8 S :    0.095238
   9 C :   -0.474584
  10 S :    0.095430
  11 P :    0.568701
  12 S :   -0.310826
  13 O :   -0.233471
  14 C :   -0.109367
  15 C :   -0.350302
  16 O :   -0.255094
  17 C :   -0.119185
  18 C :   -0.363054
  19 H :    0.131386
  20 H :    0.122931
  21 H :    0.120990
  22 H :    0.110874
  23 H :    0.119061
  24 H :    0.110302
  25 H :    0.115476
  26 H :    0.124438
  27 H :    0.118282
  28 H :    0.129888
  29 H :    0.129397
  30 H :    0.138239
  31 H :    0.113875
  32 H :    0.100507
  33 H :    0.128394
  34 H :    0.125612
  35 H :    0.130365
  36 H :    0.107014
  37 H :    0.115712
  38 H :    0.125804
  39 H :    0.129214
  40 H :    0.123768

  Mayer bond orders larger than 0.100000
B(  0-C ,  1-C ) :   1.1669 B(  0-C , 19-H ) :   0.9378 B(  0-C , 20-H ) :   0.9446
B(  0-C , 21-H ) :   0.9355 B(  1-C ,  2-O ) :   0.9073 B(  1-C , 22-H ) :   0.9145
B(  1-C , 23-H ) :   0.9337 B(  2-O ,  3-P ) :   1.1063 B(  3-P ,  4-S ) :   1.5988
B(  3-P ,  5-O ) :   1.1279 B(  3-P ,  8-S ) :   0.9560 B(  4-S ,  8-S ) :   0.1078
B(  5-O ,  6-C ) :   0.8958 B(  6-C ,  7-C ) :   1.1600 B(  6-C , 24-H ) :   0.9193
B(  6-C , 25-H ) :   0.9187 B(  7-C , 26-H ) :   0.9459 B(  7-C , 27-H ) :   0.9368
B(  7-C , 28-H ) :   0.9402 B(  8-S ,  9-C ) :   0.9831 B(  9-C , 10-S ) :   0.9901
B(  9-C , 29-H ) :   0.9090 B(  9-C , 30-H ) :   0.9018 B( 10-S , 11-P ) :   0.9440
B( 11-P , 12-S ) :   1.6727 B( 11-P , 13-O ) :   1.1442 B( 11-P , 16-O ) :   1.0481
B( 13-O , 14-C ) :   0.8750 B( 14-C , 15-C ) :   1.1655 B( 14-C , 31-H ) :   0.9287
B( 14-C , 32-H ) :   0.9196 B( 15-C , 33-H ) :   0.9404 B( 15-C , 34-H ) :   0.9458
B( 15-C , 35-H ) :   0.9484 B( 16-O , 17-C ) :   0.9047 B( 17-C , 18-C ) :   1.1696
B( 17-C , 36-H ) :   0.9105 B( 17-C , 37-H ) :   0.9362 B( 18-C , 38-H ) :   0.9305
B( 18-C , 39-H ) :   0.9394 B( 18-C , 40-H ) :   0.9473

Dispersion correction           -0.067888050
FINAL SINGLE POINT ENERGY     -2929.516710476777

DIPOLE MOMENT
-------------

Method             : SCF
Type of density    : Electron Density
Multiplicity       :   1
Irrep              :   0
Energy             : -2929.6344052173285490 Eh
Relativity type    :
Basis              : AO
                                X                 Y                 Z
Electronic contribution:     -0.967729715      -0.275472727     -11.565362408
Nuclear contribution   :      0.899864495      -0.929968933      12.831925868
                        -----------------------------------------
Total Dipole Moment    :     -0.067865220      -1.205441660       1.266563459
                        -----------------------------------------
Magnitude (a.u.)       :      1.749822357
Magnitude (Debye)      :      4.447694967

Rotational constants in cm-1:             0.012967             0.005333             0.005057
Rotational constants in MHz :           388.731382           159.872195           151.601141

                             ****ORCA TERMINATED NORMALLY****
TOTAL RUN TIME: 0 days 0 hours 0 minutes 21 seconds 752 msec
