                         Program Version 6.0.0  -   RELEASE  -
|  1> ! pbe def2-sv(p) def2/J RI DEFGRID1 loosescf d4 GCP(DFT/SV(P)) printgap
|  2> %output
|  3>     printlevel normal
|  4> end
|  5> * xyz 0 1
|  6> C 3.2658832782 2.1194652829 -0.7370113928
|  7> C 3.6961521227 0.995832754 0.1843637216
|  8> O 3.0738686303 -0.2510118041 -0.1872223111
|  9> P 1.9023926642 -0.9627463085 0.6253705715
| 10> S 1.3418138921 -0.0064797708 2.2440526152
| 11> O 2.3880193501 -2.4542006384 0.8801948034
| 12> C 3.0367158265 -2.8500639287 2.1037578773
| 13> C 4.4360957606 -2.2774442975 2.2059457632
| 14> S 0.5403634284 -1.5106867724 -0.8926571433
| 15> C 0.3853216691 0.0972699911 -1.7258230588
| 16> S -0.3622565187 1.3728470303 -0.6867256881
| 17> P -2.352525224 0.6202514415 -0.7952747766
| 18> S -2.8792087343 -0.0899603832 -2.5391539489
| 19> O -3.2088087642 1.7924125397 -0.1505882887
| 20> C -3.1286324691 3.1837173968 -0.518914686
| 21> C -3.314438343 3.4088271883 -2.0044526375
| 22> O -2.5056187306 -0.5125300373 0.2887811768
| 23> C -2.2690605889 -0.3237864931 1.7051492865
| 24> C -1.9968514023 -1.6844537341 2.3106707379
| 25> H 3.8178348134 3.016405859 -0.4750257298
| 26> H 3.477419826 1.864168513 -1.7720188476
| 27> H 2.2010237454 2.3185312299 -0.6232630746
| 28> H 3.4325171023 1.2277799544 1.2216753001
| 29> H 4.768865188 0.8099125372 0.107001895
| 30> H 2.4222082867 -2.5195029214 2.9477021937
| 31> H 3.0468637311 -3.9397382181 2.0562990365
| 32> H 4.3862745054 -1.1938457387 2.3071882598
| 33> H 4.9314415366 -2.690039195 3.0792371488
| 34> H 5.0079851255 -2.5250375596 1.3153398897
| 35> H -0.2580655135 -0.0742821539 -2.5911810036
| 36> H 1.3679481747 0.4521677626 -2.0251207494
| 37> H -3.92971097 3.6467536116 0.0598837769
| 38> H -2.1600525266 3.5670408412 -0.1860051982
| 39> H -4.2491691252 2.966617078 -2.3410384504
| 40> H -3.3258238117 4.4746549667 -2.208254009
| 41> H -2.498379476 2.9485066787 -2.5597049993
| 42> H -1.4141993969 0.3462479304 1.8421990667
| 43> H -3.1594781848 0.1385564969 2.1340969318
| 44> H -2.8425351221 -2.3449849089 2.1440394346
| 45> H -1.1142261169 -2.1273183748 1.8523296044
| 46> H -1.8221296188 -1.5699977002 3.3756961535
| 47> *
| 48>
| 49>                          ****END OF INPUT****

CARTESIAN COORDINATES (ANGSTROEM)
---------------------------------
  C      3.265883    2.119465   -0.737011
  C      3.696152    0.995833    0.184364
  O      3.073869   -0.251012   -0.187222
  P      1.902393   -0.962746    0.625371
  S      1.341814   -0.006480    2.244053
  O      2.388019   -2.454201    0.880195
  C      3.036716   -2.850064    2.103758
  C      4.436096   -2.277444    2.205946
  S      0.540363   -1.510687   -0.892657
  C      0.385322    0.097270   -1.725823
  S     -0.362257    1.372847   -0.686726
  P     -2.352525    0.620251   -0.795275
  S     -2.879209   -0.089960   -2.539154
  O     -3.208809    1.792413   -0.150588
  C     -3.128632    3.183717   -0.518915
  C     -3.314438    3.408827   -2.004453
  O     -2.505619   -0.512530    0.288781
  C     -2.269061   -0.323786    1.705149
  C     -1.996851   -1.684454    2.310671
  H      3.817835    3.016406   -0.475026
  H      3.477420    1.864169   -1.772019
  H      2.201024    2.318531   -0.623263
  H      3.432517    1.227780    1.221675
  H      4.768865    0.809913    0.107002
  H      2.422208   -2.519503    2.947702
  H      3.046864   -3.939738    2.056299
  H      4.386275   -1.193846    2.307188
  H      4.931442   -2.690039    3.079237
  H      5.007985   -2.525038    1.315340
  H     -0.258066   -0.074282   -2.591181
  H      1.367948    0.452168   -2.025121
  H     -3.929711    3.646754    0.059884
  H     -2.160053    3.567041   -0.186005
  H     -4.249169    2.966617   -2.341038
  H     -3.325824    4.474655   -2.208254
  H     -2.498379    2.948507   -2.559705
  H     -1.414199    0.346248    1.842199
  H     -3.159478    0.138556    2.134097
  H     -2.842535   -2.344985    2.144039
  H     -1.114226   -2.127318    1.852330
  H     -1.822130   -1.569998    3.375696

 Total Charge           Charge          ....    0
 Multiplicity           Mult            ....    1
 Number of Electrons    NEL             ....  202
 Basis Dimension        Dim             ....  334

ORBITAL ENERGIES
----------------

  NO   OCC          E(Eh)            E(eV)
   0   2.0000     -88.044425     -2395.8106
   1   2.0000     -88.042348     -2395.7541
   2   2.0000     -87.993781     -2394.4325
   3   2.0000     -87.979557     -2394.0454
   4   2.0000     -76.430844     -2079.7890
   5   2.0000     -76.423067     -2079.5774
   6   2.0000     -18.800238      -511.5805
   7   2.0000     -18.794130      -511.4143
   8   2.0000     -18.794107      -511.4136
   9   2.0000     -18.782150      -511.0883
  10   2.0000      -9.959128      -271.0016
  11   2.0000      -9.958992      -270.9980
  12   2.0000      -9.956619      -270.9334
  13   2.0000      -9.955431      -270.9011
  14   2.0000      -9.940111      -270.4842
  15   2.0000      -9.894877      -269.2533
  16   2.0000      -9.891216      -269.1537
  17   2.0000      -9.883151      -268.9342
  18   2.0000      -9.872945      -268.6565
  19   2.0000      -7.688886      -209.2252
  20   2.0000      -7.687643      -209.1914
  21   2.0000      -7.638559      -207.8558
  22   2.0000      -7.624928      -207.4848
  23   2.0000      -6.428320      -174.9235
  24   2.0000      -6.420360      -174.7069
  25   2.0000      -5.716511      -155.5542
  26   2.0000      -5.715726      -155.5328
  27   2.0000      -5.713430      -155.4703
  28   2.0000      -5.712265      -155.4386
  29   2.0000      -5.706174      -155.2729
  30   2.0000      -5.704245      -155.2204
  31   2.0000      -5.667239      -154.2134
  32   2.0000      -5.659263      -153.9964
  33   2.0000      -5.658854      -153.9853
  34   2.0000      -5.653991      -153.8529
  35   2.0000      -5.645523      -153.6225
  36   2.0000      -5.644917      -153.6060
  37   2.0000      -4.650981      -126.5596
  38   2.0000      -4.649981      -126.5324
  39   2.0000      -4.648818      -126.5008
  40   2.0000      -4.643192      -126.3477
  41   2.0000      -4.642397      -126.3261
  42   2.0000      -4.640370      -126.2709
  43   2.0000      -0.988926       -26.9101
  44   2.0000      -0.984563       -26.7913
  45   2.0000      -0.951585       -25.8939
  46   2.0000      -0.939363       -25.5614
  47   2.0000      -0.765538       -20.8313
  48   2.0000      -0.725555       -19.7434
  49   2.0000      -0.710176       -19.3249
  50   2.0000      -0.694959       -18.9108
  51   2.0000      -0.686041       -18.6681
  52   2.0000      -0.672196       -18.2914
  53   2.0000      -0.655505       -17.8372
  54   2.0000      -0.637472       -17.3465
  55   2.0000      -0.603677       -16.4269
  56   2.0000      -0.588056       -16.0018
  57   2.0000      -0.581324       -15.8186
  58   2.0000      -0.566461       -15.4142
  59   2.0000      -0.559118       -15.2144
  60   2.0000      -0.505416       -13.7531
  61   2.0000      -0.499160       -13.5828
  62   2.0000      -0.482859       -13.1393
  63   2.0000      -0.470633       -12.8066
  64   2.0000      -0.463136       -12.6026
  65   2.0000      -0.446761       -12.1570
  66   2.0000      -0.443752       -12.0751
  67   2.0000      -0.434976       -11.8363
  68   2.0000      -0.425007       -11.5650
  69   2.0000      -0.416125       -11.3233
  70   2.0000      -0.407166       -11.0795
  71   2.0000      -0.402449       -10.9512
  72   2.0000      -0.398579       -10.8459
  73   2.0000      -0.391192       -10.6449
  74   2.0000      -0.379212       -10.3189
  75   2.0000      -0.378147       -10.2899
  76   2.0000      -0.366429        -9.9710
  77   2.0000      -0.360962        -9.8223
  78   2.0000      -0.355002        -9.6601
  79   2.0000      -0.348516        -9.4836
  80   2.0000      -0.347017        -9.4428
  81   2.0000      -0.344938        -9.3862
  82   2.0000      -0.341678        -9.2975
  83   2.0000      -0.336894        -9.1673
  84   2.0000      -0.331637        -9.0243
  85   2.0000      -0.322314        -8.7706
  86   2.0000      -0.313017        -8.5176
  87   2.0000      -0.300793        -8.1850
  88   2.0000      -0.296073        -8.0565
  89   2.0000      -0.288415        -7.8482
  90   2.0000      -0.286533        -7.7969
  91   2.0000      -0.282067        -7.6754
  92   2.0000      -0.270083        -7.3493
  93   2.0000      -0.269715        -7.3393
  94   2.0000      -0.258417        -7.0319
  95   2.0000      -0.241867        -6.5815
  96   2.0000      -0.219834        -5.9820
  97   2.0000      -0.210399        -5.7253
  98   2.0000      -0.205097        -5.5810
  99   2.0000      -0.198860        -5.4113
 100   2.0000      -0.192943        -5.2502
 101   0.0000      -0.050366        -1.3705
 102   0.0000      -0.026741        -0.7277
 103   0.0000      -0.006572        -0.1788
 104   0.0000      -0.000719        -0.0196
 105   0.0000       0.013247         0.3605

MULLIKEN ATOMIC CHARGES
-----------------------
   0 C :   -0.311011
   1 C :   -0.022714
   2 O :   -0.380283
   3 P :    0.622579
   4 S :   -0.324199
   5 O :   -0.376084
   6 C :   -0.005683
   7 C :   -0.316839
   8 S :   -0.043815
   9 C :   -0.383461
  10 S :   -0.124121
  11 P :    0.617381
  12 S :   -0.312374
  13 O :   -0.382820
  14 C :   -0.011485
  15 C :   -0.308353
  16 O :   -0.349726
  17 C :   -0.023096
  18 C :   -0.271787
  19 H :    0.116031
  20 H :    0.124985
  21 H :    0.133240
  22 H :    0.117623
  23 H :    0.106978
  24 H :    0.113767
  25 H :    0.109244
  26 H :    0.122560
  27 H :    0.115729
  28 H :    0.120248
  29 H :    0.196163
  30 H :    0.192763
  31 H :    0.110084
  32 H :    0.113054
  33 H :    0.128374
  34 H :    0.110547
  35 H :    0.124134
  36 H :    0.119091
  37 H :    0.099820
  38 H :    0.112564
  39 H :    0.116627
  40 H :    0.104264
Sum of atomic charges:    0.0000000

LOEWDIN ATOMIC CHARGES
----------------------
   0 C :   -0.361970
   1 C :   -0.122729
   2 O :   -0.249031
   3 P :    0.566877
   4 S :   -0.302949
   5 O :   -0.246159
   6 C :   -0.119139
   7 C :   -0.364689
   8 S :    0.114118
   9 C :   -0.485088
  10 S :    0.067411
  11 P :    0.570559
  12 S :   -0.309357
  13 O :   -0.245404
  14 C :   -0.113842
  15 C :   -0.369289
  16 O :   -0.230513
  17 C :   -0.120253
  18 C :   -0.351483
  19 H :    0.134529
  20 H :    0.126019
  21 H :    0.118162
  22 H :    0.106763
  23 H :    0.117714
  24 H :    0.110176
  25 H :    0.120957
  26 H :    0.120968
  27 H :    0.132433
  28 H :    0.127586
  29 H :    0.130220
  30 H :    0.130678
  31 H :    0.121803
  32 H :    0.108115
  33 H :    0.131339
  34 H :    0.129727
  35 H :    0.120767
  36 H :    0.101009
  37 H :    0.111298
  38 H :    0.125050
  39 H :    0.119649
  40 H :    0.127971

  Mayer bond orders larger than 0.100000
B(  0-C ,  1-C ) :   1.1710 B(  0-C , 19-H ) :   0.9355 B(  0-C , 20-H ) :   0.9391
B(  0-C , 21-H ) :   0.9294 B(  1-C ,  2-O ) :   0.9073 B(  1-C , 22-H ) :   0.8967
B(  1-C , 23-H ) :   0.9308 B(  2-O ,  3-P ) :   1.0936 B(  3-P ,  4-S ) :   1.5941
B(  3-P ,  5-O ) :   1.1165 B(  3-P ,  8-S ) :   0.9797 B(  4-S ,  8-S ) :   0.1052
B(  5-O ,  6-C ) :   0.9125 B(  6-C ,  7-C ) :   1.1612 B(  6-C , 24-H ) :   0.9141
B(  6-C , 25-H ) :   0.9338 B(  7-C , 26-H ) :   0.9354 B(  7-C , 27-H ) :   0.9390
B(  7-C , 28-H ) :   0.9462 B(  8-S ,  9-C ) :   1.0006 B(  9-C , 10-S ) :   1.0125
B(  9-C , 29-H ) :   0.8649 B(  9-C , 30-H ) :   0.8894 B( 10-S , 11-P ) :   0.9284
B( 10-S , 12-S ) :   0.1055 B( 11-P , 12-S ) :   1.6409 B( 11-P , 13-O ) :   1.0895
B( 11-P , 16-O ) :   1.1546 B( 12-S , 29-H ) :   0.1008 B( 13-O , 14-C ) :   0.9135
B( 14-C , 15-C ) :   1.1661 B( 14-C , 31-H ) :   0.9334 B( 14-C , 32-H ) :   0.9269
B( 15-C , 33-H ) :   0.9429 B( 15-C , 34-H ) :   0.9349 B( 15-C , 35-H ) :   0.9317
B( 16-O , 17-C ) :   0.8812 B( 17-C , 18-C ) :   1.1701 B( 17-C , 36-H ) :   0.9031
B( 17-C , 37-H ) :   0.9309 B( 18-C , 38-H ) :   0.9480 B( 18-C , 39-H ) :   0.9422
B( 18-C , 40-H ) :   0.9406

Dispersion correction           -0.066417459
FINAL SINGLE POINT ENERGY     -2929.521209126203

DIPOLE MOMENT
-------------

Method             : SCF
Type of density    : Electron Density
Multiplicity       :   1
Irrep              :   0
Energy             : -2929.6399256625686576 Eh
Relativity type    :
Basis              : AO
                                X                 Y                 Z
Electronic contribution:    -10.319274827      -7.530661073      -8.454095059
Nuclear contribution   :     11.777121925       8.540659671       9.282130918
                        -----------------------------------------
Total Dipole Moment    :      1.457847098       1.009998597       0.828035859
                        -----------------------------------------
Magnitude (a.u.)       :      1.957309048
Magnitude (Debye)      :      4.975084224

Rotational constants in cm-1:             0.013210             0.004963             0.004530
Rotational constants in MHz :           396.014910           148.786891           135.795259

                             ****ORCA TERMINATED NORMALLY****
TOTAL RUN TIME: 0 days 0 hours 0 minutes 21 seconds 473 msec
