                         Program Version 6.0.0  -   RELEASE  -
|  1> ! r2scan-3c def2/J RI DEFGRID2 scfconv6 printgap
|  2> %output
|  3>     printlevel normal
|  4> end
|  5> * xyz 0 1
|  6> C 3.5917541216 1.2977755443 2.6786032447
|  7> C 2.3766961153 1.608337889 1.8299171122
|  8> O 2.4423294758 0.956498237 0.5451856279
|  9> P 2.2765121003 -0.6065394985 0.3721838493
| 10> S 1.0733349722 -1.4988078427 1.6415013013
| 11> O 3.7848732135 -1.1019099698 0.4133442601
| 12> C 4.1481761713 -2.4834086271 0.5779008129
| 13> C 3.7703771662 -3.3221270268 -0.6260421158
| 14> S 1.7424913048 -0.6760330532 -1.672338735
| 15> C -0.0367097865 -0.5826959205 -1.4101887985
| 16> S -0.5216591251 1.0334656992 -0.7128563537
| 17> P -2.5885956375 0.5276719222 -0.5825377829
| 18> S -3.318668797 -0.4367066315 -2.1156670573
| 19> O -3.2996626492 1.8942445834 -0.1919514401
| 20> C -3.7737324043 2.8291781342 -1.1808678589
| 21> C -2.6435442921 3.432629898 -1.9884234693
| 22> O -2.7154885505 -0.3085985259 0.7485934819
| 23> C -2.4056488806 0.2447927689 2.0531572404
| 24> C -2.3535782002 -0.9006754561 3.0409717111
| 25> H 4.5006325224 1.5324221201 2.13106506
| 26> H 3.5549862155 1.8858987266 3.5902231114
| 27> H 3.601458592 0.2400438229 2.9390505035
| 28> H 2.3113870306 2.6679589167 1.5806534446
| 29> H 1.4596960979 1.2878254846 2.3353059357
| 30> H 5.2286840965 -2.4536202421 0.7243586111
| 31> H 3.6602023404 -2.8650385514 1.4808454656
| 32> H 4.1739513357 -4.3227476385 -0.5083078252
| 33> H 2.6863649191 -3.3874175354 -0.7125507889
| 34> H 4.1653611726 -2.8766009172 -1.5355908547
| 35> H -0.3426417014 -1.3670477694 -0.7141491227
| 36> H -0.5175162153 -0.7130655522 -2.3786532904
| 37> H -4.4792845553 2.308678615 -1.8351885945
| 38> H -4.297439787 3.5831661071 -0.591545592
| 39> H -1.8858945717 3.8491475165 -1.3291712676
| 40> H -2.1837715542 2.6685892654 -2.6137352887
| 41> H -3.0381824578 4.2168271901 -2.6264135242
| 42> H -1.4439410339 0.7628929049 1.9899164984
| 43> H -3.1869641095 0.963643091 2.3058701696
| 44> H -3.2853340676 -1.4578007168 3.0124263565
| 45> H -1.5335751873 -1.5716808972 2.7954686976
| 46> H -2.1987447142 -0.503026006 4.0385619269
| 47> *
| 48>
| 49>                          ****END OF INPUT****

CARTESIAN COORDINATES (ANGSTROEM)
---------------------------------
  C      3.591754    1.297776    2.678603
  C      2.376696    1.608338    1.829917
  O      2.442329    0.956498    0.545186
  P      2.276512   -0.606539    0.372184
  S      1.073335   -1.498808    1.641501
  O      3.784873   -1.101910    0.413344
  C      4.148176   -2.483409    0.577901
  C      3.770377   -3.322127   -0.626042
  S      1.742491   -0.676033   -1.672339
  C     -0.036710   -0.582696   -1.410189
  S     -0.521659    1.033466   -0.712856
  P     -2.588596    0.527672   -0.582538
  S     -3.318669   -0.436707   -2.115667
  O     -3.299663    1.894245   -0.191951
  C     -3.773732    2.829178   -1.180868
  C     -2.643544    3.432630   -1.988423
  O     -2.715489   -0.308599    0.748593
  C     -2.405649    0.244793    2.053157
  C     -2.353578   -0.900675    3.040972
  H      4.500633    1.532422    2.131065
  H      3.554986    1.885899    3.590223
  H      3.601459    0.240044    2.939051
  H      2.311387    2.667959    1.580653
  H      1.459696    1.287825    2.335306
  H      5.228684   -2.453620    0.724359
  H      3.660202   -2.865039    1.480845
  H      4.173951   -4.322748   -0.508308
  H      2.686365   -3.387418   -0.712551
  H      4.165361   -2.876601   -1.535591
  H     -0.342642   -1.367048   -0.714149
  H     -0.517516   -0.713066   -2.378653
  H     -4.479285    2.308679   -1.835189
  H     -4.297440    3.583166   -0.591546
  H     -1.885895    3.849148   -1.329171
  H     -2.183772    2.668589   -2.613735
  H     -3.038182    4.216827   -2.626414
  H     -1.443941    0.762893    1.989916
  H     -3.186964    0.963643    2.305870
  H     -3.285334   -1.457801    3.012426
  H     -1.533575   -1.571681    2.795469
  H     -2.198745   -0.503026    4.038562

 Total Charge           Charge          ....    0
 Multiplicity           Mult            ....    1
 Number of Electrons    NEL             ....  202
 Basis Dimension        Dim             ....  539

ORBITAL ENERGIES
----------------

  NO   OCC          E(Eh)            E(eV)
   0   2.0000     -88.581788     -2410.4330
   1   2.0000     -88.569925     -2410.1102
   2   2.0000     -88.526244     -2408.9216
   3   2.0000     -88.516357     -2408.6525
   4   2.0000     -76.918714     -2093.0646
   5   2.0000     -76.910274     -2092.8350
   6   2.0000     -18.998047      -516.9631
   7   2.0000     -18.993954      -516.8518
   8   2.0000     -18.993400      -516.8367
   9   2.0000     -18.986355      -516.6450
  10   2.0000     -10.103142      -274.9205
  11   2.0000     -10.102321      -274.8981
  12   2.0000     -10.101381      -274.8725
  13   2.0000     -10.100121      -274.8383
  14   2.0000     -10.094491      -274.6851
  15   2.0000     -10.032813      -273.0067
  16   2.0000     -10.032190      -272.9898
  17   2.0000     -10.028728      -272.8956
  18   2.0000     -10.024683      -272.7855
  19   2.0000      -7.875959      -214.3157
  20   2.0000      -7.863969      -213.9895
  21   2.0000      -7.821081      -212.8224
  22   2.0000      -7.811189      -212.5533
  23   2.0000      -6.597384      -179.5239
  24   2.0000      -6.588772      -179.2896
  25   2.0000      -5.822851      -158.4478
  26   2.0000      -5.819971      -158.3695
  27   2.0000      -5.812925      -158.1777
  28   2.0000      -5.810734      -158.1181
  29   2.0000      -5.808028      -158.0445
  30   2.0000      -5.801050      -157.8546
  31   2.0000      -5.768638      -156.9726
  32   2.0000      -5.761497      -156.7783
  33   2.0000      -5.761020      -156.7653
  34   2.0000      -5.758846      -156.7062
  35   2.0000      -5.751485      -156.5059
  36   2.0000      -5.751161      -156.4970
  37   2.0000      -4.742725      -129.0561
  38   2.0000      -4.742284      -129.0441
  39   2.0000      -4.741262      -129.0163
  40   2.0000      -4.734706      -128.8379
  41   2.0000      -4.733652      -128.8092
  42   2.0000      -4.732182      -128.7692
  43   2.0000      -1.054958       -28.7069
  44   2.0000      -1.049333       -28.5538
  45   2.0000      -1.016185       -27.6518
  46   2.0000      -1.007722       -27.4215
  47   2.0000      -0.801678       -21.8148
  48   2.0000      -0.759732       -20.6733
  49   2.0000      -0.749960       -20.4075
  50   2.0000      -0.735530       -20.0148
  51   2.0000      -0.732093       -19.9213
  52   2.0000      -0.713132       -19.4053
  53   2.0000      -0.688362       -18.7313
  54   2.0000      -0.666961       -18.1489
  55   2.0000      -0.636909       -17.3312
  56   2.0000      -0.622881       -16.9495
  57   2.0000      -0.610016       -16.5994
  58   2.0000      -0.599329       -16.3086
  59   2.0000      -0.587392       -15.9837
  60   2.0000      -0.528237       -14.3741
  61   2.0000      -0.521413       -14.1884
  62   2.0000      -0.497037       -13.5251
  63   2.0000      -0.492542       -13.4027
  64   2.0000      -0.471300       -12.8247
  65   2.0000      -0.468103       -12.7377
  66   2.0000      -0.462072       -12.5736
  67   2.0000      -0.454062       -12.3556
  68   2.0000      -0.446162       -12.1407
  69   2.0000      -0.442183       -12.0324
  70   2.0000      -0.427711       -11.6386
  71   2.0000      -0.414735       -11.2855
  72   2.0000      -0.409564       -11.1448
  73   2.0000      -0.405794       -11.0422
  74   2.0000      -0.404051       -10.9948
  75   2.0000      -0.385793       -10.4980
  76   2.0000      -0.380265       -10.3475
  77   2.0000      -0.374475       -10.1900
  78   2.0000      -0.369009       -10.0412
  79   2.0000      -0.366808        -9.9814
  80   2.0000      -0.364210        -9.9107
  81   2.0000      -0.361520        -9.8375
  82   2.0000      -0.355580        -9.6758
  83   2.0000      -0.351751        -9.5716
  84   2.0000      -0.348904        -9.4942
  85   2.0000      -0.331935        -9.0324
  86   2.0000      -0.324341        -8.8258
  87   2.0000      -0.315276        -8.5791
  88   2.0000      -0.313746        -8.5375
  89   2.0000      -0.309080        -8.4105
  90   2.0000      -0.302926        -8.2430
  91   2.0000      -0.294414        -8.0114
  92   2.0000      -0.283720        -7.7204
  93   2.0000      -0.280157        -7.6235
  94   2.0000      -0.272240        -7.4080
  95   2.0000      -0.243829        -6.6349
  96   2.0000      -0.234403        -6.3784
  97   2.0000      -0.225979        -6.1492
  98   2.0000      -0.223309        -6.0765
  99   2.0000      -0.218222        -5.9381
 100   2.0000      -0.208533        -5.6745
 101   0.0000      -0.045885        -1.2486
 102   0.0000      -0.030243        -0.8229
 103   0.0000      -0.004609        -0.1254
 104   0.0000       0.003891         0.1059
 105   0.0000       0.016692         0.4542

MULLIKEN ATOMIC CHARGES
-----------------------
   0 C :   -0.441901
   1 C :   -0.143950
   2 O :   -0.305487
   3 P :    0.701722
   4 S :   -0.485902
   5 O :   -0.301343
   6 C :   -0.151158
   7 C :   -0.452601
   8 S :   -0.110189
   9 C :   -0.220727
  10 S :   -0.159232
  11 P :    0.617964
  12 S :   -0.442404
  13 O :   -0.291069
  14 C :   -0.159780
  15 C :   -0.451374
  16 O :   -0.249920
  17 C :   -0.109251
  18 C :   -0.452321
  19 H :    0.158193
  20 H :    0.147023
  21 H :    0.165089
  22 H :    0.152995
  23 H :    0.166550
  24 H :    0.149394
  25 H :    0.171414
  26 H :    0.149532
  27 H :    0.177229
  28 H :    0.156903
  29 H :    0.213863
  30 H :    0.215818
  31 H :    0.174273
  32 H :    0.147609
  33 H :    0.153438
  34 H :    0.182773
  35 H :    0.147759
  36 H :    0.158252
  37 H :    0.153695
  38 H :    0.154885
  39 H :    0.168965
  40 H :    0.143271
Sum of atomic charges:    0.0000000

LOEWDIN ATOMIC CHARGES
----------------------
   0 C :   -0.398009
   1 C :    0.019824
   2 O :   -0.672278
   3 P :    0.378544
   4 S :   -0.127764
   5 O :   -0.660109
   6 C :    0.020827
   7 C :   -0.405648
   8 S :    0.180215
   9 C :   -0.415855
  10 S :    0.129574
  11 P :    0.373639
  12 S :   -0.102568
  13 O :   -0.666170
  14 C :    0.022992
  15 C :   -0.408583
  16 O :   -0.651641
  17 C :    0.019871
  18 C :   -0.390636
  19 H :    0.161871
  20 H :    0.159480
  21 H :    0.164059
  22 H :    0.181288
  23 H :    0.178516
  24 H :    0.180226
  25 H :    0.179397
  26 H :    0.160352
  27 H :    0.165615
  28 H :    0.160731
  29 H :    0.188508
  30 H :    0.189828
  31 H :    0.180590
  32 H :    0.179293
  33 H :    0.159626
  34 H :    0.167849
  35 H :    0.159683
  36 H :    0.176481
  37 H :    0.173517
  38 H :    0.161249
  39 H :    0.166335
  40 H :    0.159283

  Mayer bond orders larger than 0.100000
B(  0-C ,  1-C ) :   0.9308 B(  0-C , 19-H ) :   0.9716 B(  0-C , 20-H ) :   0.9623
B(  0-C , 21-H ) :   0.9603 B(  1-C ,  2-O ) :   0.7988 B(  1-C , 22-H ) :   0.9608
B(  1-C , 23-H ) :   0.9649 B(  2-O ,  3-P ) :   1.1686 B(  3-P ,  4-S ) :   1.7243
B(  3-P ,  5-O ) :   1.0647 B(  3-P ,  8-S ) :   1.0991 B(  5-O ,  6-C ) :   0.8123
B(  6-C ,  7-C ) :   0.9217 B(  6-C , 24-H ) :   0.9585 B(  6-C , 25-H ) :   0.9665
B(  7-C , 26-H ) :   0.9583 B(  7-C , 27-H ) :   0.9615 B(  7-C , 28-H ) :   0.9686
B(  8-S ,  9-C ) :   0.9224 B(  9-C , 10-S ) :   0.8775 B(  9-C , 29-H ) :   0.9221
B(  9-C , 30-H ) :   0.9001 B( 10-S , 11-P ) :   1.0117 B( 11-P , 12-S ) :   1.8470
B( 11-P , 13-O ) :   1.0414 B( 11-P , 16-O ) :   1.1679 B( 13-O , 14-C ) :   0.8157
B( 14-C , 15-C ) :   0.9167 B( 14-C , 31-H ) :   0.9675 B( 14-C , 32-H ) :   0.9619
B( 15-C , 33-H ) :   0.9683 B( 15-C , 34-H ) :   0.9622 B( 15-C , 35-H ) :   0.9560
B( 16-O , 17-C ) :   0.7343 B( 17-C , 18-C ) :   0.9517 B( 17-C , 36-H ) :   0.9433
B( 17-C , 37-H ) :   0.9441 B( 18-C , 38-H ) :   0.9738 B( 18-C , 39-H ) :   0.9623
B( 18-C , 40-H ) :   0.9660

Dispersion correction           -0.021041811
FINAL SINGLE POINT ENERGY     -2932.463751430274

DIPOLE MOMENT
-------------

Method             : SCF
Type of density    : Electron Density
Multiplicity       :   1
Irrep              :   0
Energy             : -2932.4889299947517429 Eh
Relativity type    :
Basis              : AO
                                X                 Y                 Z
Electronic contribution:     -5.771169109      -3.353734383     -12.504995471
Nuclear contribution   :      6.831408648       4.311451243      13.501157979
                        -----------------------------------------
Total Dipole Moment    :      1.060239539       0.957716860       0.996162508
                        -----------------------------------------
Magnitude (a.u.)       :      1.741743152
Magnitude (Debye)      :      4.427159260

Rotational constants in cm-1:             0.012256             0.004580             0.004401
Rotational constants in MHz :           367.439181           137.312265           131.932060

                             ****ORCA TERMINATED NORMALLY****
TOTAL RUN TIME: 0 days 0 hours 1 minutes 16 seconds 925 msec
