                         Program Version 6.0.0  -   RELEASE  -
|  1> ! r2scan-3c def2/J RI DEFGRID2 scfconv6 printgap
|  2> %output
|  3>     printlevel normal
|  4> end
|  5> %cpcm
|  6>     smd true
|  7>     smdsolvent "water"
|  8> end
|  9> * xyz 0 1
| 10> C 3.5917541216 1.2977755443 2.6786032447
| 11> C 2.3766961153 1.608337889 1.8299171122
| 12> O 2.4423294758 0.956498237 0.5451856279
| 13> P 2.2765121003 -0.6065394985 0.3721838493
| 14> S 1.0733349722 -1.4988078427 1.6415013013
| 15> O 3.7848732135 -1.1019099698 0.4133442601
| 16> C 4.1481761713 -2.4834086271 0.5779008129
| 17> C 3.7703771662 -3.3221270268 -0.6260421158
| 18> S 1.7424913048 -0.6760330532 -1.672338735
| 19> C -0.0367097865 -0.5826959205 -1.4101887985
| 20> S -0.5216591251 1.0334656992 -0.7128563537
| 21> P -2.5885956375 0.5276719222 -0.5825377829
| 22> S -3.318668797 -0.4367066315 -2.1156670573
| 23> O -3.2996626492 1.8942445834 -0.1919514401
| 24> C -3.7737324043 2.8291781342 -1.1808678589
| 25> C -2.6435442921 3.432629898 -1.9884234693
| 26> O -2.7154885505 -0.3085985259 0.7485934819
| 27> C -2.4056488806 0.2447927689 2.0531572404
| 28> C -2.3535782002 -0.9006754561 3.0409717111
| 29> H 4.5006325224 1.5324221201 2.13106506
| 30> H 3.5549862155 1.8858987266 3.5902231114
| 31> H 3.601458592 0.2400438229 2.9390505035
| 32> H 2.3113870306 2.6679589167 1.5806534446
| 33> H 1.4596960979 1.2878254846 2.3353059357
| 34> H 5.2286840965 -2.4536202421 0.7243586111
| 35> H 3.6602023404 -2.8650385514 1.4808454656
| 36> H 4.1739513357 -4.3227476385 -0.5083078252
| 37> H 2.6863649191 -3.3874175354 -0.7125507889
| 38> H 4.1653611726 -2.8766009172 -1.5355908547
| 39> H -0.3426417014 -1.3670477694 -0.7141491227
| 40> H -0.5175162153 -0.7130655522 -2.3786532904
| 41> H -4.4792845553 2.308678615 -1.8351885945
| 42> H -4.297439787 3.5831661071 -0.591545592
| 43> H -1.8858945717 3.8491475165 -1.3291712676
| 44> H -2.1837715542 2.6685892654 -2.6137352887
| 45> H -3.0381824578 4.2168271901 -2.6264135242
| 46> H -1.4439410339 0.7628929049 1.9899164984
| 47> H -3.1869641095 0.963643091 2.3058701696
| 48> H -3.2853340676 -1.4578007168 3.0124263565
| 49> H -1.5335751873 -1.5716808972 2.7954686976
| 50> H -2.1987447142 -0.503026006 4.0385619269
| 51> *
| 52>
| 53>                          ****END OF INPUT****

CARTESIAN COORDINATES (ANGSTROEM)
---------------------------------
  C      3.591754    1.297776    2.678603
  C      2.376696    1.608338    1.829917
  O      2.442329    0.956498    0.545186
  P      2.276512   -0.606539    0.372184
  S      1.073335   -1.498808    1.641501
  O      3.784873   -1.101910    0.413344
  C      4.148176   -2.483409    0.577901
  C      3.770377   -3.322127   -0.626042
  S      1.742491   -0.676033   -1.672339
  C     -0.036710   -0.582696   -1.410189
  S     -0.521659    1.033466   -0.712856
  P     -2.588596    0.527672   -0.582538
  S     -3.318669   -0.436707   -2.115667
  O     -3.299663    1.894245   -0.191951
  C     -3.773732    2.829178   -1.180868
  C     -2.643544    3.432630   -1.988423
  O     -2.715489   -0.308599    0.748593
  C     -2.405649    0.244793    2.053157
  C     -2.353578   -0.900675    3.040972
  H      4.500633    1.532422    2.131065
  H      3.554986    1.885899    3.590223
  H      3.601459    0.240044    2.939051
  H      2.311387    2.667959    1.580653
  H      1.459696    1.287825    2.335306
  H      5.228684   -2.453620    0.724359
  H      3.660202   -2.865039    1.480845
  H      4.173951   -4.322748   -0.508308
  H      2.686365   -3.387418   -0.712551
  H      4.165361   -2.876601   -1.535591
  H     -0.342642   -1.367048   -0.714149
  H     -0.517516   -0.713066   -2.378653
  H     -4.479285    2.308679   -1.835189
  H     -4.297440    3.583166   -0.591546
  H     -1.885895    3.849148   -1.329171
  H     -2.183772    2.668589   -2.613735
  H     -3.038182    4.216827   -2.626414
  H     -1.443941    0.762893    1.989916
  H     -3.186964    0.963643    2.305870
  H     -3.285334   -1.457801    3.012426
  H     -1.533575   -1.571681    2.795469
  H     -2.198745   -0.503026    4.038562

 Total Charge           Charge          ....    0
 Multiplicity           Mult            ....    1
 Number of Electrons    NEL             ....  202
 Basis Dimension        Dim             ....  539

ORBITAL ENERGIES
----------------

  NO   OCC          E(Eh)            E(eV)
   0   2.0000     -88.585281     -2410.5280
   1   2.0000     -88.575613     -2410.2650
   2   2.0000     -88.529315     -2409.0051
   3   2.0000     -88.529244     -2409.0032
   4   2.0000     -76.920556     -2093.1147
   5   2.0000     -76.919365     -2093.0823
   6   2.0000     -18.997482      -516.9478
   7   2.0000     -18.997195      -516.9399
   8   2.0000     -18.994850      -516.8762
   9   2.0000     -18.994180      -516.8579
  10   2.0000     -10.104359      -274.9536
  11   2.0000     -10.091432      -274.6018
  12   2.0000     -10.090671      -274.5811
  13   2.0000     -10.090400      -274.5737
  14   2.0000     -10.089849      -274.5588
  15   2.0000     -10.019316      -272.6394
  16   2.0000     -10.019174      -272.6356
  17   2.0000     -10.019098      -272.6335
  18   2.0000     -10.019070      -272.6328
  19   2.0000      -7.879472      -214.4113
  20   2.0000      -7.869618      -214.1432
  21   2.0000      -7.824508      -212.9157
  22   2.0000      -7.824249      -212.9087
  23   2.0000      -6.599305      -179.5762
  24   2.0000      -6.597918      -179.5385
  25   2.0000      -5.826331      -158.5425
  26   2.0000      -5.823471      -158.4647
  27   2.0000      -5.816485      -158.2746
  28   2.0000      -5.816401      -158.2723
  29   2.0000      -5.813701      -158.1988
  30   2.0000      -5.806670      -158.0075
  31   2.0000      -5.772056      -157.0656
  32   2.0000      -5.771786      -157.0583
  33   2.0000      -5.764762      -156.8671
  34   2.0000      -5.764680      -156.8649
  35   2.0000      -5.764561      -156.8617
  36   2.0000      -5.764163      -156.8508
  37   2.0000      -4.744590      -129.1069
  38   2.0000      -4.744209      -129.0965
  39   2.0000      -4.743796      -129.0853
  40   2.0000      -4.743241      -129.0702
  41   2.0000      -4.742760      -129.0571
  42   2.0000      -4.741452      -129.0215
  43   2.0000      -1.054824       -28.7032
  44   2.0000      -1.054532       -28.6953
  45   2.0000      -1.015124       -27.6229
  46   2.0000      -1.013063       -27.5668
  47   2.0000      -0.804834       -21.9006
  48   2.0000      -0.758114       -20.6293
  49   2.0000      -0.744787       -20.2667
  50   2.0000      -0.726070       -19.7574
  51   2.0000      -0.724426       -19.7126
  52   2.0000      -0.712662       -19.3925
  53   2.0000      -0.690983       -18.8026
  54   2.0000      -0.674277       -18.3480
  55   2.0000      -0.633327       -17.2337
  56   2.0000      -0.619927       -16.8691
  57   2.0000      -0.600564       -16.3422
  58   2.0000      -0.598682       -16.2910
  59   2.0000      -0.587417       -15.9844
  60   2.0000      -0.527665       -14.3585
  61   2.0000      -0.515251       -14.0207
  62   2.0000      -0.492107       -13.3909
  63   2.0000      -0.490312       -13.3421
  64   2.0000      -0.470512       -12.8033
  65   2.0000      -0.468527       -12.7493
  66   2.0000      -0.454992       -12.3810
  67   2.0000      -0.450800       -12.2669
  68   2.0000      -0.442601       -12.0438
  69   2.0000      -0.440304       -11.9813
  70   2.0000      -0.423329       -11.5194
  71   2.0000      -0.409116       -11.1326
  72   2.0000      -0.406588       -11.0638
  73   2.0000      -0.405124       -11.0240
  74   2.0000      -0.401571       -10.9273
  75   2.0000      -0.383596       -10.4382
  76   2.0000      -0.381526       -10.3818
  77   2.0000      -0.366873        -9.9831
  78   2.0000      -0.365919        -9.9572
  79   2.0000      -0.358645        -9.7592
  80   2.0000      -0.356814        -9.7094
  81   2.0000      -0.352646        -9.5960
  82   2.0000      -0.350768        -9.5449
  83   2.0000      -0.348249        -9.4763
  84   2.0000      -0.345278        -9.3955
  85   2.0000      -0.326829        -8.8935
  86   2.0000      -0.324968        -8.8428
  87   2.0000      -0.316332        -8.6078
  88   2.0000      -0.306739        -8.3468
  89   2.0000      -0.305473        -8.3123
  90   2.0000      -0.299425        -8.1478
  91   2.0000      -0.291253        -7.9254
  92   2.0000      -0.281734        -7.6664
  93   2.0000      -0.280957        -7.6452
  94   2.0000      -0.276509        -7.5242
  95   2.0000      -0.247675        -6.7396
  96   2.0000      -0.240890        -6.5550
  97   2.0000      -0.232586        -6.3290
  98   2.0000      -0.231198        -6.2912
  99   2.0000      -0.227737        -6.1970
 100   2.0000      -0.218395        -5.9428
 101   0.0000      -0.049952        -1.3592
 102   0.0000      -0.037200        -1.0123
 103   0.0000      -0.009846        -0.2679
 104   0.0000       0.000308         0.0084
 105   0.0000       0.015763         0.4289

MULLIKEN ATOMIC CHARGES
-----------------------
   0 C :   -0.483268
   1 C :   -0.142313
   2 O :   -0.334694
   3 P :    0.732764
   4 S :   -0.519268
   5 O :   -0.324748
   6 C :   -0.152317
   7 C :   -0.487996
   8 S :   -0.123757
   9 C :   -0.226699
  10 S :   -0.161330
  11 P :    0.636156
  12 S :   -0.497759
  13 O :   -0.308887
  14 C :   -0.152102
  15 C :   -0.487958
  16 O :   -0.285941
  17 C :   -0.101636
  18 C :   -0.496150
  19 H :    0.169982
  20 H :    0.172431
  21 H :    0.167629
  22 H :    0.177731
  23 H :    0.176665
  24 H :    0.176182
  25 H :    0.178415
  26 H :    0.173887
  27 H :    0.172822
  28 H :    0.170237
  29 H :    0.221907
  30 H :    0.233602
  31 H :    0.179340
  32 H :    0.176233
  33 H :    0.170077
  34 H :    0.174686
  35 H :    0.173304
  36 H :    0.172348
  37 H :    0.175249
  38 H :    0.166520
  39 H :    0.165593
  40 H :    0.173065
Sum of atomic charges:    0.0000000

LOEWDIN ATOMIC CHARGES
----------------------
   0 C :   -0.401362
   1 C :    0.024780
   2 O :   -0.688684
   3 P :    0.382172
   4 S :   -0.145339
   5 O :   -0.671144
   6 C :    0.026399
   7 C :   -0.409060
   8 S :    0.174586
   9 C :   -0.415090
  10 S :    0.131906
  11 P :    0.377351
  12 S :   -0.144407
  13 O :   -0.671067
  14 C :    0.029291
  15 C :   -0.410906
  16 O :   -0.674641
  17 C :    0.025953
  18 C :   -0.395339
  19 H :    0.164317
  20 H :    0.169086
  21 H :    0.162728
  22 H :    0.191312
  23 H :    0.182117
  24 H :    0.191540
  25 H :    0.181714
  26 H :    0.169148
  27 H :    0.161507
  28 H :    0.163847
  29 H :    0.190184
  30 H :    0.195560
  31 H :    0.181924
  32 H :    0.191740
  33 H :    0.163974
  34 H :    0.162281
  35 H :    0.169121
  36 H :    0.182062
  37 H :    0.183307
  38 H :    0.164079
  39 H :    0.162453
  40 H :    0.170601

  Mayer bond orders larger than 0.100000
B(  0-C ,  1-C ) :   0.9204 B(  0-C , 19-H ) :   0.9708 B(  0-C , 20-H ) :   0.9561
B(  0-C , 21-H ) :   0.9589 B(  1-C ,  2-O ) :   0.7865 B(  1-C , 22-H ) :   0.9510
B(  1-C , 23-H ) :   0.9590 B(  2-O ,  3-P ) :   1.1710 B(  3-P ,  4-S ) :   1.6968
B(  3-P ,  5-O ) :   1.0724 B(  3-P ,  8-S ) :   1.1003 B(  5-O ,  6-C ) :   0.8011
B(  6-C ,  7-C ) :   0.9075 B(  6-C , 24-H ) :   0.9489 B(  6-C , 25-H ) :   0.9653
B(  7-C , 26-H ) :   0.9530 B(  7-C , 27-H ) :   0.9630 B(  7-C , 28-H ) :   0.9658
B(  8-S ,  9-C ) :   0.9194 B(  9-C , 10-S ) :   0.8708 B(  9-C , 29-H ) :   0.9189
B(  9-C , 30-H ) :   0.8946 B( 10-S , 11-P ) :   1.0221 B( 11-P , 12-S ) :   1.8247
B( 11-P , 13-O ) :   1.0546 B( 11-P , 16-O ) :   1.1709 B( 13-O , 14-C ) :   0.8027
B( 14-C , 15-C ) :   0.9046 B( 14-C , 31-H ) :   0.9660 B( 14-C , 32-H ) :   0.9507
B( 15-C , 33-H ) :   0.9650 B( 15-C , 34-H ) :   0.9644 B( 15-C , 35-H ) :   0.9506
B( 16-O , 17-C ) :   0.7250 B( 17-C , 18-C ) :   0.9382 B( 17-C , 36-H ) :   0.9380
B( 17-C , 37-H ) :   0.9350 B( 18-C , 38-H ) :   0.9707 B( 18-C , 39-H ) :   0.9648
B( 18-C , 40-H ) :   0.9599

Dispersion correction           -0.021041811
FINAL SINGLE POINT ENERGY     -2932.472359293497

DIPOLE MOMENT
-------------

Method             : SCF
Type of density    : Electron Density
Multiplicity       :   1
Irrep              :   0
Energy             : -2932.4975378579752032 Eh
Relativity type    :
Basis              : AO
                                X                 Y                 Z
Electronic contribution:     -5.497395379      -2.895530714     -12.108264805
Nuclear contribution   :      6.831408648       4.311451243      13.501157979
                        -----------------------------------------
Total Dipole Moment    :      1.334013269       1.415920529       1.392893174
                        -----------------------------------------
Magnitude (a.u.)       :      2.392608146
Magnitude (Debye)      :      6.081526601

Rotational constants in cm-1:             0.012256             0.004580             0.004401
Rotational constants in MHz :           367.439181           137.312265           131.932060

                             ****ORCA TERMINATED NORMALLY****
TOTAL RUN TIME: 0 days 0 hours 1 minutes 43 seconds 463 msec
