                         Program Version 6.0.0  -   RELEASE  -
|  1> ! pbe def2-sv(p) def2/J RI DEFGRID1 loosescf d4 GCP(DFT/SV(P)) printgap
|  2> %output
|  3>     printlevel normal
|  4> end
|  5> * xyz 0 1
|  6> C 2.6453806542 0.6317118139 -3.3474507107
|  7> C 2.7955424443 0.9416748451 -1.8733502317
|  8> O 2.4523895068 -0.2496103859 -1.1350215879
|  9> P 2.1656888682 -0.2453722429 0.4218266017
| 10> S 1.1460080829 1.3187002432 1.0471685806
| 11> O 3.639054606 -0.3543600811 1.0091507364
| 12> C 3.996961486 -0.8523383385 2.3134455146
| 13> C 3.1222458247 -0.3064510292 3.4220777735
| 14> S 1.3977491606 -2.183398095 0.6717775538
| 15> C -0.2004125081 -2.0136194362 -0.1664592826
| 16> S -1.4598941601 -1.1427764721 0.8137392457
| 17> P -1.9188877543 0.4722230731 -0.5091623525
| 18> S -0.8503192959 0.593091131 -2.1404257737
| 19> O -1.846254532 1.8133108008 0.3018315311
| 20> C -2.4411243767 1.9997637611 1.6093112841
| 21> C -3.729700487 2.7872461022 1.4964958504
| 22> O -3.4974440107 0.3232082999 -0.6942453749
| 23> C -4.1898363447 -0.8786579493 -1.0735181465
| 24> C -3.7674206434 -1.3980526876 -2.4324982724
| 25> H 3.2573584776 -0.2264004795 -3.6086984794
| 26> H 1.604776703 0.4115036069 -3.5742839182
| 27> H 2.9608745914 1.4941807654 -3.9250149709
| 28> H 2.1242351015 1.750556626 -1.5643582473
| 29> H 3.8232992108 1.2113433901 -1.6183645079
| 30> H 3.9407857438 -1.9437029009 2.2779244926
| 31> H 5.035458988 -0.5379092614 2.432558653
| 32> H 3.4865026576 -0.6682073757 4.3782252728
| 33> H 3.1362244797 0.78115691 3.4180382767
| 34> H 2.0931363327 -0.6381223129 3.285633048
| 35> H -0.5488229629 -3.0310281005 -0.3244932908
| 36> H -0.0624001098 -1.4813647548 -1.1127088976
| 37> H -2.6093938015 1.0210790349 2.0680426733
| 38> H -1.6814990221 2.5397946583 2.1787441097
| 39> H -4.45667401 2.2361194867 0.9057119876
| 40> H -4.1277065064 2.9586501785 2.4915849686
| 41> H -3.5390304744 3.7424652764 1.015222266
| 42> H -4.0197352221 -1.6318313174 -0.2985131671
| 43> H -5.2394705462 -0.5793883377 -1.0735545833
| 44> H -2.7241257949 -1.7088260072 -2.4134201519
| 45> H -4.3865501748 -2.2480912316 -2.7003227904
| 46> H -3.8767816713 -0.620849412 -3.1850270375
| 47> *
| 48>
| 49>                          ****END OF INPUT****

CARTESIAN COORDINATES (ANGSTROEM)
---------------------------------
  C      2.645381    0.631712   -3.347451
  C      2.795542    0.941675   -1.873350
  O      2.452390   -0.249610   -1.135022
  P      2.165689   -0.245372    0.421827
  S      1.146008    1.318700    1.047169
  O      3.639055   -0.354360    1.009151
  C      3.996961   -0.852338    2.313446
  C      3.122246   -0.306451    3.422078
  S      1.397749   -2.183398    0.671778
  C     -0.200413   -2.013619   -0.166459
  S     -1.459894   -1.142776    0.813739
  P     -1.918888    0.472223   -0.509162
  S     -0.850319    0.593091   -2.140426
  O     -1.846255    1.813311    0.301832
  C     -2.441124    1.999764    1.609311
  C     -3.729700    2.787246    1.496496
  O     -3.497444    0.323208   -0.694245
  C     -4.189836   -0.878658   -1.073518
  C     -3.767421   -1.398053   -2.432498
  H      3.257358   -0.226400   -3.608698
  H      1.604777    0.411504   -3.574284
  H      2.960875    1.494181   -3.925015
  H      2.124235    1.750557   -1.564358
  H      3.823299    1.211343   -1.618365
  H      3.940786   -1.943703    2.277924
  H      5.035459   -0.537909    2.432559
  H      3.486503   -0.668207    4.378225
  H      3.136224    0.781157    3.418038
  H      2.093136   -0.638122    3.285633
  H     -0.548823   -3.031028   -0.324493
  H     -0.062400   -1.481365   -1.112709
  H     -2.609394    1.021079    2.068043
  H     -1.681499    2.539795    2.178744
  H     -4.456674    2.236119    0.905712
  H     -4.127707    2.958650    2.491585
  H     -3.539030    3.742465    1.015222
  H     -4.019735   -1.631831   -0.298513
  H     -5.239471   -0.579388   -1.073555
  H     -2.724126   -1.708826   -2.413420
  H     -4.386550   -2.248091   -2.700323
  H     -3.876782   -0.620849   -3.185027

 Total Charge           Charge          ....    0
 Multiplicity           Mult            ....    1
 Number of Electrons    NEL             ....  202
 Basis Dimension        Dim             ....  334

ORBITAL ENERGIES
----------------

  NO   OCC          E(Eh)            E(eV)
   0   2.0000     -88.042911     -2395.7694
   1   2.0000     -88.042581     -2395.7604
   2   2.0000     -87.982999     -2394.1391
   3   2.0000     -87.973376     -2393.8773
   4   2.0000     -76.424356     -2079.6124
   5   2.0000     -76.418590     -2079.4556
   6   2.0000     -18.788722      -511.2671
   7   2.0000     -18.786347      -511.2025
   8   2.0000     -18.783469      -511.1242
   9   2.0000     -18.777443      -510.9602
  10   2.0000      -9.957556      -270.9589
  11   2.0000      -9.955004      -270.8894
  12   2.0000      -9.954311      -270.8706
  13   2.0000      -9.953232      -270.8412
  14   2.0000      -9.937539      -270.4142
  15   2.0000      -9.884142      -268.9612
  16   2.0000      -9.883286      -268.9379
  17   2.0000      -9.880043      -268.8496
  18   2.0000      -9.873063      -268.6597
  19   2.0000      -7.688635      -209.2184
  20   2.0000      -7.687209      -209.1796
  21   2.0000      -7.628071      -207.5704
  22   2.0000      -7.618142      -207.3002
  23   2.0000      -6.421446      -174.7364
  24   2.0000      -6.415989      -174.5879
  25   2.0000      -5.716449      -155.5525
  26   2.0000      -5.715027      -155.5138
  27   2.0000      -5.713010      -155.4589
  28   2.0000      -5.711737      -155.4243
  29   2.0000      -5.705671      -155.2592
  30   2.0000      -5.704312      -155.2222
  31   2.0000      -5.657003      -153.9349
  32   2.0000      -5.648960      -153.7160
  33   2.0000      -5.647845      -153.6857
  34   2.0000      -5.647060      -153.6643
  35   2.0000      -5.638784      -153.4391
  36   2.0000      -5.638328      -153.4267
  37   2.0000      -4.644052      -126.3711
  38   2.0000      -4.643441      -126.3544
  39   2.0000      -4.641732      -126.3079
  40   2.0000      -4.638617      -126.2232
  41   2.0000      -4.638048      -126.2077
  42   2.0000      -4.636135      -126.1556
  43   2.0000      -0.984708       -26.7953
  44   2.0000      -0.976681       -26.5768
  45   2.0000      -0.940468       -25.5914
  46   2.0000      -0.934870       -25.4391
  47   2.0000      -0.761609       -20.7244
  48   2.0000      -0.718781       -19.5590
  49   2.0000      -0.707119       -19.2417
  50   2.0000      -0.688463       -18.7340
  51   2.0000      -0.682967       -18.5845
  52   2.0000      -0.672018       -18.2865
  53   2.0000      -0.647626       -17.6228
  54   2.0000      -0.633773       -17.2458
  55   2.0000      -0.589930       -16.0528
  56   2.0000      -0.583361       -15.8741
  57   2.0000      -0.572970       -15.5913
  58   2.0000      -0.571636       -15.5550
  59   2.0000      -0.556837       -15.1523
  60   2.0000      -0.502827       -13.6826
  61   2.0000      -0.494446       -13.4546
  62   2.0000      -0.472268       -12.8511
  63   2.0000      -0.463762       -12.6196
  64   2.0000      -0.451673       -12.2907
  65   2.0000      -0.447326       -12.1724
  66   2.0000      -0.438424       -11.9301
  67   2.0000      -0.431664       -11.7462
  68   2.0000      -0.422310       -11.4917
  69   2.0000      -0.417014       -11.3475
  70   2.0000      -0.408871       -11.1260
  71   2.0000      -0.404667       -11.0116
  72   2.0000      -0.394426       -10.7329
  73   2.0000      -0.383719       -10.4415
  74   2.0000      -0.374298       -10.1852
  75   2.0000      -0.361910        -9.8481
  76   2.0000      -0.359398        -9.7797
  77   2.0000      -0.354345        -9.6422
  78   2.0000      -0.347997        -9.4695
  79   2.0000      -0.345305        -9.3962
  80   2.0000      -0.343024        -9.3342
  81   2.0000      -0.340175        -9.2566
  82   2.0000      -0.337475        -9.1832
  83   2.0000      -0.336176        -9.1478
  84   2.0000      -0.324518        -8.8306
  85   2.0000      -0.316772        -8.6198
  86   2.0000      -0.309968        -8.4347
  87   2.0000      -0.294772        -8.0211
  88   2.0000      -0.293608        -7.9895
  89   2.0000      -0.285410        -7.7664
  90   2.0000      -0.283010        -7.7011
  91   2.0000      -0.275008        -7.4834
  92   2.0000      -0.260551        -7.0900
  93   2.0000      -0.257335        -7.0024
  94   2.0000      -0.254703        -6.9308
  95   2.0000      -0.240468        -6.5435
  96   2.0000      -0.219661        -5.9773
  97   2.0000      -0.203376        -5.5341
  98   2.0000      -0.200661        -5.4603
  99   2.0000      -0.187747        -5.1089
 100   2.0000      -0.180101        -4.9008
 101   0.0000      -0.040024        -1.0891
 102   0.0000      -0.031961        -0.8697
 103   0.0000      -0.013656        -0.3716
 104   0.0000      -0.000618        -0.0168
 105   0.0000       0.020772         0.5652

MULLIKEN ATOMIC CHARGES
-----------------------
   0 C :   -0.289388
   1 C :   -0.001824
   2 O :   -0.370490
   3 P :    0.610252
   4 S :   -0.326685
   5 O :   -0.379989
   6 C :   -0.006971
   7 C :   -0.316038
   8 S :   -0.099347
   9 C :   -0.346102
  10 S :   -0.109892
  11 P :    0.611169
  12 S :   -0.306186
  13 O :   -0.340342
  14 C :   -0.014517
  15 C :   -0.283352
  16 O :   -0.378401
  17 C :   -0.005631
  18 C :   -0.305926
  19 H :    0.109314
  20 H :    0.131030
  21 H :    0.105880
  22 H :    0.117537
  23 H :    0.096856
  24 H :    0.111011
  25 H :    0.108766
  26 H :    0.109064
  27 H :    0.129054
  28 H :    0.126625
  29 H :    0.180851
  30 H :    0.203108
  31 H :    0.103572
  32 H :    0.117771
  33 H :    0.117773
  34 H :    0.108675
  35 H :    0.121624
  36 H :    0.103245
  37 H :    0.104909
  38 H :    0.119180
  39 H :    0.108574
  40 H :    0.125241
Sum of atomic charges:    0.0000000

LOEWDIN ATOMIC CHARGES
----------------------
   0 C :   -0.353388
   1 C :   -0.117186
   2 O :   -0.244170
   3 P :    0.564150
   4 S :   -0.315090
   5 O :   -0.251309
   6 C :   -0.111544
   7 C :   -0.373312
   8 S :    0.079490
   9 C :   -0.479731
  10 S :    0.067464
  11 P :    0.572885
  12 S :   -0.284439
  13 O :   -0.221651
  14 C :   -0.110695
  15 C :   -0.357552
  16 O :   -0.249663
  17 C :   -0.120742
  18 C :   -0.367575
  19 H :    0.123685
  20 H :    0.123204
  21 H :    0.128613
  22 H :    0.110805
  23 H :    0.109397
  24 H :    0.109595
  25 H :    0.121329
  26 H :    0.128727
  27 H :    0.129619
  28 H :    0.120706
  29 H :    0.135905
  30 H :    0.123594
  31 H :    0.103778
  32 H :    0.122571
  33 H :    0.125725
  34 H :    0.128795
  35 H :    0.129966
  36 H :    0.102136
  37 H :    0.118778
  38 H :    0.118123
  39 H :    0.128443
  40 H :    0.130565

  Mayer bond orders larger than 0.100000
B(  0-C ,  1-C ) :   1.1636 B(  0-C , 19-H ) :   0.9493 B(  0-C , 20-H ) :   0.9438
B(  0-C , 21-H ) :   0.9415 B(  1-C ,  2-O ) :   0.8938 B(  1-C , 22-H ) :   0.9071
B(  1-C , 23-H ) :   0.9313 B(  2-O ,  3-P ) :   1.1265 B(  3-P ,  4-S ) :   1.6454
B(  3-P ,  5-O ) :   1.1019 B(  3-P ,  8-S ) :   0.9561 B(  4-S ,  8-S ) :   0.1185
B(  5-O ,  6-C ) :   0.9187 B(  6-C ,  7-C ) :   1.1649 B(  6-C , 24-H ) :   0.9312
B(  6-C , 25-H ) :   0.9347 B(  7-C , 26-H ) :   0.9333 B(  7-C , 27-H ) :   0.9395
B(  7-C , 28-H ) :   0.9322 B(  8-S ,  9-C ) :   1.0031 B(  9-C , 10-S ) :   1.0018
B(  9-C , 29-H ) :   0.9110 B(  9-C , 30-H ) :   0.8419 B( 10-S , 11-P ) :   0.9400
B( 10-S , 12-S ) :   0.1159 B( 11-P , 12-S ) :   1.6222 B( 11-P , 13-O ) :   1.1536
B( 11-P , 16-O ) :   1.0693 B( 12-S , 30-H ) :   0.1156 B( 13-O , 14-C ) :   0.8916
B( 14-C , 15-C ) :   1.1637 B( 14-C , 31-H ) :   0.9168 B( 14-C , 32-H ) :   0.9316
B( 15-C , 33-H ) :   0.9430 B( 15-C , 34-H ) :   0.9404 B( 15-C , 35-H ) :   0.9471
B( 16-O , 17-C ) :   0.9220 B( 17-C , 18-C ) :   1.1650 B( 17-C , 36-H ) :   0.9171
B( 17-C , 37-H ) :   0.9330 B( 18-C , 38-H ) :   0.9352 B( 18-C , 39-H ) :   0.9361
B( 18-C , 40-H ) :   0.9445

Dispersion correction           -0.066605779
FINAL SINGLE POINT ENERGY     -2929.511493742708

DIPOLE MOMENT
-------------

Method             : SCF
Type of density    : Electron Density
Multiplicity       :   1
Irrep              :   0
Energy             : -2929.6291898947247319 Eh
Relativity type    :
Basis              : AO
                                X                 Y                 Z
Electronic contribution:      5.168256839      -3.283987922       1.457536422
Nuclear contribution   :     -5.666548989       2.517032250      -0.829513984
                        -----------------------------------------
Total Dipole Moment    :     -0.498292150      -0.766955671       0.628022438
                        -----------------------------------------
Magnitude (a.u.)       :      1.109472059
Magnitude (Debye)      :      2.820053862

Rotational constants in cm-1:             0.011348             0.005458             0.005013
Rotational constants in MHz :           340.216007           163.617867           150.277141

                             ****ORCA TERMINATED NORMALLY****
TOTAL RUN TIME: 0 days 0 hours 0 minutes 21 seconds 202 msec
