                         Program Version 6.0.0  -   RELEASE  -
|  1> ! pbe def2-sv(p) def2/J RI DEFGRID1 loosescf d4 GCP(DFT/SV(P)) printgap
|  2> %output
|  3>     printlevel normal
|  4> end
|  5> * xyz 0 1
|  6> C 4.1653039543 -1.3556090738 -2.5714787952
|  7> C 4.1939942824 0.1033395802 -2.1654120309
|  8> O 3.599626243 0.3275875267 -0.872561255
|  9> P 2.0523539068 0.1104224221 -0.583545317
| 10> S 0.8418424358 0.6806803961 -2.0087050061
| 11> O 1.8558317166 0.9194770647 0.7548504899
| 12> C 2.7298475509 0.7988276803 1.9096499259
| 13> C 2.0124253397 0.0925550628 3.0421744536
| 14> S 1.9071081298 -1.9423146123 -0.0659488544
| 15> C 0.1070632425 -2.0648383399 -0.1800654284
| 16> S -0.768227212 -1.3619883914 1.2616266184
| 17> P -1.7745947139 0.3610186713 0.5603141031
| 18> S -1.0400970308 2.1691098794 0.6624802993
| 19> O -3.0623547376 0.3285203227 1.4909108426
| 20> C -3.9511149833 -0.8129094806 1.5761814656
| 21> C -5.3461995059 -0.3004439756 1.871921183
| 22> O -2.2123072954 -0.1756127985 -0.8818050737
| 23> C -2.6272785805 0.7247370111 -1.9245639666
| 24> C -4.0023059914 1.2950294792 -1.6483586117
| 25> H 4.580709176 -1.9776080074 -1.7826998461
| 26> H 3.1414017089 -1.6694947834 -2.7662572079
| 27> H 4.7497387038 -1.4827096193 -3.4770577806
| 28> H 3.6635802872 0.7187996292 -2.898379721
| 29> H 5.2145149668 0.4692710184 -2.043451993
| 30> H 3.6381034438 0.2696254318 1.6153495166
| 31> H 2.9712717044 1.8289730672 2.1763197647
| 32> H 2.6328209862 0.1336426056 3.9316504889
| 33> H 1.0649341377 0.5876310265 3.2445297803
| 34> H 1.8156284245 -0.9474120118 2.7919071888
| 35> H -0.1281505224 -3.1253568304 -0.1971362013
| 36> H -0.2327331792 -1.56046778 -1.0847932576
| 37> H -3.9164463185 -1.3618984617 0.6315376859
| 38> H -3.5840440269 -1.4536068608 2.3810209935
| 39> H -5.6978247108 0.3338388046 1.0628082943
| 40> H -6.018201172 -1.1449413874 1.9856714798
| 41> H -5.338397945 0.2806372145 2.7895230837
| 42> H -1.8833611626 1.5229355963 -2.0138184207
| 43> H -2.6071111298 0.1124707749 -2.8274051369
| 44> H -3.9760155372 1.8827227883 -0.7307412523
| 45> H -4.2928839854 1.9403365087 -2.471273842
| 46> H -4.7302410905 0.4944993877 -1.5431405715
| 47> *
| 48>
| 49>                          ****END OF INPUT****

CARTESIAN COORDINATES (ANGSTROEM)
---------------------------------
  C      4.165304   -1.355609   -2.571479
  C      4.193994    0.103340   -2.165412
  O      3.599626    0.327588   -0.872561
  P      2.052354    0.110422   -0.583545
  S      0.841842    0.680680   -2.008705
  O      1.855832    0.919477    0.754850
  C      2.729848    0.798828    1.909650
  C      2.012425    0.092555    3.042174
  S      1.907108   -1.942315   -0.065949
  C      0.107063   -2.064838   -0.180065
  S     -0.768227   -1.361988    1.261627
  P     -1.774595    0.361019    0.560314
  S     -1.040097    2.169110    0.662480
  O     -3.062355    0.328520    1.490911
  C     -3.951115   -0.812909    1.576181
  C     -5.346200   -0.300444    1.871921
  O     -2.212307   -0.175613   -0.881805
  C     -2.627279    0.724737   -1.924564
  C     -4.002306    1.295029   -1.648359
  H      4.580709   -1.977608   -1.782700
  H      3.141402   -1.669495   -2.766257
  H      4.749739   -1.482710   -3.477058
  H      3.663580    0.718800   -2.898380
  H      5.214515    0.469271   -2.043452
  H      3.638103    0.269625    1.615350
  H      2.971272    1.828973    2.176320
  H      2.632821    0.133643    3.931650
  H      1.064934    0.587631    3.244530
  H      1.815628   -0.947412    2.791907
  H     -0.128151   -3.125357   -0.197136
  H     -0.232733   -1.560468   -1.084793
  H     -3.916446   -1.361898    0.631538
  H     -3.584044   -1.453607    2.381021
  H     -5.697825    0.333839    1.062808
  H     -6.018201   -1.144941    1.985671
  H     -5.338398    0.280637    2.789523
  H     -1.883361    1.522936   -2.013818
  H     -2.607111    0.112471   -2.827405
  H     -3.976016    1.882723   -0.730741
  H     -4.292884    1.940337   -2.471274
  H     -4.730241    0.494499   -1.543141

 Total Charge           Charge          ....    0
 Multiplicity           Mult            ....    1
 Number of Electrons    NEL             ....  202
 Basis Dimension        Dim             ....  334

ORBITAL ENERGIES
----------------

  NO   OCC          E(Eh)            E(eV)
   0   2.0000     -88.043291     -2395.7798
   1   2.0000     -88.037448     -2395.6208
   2   2.0000     -87.984657     -2394.1842
   3   2.0000     -87.968554     -2393.7460
   4   2.0000     -76.424438     -2079.6147
   5   2.0000     -76.415123     -2079.3612
   6   2.0000     -18.794019      -511.4113
   7   2.0000     -18.786724      -511.2127
   8   2.0000     -18.782743      -511.1044
   9   2.0000     -18.782507      -511.0980
  10   2.0000      -9.957249      -270.9505
  11   2.0000      -9.954529      -270.8765
  12   2.0000      -9.949791      -270.7476
  13   2.0000      -9.948973      -270.7253
  14   2.0000      -9.942964      -270.5618
  15   2.0000      -9.886752      -269.0322
  16   2.0000      -9.885771      -269.0055
  17   2.0000      -9.880663      -268.8665
  18   2.0000      -9.874315      -268.6938
  19   2.0000      -7.688493      -209.2145
  20   2.0000      -7.682623      -209.0548
  21   2.0000      -7.629640      -207.6131
  22   2.0000      -7.613835      -207.1830
  23   2.0000      -6.421958      -174.7504
  24   2.0000      -6.412714      -174.4988
  25   2.0000      -5.716185      -155.5453
  26   2.0000      -5.712993      -155.4584
  27   2.0000      -5.710839      -155.3998
  28   2.0000      -5.706749      -155.2885
  29   2.0000      -5.705616      -155.2577
  30   2.0000      -5.699560      -155.0929
  31   2.0000      -5.658517      -153.9761
  32   2.0000      -5.650222      -153.7503
  33   2.0000      -5.649815      -153.7393
  34   2.0000      -5.643105      -153.5567
  35   2.0000      -5.634465      -153.3216
  36   2.0000      -5.633599      -153.2980
  37   2.0000      -4.644829      -126.3922
  38   2.0000      -4.643599      -126.3588
  39   2.0000      -4.642275      -126.3227
  40   2.0000      -4.635746      -126.1451
  41   2.0000      -4.634413      -126.1088
  42   2.0000      -4.632835      -126.0658
  43   2.0000      -0.985444       -26.8153
  44   2.0000      -0.976881       -26.5823
  45   2.0000      -0.940281       -25.5864
  46   2.0000      -0.937005       -25.4972
  47   2.0000      -0.760418       -20.6920
  48   2.0000      -0.717511       -19.5245
  49   2.0000      -0.707573       -19.2540
  50   2.0000      -0.687684       -18.7128
  51   2.0000      -0.686093       -18.6695
  52   2.0000      -0.670282       -18.2393
  53   2.0000      -0.646935       -17.6040
  54   2.0000      -0.630394       -17.1539
  55   2.0000      -0.596412       -16.2292
  56   2.0000      -0.580863       -15.8061
  57   2.0000      -0.570368       -15.5205
  58   2.0000      -0.565125       -15.3778
  59   2.0000      -0.560550       -15.2533
  60   2.0000      -0.500206       -13.6113
  61   2.0000      -0.496305       -13.5051
  62   2.0000      -0.474532       -12.9127
  63   2.0000      -0.469733       -12.7821
  64   2.0000      -0.452161       -12.3039
  65   2.0000      -0.443535       -12.0692
  66   2.0000      -0.440215       -11.9789
  67   2.0000      -0.435114       -11.8401
  68   2.0000      -0.426599       -11.6084
  69   2.0000      -0.416342       -11.3292
  70   2.0000      -0.405527       -11.0350
  71   2.0000      -0.394882       -10.7453
  72   2.0000      -0.387203       -10.5363
  73   2.0000      -0.384997       -10.4763
  74   2.0000      -0.376879       -10.2554
  75   2.0000      -0.367674       -10.0049
  76   2.0000      -0.359795        -9.7905
  77   2.0000      -0.355193        -9.6653
  78   2.0000      -0.351995        -9.5783
  79   2.0000      -0.349756        -9.5173
  80   2.0000      -0.341140        -9.2829
  81   2.0000      -0.339168        -9.2292
  82   2.0000      -0.337567        -9.1857
  83   2.0000      -0.334749        -9.1090
  84   2.0000      -0.327838        -8.9209
  85   2.0000      -0.313875        -8.5410
  86   2.0000      -0.308657        -8.3990
  87   2.0000      -0.304019        -8.2728
  88   2.0000      -0.297168        -8.0864
  89   2.0000      -0.293118        -7.9761
  90   2.0000      -0.271991        -7.4013
  91   2.0000      -0.266875        -7.2620
  92   2.0000      -0.263779        -7.1778
  93   2.0000      -0.262297        -7.1375
  94   2.0000      -0.257065        -6.9951
  95   2.0000      -0.233049        -6.3416
  96   2.0000      -0.218446        -5.9442
  97   2.0000      -0.212205        -5.7744
  98   2.0000      -0.201489        -5.4828
  99   2.0000      -0.185814        -5.0562
 100   2.0000      -0.173381        -4.7179
 101   0.0000      -0.039042        -1.0624
 102   0.0000      -0.025247        -0.6870
 103   0.0000      -0.017739        -0.4827
 104   0.0000       0.003978         0.1082
 105   0.0000       0.018128         0.4933

MULLIKEN ATOMIC CHARGES
-----------------------
   0 C :   -0.318215
   1 C :    0.000123
   2 O :   -0.380450
   3 P :    0.610276
   4 S :   -0.308173
   5 O :   -0.337044
   6 C :   -0.013407
   7 C :   -0.285860
   8 S :   -0.105293
   9 C :   -0.353681
  10 S :   -0.108326
  11 P :    0.606119
  12 S :   -0.285630
  13 O :   -0.373156
  14 C :   -0.022971
  15 C :   -0.281853
  16 O :   -0.389825
  17 C :   -0.013256
  18 C :   -0.316705
  19 H :    0.117049
  20 H :    0.127081
  21 H :    0.114233
  22 H :    0.113982
  23 H :    0.105665
  24 H :    0.101808
  25 H :    0.112336
  26 H :    0.102247
  27 H :    0.125639
  28 H :    0.119827
  29 H :    0.181010
  30 H :    0.207649
  31 H :    0.102225
  32 H :    0.108247
  33 H :    0.118471
  34 H :    0.108420
  35 H :    0.121998
  36 H :    0.130428
  37 H :    0.099932
  38 H :    0.134942
  39 H :    0.112810
  40 H :    0.111329
Sum of atomic charges:   -0.0000000

LOEWDIN ATOMIC CHARGES
----------------------
   0 C :   -0.371823
   1 C :   -0.115465
   2 O :   -0.246720
   3 P :    0.572191
   4 S :   -0.291668
   5 O :   -0.225551
   6 C :   -0.108951
   7 C :   -0.363211
   8 S :    0.071482
   9 C :   -0.477628
  10 S :    0.078804
  11 P :    0.555437
  12 S :   -0.292852
  13 O :   -0.248727
  14 C :   -0.124639
  15 C :   -0.351294
  16 O :   -0.251133
  17 C :   -0.124286
  18 C :   -0.366818
  19 H :    0.123108
  20 H :    0.121117
  21 H :    0.131782
  22 H :    0.113545
  23 H :    0.119103
  24 H :    0.107030
  25 H :    0.123392
  26 H :    0.125832
  27 H :    0.129066
  28 H :    0.114456
  29 H :    0.137557
  30 H :    0.129302
  31 H :    0.105612
  32 H :    0.111539
  33 H :    0.126106
  34 H :    0.128843
  35 H :    0.130457
  36 H :    0.111278
  37 H :    0.115696
  38 H :    0.126695
  39 H :    0.131632
  40 H :    0.119704

  Mayer bond orders larger than 0.100000
B(  0-C ,  1-C ) :   1.1667 B(  0-C , 19-H ) :   0.9438 B(  0-C , 20-H ) :   0.9342
B(  0-C , 21-H ) :   0.9369 B(  1-C ,  2-O ) :   0.9049 B(  1-C , 22-H ) :   0.9180
B(  1-C , 23-H ) :   0.9343 B(  2-O ,  3-P ) :   1.0922 B(  3-P ,  4-S ) :   1.6229
B(  3-P ,  5-O ) :   1.1630 B(  3-P ,  8-S ) :   0.9341 B(  4-S ,  8-S ) :   0.1055
B(  5-O ,  6-C ) :   0.8863 B(  6-C ,  7-C ) :   1.1680 B(  6-C , 24-H ) :   0.9191
B(  6-C , 25-H ) :   0.9336 B(  7-C , 26-H ) :   0.9372 B(  7-C , 27-H ) :   0.9413
B(  7-C , 28-H ) :   0.9343 B(  8-S ,  9-C ) :   1.0106 B(  9-C , 10-S ) :   0.9939
B(  9-C , 29-H ) :   0.9110 B(  9-C , 30-H ) :   0.8593 B( 10-S , 11-P ) :   0.9535
B( 10-S , 12-S ) :   0.1049 B( 11-P , 12-S ) :   1.6808 B( 11-P , 13-O ) :   1.0972
B( 11-P , 16-O ) :   1.0623 B( 13-O , 14-C ) :   0.8992 B( 14-C , 15-C ) :   1.1614
B( 14-C , 31-H ) :   0.9159 B( 14-C , 32-H ) :   0.9301 B( 15-C , 33-H ) :   0.9474
B( 15-C , 34-H ) :   0.9416 B( 15-C , 35-H ) :   0.9483 B( 16-O , 17-C ) :   0.8984
B( 17-C , 18-C ) :   1.1610 B( 17-C , 36-H ) :   0.9066 B( 17-C , 37-H ) :   0.9354
B( 18-C , 38-H ) :   0.9319 B( 18-C , 39-H ) :   0.9388 B( 18-C , 40-H ) :   0.9422

Dispersion correction           -0.068073445
FINAL SINGLE POINT ENERGY     -2929.512278560793

DIPOLE MOMENT
-------------

Method             : SCF
Type of density    : Electron Density
Multiplicity       :   1
Irrep              :   0
Energy             : -2929.6301716440975724 Eh
Relativity type    :
Basis              : AO
                                X                 Y                 Z
Electronic contribution:      8.767763770       2.949464912       0.881828402
Nuclear contribution   :     -8.653144046      -4.278985927      -1.117652888
                        -----------------------------------------
Total Dipole Moment    :      0.114619724      -1.329521015      -0.235824486
                        -----------------------------------------
Magnitude (a.u.)       :      1.355129883
Magnitude (Debye)      :      3.444466426

Rotational constants in cm-1:             0.013491             0.005252             0.004848
Rotational constants in MHz :           404.460271           157.455633           145.349680

                             ****ORCA TERMINATED NORMALLY****
TOTAL RUN TIME: 0 days 0 hours 0 minutes 21 seconds 73 msec
