                         Program Version 6.0.1  -  RELEASE   -
|  1> ! pbe def2-sv(p) def2/J RI DEFGRID1 loosescf d4 GCP(DFT/SV(P)) printgap
|  2> %output
|  3>     printlevel normal
|  4> end
|  5> * xyz 0 1
|  6> C 3.6234058953 -4.0984791291 -0.7645438632
|  7> C 2.1539881803 -3.7293539372 -0.8914361658
|  8> O 1.9000840542 -2.4199295358 -0.3458255303
|  9> C 2.1229044097 -1.3706181615 -1.1104069622
| 10> O 2.493265573 -1.4188382333 -2.2616983884
| 11> C 1.8149547043 -0.0767256934 -0.3782768086
| 12> C 0.7033899846 0.6579620362 -1.1247256146
| 13> H 1.0151044251 0.8275061725 -2.1607285319
| 14> C 0.3495593777 1.9915396712 -0.4912418899
| 15> O -0.7949450908 2.302829351 -0.2286965154
| 16> O 1.4036000553 2.7344429161 -0.304684337
| 17> C 1.2456779986 4.0089698273 0.3581566694
| 18> C 1.4814161646 3.8532261758 1.8511201423
| 19> S -0.8157056339 -0.3382984255 -1.2556424557
| 20> P -1.7076966122 -0.0045873031 0.6552554326
| 21> S -0.5950775674 0.4565152603 2.1978759243
| 22> O -2.995725077 0.8950598414 0.5097975305
| 23> C -3.9819710797 0.6890942246 -0.5187199767
| 24> O -2.4209010893 -1.4355698089 0.8439313464
| 25> C -1.6546205607 -2.6122619311 1.1099591103
| 26> H 4.2311323038 -3.4273433714 -1.3670123154
| 27> H 3.9384976269 -4.0278883057 0.2729144471
| 28> H 3.7688415712 -5.1149389159 -1.1148678422
| 29> H 1.525439518 -4.3965326389 -0.301478708
| 30> H 1.8418968541 -3.7345449295 -1.9396847718
| 31> H 2.7053326288 0.5540257365 -0.3787669941
| 32> H 1.5208194667 -0.2979947634 0.6487582237
| 33> H 1.9967112569 4.6514710999 -0.1016557677
| 34> H 0.2396939951 4.3859081938 0.156966375
| 35> H 0.7600797461 3.1569162461 2.2758501999
| 36> H 2.4812877297 3.4727498307 2.0375679559
| 37> H 1.3674959171 4.817431944 2.3348720947
| 38> H -3.5214065565 0.7973040697 -1.5006626987
| 39> H -4.7235546022 1.466836668 -0.356144171
| 40> H -4.4245127094 -0.3003635805 -0.417233299
| 41> H -2.3786828988 -3.3856358794 1.3522765097
| 42> H -0.9822354172 -2.4389028561 1.9519809501
| 43> H -1.0769083962 -2.8876866981 0.2272071579
| 44> *
| 45>
| 46>                          ****END OF INPUT****

CARTESIAN COORDINATES (ANGSTROEM)
---------------------------------
  C      3.623406   -4.098479   -0.764544
  C      2.153988   -3.729354   -0.891436
  O      1.900084   -2.419930   -0.345826
  C      2.122904   -1.370618   -1.110407
  O      2.493266   -1.418838   -2.261698
  C      1.814955   -0.076726   -0.378277
  C      0.703390    0.657962   -1.124726
  H      1.015104    0.827506   -2.160729
  C      0.349559    1.991540   -0.491242
  O     -0.794945    2.302829   -0.228697
  O      1.403600    2.734443   -0.304684
  C      1.245678    4.008970    0.358157
  C      1.481416    3.853226    1.851120
  S     -0.815706   -0.338298   -1.255642
  P     -1.707697   -0.004587    0.655255
  S     -0.595078    0.456515    2.197876
  O     -2.995725    0.895060    0.509798
  C     -3.981971    0.689094   -0.518720
  O     -2.420901   -1.435570    0.843931
  C     -1.654621   -2.612262    1.109959
  H      4.231132   -3.427343   -1.367012
  H      3.938498   -4.027888    0.272914
  H      3.768842   -5.114939   -1.114868
  H      1.525440   -4.396533   -0.301479
  H      1.841897   -3.734545   -1.939685
  H      2.705333    0.554026   -0.378767
  H      1.520819   -0.297995    0.648758
  H      1.996711    4.651471   -0.101656
  H      0.239694    4.385908    0.156966
  H      0.760080    3.156916    2.275850
  H      2.481288    3.472750    2.037568
  H      1.367496    4.817432    2.334872
  H     -3.521407    0.797304   -1.500663
  H     -4.723555    1.466837   -0.356144
  H     -4.424513   -0.300364   -0.417233
  H     -2.378683   -3.385636    1.352277
  H     -0.982235   -2.438903    1.951981
  H     -1.076908   -2.887687    0.227207

 Total Charge           Charge          ....    0
 Multiplicity           Mult            ....    1
 Number of Electrons    NEL             ....  174
 Basis Dimension        Dim             ....  316

ORBITAL ENERGIES
----------------

  NO   OCC          E(Eh)            E(eV)
   0   2.0000     -88.039228     -2395.6692
   1   2.0000     -87.978492     -2394.0165
   2   2.0000     -76.422984     -2079.5751
   3   2.0000     -18.817861      -512.0600
   4   2.0000     -18.805165      -511.7146
   5   2.0000     -18.784521      -511.1528
   6   2.0000     -18.783234      -511.1178
   7   2.0000     -18.747334      -510.1409
   8   2.0000     -18.740959      -509.9674
   9   2.0000     -10.023520      -272.7539
  10   2.0000     -10.010616      -272.4027
  11   2.0000      -9.953125      -270.8383
  12   2.0000      -9.951935      -270.8059
  13   2.0000      -9.950527      -270.7676
  14   2.0000      -9.943281      -270.5704
  15   2.0000      -9.937230      -270.4058
  16   2.0000      -9.904670      -269.5198
  17   2.0000      -9.889225      -269.0995
  18   2.0000      -9.884285      -268.9651
  19   2.0000      -7.683698      -209.0841
  20   2.0000      -7.623641      -207.4498
  21   2.0000      -6.419117      -174.6730
  22   2.0000      -5.711649      -155.4219
  23   2.0000      -5.708202      -155.3281
  24   2.0000      -5.700663      -155.1229
  25   2.0000      -5.652770      -153.8197
  26   2.0000      -5.644298      -153.5892
  27   2.0000      -5.643435      -153.5657
  28   2.0000      -4.641886      -126.3121
  29   2.0000      -4.641158      -126.2923
  30   2.0000      -4.639484      -126.2468
  31   2.0000      -1.026236       -27.9253
  32   2.0000      -1.012688       -27.5566
  33   2.0000      -0.978999       -26.6399
  34   2.0000      -0.934420       -25.4269
  35   2.0000      -0.928701       -25.2712
  36   2.0000      -0.918113       -24.9831
  37   2.0000      -0.766056       -20.8454
  38   2.0000      -0.712388       -19.3851
  39   2.0000      -0.708932       -19.2910
  40   2.0000      -0.689277       -18.7562
  41   2.0000      -0.656618       -17.8675
  42   2.0000      -0.629376       -17.1262
  43   2.0000      -0.624721       -16.9995
  44   2.0000      -0.616880       -16.7862
  45   2.0000      -0.596589       -16.2340
  46   2.0000      -0.566229       -15.4079
  47   2.0000      -0.512940       -13.9578
  48   2.0000      -0.503949       -13.7132
  49   2.0000      -0.498131       -13.5548
  50   2.0000      -0.486338       -13.2339
  51   2.0000      -0.468215       -12.7408
  52   2.0000      -0.458172       -12.4675
  53   2.0000      -0.448706       -12.2099
  54   2.0000      -0.437368       -11.9014
  55   2.0000      -0.429850       -11.6968
  56   2.0000      -0.424888       -11.5618
  57   2.0000      -0.418137       -11.3781
  58   2.0000      -0.412898       -11.2355
  59   2.0000      -0.408313       -11.1108
  60   2.0000      -0.399615       -10.8741
  61   2.0000      -0.399012       -10.8577
  62   2.0000      -0.393985       -10.7209
  63   2.0000      -0.387488       -10.5441
  64   2.0000      -0.384338       -10.4584
  65   2.0000      -0.365314        -9.9407
  66   2.0000      -0.360609        -9.8127
  67   2.0000      -0.353312        -9.6141
  68   2.0000      -0.348989        -9.4965
  69   2.0000      -0.335968        -9.1422
  70   2.0000      -0.334331        -9.0976
  71   2.0000      -0.330794        -9.0014
  72   2.0000      -0.328008        -8.9256
  73   2.0000      -0.310389        -8.4461
  74   2.0000      -0.302589        -8.2339
  75   2.0000      -0.296939        -8.0801
  76   2.0000      -0.295236        -8.0338
  77   2.0000      -0.289591        -7.8802
  78   2.0000      -0.271389        -7.3849
  79   2.0000      -0.265130        -7.2145
  80   2.0000      -0.262522        -7.1436
  81   2.0000      -0.253840        -6.9073
  82   2.0000      -0.239531        -6.5180
  83   2.0000      -0.226690        -6.1686
  84   2.0000      -0.220976        -6.0131
  85   2.0000      -0.196693        -5.3523
  86   2.0000      -0.192632        -5.2418
  87   0.0000      -0.044730        -1.2172
  88   0.0000      -0.033578        -0.9137
  89   0.0000      -0.016726        -0.4551
  90   0.0000       0.002670         0.0726
  91   0.0000       0.024280         0.6607

MULLIKEN ATOMIC CHARGES
-----------------------
   0 C :   -0.304919
   1 C :   -0.014426
   2 O :   -0.220102
   3 C :    0.122907
   4 O :   -0.207942
   5 C :   -0.070686
   6 C :   -0.322180
   7 H :    0.160375
   8 C :    0.212937
   9 O :   -0.182782
  10 O :   -0.221674
  11 C :   -0.014566
  12 C :   -0.310202
  13 S :   -0.096479
  14 P :    0.619170
  15 S :   -0.318180
  16 O :   -0.352765
  17 C :   -0.103053
  18 O :   -0.393282
  19 C :   -0.105904
  20 H :    0.128801
  21 H :    0.115873
  22 H :    0.113599
  23 H :    0.102527
  24 H :    0.109555
  25 H :    0.120599
  26 H :    0.114412
  27 H :    0.106459
  28 H :    0.117186
  29 H :    0.145815
  30 H :    0.112627
  31 H :    0.112516
  32 H :    0.121449
  33 H :    0.130625
  34 H :    0.120895
  35 H :    0.119852
  36 H :    0.116092
  37 H :    0.114871
Sum of atomic charges:   -0.0000000

LOEWDIN ATOMIC CHARGES
----------------------
   0 C :   -0.356191
   1 C :   -0.111425
   2 O :   -0.051518
   3 C :    0.024608
   4 O :   -0.171813
   5 C :   -0.258023
   6 C :   -0.257913
   7 H :    0.155224
   8 C :    0.013411
   9 O :   -0.159747
  10 O :   -0.038226
  11 C :   -0.106143
  12 C :   -0.357917
  13 S :    0.103282
  14 P :    0.590212
  15 S :   -0.306795
  16 O :   -0.229833
  17 C :   -0.208088
  18 O :   -0.266553
  19 C :   -0.221553
  20 H :    0.131096
  21 H :    0.125758
  22 H :    0.131155
  23 H :    0.116443
  24 H :    0.120750
  25 H :    0.146076
  26 H :    0.127596
  27 H :    0.119197
  28 H :    0.124058
  29 H :    0.131832
  30 H :    0.124725
  31 H :    0.131164
  32 H :    0.111570
  33 H :    0.126321
  34 H :    0.114025
  35 H :    0.119704
  36 H :    0.109602
  37 H :    0.103932

  Mayer bond orders larger than 0.100000
B(  0-C ,  1-C ) :   1.1743 B(  0-C , 20-H ) :   0.9455 B(  0-C , 21-H ) :   0.9483
B(  0-C , 22-H ) :   0.9441 B(  1-C ,  2-O ) :   0.9162 B(  1-C , 23-H ) :   0.9349
B(  1-C , 24-H ) :   0.9152 B(  2-O ,  3-C ) :   1.2375 B(  3-C ,  4-O ) :   2.0374
B(  3-C ,  5-C ) :   1.0025 B(  5-C ,  6-C ) :   1.0646 B(  5-C , 25-H ) :   0.8692
B(  5-C , 26-H ) :   0.8789 B(  6-C ,  7-H ) :   0.8520 B(  6-C ,  8-C ) :   0.9094
B(  6-C , 13-S ) :   1.0219 B(  8-C ,  9-O ) :   2.0044 B(  8-C , 10-O ) :   1.2730
B( 10-O , 11-C ) :   0.8955 B( 11-C , 12-C ) :   1.1805 B( 11-C , 27-H ) :   0.9365
B( 11-C , 28-H ) :   0.9104 B( 12-C , 29-H ) :   0.9311 B( 12-C , 30-H ) :   0.9491
B( 12-C , 31-H ) :   0.9415 B( 13-S , 14-P ) :   0.9372 B( 13-S , 15-S ) :   0.1129
B( 14-P , 15-S ) :   1.5979 B( 14-P , 16-O ) :   1.1403 B( 14-P , 18-O ) :   1.0518
B( 16-O , 17-C ) :   0.9213 B( 17-C , 32-H ) :   0.9403 B( 17-C , 33-H ) :   0.9597
B( 17-C , 34-H ) :   0.9465 B( 18-O , 19-C ) :   0.9390 B( 19-C , 35-H ) :   0.9574
B( 19-C , 36-H ) :   0.9352 B( 19-C , 37-H ) :   0.9405

Dispersion correction           -0.052350570
FINAL SINGLE POINT ENERGY     -1979.018807085541

DIPOLE MOMENT
-------------

Method             : SCF
Type of density    : Electron Density
Multiplicity       :   1
Irrep              :   0
Energy             : -1979.1482493906300988 Eh
Relativity type    :
Basis              : AO
                                X                 Y                 Z
Electronic contribution:    -10.969389196       5.174761543      -1.251347676
Nuclear contribution   :     11.209660218      -5.507603834       0.880766943
                        -----------------------------------------
Total Dipole Moment    :      0.240271021      -0.332842290      -0.370580733
                        -----------------------------------------
Magnitude (a.u.)       :      0.553031856
Magnitude (Debye)      :      1.405695265

Rotational constants in cm-1:             0.011435             0.007908             0.005847
Rotational constants in MHz :           342.826763           237.087096           175.290315

                             ****ORCA TERMINATED NORMALLY****
TOTAL RUN TIME: 0 days 0 hours 0 minutes 44 seconds 398 msec
