                         Program Version 6.0.1  -  RELEASE   -
|  1> ! pbe def2-sv(p) def2/J RI DEFGRID1 loosescf d4 GCP(DFT/SV(P)) printgap
|  2> %output
|  3>     printlevel normal
|  4> end
|  5> * xyz 0 1
|  6> C 5.5358034144 -1.9041979671 -1.4612057649
|  7> C 4.6965653637 -0.80078986 -0.8375104558
|  8> O 3.4013267356 -1.2905093524 -0.4385538147
|  9> C 2.4581637741 -1.3772226557 -1.3573033216
| 10> O 2.5979486711 -1.0899755342 -2.5234569333
| 11> C 1.1525650457 -1.874982567 -0.7578748216
| 12> C 0.1589955868 -0.7080940099 -0.7446067875
| 13> H -0.0208333218 -0.3610427 -1.7660187205
| 14> C 0.7846953131 0.4272108351 0.0437719532
| 15> O 1.677879513 1.1010617276 -0.4168754561
| 16> O 0.314574839 0.522599392 1.2688035895
| 17> C 0.9237623404 1.4814783089 2.1566383694
| 18> C 2.0807976033 0.8407871647 2.9039818304
| 19> S -1.4126807803 -1.2675545084 -0.0151541866
| 20> P -2.3314183942 0.6289969758 0.2473668411
| 21> S -1.6211707429 2.0947876924 -0.8455874202
| 22> O -3.8745572027 0.2954586232 -0.0115157234
| 23> C -4.3579925406 -0.0415951268 -1.3166014029
| 24> O -2.3716800009 0.9658974794 1.7877298931
| 25> C -2.8998305063 0.0337326739 2.7566157108
| 26> H 5.0750422723 -2.2463815312 -2.3847882054
| 27> H 6.5245800255 -1.5169809718 -1.6833186846
| 28> H 5.6229750747 -2.7414201623 -0.7742580792
| 29> H 4.5483953103 0.0257829226 -1.5384543084
| 30> H 5.1437058484 -0.434401525 0.0867802908
| 31> H 1.3282632579 -2.2357445964 0.2551666141
| 32> H 0.7529485135 -2.6758582633 -1.3800786224
| 33> H 1.2576716064 2.335695293 1.5606912892
| 34> H 0.120029524 1.7848631941 2.8279914607
| 35> H 2.8456794983 0.5216859534 2.1989714174
| 36> H 2.509317498 1.5671234657 3.5862707468
| 37> H 1.7337190616 -0.0212985775 3.4663631183
| 38> H -5.4420513862 -0.0102800527 -1.2437435818
| 39> H -4.019245598 -1.0406678399 -1.5903423204
| 40> H -4.0045897683 0.6865391995 -2.0483720302
| 41> H -2.711330788 0.4919850819 3.7237931933
| 42> H -2.3822064923 -0.9215046521 2.6709527624
| 43> H -3.9668339645 -0.1021046047 2.593839112
| 44> *
| 45>
| 46>                          ****END OF INPUT****

CARTESIAN COORDINATES (ANGSTROEM)
---------------------------------
  C      5.535803   -1.904198   -1.461206
  C      4.696565   -0.800790   -0.837510
  O      3.401327   -1.290509   -0.438554
  C      2.458164   -1.377223   -1.357303
  O      2.597949   -1.089976   -2.523457
  C      1.152565   -1.874983   -0.757875
  C      0.158996   -0.708094   -0.744607
  H     -0.020833   -0.361043   -1.766019
  C      0.784695    0.427211    0.043772
  O      1.677880    1.101062   -0.416875
  O      0.314575    0.522599    1.268804
  C      0.923762    1.481478    2.156638
  C      2.080798    0.840787    2.903982
  S     -1.412681   -1.267555   -0.015154
  P     -2.331418    0.628997    0.247367
  S     -1.621171    2.094788   -0.845587
  O     -3.874557    0.295459   -0.011516
  C     -4.357993   -0.041595   -1.316601
  O     -2.371680    0.965897    1.787730
  C     -2.899831    0.033733    2.756616
  H      5.075042   -2.246382   -2.384788
  H      6.524580   -1.516981   -1.683319
  H      5.622975   -2.741420   -0.774258
  H      4.548395    0.025783   -1.538454
  H      5.143706   -0.434402    0.086780
  H      1.328263   -2.235745    0.255167
  H      0.752949   -2.675858   -1.380079
  H      1.257672    2.335695    1.560691
  H      0.120030    1.784863    2.827991
  H      2.845679    0.521686    2.198971
  H      2.509317    1.567123    3.586271
  H      1.733719   -0.021299    3.466363
  H     -5.442051   -0.010280   -1.243744
  H     -4.019246   -1.040668   -1.590342
  H     -4.004590    0.686539   -2.048372
  H     -2.711331    0.491985    3.723793
  H     -2.382206   -0.921505    2.670953
  H     -3.966834   -0.102105    2.593839

 Total Charge           Charge          ....    0
 Multiplicity           Mult            ....    1
 Number of Electrons    NEL             ....  174
 Basis Dimension        Dim             ....  316

ORBITAL ENERGIES
----------------

  NO   OCC          E(Eh)            E(eV)
   0   2.0000     -88.042778     -2395.7658
   1   2.0000     -87.984893     -2394.1907
   2   2.0000     -76.428595     -2079.7278
   3   2.0000     -18.809268      -511.8262
   4   2.0000     -18.801101      -511.6040
   5   2.0000     -18.798879      -511.5435
   6   2.0000     -18.795711      -511.4573
   7   2.0000     -18.735717      -509.8248
   8   2.0000     -18.733067      -509.7527
   9   2.0000     -10.015375      -272.5322
  10   2.0000     -10.008933      -272.3569
  11   2.0000      -9.955106      -270.8922
  12   2.0000      -9.948209      -270.7045
  13   2.0000      -9.947203      -270.6772
  14   2.0000      -9.946657      -270.6623
  15   2.0000      -9.943873      -270.5865
  16   2.0000      -9.916372      -269.8382
  17   2.0000      -9.888951      -269.0920
  18   2.0000      -9.884050      -268.9587
  19   2.0000      -7.687708      -209.1932
  20   2.0000      -7.629931      -207.6210
  21   2.0000      -6.425663      -174.8512
  22   2.0000      -5.715420      -155.5245
  23   2.0000      -5.712246      -155.4381
  24   2.0000      -5.704850      -155.2369
  25   2.0000      -5.659105      -153.9921
  26   2.0000      -5.650232      -153.7506
  27   2.0000      -5.650155      -153.7485
  28   2.0000      -4.648410      -126.4897
  29   2.0000      -4.647577      -126.4670
  30   2.0000      -4.645908      -126.4216
  31   2.0000      -1.016709       -27.6661
  32   2.0000      -1.006917       -27.3996
  33   2.0000      -0.991419       -26.9779
  34   2.0000      -0.946895       -25.7663
  35   2.0000      -0.918332       -24.9891
  36   2.0000      -0.911907       -24.8143
  37   2.0000      -0.769570       -20.9411
  38   2.0000      -0.713903       -19.4263
  39   2.0000      -0.702979       -19.1290
  40   2.0000      -0.694619       -18.9015
  41   2.0000      -0.661715       -18.0062
  42   2.0000      -0.641038       -17.4435
  43   2.0000      -0.623564       -16.9680
  44   2.0000      -0.615990       -16.7619
  45   2.0000      -0.597087       -16.2476
  46   2.0000      -0.566727       -15.4214
  47   2.0000      -0.519676       -14.1411
  48   2.0000      -0.500747       -13.6260
  49   2.0000      -0.497720       -13.5436
  50   2.0000      -0.480415       -13.0727
  51   2.0000      -0.475190       -12.9306
  52   2.0000      -0.461831       -12.5671
  53   2.0000      -0.448916       -12.2156
  54   2.0000      -0.439391       -11.9564
  55   2.0000      -0.435961       -11.8631
  56   2.0000      -0.422686       -11.5019
  57   2.0000      -0.419411       -11.4127
  58   2.0000      -0.418761       -11.3951
  59   2.0000      -0.407306       -11.0833
  60   2.0000      -0.405751       -11.0410
  61   2.0000      -0.396713       -10.7951
  62   2.0000      -0.394883       -10.7453
  63   2.0000      -0.383323       -10.4307
  64   2.0000      -0.379712       -10.3325
  65   2.0000      -0.366517        -9.9734
  66   2.0000      -0.357648        -9.7321
  67   2.0000      -0.353368        -9.6156
  68   2.0000      -0.346383        -9.4255
  69   2.0000      -0.336609        -9.1596
  70   2.0000      -0.332654        -9.0520
  71   2.0000      -0.330793        -9.0013
  72   2.0000      -0.324051        -8.8179
  73   2.0000      -0.319940        -8.7060
  74   2.0000      -0.308727        -8.4009
  75   2.0000      -0.303570        -8.2606
  76   2.0000      -0.297973        -8.1083
  77   2.0000      -0.291850        -7.9416
  78   2.0000      -0.276453        -7.5227
  79   2.0000      -0.265031        -7.2119
  80   2.0000      -0.261881        -7.1261
  81   2.0000      -0.255721        -6.9585
  82   2.0000      -0.237564        -6.4644
  83   2.0000      -0.220706        -6.0057
  84   2.0000      -0.213704        -5.8152
  85   2.0000      -0.203143        -5.5278
  86   2.0000      -0.201984        -5.4963
  87   0.0000      -0.041995        -1.1427
  88   0.0000      -0.030916        -0.8413
  89   0.0000      -0.021559        -0.5867
  90   0.0000       0.010583         0.2880
  91   0.0000       0.015173         0.4129

MULLIKEN ATOMIC CHARGES
-----------------------
   0 C :   -0.307378
   1 C :   -0.010964
   2 O :   -0.234957
   3 C :    0.103377
   4 O :   -0.194946
   5 C :   -0.059721
   6 C :   -0.267277
   7 H :    0.161808
   8 C :    0.168403
   9 O :   -0.186377
  10 O :   -0.225752
  11 C :   -0.010980
  12 C :   -0.307042
  13 S :   -0.106228
  14 P :    0.608726
  15 S :   -0.295994
  16 O :   -0.388537
  17 C :   -0.100717
  18 O :   -0.361182
  19 C :   -0.109587
  20 H :    0.129752
  21 H :    0.112920
  22 H :    0.109948
  23 H :    0.119482
  24 H :    0.101755
  25 H :    0.104762
  26 H :    0.125714
  27 H :    0.118418
  28 H :    0.106026
  29 H :    0.126847
  30 H :    0.114125
  31 H :    0.110760
  32 H :    0.126347
  33 H :    0.115967
  34 H :    0.121355
  35 H :    0.130728
  36 H :    0.122165
  37 H :    0.128252
Sum of atomic charges:    0.0000000

LOEWDIN ATOMIC CHARGES
----------------------
   0 C :   -0.357645
   1 C :   -0.108335
   2 O :   -0.058362
   3 C :    0.029148
   4 O :   -0.159559
   5 C :   -0.240897
   6 C :   -0.258799
   7 H :    0.148957
   8 C :    0.001382
   9 O :   -0.147095
  10 O :   -0.057343
  11 C :   -0.108770
  12 C :   -0.355814
  13 S :    0.083860
  14 P :    0.572114
  15 S :   -0.290037
  16 O :   -0.260047
  17 C :   -0.215539
  18 O :   -0.235748
  19 C :   -0.210425
  20 H :    0.131149
  21 H :    0.130827
  22 H :    0.122932
  23 H :    0.125827
  24 H :    0.116462
  25 H :    0.132155
  26 H :    0.143672
  27 H :    0.124823
  28 H :    0.117584
  29 H :    0.128987
  30 H :    0.131062
  31 H :    0.123189
  32 H :    0.123103
  33 H :    0.109399
  34 H :    0.113802
  35 H :    0.125047
  36 H :    0.110788
  37 H :    0.118148

  Mayer bond orders larger than 0.100000
B(  0-C ,  1-C ) :   1.1709 B(  0-C , 20-H ) :   0.9449 B(  0-C , 21-H ) :   0.9446
B(  0-C , 22-H ) :   0.9480 B(  1-C ,  2-O ) :   0.9150 B(  1-C , 23-H ) :   0.9168
B(  1-C , 24-H ) :   0.9364 B(  2-O ,  3-C ) :   1.2132 B(  3-C ,  4-O ) :   2.0515
B(  3-C ,  5-C ) :   1.0073 B(  5-C ,  6-C ) :   1.0575 B(  5-C , 25-H ) :   0.8974
B(  5-C , 26-H ) :   0.8929 B(  6-C ,  7-H ) :   0.8651 B(  6-C ,  8-C ) :   0.9140
B(  6-C , 13-S ) :   0.9991 B(  8-C ,  9-O ) :   2.0231 B(  8-C , 10-O ) :   1.2365
B( 10-O , 11-C ) :   0.8997 B( 11-C , 12-C ) :   1.1728 B( 11-C , 27-H ) :   0.9126
B( 11-C , 28-H ) :   0.9317 B( 12-C , 29-H ) :   0.9426 B( 12-C , 30-H ) :   0.9448
B( 12-C , 31-H ) :   0.9488 B( 13-S , 14-P ) :   0.9574 B( 13-S , 15-S ) :   0.1145
B( 14-P , 15-S ) :   1.6445 B( 14-P , 16-O ) :   1.0726 B( 14-P , 18-O ) :   1.1210
B( 16-O , 17-C ) :   0.9298 B( 17-C , 32-H ) :   0.9585 B( 17-C , 33-H ) :   0.9466
B( 17-C , 34-H ) :   0.9362 B( 18-O , 19-C ) :   0.9151 B( 19-C , 35-H ) :   0.9590
B( 19-C , 36-H ) :   0.9371 B( 19-C , 37-H ) :   0.9481

Dispersion correction           -0.052516989
FINAL SINGLE POINT ENERGY     -1979.017458097074

DIPOLE MOMENT
-------------

Method             : SCF
Type of density    : Electron Density
Multiplicity       :   1
Irrep              :   0
Energy             : -1979.1477324703500926 Eh
Relativity type    :
Basis              : AO
                                X                 Y                 Z
Electronic contribution:    -16.515165273       5.869768070      -6.239325920
Nuclear contribution   :     16.189861207      -7.046250976       7.831051749
                        -----------------------------------------
Total Dipole Moment    :     -0.325304066      -1.176482906       1.591725829
                        -----------------------------------------
Magnitude (a.u.)       :      2.005872847
Magnitude (Debye)      :      5.098523591

Rotational constants in cm-1:             0.017627             0.005904             0.005283
Rotational constants in MHz :           528.451954           177.007129           158.365885

                             ****ORCA TERMINATED NORMALLY****
TOTAL RUN TIME: 0 days 0 hours 0 minutes 41 seconds 551 msec
