                         Program Version 6.0.0  -   RELEASE  -
|  1> ! r2scan-3c def2/J RI DEFGRID2 scfconv6 printgap
|  2> %output
|  3>     printlevel normal
|  4> end
|  5> * xyz 0 1
|  6> C 1.6883392004 2.5977944007 -1.5698821495
|  7> C 2.5636027113 1.3850977861 -1.328706476
|  8> O 1.7458746312 0.3250920249 -0.7823142844
|  9> P 2.1840217345 -0.5266427111 0.4743756297
| 10> S 2.9753212876 0.4753693625 1.9660521781
| 11> O 3.1575279379 -1.5984751959 -0.1828332307
| 12> C 4.058516526 -2.4021896767 0.6008623337
| 13> C 3.3203031171 -3.40580255 1.4626066852
| 14> S 0.3906144751 -1.5603099771 0.8446468944
| 15> C -0.3392157471 -0.3247431829 1.9530694893
| 16> S -0.8385418684 1.2071013283 1.1162053593
| 17> P -2.0405334299 0.4077231635 -0.4453684031
| 18> S -1.2300693157 -0.0298574501 -2.1799123383
| 19> O -3.2359324271 1.4524122705 -0.5637961367
| 20> C -3.1754330051 2.5968147713 -1.4274589944
| 21> C -2.2794369004 3.6757675276 -0.8538632714
| 22> O -2.7216202526 -0.7817585156 0.3448086702
| 23> C -3.2861346203 -1.9206173 -0.3384307839
| 24> C -4.556684098 -1.5536911928 -1.075316047
| 25> H 0.8521875278 2.3206533221 -2.2076914815
| 26> H 1.305935124 2.9754604404 -0.6238365603
| 27> H 2.272264231 3.3717250466 -2.0567870239
| 28> H 3.3698371744 1.6120747859 -0.6229372019
| 29> H 2.98664998 1.0040259489 -2.2600928234
| 30> H 4.6870344607 -2.891704161 -0.1440833367
| 31> H 4.6643605696 -1.7337229924 1.2209941355
| 32> H 4.0377591068 -4.0628719949 1.943479036
| 33> H 2.7467602745 -2.8863887747 2.2294468008
| 34> H 2.6386325831 -3.9959103869 0.8550482744
| 35> H 0.3994507774 -0.0253768843 2.6982713131
| 36> H -1.2059062676 -0.7884193043 2.4158872747
| 37> H -2.8143957045 2.2720757352 -2.4097233422
| 38> H -4.2110995192 2.9303811411 -1.5047628876
| 39> H -1.2579489466 3.3036049667 -0.7768047259
| 40> H -2.2919496548 4.5440215213 -1.5045554676
| 41> H -2.6185070204 3.9599209642 0.1386732251
| 42> H -2.5357578695 -2.3185737303 -1.0292803643
| 43> H -3.4706481234 -2.6401520985 0.460190479
| 44> H -4.3264180573 -0.8640618738 -1.8863603631
| 45> H -5.0042324564 -2.4510685656 -1.4907364983
| 46> H -5.2592772198 -1.076756527 -0.3972120455
| 47> *
| 48>
| 49>                          ****END OF INPUT****

CARTESIAN COORDINATES (ANGSTROEM)
---------------------------------
  C      1.688339    2.597794   -1.569882
  C      2.563603    1.385098   -1.328706
  O      1.745875    0.325092   -0.782314
  P      2.184022   -0.526643    0.474376
  S      2.975321    0.475369    1.966052
  O      3.157528   -1.598475   -0.182833
  C      4.058517   -2.402190    0.600862
  C      3.320303   -3.405803    1.462607
  S      0.390614   -1.560310    0.844647
  C     -0.339216   -0.324743    1.953069
  S     -0.838542    1.207101    1.116205
  P     -2.040533    0.407723   -0.445368
  S     -1.230069   -0.029857   -2.179912
  O     -3.235932    1.452412   -0.563796
  C     -3.175433    2.596815   -1.427459
  C     -2.279437    3.675768   -0.853863
  O     -2.721620   -0.781759    0.344809
  C     -3.286135   -1.920617   -0.338431
  C     -4.556684   -1.553691   -1.075316
  H      0.852188    2.320653   -2.207691
  H      1.305935    2.975460   -0.623837
  H      2.272264    3.371725   -2.056787
  H      3.369837    1.612075   -0.622937
  H      2.986650    1.004026   -2.260093
  H      4.687034   -2.891704   -0.144083
  H      4.664361   -1.733723    1.220994
  H      4.037759   -4.062872    1.943479
  H      2.746760   -2.886389    2.229447
  H      2.638633   -3.995910    0.855048
  H      0.399451   -0.025377    2.698271
  H     -1.205906   -0.788419    2.415887
  H     -2.814396    2.272076   -2.409723
  H     -4.211100    2.930381   -1.504763
  H     -1.257949    3.303605   -0.776805
  H     -2.291950    4.544022   -1.504555
  H     -2.618507    3.959921    0.138673
  H     -2.535758   -2.318574   -1.029280
  H     -3.470648   -2.640152    0.460190
  H     -4.326418   -0.864062   -1.886360
  H     -5.004232   -2.451069   -1.490736
  H     -5.259277   -1.076757   -0.397212

 Total Charge           Charge          ....    0
 Multiplicity           Mult            ....    1
 Number of Electrons    NEL             ....  202
 Basis Dimension        Dim             ....  539

ORBITAL ENERGIES
----------------

  NO   OCC          E(Eh)            E(eV)
   0   2.0000     -88.575590     -2410.2643
   1   2.0000     -88.570508     -2410.1260
   2   2.0000     -88.517831     -2408.6926
   3   2.0000     -88.514487     -2408.6017
   4   2.0000     -76.912227     -2092.8881
   5   2.0000     -76.910506     -2092.8413
   6   2.0000     -18.993509      -516.8396
   7   2.0000     -18.990696      -516.7631
   8   2.0000     -18.988709      -516.7090
   9   2.0000     -18.979934      -516.4703
  10   2.0000     -10.106843      -275.0212
  11   2.0000     -10.099068      -274.8096
  12   2.0000     -10.097009      -274.7536
  13   2.0000     -10.096341      -274.7354
  14   2.0000     -10.090075      -274.5649
  15   2.0000     -10.031251      -272.9642
  16   2.0000     -10.028696      -272.8947
  17   2.0000     -10.027709      -272.8678
  18   2.0000     -10.019790      -272.6524
  19   2.0000      -7.870103      -214.1564
  20   2.0000      -7.864871      -214.0140
  21   2.0000      -7.812708      -212.5946
  22   2.0000      -7.809178      -212.4985
  23   2.0000      -6.590584      -179.3389
  24   2.0000      -6.589112      -179.2989
  25   2.0000      -5.817026      -158.2893
  26   2.0000      -5.813988      -158.2066
  27   2.0000      -5.812138      -158.1563
  28   2.0000      -5.808621      -158.0606
  29   2.0000      -5.807098      -158.0192
  30   2.0000      -5.801673      -157.8715
  31   2.0000      -5.760218      -156.7435
  32   2.0000      -5.756842      -156.6516
  33   2.0000      -5.753125      -156.5505
  34   2.0000      -5.752685      -156.5385
  35   2.0000      -5.749696      -156.4572
  36   2.0000      -5.748955      -156.4370
  37   2.0000      -4.736199      -128.8785
  38   2.0000      -4.735612      -128.8626
  39   2.0000      -4.734592      -128.8348
  40   2.0000      -4.734091      -128.8212
  41   2.0000      -4.733953      -128.8174
  42   2.0000      -4.732939      -128.7898
  43   2.0000      -1.050335       -28.5811
  44   2.0000      -1.044706       -28.4279
  45   2.0000      -1.012250       -27.5447
  46   2.0000      -1.004438       -27.3321
  47   2.0000      -0.800628       -21.7862
  48   2.0000      -0.756443       -20.5839
  49   2.0000      -0.746143       -20.3036
  50   2.0000      -0.732152       -19.9229
  51   2.0000      -0.726747       -19.7758
  52   2.0000      -0.707170       -19.2431
  53   2.0000      -0.684842       -18.6355
  54   2.0000      -0.666762       -18.1435
  55   2.0000      -0.631370       -17.1805
  56   2.0000      -0.622528       -16.9398
  57   2.0000      -0.606097       -16.4927
  58   2.0000      -0.601198       -16.3594
  59   2.0000      -0.586768       -15.9668
  60   2.0000      -0.523250       -14.2383
  61   2.0000      -0.518084       -14.0978
  62   2.0000      -0.494588       -13.4584
  63   2.0000      -0.488128       -13.2826
  64   2.0000      -0.477886       -13.0039
  65   2.0000      -0.458156       -12.4670
  66   2.0000      -0.456626       -12.4254
  67   2.0000      -0.453224       -12.3329
  68   2.0000      -0.440847       -11.9961
  69   2.0000      -0.430924       -11.7260
  70   2.0000      -0.427209       -11.6249
  71   2.0000      -0.410974       -11.1832
  72   2.0000      -0.407008       -11.0752
  73   2.0000      -0.400070       -10.8865
  74   2.0000      -0.399101       -10.8601
  75   2.0000      -0.391163       -10.6441
  76   2.0000      -0.383364       -10.4319
  77   2.0000      -0.372952       -10.1485
  78   2.0000      -0.366444        -9.9715
  79   2.0000      -0.365545        -9.9470
  80   2.0000      -0.362470        -9.8633
  81   2.0000      -0.360477        -9.8091
  82   2.0000      -0.354481        -9.6459
  83   2.0000      -0.350363        -9.5339
  84   2.0000      -0.342849        -9.3294
  85   2.0000      -0.332430        -9.0459
  86   2.0000      -0.316199        -8.6042
  87   2.0000      -0.308792        -8.4027
  88   2.0000      -0.308072        -8.3831
  89   2.0000      -0.300723        -8.1831
  90   2.0000      -0.298574        -8.1246
  91   2.0000      -0.289524        -7.8783
  92   2.0000      -0.283797        -7.7225
  93   2.0000      -0.275805        -7.5050
  94   2.0000      -0.274934        -7.4813
  95   2.0000      -0.246728        -6.7138
  96   2.0000      -0.229309        -6.2398
  97   2.0000      -0.220424        -5.9980
  98   2.0000      -0.216363        -5.8875
  99   2.0000      -0.209228        -5.6934
 100   2.0000      -0.203438        -5.5358
 101   0.0000      -0.048374        -1.3163
 102   0.0000      -0.021978        -0.5980
 103   0.0000      -0.018696        -0.5087
 104   0.0000       0.005500         0.1497
 105   0.0000       0.017742         0.4828

MULLIKEN ATOMIC CHARGES
-----------------------
   0 C :   -0.495519
   1 C :   -0.114774
   2 O :   -0.250300
   3 P :    0.705367
   4 S :   -0.494132
   5 O :   -0.305458
   6 C :   -0.150188
   7 C :   -0.455344
   8 S :   -0.127415
   9 C :   -0.195980
  10 S :   -0.146683
  11 P :    0.740084
  12 S :   -0.462848
  13 O :   -0.287403
  14 C :   -0.160601
  15 C :   -0.448977
  16 O :   -0.341472
  17 C :   -0.151925
  18 C :   -0.446671
  19 H :    0.177572
  20 H :    0.166165
  21 H :    0.141289
  22 H :    0.159546
  23 H :    0.150422
  24 H :    0.147933
  25 H :    0.173365
  26 H :    0.147594
  27 H :    0.175870
  28 H :    0.156040
  29 H :    0.210144
  30 H :    0.187923
  31 H :    0.178050
  32 H :    0.147989
  33 H :    0.156270
  34 H :    0.151061
  35 H :    0.162771
  36 H :    0.177735
  37 H :    0.147672
  38 H :    0.171844
  39 H :    0.147100
  40 H :    0.155884
Sum of atomic charges:   -0.0000000

LOEWDIN ATOMIC CHARGES
----------------------
   0 C :   -0.401863
   1 C :    0.026737
   2 O :   -0.673029
   3 P :    0.375777
   4 S :   -0.141862
   5 O :   -0.655594
   6 C :    0.019444
   7 C :   -0.407310
   8 S :    0.185782
   9 C :   -0.411574
  10 S :    0.162919
  11 P :    0.388655
  12 S :   -0.105005
  13 O :   -0.666174
  14 C :    0.016552
  15 C :   -0.401740
  16 O :   -0.685787
  17 C :    0.020156
  18 C :   -0.398848
  19 H :    0.166832
  20 H :    0.161870
  21 H :    0.156164
  22 H :    0.178802
  23 H :    0.174154
  24 H :    0.179400
  25 H :    0.179973
  26 H :    0.159235
  27 H :    0.165120
  28 H :    0.160055
  29 H :    0.193538
  30 H :    0.183968
  31 H :    0.180442
  32 H :    0.179387
  33 H :    0.163182
  34 H :    0.160595
  35 H :    0.161684
  36 H :    0.182519
  37 H :    0.178474
  38 H :    0.166712
  39 H :    0.159738
  40 H :    0.160917

  Mayer bond orders larger than 0.100000
B(  0-C ,  1-C ) :   0.9546 B(  0-C , 19-H ) :   0.9649 B(  0-C , 20-H ) :   0.9705
B(  0-C , 21-H ) :   0.9631 B(  1-C ,  2-O ) :   0.7564 B(  1-C , 22-H ) :   0.9576
B(  1-C , 23-H ) :   0.9520 B(  2-O ,  3-P ) :   1.1806 B(  3-P ,  4-S ) :   1.7366
B(  3-P ,  5-O ) :   1.0593 B(  3-P ,  8-S ) :   1.0924 B(  5-O ,  6-C ) :   0.8163
B(  6-C ,  7-C ) :   0.9216 B(  6-C , 24-H ) :   0.9584 B(  6-C , 25-H ) :   0.9675
B(  7-C , 26-H ) :   0.9588 B(  7-C , 27-H ) :   0.9628 B(  7-C , 28-H ) :   0.9689
B(  8-S ,  9-C ) :   0.9111 B(  9-C , 10-S ) :   0.8986 B(  9-C , 29-H ) :   0.9079
B(  9-C , 30-H ) :   0.9173 B( 10-S , 11-P ) :   1.0504 B( 11-P , 12-S ) :   1.7533
B( 11-P , 13-O ) :   1.0709 B( 11-P , 16-O ) :   1.1605 B( 13-O , 14-C ) :   0.8108
B( 14-C , 15-C ) :   0.9223 B( 14-C , 31-H ) :   0.9654 B( 14-C , 32-H ) :   0.9564
B( 15-C , 33-H ) :   0.9609 B( 15-C , 34-H ) :   0.9615 B( 15-C , 35-H ) :   0.9688
B( 16-O , 17-C ) :   0.7976 B( 17-C , 18-C ) :   0.9317 B( 17-C , 36-H ) :   0.9600
B( 17-C , 37-H ) :   0.9597 B( 18-C , 38-H ) :   0.9592 B( 18-C , 39-H ) :   0.9624
B( 18-C , 40-H ) :   0.9713

Dispersion correction           -0.022075249
FINAL SINGLE POINT ENERGY     -2932.458430553912

DIPOLE MOMENT
-------------

Method             : SCF
Type of density    : Electron Density
Multiplicity       :   1
Irrep              :   0
Energy             : -2932.4829083546478614 Eh
Relativity type    :
Basis              : AO
                                X                 Y                 Z
Electronic contribution:      4.355440214      -2.829612659       6.424820072
Nuclear contribution   :     -4.905320985       2.495378876      -6.617015966
                        -----------------------------------------
Total Dipole Moment    :     -0.549880771      -0.334233783      -0.192195893
                        -----------------------------------------
Magnitude (a.u.)       :      0.671580483
Magnitude (Debye)      :      1.707021929

Rotational constants in cm-1:             0.012353             0.005493             0.004720
Rotational constants in MHz :           370.331006           164.670759           141.492175

                             ****ORCA TERMINATED NORMALLY****
TOTAL RUN TIME: 0 days 0 hours 1 minutes 21 seconds 517 msec
