                         Program Version 6.0.0  -   RELEASE  -
|  1> ! r2scan-3c def2/J RI DEFGRID2 scfconv6 printgap
|  2> %output
|  3>     printlevel normal
|  4> end
|  5> %cpcm
|  6>     smd true
|  7>     smdsolvent "water"
|  8> end
|  9> * xyz 0 1
| 10> C 1.6883392004 2.5977944007 -1.5698821495
| 11> C 2.5636027113 1.3850977861 -1.328706476
| 12> O 1.7458746312 0.3250920249 -0.7823142844
| 13> P 2.1840217345 -0.5266427111 0.4743756297
| 14> S 2.9753212876 0.4753693625 1.9660521781
| 15> O 3.1575279379 -1.5984751959 -0.1828332307
| 16> C 4.058516526 -2.4021896767 0.6008623337
| 17> C 3.3203031171 -3.40580255 1.4626066852
| 18> S 0.3906144751 -1.5603099771 0.8446468944
| 19> C -0.3392157471 -0.3247431829 1.9530694893
| 20> S -0.8385418684 1.2071013283 1.1162053593
| 21> P -2.0405334299 0.4077231635 -0.4453684031
| 22> S -1.2300693157 -0.0298574501 -2.1799123383
| 23> O -3.2359324271 1.4524122705 -0.5637961367
| 24> C -3.1754330051 2.5968147713 -1.4274589944
| 25> C -2.2794369004 3.6757675276 -0.8538632714
| 26> O -2.7216202526 -0.7817585156 0.3448086702
| 27> C -3.2861346203 -1.9206173 -0.3384307839
| 28> C -4.556684098 -1.5536911928 -1.075316047
| 29> H 0.8521875278 2.3206533221 -2.2076914815
| 30> H 1.305935124 2.9754604404 -0.6238365603
| 31> H 2.272264231 3.3717250466 -2.0567870239
| 32> H 3.3698371744 1.6120747859 -0.6229372019
| 33> H 2.98664998 1.0040259489 -2.2600928234
| 34> H 4.6870344607 -2.891704161 -0.1440833367
| 35> H 4.6643605696 -1.7337229924 1.2209941355
| 36> H 4.0377591068 -4.0628719949 1.943479036
| 37> H 2.7467602745 -2.8863887747 2.2294468008
| 38> H 2.6386325831 -3.9959103869 0.8550482744
| 39> H 0.3994507774 -0.0253768843 2.6982713131
| 40> H -1.2059062676 -0.7884193043 2.4158872747
| 41> H -2.8143957045 2.2720757352 -2.4097233422
| 42> H -4.2110995192 2.9303811411 -1.5047628876
| 43> H -1.2579489466 3.3036049667 -0.7768047259
| 44> H -2.2919496548 4.5440215213 -1.5045554676
| 45> H -2.6185070204 3.9599209642 0.1386732251
| 46> H -2.5357578695 -2.3185737303 -1.0292803643
| 47> H -3.4706481234 -2.6401520985 0.460190479
| 48> H -4.3264180573 -0.8640618738 -1.8863603631
| 49> H -5.0042324564 -2.4510685656 -1.4907364983
| 50> H -5.2592772198 -1.076756527 -0.3972120455
| 51> *
| 52>
| 53>                          ****END OF INPUT****

CARTESIAN COORDINATES (ANGSTROEM)
---------------------------------
  C      1.688339    2.597794   -1.569882
  C      2.563603    1.385098   -1.328706
  O      1.745875    0.325092   -0.782314
  P      2.184022   -0.526643    0.474376
  S      2.975321    0.475369    1.966052
  O      3.157528   -1.598475   -0.182833
  C      4.058517   -2.402190    0.600862
  C      3.320303   -3.405803    1.462607
  S      0.390614   -1.560310    0.844647
  C     -0.339216   -0.324743    1.953069
  S     -0.838542    1.207101    1.116205
  P     -2.040533    0.407723   -0.445368
  S     -1.230069   -0.029857   -2.179912
  O     -3.235932    1.452412   -0.563796
  C     -3.175433    2.596815   -1.427459
  C     -2.279437    3.675768   -0.853863
  O     -2.721620   -0.781759    0.344809
  C     -3.286135   -1.920617   -0.338431
  C     -4.556684   -1.553691   -1.075316
  H      0.852188    2.320653   -2.207691
  H      1.305935    2.975460   -0.623837
  H      2.272264    3.371725   -2.056787
  H      3.369837    1.612075   -0.622937
  H      2.986650    1.004026   -2.260093
  H      4.687034   -2.891704   -0.144083
  H      4.664361   -1.733723    1.220994
  H      4.037759   -4.062872    1.943479
  H      2.746760   -2.886389    2.229447
  H      2.638633   -3.995910    0.855048
  H      0.399451   -0.025377    2.698271
  H     -1.205906   -0.788419    2.415887
  H     -2.814396    2.272076   -2.409723
  H     -4.211100    2.930381   -1.504763
  H     -1.257949    3.303605   -0.776805
  H     -2.291950    4.544022   -1.504555
  H     -2.618507    3.959921    0.138673
  H     -2.535758   -2.318574   -1.029280
  H     -3.470648   -2.640152    0.460190
  H     -4.326418   -0.864062   -1.886360
  H     -5.004232   -2.451069   -1.490736
  H     -5.259277   -1.076757   -0.397212

 Total Charge           Charge          ....    0
 Multiplicity           Mult            ....    1
 Number of Electrons    NEL             ....  202
 Basis Dimension        Dim             ....  539

ORBITAL ENERGIES
----------------

  NO   OCC          E(Eh)            E(eV)
   0   2.0000     -88.579426     -2410.3687
   1   2.0000     -88.574438     -2410.2330
   2   2.0000     -88.526315     -2408.9235
   3   2.0000     -88.521413     -2408.7901
   4   2.0000     -76.917137     -2093.0217
   5   2.0000     -76.916752     -2093.0112
   6   2.0000     -18.995126      -516.8837
   7   2.0000     -18.994846      -516.8760
   8   2.0000     -18.992157      -516.8029
   9   2.0000     -18.985493      -516.6215
  10   2.0000     -10.104891      -274.9681
  11   2.0000     -10.089631      -274.5528
  12   2.0000     -10.089019      -274.5362
  13   2.0000     -10.088412      -274.5196
  14   2.0000     -10.086795      -274.4756
  15   2.0000     -10.020162      -272.6625
  16   2.0000     -10.018545      -272.6185
  17   2.0000     -10.018462      -272.6162
  18   2.0000     -10.015040      -272.5231
  19   2.0000      -7.873900      -214.2597
  20   2.0000      -7.868821      -214.1215
  21   2.0000      -7.821474      -212.8331
  22   2.0000      -7.816402      -212.6951
  23   2.0000      -6.595543      -179.4739
  24   2.0000      -6.595441      -179.4711
  25   2.0000      -5.820826      -158.3927
  26   2.0000      -5.817770      -158.3096
  27   2.0000      -5.816048      -158.2627
  28   2.0000      -5.812520      -158.1667
  29   2.0000      -5.810924      -158.1233
  30   2.0000      -5.805720      -157.9817
  31   2.0000      -5.768924      -156.9804
  32   2.0000      -5.764012      -156.8467
  33   2.0000      -5.761859      -156.7881
  34   2.0000      -5.761494      -156.7782
  35   2.0000      -5.756866      -156.6523
  36   2.0000      -5.756234      -156.6351
  37   2.0000      -4.741104      -129.0120
  38   2.0000      -4.740903      -129.0065
  39   2.0000      -4.740563      -128.9973
  40   2.0000      -4.740270      -128.9893
  41   2.0000      -4.739313      -128.9633
  42   2.0000      -4.739142      -128.9586
  43   2.0000      -1.052351       -28.6359
  44   2.0000      -1.049414       -28.5560
  45   2.0000      -1.013700       -27.5842
  46   2.0000      -1.008801       -27.4509
  47   2.0000      -0.802200       -21.8290
  48   2.0000      -0.754483       -20.5305
  49   2.0000      -0.741917       -20.1886
  50   2.0000      -0.723815       -19.6960
  51   2.0000      -0.721501       -19.6330
  52   2.0000      -0.707207       -19.2441
  53   2.0000      -0.688503       -18.7351
  54   2.0000      -0.673189       -18.3184
  55   2.0000      -0.630950       -17.1690
  56   2.0000      -0.620047       -16.8723
  57   2.0000      -0.599779       -16.3208
  58   2.0000      -0.597720       -16.2648
  59   2.0000      -0.585474       -15.9316
  60   2.0000      -0.522106       -14.2072
  61   2.0000      -0.514569       -14.0021
  62   2.0000      -0.491687       -13.3795
  63   2.0000      -0.487531       -13.2664
  64   2.0000      -0.477159       -12.9842
  65   2.0000      -0.455580       -12.3970
  66   2.0000      -0.454014       -12.3544
  67   2.0000      -0.451203       -12.2778
  68   2.0000      -0.437706       -11.9106
  69   2.0000      -0.427657       -11.6371
  70   2.0000      -0.423922       -11.5355
  71   2.0000      -0.407260       -11.0821
  72   2.0000      -0.405163       -11.0250
  73   2.0000      -0.402235       -10.9454
  74   2.0000      -0.397466       -10.8156
  75   2.0000      -0.388825       -10.5805
  76   2.0000      -0.381845       -10.3905
  77   2.0000      -0.366931        -9.9847
  78   2.0000      -0.362955        -9.8765
  79   2.0000      -0.361088        -9.8257
  80   2.0000      -0.354666        -9.6509
  81   2.0000      -0.353196        -9.6109
  82   2.0000      -0.350131        -9.5275
  83   2.0000      -0.346130        -9.4187
  84   2.0000      -0.340040        -9.2530
  85   2.0000      -0.330317        -8.9884
  86   2.0000      -0.314998        -8.5715
  87   2.0000      -0.305103        -8.3023
  88   2.0000      -0.303593        -8.2612
  89   2.0000      -0.301758        -8.2112
  90   2.0000      -0.298571        -8.1245
  91   2.0000      -0.288617        -7.8537
  92   2.0000      -0.284134        -7.7317
  93   2.0000      -0.278462        -7.5773
  94   2.0000      -0.277204        -7.5431
  95   2.0000      -0.250907        -6.8275
  96   2.0000      -0.234745        -6.3877
  97   2.0000      -0.229016        -6.2319
  98   2.0000      -0.225870        -6.1462
  99   2.0000      -0.215607        -5.8670
 100   2.0000      -0.211003        -5.7417
 101   0.0000      -0.052551        -1.4300
 102   0.0000      -0.027626        -0.7518
 103   0.0000      -0.022147        -0.6027
 104   0.0000       0.000957         0.0261
 105   0.0000       0.014786         0.4024

MULLIKEN ATOMIC CHARGES
-----------------------
   0 C :   -0.508717
   1 C :   -0.128829
   2 O :   -0.270528
   3 P :    0.729672
   4 S :   -0.543445
   5 O :   -0.331566
   6 C :   -0.150334
   7 C :   -0.488753
   8 S :   -0.132162
   9 C :   -0.202534
  10 S :   -0.168861
  11 P :    0.778293
  12 S :   -0.516297
  13 O :   -0.319514
  14 C :   -0.155750
  15 C :   -0.484466
  16 O :   -0.361966
  17 C :   -0.143746
  18 C :   -0.488624
  19 H :    0.172313
  20 H :    0.168435
  21 H :    0.165936
  22 H :    0.166184
  23 H :    0.172951
  24 H :    0.174475
  25 H :    0.177607
  26 H :    0.172727
  27 H :    0.172172
  28 H :    0.169656
  29 H :    0.224709
  30 H :    0.223526
  31 H :    0.178684
  32 H :    0.174510
  33 H :    0.158506
  34 H :    0.176048
  35 H :    0.174067
  36 H :    0.177528
  37 H :    0.177198
  38 H :    0.168627
  39 H :    0.172547
  40 H :    0.169722
Sum of atomic charges:    0.0000000

LOEWDIN ATOMIC CHARGES
----------------------
   0 C :   -0.403017
   1 C :    0.028412
   2 O :   -0.686530
   3 P :    0.378938
   4 S :   -0.172929
   5 O :   -0.669882
   6 C :    0.024477
   7 C :   -0.409796
   8 S :    0.185026
   9 C :   -0.403303
  10 S :    0.153217
  11 P :    0.393610
  12 S :   -0.137789
  13 O :   -0.681537
  14 C :    0.021884
  15 C :   -0.403935
  16 O :   -0.692846
  17 C :    0.025700
  18 C :   -0.402862
  19 H :    0.164728
  20 H :    0.161894
  21 H :    0.165017
  22 H :    0.181185
  23 H :    0.182369
  24 H :    0.190536
  25 H :    0.181361
  26 H :    0.168515
  27 H :    0.161541
  28 H :    0.163639
  29 H :    0.198455
  30 H :    0.196879
  31 H :    0.181244
  32 H :    0.190398
  33 H :    0.162044
  34 H :    0.169978
  35 H :    0.164057
  36 H :    0.182582
  37 H :    0.190643
  38 H :    0.162823
  39 H :    0.169099
  40 H :    0.164171

  Mayer bond orders larger than 0.100000
B(  0-C ,  1-C ) :   0.9535 B(  0-C , 19-H ) :   0.9647 B(  0-C , 20-H ) :   0.9679
B(  0-C , 21-H ) :   0.9595 B(  1-C ,  2-O ) :   0.7449 B(  1-C , 22-H ) :   0.9546
B(  1-C , 23-H ) :   0.9433 B(  2-O ,  3-P ) :   1.1855 B(  3-P ,  4-S ) :   1.6942
B(  3-P ,  5-O ) :   1.0650 B(  3-P ,  8-S ) :   1.1104 B(  5-O ,  6-C ) :   0.8045
B(  6-C ,  7-C ) :   0.9105 B(  6-C , 24-H ) :   0.9488 B(  6-C , 25-H ) :   0.9653
B(  7-C , 26-H ) :   0.9535 B(  7-C , 27-H ) :   0.9632 B(  7-C , 28-H ) :   0.9659
B(  8-S ,  9-C ) :   0.9094 B(  9-C , 10-S ) :   0.8855 B(  9-C , 29-H ) :   0.9052
B(  9-C , 30-H ) :   0.9071 B( 10-S , 11-P ) :   1.0672 B( 11-P , 12-S ) :   1.7045
B( 11-P , 13-O ) :   1.0765 B( 11-P , 16-O ) :   1.1705 B( 13-O , 14-C ) :   0.8010
B( 14-C , 15-C ) :   0.9117 B( 14-C , 31-H ) :   0.9628 B( 14-C , 32-H ) :   0.9475
B( 15-C , 33-H ) :   0.9584 B( 15-C , 34-H ) :   0.9554 B( 15-C , 35-H ) :   0.9675
B( 16-O , 17-C ) :   0.7863 B( 17-C , 18-C ) :   0.9181 B( 17-C , 36-H ) :   0.9572
B( 17-C , 37-H ) :   0.9501 B( 18-C , 38-H ) :   0.9600 B( 18-C , 39-H ) :   0.9564
B( 18-C , 40-H ) :   0.9704

Dispersion correction           -0.022075249
FINAL SINGLE POINT ENERGY     -2932.466277169418

DIPOLE MOMENT
-------------

Method             : SCF
Type of density    : Electron Density
Multiplicity       :   1
Irrep              :   0
Energy             : -2932.4907549701547396 Eh
Relativity type    :
Basis              : AO
                                X                 Y                 Z
Electronic contribution:      4.213454248      -2.976946721       6.498643219
Nuclear contribution   :     -4.905320985       2.495378876      -6.617015966
                        -----------------------------------------
Total Dipole Moment    :     -0.691866737      -0.481567845      -0.118372746
                        -----------------------------------------
Magnitude (a.u.)       :      0.851233974
Magnitude (Debye)      :      2.163664813

Rotational constants in cm-1:             0.012353             0.005493             0.004720
Rotational constants in MHz :           370.331006           164.670759           141.492175

                             ****ORCA TERMINATED NORMALLY****
TOTAL RUN TIME: 0 days 0 hours 1 minutes 50 seconds 170 msec
