                         Program Version 6.0.1  -  RELEASE   -
|  1> ! r2scan-3c def2/J RI DEFGRID2 scfconv6 printgap
|  2> %output
|  3>     printlevel normal
|  4> end
|  5> * xyz 0 1
|  6> C 3.787373999 -3.6507917896 -0.4545363484
|  7> C 4.304333152 -2.3627177532 -1.0750445836
|  8> O 3.2663842707 -1.705386109 -1.830075257
|  9> C 2.4345169971 -0.911980465 -1.1929866361
| 10> O 2.4882429705 -0.6603094017 -0.0066950676
| 11> C 1.3986257013 -0.3156437331 -2.1230282411
| 12> C 0.3036531035 0.3489110247 -1.3001912916
| 13> H -0.362846454 0.9367601437 -1.9401789667
| 14> C 0.9257862534 1.3016844945 -0.291686705
| 15> O 1.7884467429 2.0907544368 -0.6052782745
| 16> O 0.3611973907 1.2223103062 0.8949769868
| 17> C 0.8629596016 2.051055124 1.9614347775
| 18> C 1.7747024665 1.2361310258 2.8627087098
| 19> S -0.7122147977 -0.9222969627 -0.4761746054
| 20> P -2.1967843981 0.3494258666 0.3562061057
| 21> S -2.4272209398 2.1034050193 -0.4841953568
| 22> O -3.4976979695 -0.5845578924 0.2713586413
| 23> C -4.0994798608 -0.9063915461 -0.9871892638
| 24> O -2.026946809 0.4223973899 1.9246173835
| 25> C -1.85912458 -0.7588248441 2.7326822897
| 26> H 2.9987924847 -3.4300364683 0.2613311029
| 27> H 3.3914745825 -4.3046835574 -1.2263711063
| 28> H 4.6005557999 -4.1527636788 0.0591376562
| 29> H 5.0887561542 -2.5576662569 -1.8061433638
| 30> H 4.6638333312 -1.6755097854 -0.3039162935
| 31> H 0.9956303676 -1.0910462337 -2.7731536336
| 32> H 1.8966970853 0.4385883264 -2.7364514518
| 33> H 1.3947916297 2.8944785669 1.5122981614
| 34> H -0.0259624789 2.402703274 2.4886609649
| 35> H 2.580999346 0.8063302888 2.2721160082
| 36> H 2.1922339279 1.8815347512 3.6280520713
| 37> H 1.2190164356 0.4296742811 3.3323174785
| 38> H -3.4621361727 -1.6000098792 -1.5352455288
| 39> H -4.2534347438 0.0020016751 -1.5717896455
| 40> H -5.0532115941 -1.368479882 -0.745670756
| 41> H -0.9580278533 -1.2906122927 2.4265616462
| 42> H -2.7279427029 -1.4063530998 2.6320162237
| 43> H -1.7652337514 -0.3941739655 3.7523258735
| 44> *
| 45>
| 46>                          ****END OF INPUT****

CARTESIAN COORDINATES (ANGSTROEM)
---------------------------------
  C      3.787374   -3.650792   -0.454536
  C      4.304333   -2.362718   -1.075045
  O      3.266384   -1.705386   -1.830075
  C      2.434517   -0.911980   -1.192987
  O      2.488243   -0.660309   -0.006695
  C      1.398626   -0.315644   -2.123028
  C      0.303653    0.348911   -1.300191
  H     -0.362846    0.936760   -1.940179
  C      0.925786    1.301684   -0.291687
  O      1.788447    2.090754   -0.605278
  O      0.361197    1.222310    0.894977
  C      0.862960    2.051055    1.961435
  C      1.774702    1.236131    2.862709
  S     -0.712215   -0.922297   -0.476175
  P     -2.196784    0.349426    0.356206
  S     -2.427221    2.103405   -0.484195
  O     -3.497698   -0.584558    0.271359
  C     -4.099480   -0.906392   -0.987189
  O     -2.026947    0.422397    1.924617
  C     -1.859125   -0.758825    2.732682
  H      2.998792   -3.430036    0.261331
  H      3.391475   -4.304684   -1.226371
  H      4.600556   -4.152764    0.059138
  H      5.088756   -2.557666   -1.806143
  H      4.663833   -1.675510   -0.303916
  H      0.995630   -1.091046   -2.773154
  H      1.896697    0.438588   -2.736451
  H      1.394792    2.894479    1.512298
  H     -0.025962    2.402703    2.488661
  H      2.580999    0.806330    2.272116
  H      2.192234    1.881535    3.628052
  H      1.219016    0.429674    3.332317
  H     -3.462136   -1.600010   -1.535246
  H     -4.253435    0.002002   -1.571790
  H     -5.053212   -1.368480   -0.745671
  H     -0.958028   -1.290612    2.426562
  H     -2.727943   -1.406353    2.632016
  H     -1.765234   -0.394174    3.752326

 Total Charge           Charge          ....    0
 Multiplicity           Mult            ....    1
 Number of Electrons    NEL             ....  174
 Basis Dimension        Dim             ....  510

ORBITAL ENERGIES
----------------

  NO   OCC          E(Eh)            E(eV)
   0   2.0000     -88.572032     -2410.1675
   1   2.0000     -88.514571     -2408.6039
   2   2.0000     -76.911663     -2092.8727
   3   2.0000     -19.011577      -517.3313
   4   2.0000     -18.992363      -516.8085
   5   2.0000     -18.991203      -516.7769
   6   2.0000     -18.988184      -516.6948
   7   2.0000     -18.944720      -515.5120
   8   2.0000     -18.924266      -514.9555
   9   2.0000     -10.168973      -276.7118
  10   2.0000     -10.155178      -276.3364
  11   2.0000     -10.102075      -274.8914
  12   2.0000     -10.096983      -274.7529
  13   2.0000     -10.092114      -274.6204
  14   2.0000     -10.089443      -274.5477
  15   2.0000     -10.082153      -274.3493
  16   2.0000     -10.066528      -273.9242
  17   2.0000     -10.037330      -273.1296
  18   2.0000     -10.020992      -272.6851
  19   2.0000      -7.866403      -214.0557
  20   2.0000      -7.809264      -212.5009
  21   2.0000      -6.589786      -179.3172
  22   2.0000      -5.813205      -158.1853
  23   2.0000      -5.810347      -158.1076
  24   2.0000      -5.803499      -157.9212
  25   2.0000      -5.757168      -156.6605
  26   2.0000      -5.749503      -156.4519
  27   2.0000      -5.749070      -156.4401
  28   2.0000      -4.735508      -128.8597
  29   2.0000      -4.734868      -128.8423
  30   2.0000      -4.733253      -128.7984
  31   2.0000      -1.089143       -29.6371
  32   2.0000      -1.070465       -29.1288
  33   2.0000      -1.048603       -28.5339
  34   2.0000      -1.006374       -27.3848
  35   2.0000      -0.994198       -27.0535
  36   2.0000      -0.975255       -26.5380
  37   2.0000      -0.810144       -22.0451
  38   2.0000      -0.760842       -20.7036
  39   2.0000      -0.735185       -20.0054
  40   2.0000      -0.733184       -19.9510
  41   2.0000      -0.698782       -19.0148
  42   2.0000      -0.674437       -18.3524
  43   2.0000      -0.657593       -17.8940
  44   2.0000      -0.646781       -17.5998
  45   2.0000      -0.632029       -17.1984
  46   2.0000      -0.595119       -16.1940
  47   2.0000      -0.538797       -14.6614
  48   2.0000      -0.535921       -14.5831
  49   2.0000      -0.519411       -14.1339
  50   2.0000      -0.503398       -13.6982
  51   2.0000      -0.492148       -13.3920
  52   2.0000      -0.485851       -13.2207
  53   2.0000      -0.465822       -12.6757
  54   2.0000      -0.459412       -12.5012
  55   2.0000      -0.451255       -12.2793
  56   2.0000      -0.448642       -12.2082
  57   2.0000      -0.445704       -12.1282
  58   2.0000      -0.433717       -11.8020
  59   2.0000      -0.427672       -11.6376
  60   2.0000      -0.420389       -11.4394
  61   2.0000      -0.417202       -11.3526
  62   2.0000      -0.410744       -11.1769
  63   2.0000      -0.399296       -10.8654
  64   2.0000      -0.391195       -10.6450
  65   2.0000      -0.386623       -10.5206
  66   2.0000      -0.381030       -10.3684
  67   2.0000      -0.366219        -9.9653
  68   2.0000      -0.362409        -9.8617
  69   2.0000      -0.351965        -9.5775
  70   2.0000      -0.345752        -9.4084
  71   2.0000      -0.340156        -9.2561
  72   2.0000      -0.336740        -9.1632
  73   2.0000      -0.333763        -9.0822
  74   2.0000      -0.319151        -8.6846
  75   2.0000      -0.318325        -8.6621
  76   2.0000      -0.313180        -8.5221
  77   2.0000      -0.301447        -8.2028
  78   2.0000      -0.287224        -7.8158
  79   2.0000      -0.284811        -7.7501
  80   2.0000      -0.274793        -7.4775
  81   2.0000      -0.265785        -7.2324
  82   2.0000      -0.255625        -6.9559
  83   2.0000      -0.250163        -6.8073
  84   2.0000      -0.221779        -6.0349
  85   2.0000      -0.213689        -5.8148
  86   2.0000      -0.210074        -5.7164
  87   0.0000      -0.042452        -1.1552
  88   0.0000      -0.024401        -0.6640
  89   0.0000      -0.009037        -0.2459
  90   0.0000       0.007626         0.2075
  91   0.0000       0.018618         0.5066

MULLIKEN ATOMIC CHARGES
-----------------------
   0 C :   -0.469010
   1 C :   -0.135203
   2 O :   -0.162207
   3 C :    0.397514
   4 O :   -0.390703
   5 C :   -0.463692
   6 C :    0.031597
   7 H :    0.247865
   8 C :    0.226122
   9 O :   -0.386162
  10 O :   -0.101471
  11 C :   -0.162341
  12 C :   -0.468254
  13 S :   -0.230374
  14 P :    0.782066
  15 S :   -0.444932
  16 O :   -0.355511
  17 C :   -0.297131
  18 O :   -0.308481
  19 C :   -0.304453
  20 H :    0.173175
  21 H :    0.154145
  22 H :    0.150187
  23 H :    0.152578
  24 H :    0.168585
  25 H :    0.190771
  26 H :    0.202583
  27 H :    0.180599
  28 H :    0.165822
  29 H :    0.180544
  30 H :    0.146994
  31 H :    0.143073
  32 H :    0.157143
  33 H :    0.175064
  34 H :    0.150872
  35 H :    0.177027
  36 H :    0.168250
  37 H :    0.157346
Sum of atomic charges:    0.0000000

LOEWDIN ATOMIC CHARGES
----------------------
   0 C :   -0.388023
   1 C :    0.032009
   2 O :   -0.572919
   3 C :    0.368673
   4 O :   -0.432707
   5 C :   -0.206663
   6 C :   -0.196800
   7 H :    0.208496
   8 C :    0.352756
   9 O :   -0.421725
  10 O :   -0.625427
  11 C :    0.036317
  12 C :   -0.385438
  13 S :    0.206897
  14 P :    0.399360
  15 S :   -0.086069
  16 O :   -0.687782
  17 C :   -0.062067
  18 O :   -0.647464
  19 C :   -0.054929
  20 H :    0.165868
  21 H :    0.158238
  22 H :    0.160701
  23 H :    0.180120
  24 H :    0.188668
  25 H :    0.189867
  26 H :    0.206247
  27 H :    0.195897
  28 H :    0.184217
  29 H :    0.172128
  30 H :    0.156924
  31 H :    0.153842
  32 H :    0.168224
  33 H :    0.176560
  34 H :    0.176430
  35 H :    0.175112
  36 H :    0.174390
  37 H :    0.180070

  Mayer bond orders larger than 0.100000
B(  0-C ,  1-C ) :   0.9389 B(  0-C , 20-H ) :   0.9705 B(  0-C , 21-H ) :   0.9726
B(  0-C , 22-H ) :   0.9639 B(  1-C ,  2-O ) :   0.8042 B(  1-C , 23-H ) :   0.9613
B(  1-C , 24-H ) :   0.9677 B(  2-O ,  3-C ) :   1.1350 B(  3-C ,  4-O ) :   1.7830
B(  3-C ,  5-C ) :   0.9722 B(  4-O ,  8-C ) :   0.1319 B(  5-C ,  6-C ) :   0.9110
B(  5-C ,  9-O ) :   0.1174 B(  5-C , 25-H ) :   0.9744 B(  5-C , 26-H ) :   0.9136
B(  6-C ,  7-H ) :   0.9170 B(  6-C ,  8-C ) :   0.8188 B(  6-C , 13-S ) :   0.8686
B(  8-C ,  9-O ) :   1.8958 B(  8-C , 10-O ) :   1.1478 B( 10-O , 11-C ) :   0.7520
B( 11-C , 12-C ) :   0.9205 B( 11-C , 27-H ) :   0.9628 B( 11-C , 28-H ) :   0.9594
B( 12-C , 29-H ) :   0.9688 B( 12-C , 30-H ) :   0.9723 B( 12-C , 31-H ) :   0.9752
B( 13-S , 14-P ) :   0.9854 B( 14-P , 15-S ) :   1.8075 B( 14-P , 16-O ) :   1.0280
B( 14-P , 18-O ) :   1.1562 B( 16-O , 17-C ) :   0.8327 B( 17-C , 32-H ) :   0.9567
B( 17-C , 33-H ) :   0.9593 B( 17-C , 34-H ) :   0.9678 B( 18-O , 19-C ) :   0.7873
B( 19-C , 35-H ) :   0.9569 B( 19-C , 36-H ) :   0.9603 B( 19-C , 37-H ) :   0.9649

Dispersion correction           -0.017723503
FINAL SINGLE POINT ENERGY     -1981.453713193856

DIPOLE MOMENT
-------------

Method             : SCF
Type of density    : Electron Density
Multiplicity       :   1
Irrep              :   0
Energy             : -1981.4736398603636189 Eh
Relativity type    :
Basis              : AO
                                X                 Y                 Z
Electronic contribution:    -13.249009677      10.868267035      -6.718763316
Nuclear contribution   :     13.735411258     -12.980635754       6.967353980
                        -----------------------------------------
Total Dipole Moment    :      0.486401581      -2.112368719       0.248590665
                        -----------------------------------------
Magnitude (a.u.)       :      2.181853666
Magnitude (Debye)      :      5.545831286

Rotational constants in cm-1:             0.014537             0.006563             0.005996
Rotational constants in MHz :           435.806441           196.767310           179.762604

                             ****ORCA TERMINATED NORMALLY****
TOTAL RUN TIME: 0 days 0 hours 1 minutes 38 seconds 396 msec
