                         Program Version 6.0.1  -  RELEASE   -
|  1> ! r2scan-3c def2/J RI DEFGRID2 scfconv6 printgap
|  2> %output
|  3>     printlevel normal
|  4> end
|  5> %cpcm
|  6>     smd true
|  7>     smdsolvent "water"
|  8> end
|  9> * xyz 0 1
| 10> C 3.787373999 -3.6507917896 -0.4545363484
| 11> C 4.304333152 -2.3627177532 -1.0750445836
| 12> O 3.2663842707 -1.705386109 -1.830075257
| 13> C 2.4345169971 -0.911980465 -1.1929866361
| 14> O 2.4882429705 -0.6603094017 -0.0066950676
| 15> C 1.3986257013 -0.3156437331 -2.1230282411
| 16> C 0.3036531035 0.3489110247 -1.3001912916
| 17> H -0.362846454 0.9367601437 -1.9401789667
| 18> C 0.9257862534 1.3016844945 -0.291686705
| 19> O 1.7884467429 2.0907544368 -0.6052782745
| 20> O 0.3611973907 1.2223103062 0.8949769868
| 21> C 0.8629596016 2.051055124 1.9614347775
| 22> C 1.7747024665 1.2361310258 2.8627087098
| 23> S -0.7122147977 -0.9222969627 -0.4761746054
| 24> P -2.1967843981 0.3494258666 0.3562061057
| 25> S -2.4272209398 2.1034050193 -0.4841953568
| 26> O -3.4976979695 -0.5845578924 0.2713586413
| 27> C -4.0994798608 -0.9063915461 -0.9871892638
| 28> O -2.026946809 0.4223973899 1.9246173835
| 29> C -1.85912458 -0.7588248441 2.7326822897
| 30> H 2.9987924847 -3.4300364683 0.2613311029
| 31> H 3.3914745825 -4.3046835574 -1.2263711063
| 32> H 4.6005557999 -4.1527636788 0.0591376562
| 33> H 5.0887561542 -2.5576662569 -1.8061433638
| 34> H 4.6638333312 -1.6755097854 -0.3039162935
| 35> H 0.9956303676 -1.0910462337 -2.7731536336
| 36> H 1.8966970853 0.4385883264 -2.7364514518
| 37> H 1.3947916297 2.8944785669 1.5122981614
| 38> H -0.0259624789 2.402703274 2.4886609649
| 39> H 2.580999346 0.8063302888 2.2721160082
| 40> H 2.1922339279 1.8815347512 3.6280520713
| 41> H 1.2190164356 0.4296742811 3.3323174785
| 42> H -3.4621361727 -1.6000098792 -1.5352455288
| 43> H -4.2534347438 0.0020016751 -1.5717896455
| 44> H -5.0532115941 -1.368479882 -0.745670756
| 45> H -0.9580278533 -1.2906122927 2.4265616462
| 46> H -2.7279427029 -1.4063530998 2.6320162237
| 47> H -1.7652337514 -0.3941739655 3.7523258735
| 48> *
| 49>
| 50>                          ****END OF INPUT****

CARTESIAN COORDINATES (ANGSTROEM)
---------------------------------
  C      3.787374   -3.650792   -0.454536
  C      4.304333   -2.362718   -1.075045
  O      3.266384   -1.705386   -1.830075
  C      2.434517   -0.911980   -1.192987
  O      2.488243   -0.660309   -0.006695
  C      1.398626   -0.315644   -2.123028
  C      0.303653    0.348911   -1.300191
  H     -0.362846    0.936760   -1.940179
  C      0.925786    1.301684   -0.291687
  O      1.788447    2.090754   -0.605278
  O      0.361197    1.222310    0.894977
  C      0.862960    2.051055    1.961435
  C      1.774702    1.236131    2.862709
  S     -0.712215   -0.922297   -0.476175
  P     -2.196784    0.349426    0.356206
  S     -2.427221    2.103405   -0.484195
  O     -3.497698   -0.584558    0.271359
  C     -4.099480   -0.906392   -0.987189
  O     -2.026947    0.422397    1.924617
  C     -1.859125   -0.758825    2.732682
  H      2.998792   -3.430036    0.261331
  H      3.391475   -4.304684   -1.226371
  H      4.600556   -4.152764    0.059138
  H      5.088756   -2.557666   -1.806143
  H      4.663833   -1.675510   -0.303916
  H      0.995630   -1.091046   -2.773154
  H      1.896697    0.438588   -2.736451
  H      1.394792    2.894479    1.512298
  H     -0.025962    2.402703    2.488661
  H      2.580999    0.806330    2.272116
  H      2.192234    1.881535    3.628052
  H      1.219016    0.429674    3.332317
  H     -3.462136   -1.600010   -1.535246
  H     -4.253435    0.002002   -1.571790
  H     -5.053212   -1.368480   -0.745671
  H     -0.958028   -1.290612    2.426562
  H     -2.727943   -1.406353    2.632016
  H     -1.765234   -0.394174    3.752326

 Total Charge           Charge          ....    0
 Multiplicity           Mult            ....    1
 Number of Electrons    NEL             ....  174
 Basis Dimension        Dim             ....  510

ORBITAL ENERGIES
----------------

  NO   OCC          E(Eh)            E(eV)
   0   2.0000     -88.577668     -2410.3209
   1   2.0000     -88.528162     -2408.9738
   2   2.0000     -76.920203     -2093.1051
   3   2.0000     -19.010045      -517.2896
   4   2.0000     -19.005782      -517.1736
   5   2.0000     -18.997004      -516.9348
   6   2.0000     -18.992704      -516.8177
   7   2.0000     -18.952540      -515.7248
   8   2.0000     -18.947225      -515.5802
   9   2.0000     -10.173839      -276.8442
  10   2.0000     -10.173079      -276.8236
  11   2.0000     -10.095788      -274.7204
  12   2.0000     -10.087039      -274.4823
  13   2.0000     -10.085375      -274.4370
  14   2.0000     -10.084750      -274.4200
  15   2.0000     -10.080759      -274.3114
  16   2.0000     -10.060661      -273.7645
  17   2.0000     -10.019732      -272.6508
  18   2.0000     -10.019094      -272.6334
  19   2.0000      -7.871971      -214.2072
  20   2.0000      -7.823239      -212.8812
  21   2.0000      -6.598429      -179.5524
  22   2.0000      -5.818827      -158.3383
  23   2.0000      -5.815947      -158.2600
  24   2.0000      -5.808991      -158.0707
  25   2.0000      -5.771000      -157.0369
  26   2.0000      -5.763506      -156.8330
  27   2.0000      -5.763086      -156.8215
  28   2.0000      -4.744099      -129.0935
  29   2.0000      -4.743458      -129.0760
  30   2.0000      -4.742035      -129.0373
  31   2.0000      -1.090624       -29.6774
  32   2.0000      -1.085549       -29.5393
  33   2.0000      -1.053071       -28.6555
  34   2.0000      -1.010000       -27.4835
  35   2.0000      -1.001005       -27.2387
  36   2.0000      -0.995574       -27.0909
  37   2.0000      -0.813131       -22.1264
  38   2.0000      -0.754099       -20.5201
  39   2.0000      -0.737724       -20.0745
  40   2.0000      -0.732144       -19.9226
  41   2.0000      -0.695856       -18.9352
  42   2.0000      -0.669373       -18.2146
  43   2.0000      -0.659766       -17.9532
  44   2.0000      -0.651120       -17.7179
  45   2.0000      -0.628253       -17.0956
  46   2.0000      -0.594532       -16.1780
  47   2.0000      -0.539838       -14.6897
  48   2.0000      -0.530603       -14.4384
  49   2.0000      -0.522865       -14.2279
  50   2.0000      -0.506586       -13.7849
  51   2.0000      -0.491482       -13.3739
  52   2.0000      -0.487102       -13.2547
  53   2.0000      -0.469202       -12.7676
  54   2.0000      -0.462474       -12.5845
  55   2.0000      -0.454231       -12.3603
  56   2.0000      -0.451628       -12.2894
  57   2.0000      -0.448010       -12.1910
  58   2.0000      -0.440660       -11.9910
  59   2.0000      -0.426885       -11.6161
  60   2.0000      -0.421028       -11.4567
  61   2.0000      -0.410616       -11.1734
  62   2.0000      -0.409306       -11.1378
  63   2.0000      -0.398767       -10.8510
  64   2.0000      -0.388797       -10.5797
  65   2.0000      -0.387160       -10.5352
  66   2.0000      -0.373959       -10.1760
  67   2.0000      -0.368704       -10.0329
  68   2.0000      -0.356611        -9.7039
  69   2.0000      -0.352458        -9.5909
  70   2.0000      -0.346131        -9.4187
  71   2.0000      -0.340916        -9.2768
  72   2.0000      -0.338590        -9.2135
  73   2.0000      -0.334962        -9.1148
  74   2.0000      -0.319284        -8.6882
  75   2.0000      -0.315892        -8.5958
  76   2.0000      -0.308684        -8.3997
  77   2.0000      -0.306175        -8.3314
  78   2.0000      -0.288653        -7.8547
  79   2.0000      -0.287360        -7.8195
  80   2.0000      -0.281052        -7.6478
  81   2.0000      -0.277310        -7.5460
  82   2.0000      -0.269014        -7.3202
  83   2.0000      -0.261146        -7.1061
  84   2.0000      -0.236016        -6.4223
  85   2.0000      -0.227854        -6.2002
  86   2.0000      -0.223647        -6.0857
  87   0.0000      -0.048908        -1.3309
  88   0.0000      -0.028119        -0.7652
  89   0.0000      -0.024774        -0.6741
  90   0.0000       0.003766         0.1025
  91   0.0000       0.011439         0.3113

MULLIKEN ATOMIC CHARGES
-----------------------
   0 C :   -0.497262
   1 C :   -0.137683
   2 O :   -0.172444
   3 C :    0.430317
   4 O :   -0.454025
   5 C :   -0.501825
   6 C :    0.047345
   7 H :    0.273098
   8 C :    0.214854
   9 O :   -0.454078
  10 O :   -0.119251
  11 C :   -0.143369
  12 C :   -0.510878
  13 S :   -0.219805
  14 P :    0.801974
  15 S :   -0.505670
  16 O :   -0.383756
  17 C :   -0.306080
  18 O :   -0.347184
  19 C :   -0.302506
  20 H :    0.170788
  21 H :    0.167690
  22 H :    0.172604
  23 H :    0.177545
  24 H :    0.174493
  25 H :    0.226313
  26 H :    0.236124
  27 H :    0.182105
  28 H :    0.180647
  29 H :    0.171846
  30 H :    0.173573
  31 H :    0.171998
  32 H :    0.174673
  33 H :    0.176519
  34 H :    0.178933
  35 H :    0.182650
  36 H :    0.184642
  37 H :    0.185081
Sum of atomic charges:    0.0000000

LOEWDIN ATOMIC CHARGES
----------------------
   0 C :   -0.390634
   1 C :    0.037332
   2 O :   -0.572763
   3 C :    0.375705
   4 O :   -0.476602
   5 C :   -0.198212
   6 C :   -0.192664
   7 H :    0.217062
   8 C :    0.352871
   9 O :   -0.474465
  10 O :   -0.631646
  11 C :    0.040247
  12 C :   -0.387489
  13 S :    0.220821
  14 P :    0.401283
  15 S :   -0.131548
  16 O :   -0.697988
  17 C :   -0.056580
  18 O :   -0.667542
  19 C :   -0.045009
  20 H :    0.163451
  21 H :    0.162796
  22 H :    0.168975
  23 H :    0.190964
  24 H :    0.190721
  25 H :    0.204988
  26 H :    0.216070
  27 H :    0.196042
  28 H :    0.191242
  29 H :    0.166556
  30 H :    0.167893
  31 H :    0.162816
  32 H :    0.175836
  33 H :    0.177220
  34 H :    0.188371
  35 H :    0.179781
  36 H :    0.181884
  37 H :    0.192212

  Mayer bond orders larger than 0.100000
B(  0-C ,  1-C ) :   0.9360 B(  0-C , 20-H ) :   0.9688 B(  0-C , 21-H ) :   0.9691
B(  0-C , 22-H ) :   0.9588 B(  1-C ,  2-O ) :   0.7869 B(  1-C , 23-H ) :   0.9516
B(  1-C , 24-H ) :   0.9628 B(  2-O ,  3-C ) :   1.1498 B(  3-C ,  4-O ) :   1.7321
B(  3-C ,  5-C ) :   0.9474 B(  4-O ,  8-C ) :   0.1328 B(  5-C ,  6-C ) :   0.8870
B(  5-C , 25-H ) :   0.9621 B(  5-C , 26-H ) :   0.9231 B(  6-C ,  7-H ) :   0.9044
B(  6-C ,  8-C ) :   0.8184 B(  6-C , 13-S ) :   0.8660 B(  8-C ,  9-O ) :   1.8353
B(  8-C , 10-O ) :   1.1576 B( 10-O , 11-C ) :   0.7411 B( 11-C , 12-C ) :   0.9081
B( 11-C , 27-H ) :   0.9565 B( 11-C , 28-H ) :   0.9504 B( 12-C , 29-H ) :   0.9705
B( 12-C , 30-H ) :   0.9641 B( 12-C , 31-H ) :   0.9709 B( 13-S , 14-P ) :   1.0029
B( 14-P , 15-S ) :   1.7771 B( 14-P , 16-O ) :   1.0354 B( 14-P , 18-O ) :   1.1612
B( 16-O , 17-C ) :   0.8247 B( 17-C , 32-H ) :   0.9501 B( 17-C , 33-H ) :   0.9556
B( 17-C , 34-H ) :   0.9575 B( 18-O , 19-C ) :   0.7809 B( 19-C , 35-H ) :   0.9487
B( 19-C , 36-H ) :   0.9518 B( 19-C , 37-H ) :   0.9538

Dispersion correction           -0.017723503
FINAL SINGLE POINT ENERGY     -1981.468775074220

DIPOLE MOMENT
-------------

Method             : SCF
Type of density    : Electron Density
Multiplicity       :   1
Irrep              :   0
Energy             : -1981.4887017407274925 Eh
Relativity type    :
Basis              : AO
                                X                 Y                 Z
Electronic contribution:    -13.260047981      10.008825754      -6.817557139
Nuclear contribution   :     13.735411258     -12.980635754       6.967353980
                        -----------------------------------------
Total Dipole Moment    :      0.475363277      -2.971810000       0.149796841
                        -----------------------------------------
Magnitude (a.u.)       :      3.013314457
Magnitude (Debye)      :      7.659236660

Rotational constants in cm-1:             0.014537             0.006563             0.005996
Rotational constants in MHz :           435.806441           196.767310           179.762604

                             ****ORCA TERMINATED NORMALLY****
TOTAL RUN TIME: 0 days 0 hours 2 minutes 4 seconds 426 msec
