                         Program Version 6.0.0  -   RELEASE  -
|  1> ! pbe def2-sv(p) def2/J RI DEFGRID1 loosescf d4 GCP(DFT/SV(P)) printgap
|  2> %output
|  3>     printlevel normal
|  4> end
|  5> * xyz 0 1
|  6> C -0.6088105014 0.0043760181 -0.468199255
|  7> C 0.6090738586 0.0217233177 0.4676849849
|  8> O 1.8266813147 -0.0761872276 -0.2329915843
|  9> O -1.8275142261 -0.0385365933 0.2360270991
| 10> H -0.5813819143 -0.9012311572 -1.0787663817
| 11> H -0.5809183353 0.8763076781 -1.1366060857
| 12> H 0.5698098249 -0.8488228336 1.1266751091
| 13> H 0.5934614984 0.9290602651 1.0876274538
| 14> H 1.9285127992 0.6922817659 -0.8123517883
| 15> H -1.919400968 0.7624539903 0.7713659793
| 16> *
| 17>
| 18>                          ****END OF INPUT****

CARTESIAN COORDINATES (ANGSTROEM)
---------------------------------
  C     -0.608811    0.004376   -0.468199
  C      0.609074    0.021723    0.467685
  O      1.826681   -0.076187   -0.232992
  O     -1.827514   -0.038537    0.236027
  H     -0.581382   -0.901231   -1.078766
  H     -0.580918    0.876308   -1.136606
  H      0.569810   -0.848823    1.126675
  H      0.593461    0.929060    1.087627
  H      1.928513    0.692282   -0.812352
  H     -1.919401    0.762454    0.771366

 Total Charge           Charge          ....    0
 Multiplicity           Mult            ....    1
 Number of Electrons    NEL             ....   34
 Basis Dimension        Dim             ....   68

ORBITAL ENERGIES
----------------

  NO   OCC          E(Eh)            E(eV)
   0   2.0000     -18.749111      -510.1892
   1   2.0000     -18.749066      -510.1880
   2   2.0000      -9.931543      -270.2510
   3   2.0000      -9.931455      -270.2486
   4   2.0000      -0.930117       -25.3098
   5   2.0000      -0.919026       -25.0080
   6   2.0000      -0.654935       -17.8217
   7   2.0000      -0.567377       -15.4391
   8   2.0000      -0.476046       -12.9539
   9   2.0000      -0.449524       -12.2322
  10   2.0000      -0.412252       -11.2179
  11   2.0000      -0.363444        -9.8898
  12   2.0000      -0.362512        -9.8645
  13   2.0000      -0.292485        -7.9589
  14   2.0000      -0.277664        -7.5556
  15   2.0000      -0.237183        -6.4541
  16   2.0000      -0.206638        -5.6229
  17   0.0000       0.020987         0.5711
  18   0.0000       0.021515         0.5854
  19   0.0000       0.081205         2.2097
  20   0.0000       0.083192         2.2638
  21   0.0000       0.109141         2.9699

MULLIKEN ATOMIC CHARGES
-----------------------
   0 C :   -0.022738
   1 C :   -0.022609
   2 O :   -0.433669
   3 O :   -0.433641
   4 H :    0.099635
   5 H :    0.061889
   6 H :    0.099607
   7 H :    0.061956
   8 H :    0.294773
   9 H :    0.294796
Sum of atomic charges:   -0.0000000

LOEWDIN ATOMIC CHARGES
----------------------
   0 C :   -0.150290
   1 C :   -0.150282
   2 O :   -0.336375
   3 O :   -0.336362
   4 H :    0.117268
   5 H :    0.087351
   6 H :    0.117270
   7 H :    0.087359
   8 H :    0.282020
   9 H :    0.282041

  Mayer bond orders larger than 0.100000
B(  0-C ,  1-C ) :   1.0720 B(  0-C ,  3-O ) :   1.0561 B(  0-C ,  4-H ) :   0.9235
B(  0-C ,  5-H ) :   0.9253 B(  1-C ,  2-O ) :   1.0560 B(  1-C ,  6-H ) :   0.9235
B(  1-C ,  7-H ) :   0.9253 B(  2-O ,  8-H ) :   0.8539 B(  3-O ,  9-H ) :   0.8539

Dispersion correction           -0.004696658
FINAL SINGLE POINT ENERGY      -229.723196829551

DIPOLE MOMENT
-------------

Method             : SCF
Type of density    : Electron Density
Multiplicity       :   1
Irrep              :   0
Energy             :  -229.7737926693777410 Eh
Relativity type    :
Basis              : AO
                                X                 Y                 Z
Electronic contribution:     -0.003449360      -0.453318432       0.012550669
Nuclear contribution   :      0.009447134       1.414983319      -0.039410434
                        -----------------------------------------
Total Dipole Moment    :      0.005997774       0.961664887      -0.026859765
                        -----------------------------------------
Magnitude (a.u.)       :      0.962058613
Magnitude (Debye)      :      2.445358659

Rotational constants in cm-1:             0.984572             0.130267             0.122335
Rotational constants in MHz :         29516.725319          3905.304660          3667.518749

                             ****ORCA TERMINATED NORMALLY****
TOTAL RUN TIME: 0 days 0 hours 0 minutes 4 seconds 245 msec
