                         Program Version 6.0.0  -   RELEASE  -
|  1> ! pbe def2-sv(p) def2/J RI DEFGRID1 loosescf d4 GCP(DFT/SV(P)) printgap
|  2> %output
|  3>     printlevel normal
|  4> end
|  5> * xyz 0 1
|  6> C 5.7390688599 -0.1992792365 0.1730049096
|  7> C 4.3934264554 -0.6055214314 -0.3932790993
|  8> O 3.3759268815 0.1366112562 0.305899412
|  9> P 1.8932150978 0.2402708175 -0.2594799976
| 10> S 1.7871412303 0.7451695134 -2.1551857473
| 11> O 1.2401015862 1.2031808508 0.8131936756
| 12> C 1.2424393838 2.6376846202 0.6554649567
| 13> C 2.643533237 3.2080141758 0.6340734505
| 14> S 1.103700226 -1.6451012811 0.2598525134
| 15> C -0.0573860615 -1.9172710068 -1.1198452205
| 16> S -1.7563812835 -2.2125150243 -0.569220248
| 17> P -2.1862514836 -0.3025952401 0.1819402302
| 18> S -1.5863471247 1.2615641274 -0.8506652833
| 19> O -1.5903603926 -0.4457072654 1.6408639214
| 20> C -1.6320796034 0.6437766462 2.5900237672
| 21> C -0.5402016231 0.4131009492 3.6138337639
| 22> O -3.7486001435 -0.3080415731 0.4765904173
| 23> C -4.7225490167 0.0965602657 -0.5020246054
| 24> C -4.7942941266 -0.8716100774 -1.6646349615
| 25> H 6.5190216311 -0.7693586955 -0.3207332611
| 26> H 5.9111099013 0.860596201 0.0085741211
| 27> H 5.7661798762 -0.3995381141 1.2400436196
| 28> H 4.2023953712 -1.6717625516 -0.2435145996
| 29> H 4.3188451797 -0.3758920081 -1.4616900373
| 30> H 0.7023618391 2.882962506 -0.2653123446
| 31> H 0.6738708509 2.9936088666 1.5161594233
| 32> H 3.167571084 2.8666959004 -0.2579730651
| 33> H 2.5876857201 4.2919861951 0.6166221472
| 34> H 3.1938548333 2.8839705245 1.5135479276
| 35> H 0.2442362283 -2.821237837 -1.6427279748
| 36> H -0.0190324949 -1.0489583233 -1.7840729851
| 37> H -1.486286987 1.5840025996 2.0465371375
| 38> H -2.6234190801 0.6450527469 3.0492887603
| 39> H 0.4324223421 0.4194879759 3.1281620006
| 40> H -0.5771588796 1.2001167846 4.3601345911
| 41> H -0.6840473032 -0.550213577 4.0943308666
| 42> H -5.6578742789 0.1270957767 0.0582057147
| 43> H -4.4628719006 1.1009636139 -0.8517832359
| 44> H -4.9392349172 -1.8863494799 -1.3028993515
| 45> H -5.6204110854 -0.595695062 -2.3120842629
| 46> H -3.8687515095 -0.8332177389 -2.2379881792
| 47> *
| 48>
| 49>                          ****END OF INPUT****

CARTESIAN COORDINATES (ANGSTROEM)
---------------------------------
  C      5.739069   -0.199279    0.173005
  C      4.393426   -0.605521   -0.393279
  O      3.375927    0.136611    0.305899
  P      1.893215    0.240271   -0.259480
  S      1.787141    0.745170   -2.155186
  O      1.240102    1.203181    0.813194
  C      1.242439    2.637685    0.655465
  C      2.643533    3.208014    0.634073
  S      1.103700   -1.645101    0.259853
  C     -0.057386   -1.917271   -1.119845
  S     -1.756381   -2.212515   -0.569220
  P     -2.186251   -0.302595    0.181940
  S     -1.586347    1.261564   -0.850665
  O     -1.590360   -0.445707    1.640864
  C     -1.632080    0.643777    2.590024
  C     -0.540202    0.413101    3.613834
  O     -3.748600   -0.308042    0.476590
  C     -4.722549    0.096560   -0.502025
  C     -4.794294   -0.871610   -1.664635
  H      6.519022   -0.769359   -0.320733
  H      5.911110    0.860596    0.008574
  H      5.766180   -0.399538    1.240044
  H      4.202395   -1.671763   -0.243515
  H      4.318845   -0.375892   -1.461690
  H      0.702362    2.882963   -0.265312
  H      0.673871    2.993609    1.516159
  H      3.167571    2.866696   -0.257973
  H      2.587686    4.291986    0.616622
  H      3.193855    2.883971    1.513548
  H      0.244236   -2.821238   -1.642728
  H     -0.019032   -1.048958   -1.784073
  H     -1.486287    1.584003    2.046537
  H     -2.623419    0.645053    3.049289
  H      0.432422    0.419488    3.128162
  H     -0.577159    1.200117    4.360135
  H     -0.684047   -0.550214    4.094331
  H     -5.657874    0.127096    0.058206
  H     -4.462872    1.100964   -0.851783
  H     -4.939235   -1.886349   -1.302899
  H     -5.620411   -0.595695   -2.312084
  H     -3.868752   -0.833218   -2.237988

 Total Charge           Charge          ....    0
 Multiplicity           Mult            ....    1
 Number of Electrons    NEL             ....  202
 Basis Dimension        Dim             ....  334

ORBITAL ENERGIES
----------------

  NO   OCC          E(Eh)            E(eV)
   0   2.0000     -88.043661     -2395.7898
   1   2.0000     -88.040044     -2395.6914
   2   2.0000     -87.983398     -2394.1500
   3   2.0000     -87.982286     -2394.1197
   4   2.0000     -76.423421     -2079.5870
   5   2.0000     -76.422824     -2079.5708
   6   2.0000     -18.792163      -511.3607
   7   2.0000     -18.790310      -511.3103
   8   2.0000     -18.788824      -511.2699
   9   2.0000     -18.784030      -511.1394
  10   2.0000      -9.954230      -270.8684
  11   2.0000      -9.950928      -270.7785
  12   2.0000      -9.949371      -270.7361
  13   2.0000      -9.947365      -270.6816
  14   2.0000      -9.947161      -270.6760
  15   2.0000      -9.887085      -269.0413
  16   2.0000      -9.883312      -268.9386
  17   2.0000      -9.880480      -268.8615
  18   2.0000      -9.878881      -268.8180
  19   2.0000      -7.689369      -209.2384
  20   2.0000      -7.685305      -209.1278
  21   2.0000      -7.628323      -207.5772
  22   2.0000      -7.627000      -207.5412
  23   2.0000      -6.421001      -174.7243
  24   2.0000      -6.420603      -174.7135
  25   2.0000      -5.717359      -155.5772
  26   2.0000      -5.713761      -155.4794
  27   2.0000      -5.713190      -155.4638
  28   2.0000      -5.709831      -155.3724
  29   2.0000      -5.706220      -155.2741
  30   2.0000      -5.702192      -155.1645
  31   2.0000      -5.657195      -153.9401
  32   2.0000      -5.655723      -153.9000
  33   2.0000      -5.649147      -153.7211
  34   2.0000      -5.648322      -153.6986
  35   2.0000      -5.647723      -153.6823
  36   2.0000      -5.647268      -153.6700
  37   2.0000      -4.643302      -126.3507
  38   2.0000      -4.643198      -126.3478
  39   2.0000      -4.642700      -126.3343
  40   2.0000      -4.642288      -126.3231
  41   2.0000      -4.641726      -126.3078
  42   2.0000      -4.641063      -126.2897
  43   2.0000      -0.985203       -26.8087
  44   2.0000      -0.983836       -26.7716
  45   2.0000      -0.942952       -25.6590
  46   2.0000      -0.941127       -25.6094
  47   2.0000      -0.762480       -20.7481
  48   2.0000      -0.720729       -19.6120
  49   2.0000      -0.707057       -19.2400
  50   2.0000      -0.686553       -18.6820
  51   2.0000      -0.684727       -18.6324
  52   2.0000      -0.673172       -18.3179
  53   2.0000      -0.647986       -17.6326
  54   2.0000      -0.632040       -17.1987
  55   2.0000      -0.600404       -16.3378
  56   2.0000      -0.590262       -16.0619
  57   2.0000      -0.570667       -15.5286
  58   2.0000      -0.562449       -15.3050
  59   2.0000      -0.555989       -15.1292
  60   2.0000      -0.502627       -13.6772
  61   2.0000      -0.498733       -13.5712
  62   2.0000      -0.473345       -12.8804
  63   2.0000      -0.470348       -12.7988
  64   2.0000      -0.450945       -12.2708
  65   2.0000      -0.444235       -12.0882
  66   2.0000      -0.438458       -11.9311
  67   2.0000      -0.433205       -11.7881
  68   2.0000      -0.423448       -11.5226
  69   2.0000      -0.419607       -11.4181
  70   2.0000      -0.410901       -11.1812
  71   2.0000      -0.397107       -10.8058
  72   2.0000      -0.385410       -10.4875
  73   2.0000      -0.384849       -10.4723
  74   2.0000      -0.380131       -10.3439
  75   2.0000      -0.371828       -10.1180
  76   2.0000      -0.368159       -10.0181
  77   2.0000      -0.356023        -9.6879
  78   2.0000      -0.351555        -9.5663
  79   2.0000      -0.349279        -9.5044
  80   2.0000      -0.344524        -9.3750
  81   2.0000      -0.342232        -9.3126
  82   2.0000      -0.337578        -9.1860
  83   2.0000      -0.334129        -9.0921
  84   2.0000      -0.330096        -8.9824
  85   2.0000      -0.312444        -8.5020
  86   2.0000      -0.310373        -8.4457
  87   2.0000      -0.297671        -8.1000
  88   2.0000      -0.294886        -8.0243
  89   2.0000      -0.286343        -7.7918
  90   2.0000      -0.284271        -7.7354
  91   2.0000      -0.272831        -7.4241
  92   2.0000      -0.267709        -7.2847
  93   2.0000      -0.260738        -7.0950
  94   2.0000      -0.258687        -7.0392
  95   2.0000      -0.234881        -6.3914
  96   2.0000      -0.220711        -6.0059
  97   2.0000      -0.214863        -5.8467
  98   2.0000      -0.202829        -5.5193
  99   2.0000      -0.194857        -5.3023
 100   2.0000      -0.186618        -5.0781
 101   0.0000      -0.039294        -1.0693
 102   0.0000      -0.030201        -0.8218
 103   0.0000      -0.009803        -0.2668
 104   0.0000       0.013846         0.3768
 105   0.0000       0.025938         0.7058

MULLIKEN ATOMIC CHARGES
-----------------------
   0 C :   -0.280488
   1 C :   -0.009244
   2 O :   -0.379705
   3 P :    0.615890
   4 S :   -0.316925
   5 O :   -0.361196
   6 C :   -0.010610
   7 C :   -0.302492
   8 S :   -0.085237
   9 C :   -0.364613
  10 S :   -0.077885
  11 P :    0.608206
  12 S :   -0.324565
  13 O :   -0.360164
  14 C :   -0.007189
  15 C :   -0.290667
  16 O :   -0.379059
  17 C :   -0.001634
  18 C :   -0.320253
  19 H :    0.111304
  20 H :    0.118879
  21 H :    0.115971
  22 H :    0.098719
  23 H :    0.103293
  24 H :    0.125957
  25 H :    0.104380
  26 H :    0.124179
  27 H :    0.110425
  28 H :    0.114102
  29 H :    0.182498
  30 H :    0.210230
  31 H :    0.102611
  32 H :    0.100714
  33 H :    0.132463
  34 H :    0.102166
  35 H :    0.114303
  36 H :    0.103869
  37 H :    0.110188
  38 H :    0.118067
  39 H :    0.113923
  40 H :    0.129587
Sum of atomic charges:   -0.0000000

LOEWDIN ATOMIC CHARGES
----------------------
   0 C :   -0.350151
   1 C :   -0.123478
   2 O :   -0.248757
   3 P :    0.571138
   4 S :   -0.309243
   5 O :   -0.232338
   6 C :   -0.117448
   7 C :   -0.367466
   8 S :    0.083646
   9 C :   -0.479301
  10 S :    0.095583
  11 P :    0.563990
  12 S :   -0.307590
  13 O :   -0.240623
  14 C :   -0.113772
  15 C :   -0.355512
  16 O :   -0.247755
  17 C :   -0.119848
  18 C :   -0.369980
  19 H :    0.130486
  20 H :    0.127473
  21 H :    0.126611
  22 H :    0.107367
  23 H :    0.106696
  24 H :    0.111920
  25 H :    0.114945
  26 H :    0.121527
  27 H :    0.130279
  28 H :    0.124724
  29 H :    0.137286
  30 H :    0.126326
  31 H :    0.105185
  32 H :    0.111556
  33 H :    0.127193
  34 H :    0.126191
  35 H :    0.126898
  36 H :    0.118066
  37 H :    0.110147
  38 H :    0.124220
  39 H :    0.131588
  40 H :    0.122221

  Mayer bond orders larger than 0.100000
B(  0-C ,  1-C ) :   1.1594 B(  0-C , 19-H ) :   0.9423 B(  0-C , 20-H ) :   0.9520
B(  0-C , 21-H ) :   0.9504 B(  1-C ,  2-O ) :   0.9075 B(  1-C , 22-H ) :   0.9259
B(  1-C , 23-H ) :   0.9086 B(  2-O ,  3-P ) :   1.0928 B(  3-P ,  4-S ) :   1.6027
B(  3-P ,  5-O ) :   1.1262 B(  3-P ,  8-S ) :   0.9729 B(  4-S ,  8-S ) :   0.1195
B(  5-O ,  6-C ) :   0.8965 B(  6-C ,  7-C ) :   1.1642 B(  6-C , 24-H ) :   0.9142
B(  6-C , 25-H ) :   0.9309 B(  7-C , 26-H ) :   0.9319 B(  7-C , 27-H ) :   0.9372
B(  7-C , 28-H ) :   0.9442 B(  8-S ,  9-C ) :   0.9976 B(  9-C , 10-S ) :   1.0013
B(  9-C , 29-H ) :   0.9116 B(  9-C , 30-H ) :   0.8482 B( 10-S , 11-P ) :   0.9654
B( 10-S , 12-S ) :   0.1118 B( 11-P , 12-S ) :   1.6177 B( 11-P , 13-O ) :   1.1375
B( 11-P , 16-O ) :   1.0978 B( 13-O , 14-C ) :   0.8969 B( 14-C , 15-C ) :   1.1652
B( 14-C , 31-H ) :   0.9058 B( 14-C , 32-H ) :   0.9318 B( 15-C , 33-H ) :   0.9389
B( 15-C , 34-H ) :   0.9411 B( 15-C , 35-H ) :   0.9484 B( 16-O , 17-C ) :   0.9093
B( 17-C , 18-C ) :   1.1654 B( 17-C , 36-H ) :   0.9335 B( 17-C , 37-H ) :   0.9136
B( 18-C , 38-H ) :   0.9449 B( 18-C , 39-H ) :   0.9380 B( 18-C , 40-H ) :   0.9347

Dispersion correction           -0.066918824
FINAL SINGLE POINT ENERGY     -2929.523618735403

DIPOLE MOMENT
-------------

Method             : SCF
Type of density    : Electron Density
Multiplicity       :   1
Irrep              :   0
Energy             : -2929.6422742025110892 Eh
Relativity type    :
Basis              : AO
                                X                 Y                 Z
Electronic contribution:     -7.550158851     -10.327651016      -7.853544513
Nuclear contribution   :      7.563617714      10.348066621       8.610595966
                        -----------------------------------------
Total Dipole Moment    :      0.013458862       0.020415604       0.757051453
                        -----------------------------------------
Magnitude (a.u.)       :      0.757446262
Magnitude (Debye)      :      1.925275395

Rotational constants in cm-1:             0.013102             0.005174             0.004874
Rotational constants in MHz :           392.791883           155.116660           146.109071

                             ****ORCA TERMINATED NORMALLY****
TOTAL RUN TIME: 0 days 0 hours 0 minutes 21 seconds 473 msec
