                         Program Version 6.0.1  -  RELEASE   -
|  1> ! r2scan-3c def2/J RI DEFGRID2 scfconv6 printgap
|  2> %output
|  3>     printlevel normal
|  4> end
|  5> * xyz 0 1
|  6> C 4.1147893073 -3.7858108251 -2.278483345
|  7> C 3.4049908452 -3.9334256128 -0.9420598219
|  8> O 3.3002170931 -2.6619245947 -0.2717282526
|  9> C 2.2580973738 -1.897172568 -0.5321631035
| 10> O 1.350077156 -2.1974677416 -1.275368398
| 11> C 2.3376768334 -0.5912904813 0.2329953541
| 12> C 1.038678906 0.1855761404 0.1058714688
| 13> H 0.6911656924 0.1378992411 -0.9378946956
| 14> C 1.187354897 1.6579180473 0.4388852523
| 15> O 2.2024582458 2.2797748321 0.228853018
| 16> O 0.0786276273 2.1564650327 0.943845941
| 17> C 0.0119909461 3.5699489677 1.2245046368
| 18> C -0.6856466993 4.3013354574 0.0911260391
| 19> S -0.2751717447 -0.5817723267 1.1094961518
| 20> P -1.9351695162 0.2911848164 0.1071311306
| 21> S -1.6264464346 1.016381078 -1.6841827485
| 22> O -3.0121545146 -0.8972313732 0.1568609031
| 23> C -2.8411986274 -2.0739520398 -0.6374322715
| 24> O -2.6188233653 1.3300757466 1.0784261605
| 25> C -2.9870042615 0.9888461722 2.4294595147
| 26> H 4.2388366164 -4.7648352597 -2.729326652
| 27> H 3.527058792 -3.161414941 -2.9478288548
| 28> H 5.0907059866 -3.330155801 -2.1356295172
| 29> H 3.9769189286 -4.5569785641 -0.2549386155
| 30> H 2.3987159369 -4.3387279196 -1.0802978419
| 31> H 3.1507299869 0.0109997097 -0.1810323702
| 32> H 2.5744704529 -0.8059018751 1.2755963773
| 33> H -0.556160687 3.6437475966 2.1523166879
| 34> H 1.031953943 3.9375663056 1.3655290231
| 35> H -0.107940983 4.2152518369 -0.8266912223
| 36> H -1.6690300368 3.8694745564 -0.0807156608
| 37> H -0.7914917399 5.3494742312 0.3493492259
| 38> H -1.9653118573 -2.6307895773 -0.3024671324
| 39> H -2.7201464447 -1.8045440635 -1.6878528652
| 40> H -3.7462080688 -2.658490852 -0.4947993686
| 41> H -3.3332771499 1.9186604138 2.8730225126
| 42> H -2.1193099627 0.6019196872 2.9639775009
| 43> H -3.781503712 0.245374294 2.4203130099
| 44> *
| 45>
| 46>                          ****END OF INPUT****

CARTESIAN COORDINATES (ANGSTROEM)
---------------------------------
  C      4.114789   -3.785811   -2.278483
  C      3.404991   -3.933426   -0.942060
  O      3.300217   -2.661925   -0.271728
  C      2.258097   -1.897173   -0.532163
  O      1.350077   -2.197468   -1.275368
  C      2.337677   -0.591290    0.232995
  C      1.038679    0.185576    0.105871
  H      0.691166    0.137899   -0.937895
  C      1.187355    1.657918    0.438885
  O      2.202458    2.279775    0.228853
  O      0.078628    2.156465    0.943846
  C      0.011991    3.569949    1.224505
  C     -0.685647    4.301335    0.091126
  S     -0.275172   -0.581772    1.109496
  P     -1.935170    0.291185    0.107131
  S     -1.626446    1.016381   -1.684183
  O     -3.012155   -0.897231    0.156861
  C     -2.841199   -2.073952   -0.637432
  O     -2.618823    1.330076    1.078426
  C     -2.987004    0.988846    2.429460
  H      4.238837   -4.764835   -2.729327
  H      3.527059   -3.161415   -2.947829
  H      5.090706   -3.330156   -2.135630
  H      3.976919   -4.556979   -0.254939
  H      2.398716   -4.338728   -1.080298
  H      3.150730    0.011000   -0.181032
  H      2.574470   -0.805902    1.275596
  H     -0.556161    3.643748    2.152317
  H      1.031954    3.937566    1.365529
  H     -0.107941    4.215252   -0.826691
  H     -1.669030    3.869475   -0.080716
  H     -0.791492    5.349474    0.349349
  H     -1.965312   -2.630790   -0.302467
  H     -2.720146   -1.804544   -1.687853
  H     -3.746208   -2.658491   -0.494799
  H     -3.333277    1.918660    2.873023
  H     -2.119310    0.601920    2.963978
  H     -3.781504    0.245374    2.420313

 Total Charge           Charge          ....    0
 Multiplicity           Mult            ....    1
 Number of Electrons    NEL             ....  174
 Basis Dimension        Dim             ....  510

ORBITAL ENERGIES
----------------

  NO   OCC          E(Eh)            E(eV)
   0   2.0000     -88.572222     -2410.1727
   1   2.0000     -88.516830     -2408.6654
   2   2.0000     -76.911945     -2092.8804
   3   2.0000     -19.005545      -517.1672
   4   2.0000     -19.002468      -517.0834
   5   2.0000     -18.994476      -516.8660
   6   2.0000     -18.988307      -516.6981
   7   2.0000     -18.938073      -515.3312
   8   2.0000     -18.937744      -515.3222
   9   2.0000     -10.163364      -276.5592
  10   2.0000     -10.162646      -276.5397
  11   2.0000     -10.099268      -274.8151
  12   2.0000     -10.097777      -274.7745
  13   2.0000     -10.092043      -274.6185
  14   2.0000     -10.089112      -274.5387
  15   2.0000     -10.085512      -274.4407
  16   2.0000     -10.061515      -273.7877
  17   2.0000     -10.033258      -273.0188
  18   2.0000     -10.021582      -272.7011
  19   2.0000      -7.866607      -214.0613
  20   2.0000      -7.811538      -212.5628
  21   2.0000      -6.590288      -179.3308
  22   2.0000      -5.813406      -158.1908
  23   2.0000      -5.810661      -158.1161
  24   2.0000      -5.803592      -157.9238
  25   2.0000      -5.759450      -156.7226
  26   2.0000      -5.751763      -156.5134
  27   2.0000      -5.751347      -156.5021
  28   2.0000      -4.735983      -128.8726
  29   2.0000      -4.735319      -128.8546
  30   2.0000      -4.733786      -128.8129
  31   2.0000      -1.082390       -29.4533
  32   2.0000      -1.081423       -29.4270
  33   2.0000      -1.049839       -28.5676
  34   2.0000      -1.007438       -27.4138
  35   2.0000      -0.988015       -26.8853
  36   2.0000      -0.987028       -26.8584
  37   2.0000      -0.809104       -22.0169
  38   2.0000      -0.758165       -20.6307
  39   2.0000      -0.740147       -20.1404
  40   2.0000      -0.732652       -19.9365
  41   2.0000      -0.697682       -18.9849
  42   2.0000      -0.673542       -18.3280
  43   2.0000      -0.657833       -17.9005
  44   2.0000      -0.649368       -17.6702
  45   2.0000      -0.632311       -17.2060
  46   2.0000      -0.593735       -16.1564
  47   2.0000      -0.539849       -14.6900
  48   2.0000      -0.532186       -14.4815
  49   2.0000      -0.522754       -14.2248
  50   2.0000      -0.500222       -13.6117
  51   2.0000      -0.492595       -13.4042
  52   2.0000      -0.485045       -13.1987
  53   2.0000      -0.469616       -12.7789
  54   2.0000      -0.458013       -12.4632
  55   2.0000      -0.451566       -12.2877
  56   2.0000      -0.446404       -12.1473
  57   2.0000      -0.442888       -12.0516
  58   2.0000      -0.434200       -11.8152
  59   2.0000      -0.429633       -11.6909
  60   2.0000      -0.420597       -11.4450
  61   2.0000      -0.418223       -11.3804
  62   2.0000      -0.416795       -11.3416
  63   2.0000      -0.398815       -10.8523
  64   2.0000      -0.397212       -10.8087
  65   2.0000      -0.380526       -10.3546
  66   2.0000      -0.371371       -10.1055
  67   2.0000      -0.370359       -10.0780
  68   2.0000      -0.360801        -9.8179
  69   2.0000      -0.351234        -9.5576
  70   2.0000      -0.349338        -9.5060
  71   2.0000      -0.346141        -9.4190
  72   2.0000      -0.336477        -9.1560
  73   2.0000      -0.328873        -8.9491
  74   2.0000      -0.323768        -8.8102
  75   2.0000      -0.314604        -8.5608
  76   2.0000      -0.311934        -8.4882
  77   2.0000      -0.305121        -8.3028
  78   2.0000      -0.286539        -7.7971
  79   2.0000      -0.281441        -7.6584
  80   2.0000      -0.278404        -7.5757
  81   2.0000      -0.273390        -7.4393
  82   2.0000      -0.262413        -7.1406
  83   2.0000      -0.246312        -6.7025
  84   2.0000      -0.224151        -6.0995
  85   2.0000      -0.216808        -5.8996
  86   2.0000      -0.211162        -5.7460
  87   0.0000      -0.043319        -1.1788
  88   0.0000      -0.026428        -0.7191
  89   0.0000      -0.016362        -0.4452
  90   0.0000       0.008996         0.2448
  91   0.0000       0.018645         0.5074

MULLIKEN ATOMIC CHARGES
-----------------------
   0 C :   -0.464865
   1 C :   -0.139498
   2 O :   -0.170145
   3 C :    0.395073
   4 O :   -0.424403
   5 C :   -0.438188
   6 C :   -0.003868
   7 H :    0.254511
   8 C :    0.327043
   9 O :   -0.417000
  10 O :   -0.123715
  11 C :   -0.150485
  12 C :   -0.459574
  13 S :   -0.244054
  14 P :    0.779370
  15 S :   -0.448073
  16 O :   -0.345551
  17 C :   -0.286113
  18 O :   -0.318402
  19 C :   -0.297066
  20 H :    0.148542
  21 H :    0.171766
  22 H :    0.154322
  23 H :    0.150379
  24 H :    0.168457
  25 H :    0.215277
  26 H :    0.185299
  27 H :    0.142787
  28 H :    0.174935
  29 H :    0.162971
  30 H :    0.176552
  31 H :    0.143999
  32 H :    0.163774
  33 H :    0.173711
  34 H :    0.148018
  35 H :    0.155528
  36 H :    0.168456
  37 H :    0.170228
Sum of atomic charges:   -0.0000000

LOEWDIN ATOMIC CHARGES
----------------------
   0 C :   -0.388298
   1 C :    0.030303
   2 O :   -0.583447
   3 C :    0.358743
   4 O :   -0.440664
   5 C :   -0.202516
   6 C :   -0.198071
   7 H :    0.228805
   8 C :    0.356816
   9 O :   -0.428365
  10 O :   -0.625129
  11 C :    0.035681
  12 C :   -0.389169
  13 S :    0.213844
  14 P :    0.399548
  15 S :   -0.084234
  16 O :   -0.685531
  17 C :   -0.058154
  18 O :   -0.653188
  19 C :   -0.052563
  20 H :    0.160101
  21 H :    0.165148
  22 H :    0.158349
  23 H :    0.178876
  24 H :    0.188785
  25 H :    0.210713
  26 H :    0.191056
  27 H :    0.177696
  28 H :    0.193193
  29 H :    0.164576
  30 H :    0.168113
  31 H :    0.156586
  32 H :    0.172730
  33 H :    0.177247
  34 H :    0.175184
  35 H :    0.179089
  36 H :    0.173411
  37 H :    0.174736

  Mayer bond orders larger than 0.100000
B(  0-C ,  1-C ) :   0.9430 B(  0-C , 20-H ) :   0.9641 B(  0-C , 21-H ) :   0.9701
B(  0-C , 22-H ) :   0.9733 B(  1-C ,  2-O ) :   0.8016 B(  1-C , 23-H ) :   0.9622
B(  1-C , 24-H ) :   0.9666 B(  2-O ,  3-C ) :   1.1136 B(  3-C ,  4-O ) :   1.8393
B(  3-C ,  5-C ) :   0.9693 B(  5-C ,  6-C ) :   0.9476 B(  5-C , 25-H ) :   0.9128
B(  5-C , 26-H ) :   0.9680 B(  6-C ,  7-H ) :   0.9052 B(  6-C ,  8-C ) :   0.8726
B(  6-C , 13-S ) :   0.8041 B(  8-C ,  9-O ) :   1.8892 B(  8-C , 10-O ) :   1.1891
B( 10-O , 11-C ) :   0.7622 B( 11-C , 12-C ) :   0.9388 B( 11-C , 27-H ) :   0.9635
B( 11-C , 28-H ) :   0.9612 B( 12-C , 29-H ) :   0.9674 B( 12-C , 30-H ) :   0.9654
B( 12-C , 31-H ) :   0.9673 B( 13-S , 14-P ) :   1.0072 B( 14-P , 15-S ) :   1.7941
B( 14-P , 16-O ) :   1.0424 B( 14-P , 18-O ) :   1.1447 B( 16-O , 17-C ) :   0.8348
B( 17-C , 32-H ) :   0.9524 B( 17-C , 33-H ) :   0.9586 B( 17-C , 34-H ) :   0.9673
B( 18-O , 19-C ) :   0.7958 B( 19-C , 35-H ) :   0.9662 B( 19-C , 36-H ) :   0.9564
B( 19-C , 37-H ) :   0.9602

Dispersion correction           -0.017275607
FINAL SINGLE POINT ENERGY     -1981.455297263744

DIPOLE MOMENT
-------------

Method             : SCF
Type of density    : Electron Density
Multiplicity       :   1
Irrep              :   0
Energy             : -1981.4755414556207143 Eh
Relativity type    :
Basis              : AO
                                X                 Y                 Z
Electronic contribution:     -7.304985186       3.225520527       1.608467383
Nuclear contribution   :      7.329388793      -4.139259213      -0.309669858
                        -----------------------------------------
Total Dipole Moment    :      0.024403608      -0.913738686       1.298797525
                        -----------------------------------------
Magnitude (a.u.)       :      1.588203051
Magnitude (Debye)      :      4.036891340

Rotational constants in cm-1:             0.013842             0.006427             0.005208
Rotational constants in MHz :           414.982714           192.666719           156.127941

                             ****ORCA TERMINATED NORMALLY****
TOTAL RUN TIME: 0 days 0 hours 1 minutes 19 seconds 374 msec
