                         Program Version 6.0.1  -  RELEASE   -
|  1> ! r2scan-3c def2/J RI DEFGRID2 scfconv6 printgap
|  2> %output
|  3>     printlevel normal
|  4> end
|  5> %cpcm
|  6>     smd true
|  7>     smdsolvent "water"
|  8> end
|  9> * xyz 0 1
| 10> C 4.1147893073 -3.7858108251 -2.278483345
| 11> C 3.4049908452 -3.9334256128 -0.9420598219
| 12> O 3.3002170931 -2.6619245947 -0.2717282526
| 13> C 2.2580973738 -1.897172568 -0.5321631035
| 14> O 1.350077156 -2.1974677416 -1.275368398
| 15> C 2.3376768334 -0.5912904813 0.2329953541
| 16> C 1.038678906 0.1855761404 0.1058714688
| 17> H 0.6911656924 0.1378992411 -0.9378946956
| 18> C 1.187354897 1.6579180473 0.4388852523
| 19> O 2.2024582458 2.2797748321 0.228853018
| 20> O 0.0786276273 2.1564650327 0.943845941
| 21> C 0.0119909461 3.5699489677 1.2245046368
| 22> C -0.6856466993 4.3013354574 0.0911260391
| 23> S -0.2751717447 -0.5817723267 1.1094961518
| 24> P -1.9351695162 0.2911848164 0.1071311306
| 25> S -1.6264464346 1.016381078 -1.6841827485
| 26> O -3.0121545146 -0.8972313732 0.1568609031
| 27> C -2.8411986274 -2.0739520398 -0.6374322715
| 28> O -2.6188233653 1.3300757466 1.0784261605
| 29> C -2.9870042615 0.9888461722 2.4294595147
| 30> H 4.2388366164 -4.7648352597 -2.729326652
| 31> H 3.527058792 -3.161414941 -2.9478288548
| 32> H 5.0907059866 -3.330155801 -2.1356295172
| 33> H 3.9769189286 -4.5569785641 -0.2549386155
| 34> H 2.3987159369 -4.3387279196 -1.0802978419
| 35> H 3.1507299869 0.0109997097 -0.1810323702
| 36> H 2.5744704529 -0.8059018751 1.2755963773
| 37> H -0.556160687 3.6437475966 2.1523166879
| 38> H 1.031953943 3.9375663056 1.3655290231
| 39> H -0.107940983 4.2152518369 -0.8266912223
| 40> H -1.6690300368 3.8694745564 -0.0807156608
| 41> H -0.7914917399 5.3494742312 0.3493492259
| 42> H -1.9653118573 -2.6307895773 -0.3024671324
| 43> H -2.7201464447 -1.8045440635 -1.6878528652
| 44> H -3.7462080688 -2.658490852 -0.4947993686
| 45> H -3.3332771499 1.9186604138 2.8730225126
| 46> H -2.1193099627 0.6019196872 2.9639775009
| 47> H -3.781503712 0.245374294 2.4203130099
| 48> *
| 49>
| 50>                          ****END OF INPUT****

CARTESIAN COORDINATES (ANGSTROEM)
---------------------------------
  C      4.114789   -3.785811   -2.278483
  C      3.404991   -3.933426   -0.942060
  O      3.300217   -2.661925   -0.271728
  C      2.258097   -1.897173   -0.532163
  O      1.350077   -2.197468   -1.275368
  C      2.337677   -0.591290    0.232995
  C      1.038679    0.185576    0.105871
  H      0.691166    0.137899   -0.937895
  C      1.187355    1.657918    0.438885
  O      2.202458    2.279775    0.228853
  O      0.078628    2.156465    0.943846
  C      0.011991    3.569949    1.224505
  C     -0.685647    4.301335    0.091126
  S     -0.275172   -0.581772    1.109496
  P     -1.935170    0.291185    0.107131
  S     -1.626446    1.016381   -1.684183
  O     -3.012155   -0.897231    0.156861
  C     -2.841199   -2.073952   -0.637432
  O     -2.618823    1.330076    1.078426
  C     -2.987004    0.988846    2.429460
  H      4.238837   -4.764835   -2.729327
  H      3.527059   -3.161415   -2.947829
  H      5.090706   -3.330156   -2.135630
  H      3.976919   -4.556979   -0.254939
  H      2.398716   -4.338728   -1.080298
  H      3.150730    0.011000   -0.181032
  H      2.574470   -0.805902    1.275596
  H     -0.556161    3.643748    2.152317
  H      1.031954    3.937566    1.365529
  H     -0.107941    4.215252   -0.826691
  H     -1.669030    3.869475   -0.080716
  H     -0.791492    5.349474    0.349349
  H     -1.965312   -2.630790   -0.302467
  H     -2.720146   -1.804544   -1.687853
  H     -3.746208   -2.658491   -0.494799
  H     -3.333277    1.918660    2.873023
  H     -2.119310    0.601920    2.963978
  H     -3.781504    0.245374    2.420313

 Total Charge           Charge          ....    0
 Multiplicity           Mult            ....    1
 Number of Electrons    NEL             ....  174
 Basis Dimension        Dim             ....  510

ORBITAL ENERGIES
----------------

  NO   OCC          E(Eh)            E(eV)
   0   2.0000     -88.578411     -2410.3411
   1   2.0000     -88.529858     -2409.0199
   2   2.0000     -76.920343     -2093.1089
   3   2.0000     -19.009645      -517.2787
   4   2.0000     -19.007482      -517.2199
   5   2.0000     -18.997854      -516.9579
   6   2.0000     -18.994006      -516.8532
   7   2.0000     -18.952621      -515.7270
   8   2.0000     -18.949464      -515.6411
   9   2.0000     -10.174980      -276.8753
  10   2.0000     -10.171315      -276.7756
  11   2.0000     -10.094267      -274.6790
  12   2.0000     -10.086849      -274.4771
  13   2.0000     -10.085966      -274.4531
  14   2.0000     -10.085180      -274.4317
  15   2.0000     -10.081034      -274.3189
  16   2.0000     -10.058621      -273.7090
  17   2.0000     -10.019291      -272.6388
  18   2.0000     -10.018416      -272.6150
  19   2.0000      -7.872717      -214.2275
  20   2.0000      -7.824920      -212.9269
  21   2.0000      -6.598756      -179.5613
  22   2.0000      -5.819541      -158.3578
  23   2.0000      -5.816786      -158.2828
  24   2.0000      -5.809670      -158.0892
  25   2.0000      -5.772691      -157.0829
  26   2.0000      -5.765228      -156.8798
  27   2.0000      -5.764715      -156.8659
  28   2.0000      -4.744396      -129.1016
  29   2.0000      -4.743751      -129.0840
  30   2.0000      -4.742384      -129.0468
  31   2.0000      -1.090054       -29.6619
  32   2.0000      -1.085741       -29.5445
  33   2.0000      -1.053934       -28.6790
  34   2.0000      -1.011337       -27.5199
  35   2.0000      -1.000926       -27.2366
  36   2.0000      -0.996353       -27.1122
  37   2.0000      -0.812847       -22.1187
  38   2.0000      -0.753628       -20.5073
  39   2.0000      -0.739735       -20.1292
  40   2.0000      -0.731072       -19.8935
  41   2.0000      -0.695560       -18.9271
  42   2.0000      -0.670218       -18.2376
  43   2.0000      -0.660507       -17.9733
  44   2.0000      -0.653504       -17.7828
  45   2.0000      -0.627903       -17.0861
  46   2.0000      -0.591973       -16.1084
  47   2.0000      -0.540648       -14.7118
  48   2.0000      -0.529183       -14.3998
  49   2.0000      -0.521910       -14.2019
  50   2.0000      -0.503671       -13.7056
  51   2.0000      -0.491959       -13.3869
  52   2.0000      -0.486588       -13.2407
  53   2.0000      -0.469123       -12.7655
  54   2.0000      -0.464260       -12.6332
  55   2.0000      -0.458765       -12.4836
  56   2.0000      -0.450292       -12.2531
  57   2.0000      -0.445893       -12.1334
  58   2.0000      -0.437587       -11.9073
  59   2.0000      -0.427580       -11.6350
  60   2.0000      -0.420856       -11.4521
  61   2.0000      -0.415538       -11.3074
  62   2.0000      -0.411337       -11.1931
  63   2.0000      -0.397722       -10.8226
  64   2.0000      -0.394863       -10.7448
  65   2.0000      -0.379036       -10.3141
  66   2.0000      -0.371126       -10.0988
  67   2.0000      -0.367947       -10.0123
  68   2.0000      -0.359739        -9.7890
  69   2.0000      -0.354969        -9.6592
  70   2.0000      -0.347683        -9.4609
  71   2.0000      -0.344994        -9.3878
  72   2.0000      -0.334566        -9.1040
  73   2.0000      -0.328997        -8.9525
  74   2.0000      -0.323754        -8.8098
  75   2.0000      -0.315201        -8.5770
  76   2.0000      -0.307721        -8.3735
  77   2.0000      -0.305928        -8.3247
  78   2.0000      -0.287613        -7.8264
  79   2.0000      -0.286210        -7.7882
  80   2.0000      -0.283103        -7.7036
  81   2.0000      -0.278800        -7.5865
  82   2.0000      -0.274777        -7.4771
  83   2.0000      -0.258904        -7.0451
  84   2.0000      -0.235602        -6.4110
  85   2.0000      -0.230938        -6.2842
  86   2.0000      -0.222918        -6.0659
  87   0.0000      -0.050609        -1.3771
  88   0.0000      -0.034721        -0.9448
  89   0.0000      -0.023742        -0.6461
  90   0.0000       0.003999         0.1088
  91   0.0000       0.012401         0.3374

MULLIKEN ATOMIC CHARGES
-----------------------
   0 C :   -0.493625
   1 C :   -0.143389
   2 O :   -0.183905
   3 C :    0.422795
   4 O :   -0.491757
   5 C :   -0.440210
   6 C :   -0.003027
   7 H :    0.253302
   8 C :    0.345047
   9 O :   -0.477230
  10 O :   -0.132162
  11 C :   -0.151382
  12 C :   -0.493461
  13 S :   -0.231880
  14 P :    0.798565
  15 S :   -0.503966
  16 O :   -0.366046
  17 C :   -0.308715
  18 O :   -0.355436
  19 C :   -0.299612
  20 H :    0.171511
  21 H :    0.169386
  22 H :    0.166836
  23 H :    0.176500
  24 H :    0.174493
  25 H :    0.228538
  26 H :    0.221744
  27 H :    0.178584
  28 H :    0.180159
  29 H :    0.167713
  30 H :    0.169376
  31 H :    0.171414
  32 H :    0.173545
  33 H :    0.178117
  34 H :    0.179635
  35 H :    0.184182
  36 H :    0.179090
  37 H :    0.185270
Sum of atomic charges:   -0.0000000

LOEWDIN ATOMIC CHARGES
----------------------
   0 C :   -0.391582
   1 C :    0.036018
   2 O :   -0.583010
   3 C :    0.370415
   4 O :   -0.490931
   5 C :   -0.197819
   6 C :   -0.196146
   7 H :    0.227288
   8 C :    0.365153
   9 O :   -0.471941
  10 O :   -0.622878
  11 C :    0.042498
  12 C :   -0.392721
  13 S :    0.225221
  14 P :    0.399567
  15 S :   -0.126874
  16 O :   -0.694778
  17 C :   -0.056575
  18 O :   -0.670739
  19 C :   -0.042600
  20 H :    0.168505
  21 H :    0.162604
  22 H :    0.162493
  23 H :    0.190283
  24 H :    0.190960
  25 H :    0.217629
  26 H :    0.205053
  27 H :    0.191697
  28 H :    0.195734
  29 H :    0.162428
  30 H :    0.163653
  31 H :    0.167099
  32 H :    0.175638
  33 H :    0.177068
  34 H :    0.188722
  35 H :    0.191684
  36 H :    0.179417
  37 H :    0.181768

  Mayer bond orders larger than 0.100000
B(  0-C ,  1-C ) :   0.9399 B(  0-C , 20-H ) :   0.9591 B(  0-C , 21-H ) :   0.9687
B(  0-C , 22-H ) :   0.9698 B(  1-C ,  2-O ) :   0.7843 B(  1-C , 23-H ) :   0.9526
B(  1-C , 24-H ) :   0.9624 B(  2-O ,  3-C ) :   1.1339 B(  3-C ,  4-O ) :   1.7933
B(  3-C ,  5-C ) :   0.9706 B(  5-C ,  6-C ) :   0.9470 B(  5-C , 25-H ) :   0.9059
B(  5-C , 26-H ) :   0.9559 B(  6-C ,  7-H ) :   0.9020 B(  6-C ,  8-C ) :   0.8857
B(  6-C , 13-S ) :   0.8103 B(  8-C ,  9-O ) :   1.8430 B(  8-C , 10-O ) :   1.2105
B( 10-O , 11-C ) :   0.7506 B( 11-C , 12-C ) :   0.9220 B( 11-C , 27-H ) :   0.9540
B( 11-C , 28-H ) :   0.9565 B( 12-C , 29-H ) :   0.9697 B( 12-C , 30-H ) :   0.9677
B( 12-C , 31-H ) :   0.9608 B( 13-S , 14-P ) :   1.0203 B( 14-P , 15-S ) :   1.7653
B( 14-P , 16-O ) :   1.0441 B( 14-P , 18-O ) :   1.1487 B( 16-O , 17-C ) :   0.8240
B( 17-C , 32-H ) :   0.9489 B( 17-C , 33-H ) :   0.9557 B( 17-C , 34-H ) :   0.9566
B( 18-O , 19-C ) :   0.7881 B( 19-C , 35-H ) :   0.9548 B( 19-C , 36-H ) :   0.9478
B( 19-C , 37-H ) :   0.9519

Dispersion correction           -0.017275607
FINAL SINGLE POINT ENERGY     -1981.468198799827

DIPOLE MOMENT
-------------

Method             : SCF
Type of density    : Electron Density
Multiplicity       :   1
Irrep              :   0
Energy             : -1981.4884429917033231 Eh
Relativity type    :
Basis              : AO
                                X                 Y                 Z
Electronic contribution:     -7.190650723       2.947394287       2.402757626
Nuclear contribution   :      7.329388793      -4.139259213      -0.309669858
                        -----------------------------------------
Total Dipole Moment    :      0.138738070      -1.191864926       2.093087768
                        -----------------------------------------
Magnitude (a.u.)       :      2.412634796
Magnitude (Debye)      :      6.132430300

Rotational constants in cm-1:             0.013842             0.006427             0.005208
Rotational constants in MHz :           414.982714           192.666719           156.127941

                             ****ORCA TERMINATED NORMALLY****
TOTAL RUN TIME: 0 days 0 hours 1 minutes 47 seconds 817 msec
