                         Program Version 6.0.0  -   RELEASE  -
|  1> ! r2scan-3c def2/J RI DEFGRID2 scfconv6 printgap
|  2> %output
|  3>     printlevel normal
|  4> end
|  5> * xyz 0 1
|  6> C 0.4328265311 -1.663767086 2.7810219855
|  7> C 1.5641834767 -0.6618716369 2.6639632664
|  8> O 1.3829138731 0.1693292289 1.4935619094
|  9> P 2.2423751367 0.0167420816 0.1771684099
| 10> S 2.9616523072 -1.7682128714 -0.2088162218
| 11> O 3.3174755931 1.1662304331 0.4134857202
| 12> C 4.3765978646 1.4400766029 -0.5275211594
| 13> C 5.6520961413 0.7247913059 -0.126168338
| 14> S 0.9845529574 0.8722656915 -1.2874126091
| 15> C 0.2298117903 -0.6672974613 -1.8847535413
| 16> S -0.7285323073 -1.5259778008 -0.612053359
| 17> P -2.112064517 0.0339025078 -0.2346066029
| 18> S -2.6714773446 1.0649475357 -1.8101608704
| 19> O -1.4186890382 0.8581311799 0.9229237341
| 20> C -1.497778685 2.291537829 1.0145867126
| 21> C -2.8331282291 2.720341371 1.5852335124
| 22> O -3.2336625779 -0.7075525409 0.6086485846
| 23> C -4.0813744891 -1.7416645551 0.0701577375
| 24> C -5.3164069395 -1.1584644245 -0.5890969563
| 25> H -0.5248966518 -1.1521881295 2.7184896882
| 26> H 0.4904826426 -2.3942424862 1.9766443956
| 27> H 0.5074217841 -2.1770992355 3.7342453035
| 28> H 2.5303654453 -1.1703020228 2.5988597344
| 29> H 1.5703136203 0.0351545949 3.503419845
| 30> H 4.0564518616 1.1406284894 -1.5295469164
| 31> H 4.5001934406 2.5241157897 -0.4951065592
| 32> H 6.4469618607 1.0005657896 -0.8115432768
| 33> H 5.934285017 1.0053215484 0.8846925435
| 34> H 5.5082454273 -0.3527188984 -0.1648333158
| 35> H 1.0083279417 -1.3595256357 -2.203611184
| 36> H -0.4213470927 -0.3855925564 -2.711707826
| 37> H -0.6639318541 2.5650767416 1.6630097785
| 38> H -1.3435934808 2.7202044855 0.0182879227
| 39> H -2.8488425213 3.7994895428 1.6997990193
| 40> H -3.6308720667 2.4223010136 0.9057707107
| 41> H -2.9990541016 2.2484912612 2.5497889725
| 42> H -3.5052332426 -2.3468412546 -0.6359015358
| 43> H -4.3447409653 -2.3492809768 0.9380257191
| 44> H -5.953714637 -1.9673119701 -0.9315866976
| 45> H -5.8649017978 -0.5450338942 0.1203620564
| 46> H -5.0372392291 -0.5422732565 -1.4408483525
| 47> *
| 48>
| 49>                          ****END OF INPUT****

CARTESIAN COORDINATES (ANGSTROEM)
---------------------------------
  C      0.432827   -1.663767    2.781022
  C      1.564183   -0.661872    2.663963
  O      1.382914    0.169329    1.493562
  P      2.242375    0.016742    0.177168
  S      2.961652   -1.768213   -0.208816
  O      3.317476    1.166230    0.413486
  C      4.376598    1.440077   -0.527521
  C      5.652096    0.724791   -0.126168
  S      0.984553    0.872266   -1.287413
  C      0.229812   -0.667297   -1.884754
  S     -0.728532   -1.525978   -0.612053
  P     -2.112065    0.033903   -0.234607
  S     -2.671477    1.064948   -1.810161
  O     -1.418689    0.858131    0.922924
  C     -1.497779    2.291538    1.014587
  C     -2.833128    2.720341    1.585234
  O     -3.233663   -0.707553    0.608649
  C     -4.081374   -1.741665    0.070158
  C     -5.316407   -1.158464   -0.589097
  H     -0.524897   -1.152188    2.718490
  H      0.490483   -2.394242    1.976644
  H      0.507422   -2.177099    3.734245
  H      2.530365   -1.170302    2.598860
  H      1.570314    0.035155    3.503420
  H      4.056452    1.140628   -1.529547
  H      4.500193    2.524116   -0.495107
  H      6.446962    1.000566   -0.811543
  H      5.934285    1.005322    0.884693
  H      5.508245   -0.352719   -0.164833
  H      1.008328   -1.359526   -2.203611
  H     -0.421347   -0.385593   -2.711708
  H     -0.663932    2.565077    1.663010
  H     -1.343593    2.720204    0.018288
  H     -2.848843    3.799490    1.699799
  H     -3.630872    2.422301    0.905771
  H     -2.999054    2.248491    2.549789
  H     -3.505233   -2.346841   -0.635902
  H     -4.344741   -2.349281    0.938026
  H     -5.953715   -1.967312   -0.931587
  H     -5.864902   -0.545034    0.120362
  H     -5.037239   -0.542273   -1.440848

 Total Charge           Charge          ....    0
 Multiplicity           Mult            ....    1
 Number of Electrons    NEL             ....  202
 Basis Dimension        Dim             ....  539

ORBITAL ENERGIES
----------------

  NO   OCC          E(Eh)            E(eV)
   0   2.0000     -88.576268     -2410.2828
   1   2.0000     -88.574350     -2410.2306
   2   2.0000     -88.520930     -2408.7770
   3   2.0000     -88.520465     -2408.7643
   4   2.0000     -76.914018     -2092.9368
   5   2.0000     -76.913437     -2092.9210
   6   2.0000     -18.993735      -516.8458
   7   2.0000     -18.989913      -516.7418
   8   2.0000     -18.986122      -516.6386
   9   2.0000     -18.985960      -516.6342
  10   2.0000     -10.105765      -274.9918
  11   2.0000     -10.102178      -274.8942
  12   2.0000     -10.099340      -274.8170
  13   2.0000     -10.096037      -274.7271
  14   2.0000     -10.092567      -274.6327
  15   2.0000     -10.026435      -272.8332
  16   2.0000     -10.025299      -272.8023
  17   2.0000     -10.025114      -272.7972
  18   2.0000     -10.021165      -272.6898
  19   2.0000      -7.870506      -214.1674
  20   2.0000      -7.868744      -214.1194
  21   2.0000      -7.815786      -212.6783
  22   2.0000      -7.815352      -212.6665
  23   2.0000      -6.592391      -179.3881
  24   2.0000      -6.591760      -179.3709
  25   2.0000      -5.817399      -158.2995
  26   2.0000      -5.815619      -158.2510
  27   2.0000      -5.814314      -158.2155
  28   2.0000      -5.812545      -158.1674
  29   2.0000      -5.807673      -158.0348
  30   2.0000      -5.805893      -157.9864
  31   2.0000      -5.763429      -156.8309
  32   2.0000      -5.762948      -156.8178
  33   2.0000      -5.755979      -156.6281
  34   2.0000      -5.755874      -156.6253
  35   2.0000      -5.755717      -156.6210
  36   2.0000      -5.755313      -156.6100
  37   2.0000      -4.737775      -128.9214
  38   2.0000      -4.737382      -128.9107
  39   2.0000      -4.737179      -128.9052
  40   2.0000      -4.736693      -128.8920
  41   2.0000      -4.736194      -128.8784
  42   2.0000      -4.735601      -128.8622
  43   2.0000      -1.050073       -28.5739
  44   2.0000      -1.046762       -28.4839
  45   2.0000      -1.009938       -27.4818
  46   2.0000      -1.006566       -27.3901
  47   2.0000      -0.802596       -21.8397
  48   2.0000      -0.757636       -20.6163
  49   2.0000      -0.747727       -20.3467
  50   2.0000      -0.728554       -19.8250
  51   2.0000      -0.727007       -19.7829
  52   2.0000      -0.708573       -19.2813
  53   2.0000      -0.685664       -18.6579
  54   2.0000      -0.670426       -18.2432
  55   2.0000      -0.628959       -17.1148
  56   2.0000      -0.622351       -16.9350
  57   2.0000      -0.605509       -16.4767
  58   2.0000      -0.600767       -16.3477
  59   2.0000      -0.590888       -16.0789
  60   2.0000      -0.529962       -14.4210
  61   2.0000      -0.521150       -14.1812
  62   2.0000      -0.495250       -13.4764
  63   2.0000      -0.492515       -13.4020
  64   2.0000      -0.471150       -12.8206
  65   2.0000      -0.458076       -12.4649
  66   2.0000      -0.456459       -12.4209
  67   2.0000      -0.452651       -12.3173
  68   2.0000      -0.443652       -12.0724
  69   2.0000      -0.423610       -11.5270
  70   2.0000      -0.422496       -11.4967
  71   2.0000      -0.416310       -11.3284
  72   2.0000      -0.410692       -11.1755
  73   2.0000      -0.404577       -11.0091
  74   2.0000      -0.395706       -10.7677
  75   2.0000      -0.388704       -10.5772
  76   2.0000      -0.383319       -10.4307
  77   2.0000      -0.368696       -10.0327
  78   2.0000      -0.365586        -9.9481
  79   2.0000      -0.361917        -9.8483
  80   2.0000      -0.360920        -9.8211
  81   2.0000      -0.359592        -9.7850
  82   2.0000      -0.351391        -9.5618
  83   2.0000      -0.350444        -9.5361
  84   2.0000      -0.346591        -9.4312
  85   2.0000      -0.336124        -9.1464
  86   2.0000      -0.317445        -8.6381
  87   2.0000      -0.311889        -8.4869
  88   2.0000      -0.311267        -8.4700
  89   2.0000      -0.303909        -8.2698
  90   2.0000      -0.297380        -8.0921
  91   2.0000      -0.293642        -7.9904
  92   2.0000      -0.285124        -7.7586
  93   2.0000      -0.279039        -7.5930
  94   2.0000      -0.271341        -7.3836
  95   2.0000      -0.245445        -6.6789
  96   2.0000      -0.231579        -6.3016
  97   2.0000      -0.226498        -6.1633
  98   2.0000      -0.219998        -5.9864
  99   2.0000      -0.213516        -5.8101
 100   2.0000      -0.210795        -5.7360
 101   0.0000      -0.047639        -1.2963
 102   0.0000      -0.025080        -0.6825
 103   0.0000      -0.001036        -0.0282
 104   0.0000       0.000333         0.0091
 105   0.0000       0.011154         0.3035

MULLIKEN ATOMIC CHARGES
-----------------------
   0 C :   -0.479087
   1 C :   -0.118394
   2 O :   -0.256133
   3 P :    0.680347
   4 S :   -0.479242
   5 O :   -0.297876
   6 C :   -0.130153
   7 C :   -0.451477
   8 S :   -0.137739
   9 C :   -0.227389
  10 S :   -0.140312
  11 P :    0.701408
  12 S :   -0.482838
  13 O :   -0.250800
  14 C :   -0.155450
  15 C :   -0.444643
  16 O :   -0.307794
  17 C :   -0.142025
  18 C :   -0.447689
  19 H :    0.167542
  20 H :    0.176044
  21 H :    0.140621
  22 H :    0.159984
  23 H :    0.146914
  24 H :    0.152445
  25 H :    0.149829
  26 H :    0.144452
  27 H :    0.150885
  28 H :    0.180431
  29 H :    0.207912
  30 H :    0.207883
  31 H :    0.160259
  32 H :    0.174764
  33 H :    0.146415
  34 H :    0.166041
  35 H :    0.152427
  36 H :    0.153937
  37 H :    0.150749
  38 H :    0.145243
  39 H :    0.152386
  40 H :    0.180122
Sum of atomic charges:    0.0000000

LOEWDIN ATOMIC CHARGES
----------------------
   0 C :   -0.403311
   1 C :    0.028098
   2 O :   -0.658691
   3 P :    0.377806
   4 S :   -0.130192
   5 O :   -0.661459
   6 C :    0.020695
   7 C :   -0.401212
   8 S :    0.176621
   9 C :   -0.419402
  10 S :    0.161104
  11 P :    0.380260
  12 S :   -0.129706
  13 O :   -0.666629
  14 C :    0.013145
  15 C :   -0.398123
  16 O :   -0.656323
  17 C :    0.022709
  18 C :   -0.402056
  19 H :    0.165867
  20 H :    0.165992
  21 H :    0.155751
  22 H :    0.178256
  23 H :    0.176222
  24 H :    0.175516
  25 H :    0.178113
  26 H :    0.157769
  27 H :    0.158149
  28 H :    0.168502
  29 H :    0.190021
  30 H :    0.189508
  31 H :    0.181807
  32 H :    0.182134
  33 H :    0.159253
  34 H :    0.164547
  35 H :    0.158530
  36 H :    0.175163
  37 H :    0.179617
  38 H :    0.157843
  39 H :    0.158978
  40 H :    0.169129

  Mayer bond orders larger than 0.100000
B(  0-C ,  1-C ) :   0.9459 B(  0-C , 19-H ) :   0.9675 B(  0-C , 20-H ) :   0.9640
B(  0-C , 21-H ) :   0.9633 B(  1-C ,  2-O ) :   0.7604 B(  1-C , 22-H ) :   0.9655
B(  1-C , 23-H ) :   0.9594 B(  2-O ,  3-P ) :   1.1781 B(  3-P ,  4-S ) :   1.7439
B(  3-P ,  5-O ) :   1.0705 B(  3-P ,  8-S ) :   1.0899 B(  5-O ,  6-C ) :   0.7755
B(  6-C ,  7-C ) :   0.9573 B(  6-C , 24-H ) :   0.9623 B(  6-C , 25-H ) :   0.9639
B(  7-C , 26-H ) :   0.9653 B(  7-C , 27-H ) :   0.9748 B(  7-C , 28-H ) :   0.9571
B(  8-S ,  9-C ) :   0.8949 B(  9-C , 10-S ) :   0.8997 B(  9-C , 29-H ) :   0.9107
B(  9-C , 30-H ) :   0.9100 B( 10-S , 11-P ) :   1.0653 B( 11-P , 12-S ) :   1.7457
B( 11-P , 13-O ) :   1.1384 B( 11-P , 16-O ) :   1.0787 B( 13-O , 14-C ) :   0.7717
B( 14-C , 15-C ) :   0.9279 B( 14-C , 31-H ) :   0.9628 B( 14-C , 32-H ) :   0.9591
B( 15-C , 33-H ) :   0.9651 B( 15-C , 34-H ) :   0.9616 B( 15-C , 35-H ) :   0.9745
B( 16-O , 17-C ) :   0.7883 B( 17-C , 18-C ) :   0.9562 B( 17-C , 36-H ) :   0.9616
B( 17-C , 37-H ) :   0.9623 B( 18-C , 38-H ) :   0.9650 B( 18-C , 39-H ) :   0.9739
B( 18-C , 40-H ) :   0.9551

Dispersion correction           -0.021931525
FINAL SINGLE POINT ENERGY     -2932.464111528935

DIPOLE MOMENT
-------------

Method             : SCF
Type of density    : Electron Density
Multiplicity       :   1
Irrep              :   0
Energy             : -2932.4885339589905016 Eh
Relativity type    :
Basis              : AO
                                X                 Y                 Z
Electronic contribution:      4.349081978      -2.317701273     -11.017997567
Nuclear contribution   :     -4.433349197       2.566871377      11.836538072
                        -----------------------------------------
Total Dipole Moment    :     -0.084267218       0.249170104       0.818540505
                        -----------------------------------------
Magnitude (a.u.)       :      0.859764656
Magnitude (Debye)      :      2.185348083

Rotational constants in cm-1:             0.013903             0.004875             0.004769
Rotational constants in MHz :           416.791402           146.154758           142.963986

                             ****ORCA TERMINATED NORMALLY****
TOTAL RUN TIME: 0 days 0 hours 1 minutes 19 seconds 889 msec
