                         Program Version 6.0.0  -   RELEASE  -
|  1> ! r2scan-3c def2/J RI DEFGRID2 scfconv6 printgap
|  2> %output
|  3>     printlevel normal
|  4> end
|  5> %cpcm
|  6>     smd true
|  7>     smdsolvent "water"
|  8> end
|  9> * xyz 0 1
| 10> C 0.4328265311 -1.663767086 2.7810219855
| 11> C 1.5641834767 -0.6618716369 2.6639632664
| 12> O 1.3829138731 0.1693292289 1.4935619094
| 13> P 2.2423751367 0.0167420816 0.1771684099
| 14> S 2.9616523072 -1.7682128714 -0.2088162218
| 15> O 3.3174755931 1.1662304331 0.4134857202
| 16> C 4.3765978646 1.4400766029 -0.5275211594
| 17> C 5.6520961413 0.7247913059 -0.126168338
| 18> S 0.9845529574 0.8722656915 -1.2874126091
| 19> C 0.2298117903 -0.6672974613 -1.8847535413
| 20> S -0.7285323073 -1.5259778008 -0.612053359
| 21> P -2.112064517 0.0339025078 -0.2346066029
| 22> S -2.6714773446 1.0649475357 -1.8101608704
| 23> O -1.4186890382 0.8581311799 0.9229237341
| 24> C -1.497778685 2.291537829 1.0145867126
| 25> C -2.8331282291 2.720341371 1.5852335124
| 26> O -3.2336625779 -0.7075525409 0.6086485846
| 27> C -4.0813744891 -1.7416645551 0.0701577375
| 28> C -5.3164069395 -1.1584644245 -0.5890969563
| 29> H -0.5248966518 -1.1521881295 2.7184896882
| 30> H 0.4904826426 -2.3942424862 1.9766443956
| 31> H 0.5074217841 -2.1770992355 3.7342453035
| 32> H 2.5303654453 -1.1703020228 2.5988597344
| 33> H 1.5703136203 0.0351545949 3.503419845
| 34> H 4.0564518616 1.1406284894 -1.5295469164
| 35> H 4.5001934406 2.5241157897 -0.4951065592
| 36> H 6.4469618607 1.0005657896 -0.8115432768
| 37> H 5.934285017 1.0053215484 0.8846925435
| 38> H 5.5082454273 -0.3527188984 -0.1648333158
| 39> H 1.0083279417 -1.3595256357 -2.203611184
| 40> H -0.4213470927 -0.3855925564 -2.711707826
| 41> H -0.6639318541 2.5650767416 1.6630097785
| 42> H -1.3435934808 2.7202044855 0.0182879227
| 43> H -2.8488425213 3.7994895428 1.6997990193
| 44> H -3.6308720667 2.4223010136 0.9057707107
| 45> H -2.9990541016 2.2484912612 2.5497889725
| 46> H -3.5052332426 -2.3468412546 -0.6359015358
| 47> H -4.3447409653 -2.3492809768 0.9380257191
| 48> H -5.953714637 -1.9673119701 -0.9315866976
| 49> H -5.8649017978 -0.5450338942 0.1203620564
| 50> H -5.0372392291 -0.5422732565 -1.4408483525
| 51> *
| 52>
| 53>                          ****END OF INPUT****

CARTESIAN COORDINATES (ANGSTROEM)
---------------------------------
  C      0.432827   -1.663767    2.781022
  C      1.564183   -0.661872    2.663963
  O      1.382914    0.169329    1.493562
  P      2.242375    0.016742    0.177168
  S      2.961652   -1.768213   -0.208816
  O      3.317476    1.166230    0.413486
  C      4.376598    1.440077   -0.527521
  C      5.652096    0.724791   -0.126168
  S      0.984553    0.872266   -1.287413
  C      0.229812   -0.667297   -1.884754
  S     -0.728532   -1.525978   -0.612053
  P     -2.112065    0.033903   -0.234607
  S     -2.671477    1.064948   -1.810161
  O     -1.418689    0.858131    0.922924
  C     -1.497779    2.291538    1.014587
  C     -2.833128    2.720341    1.585234
  O     -3.233663   -0.707553    0.608649
  C     -4.081374   -1.741665    0.070158
  C     -5.316407   -1.158464   -0.589097
  H     -0.524897   -1.152188    2.718490
  H      0.490483   -2.394242    1.976644
  H      0.507422   -2.177099    3.734245
  H      2.530365   -1.170302    2.598860
  H      1.570314    0.035155    3.503420
  H      4.056452    1.140628   -1.529547
  H      4.500193    2.524116   -0.495107
  H      6.446962    1.000566   -0.811543
  H      5.934285    1.005322    0.884693
  H      5.508245   -0.352719   -0.164833
  H      1.008328   -1.359526   -2.203611
  H     -0.421347   -0.385593   -2.711708
  H     -0.663932    2.565077    1.663010
  H     -1.343593    2.720204    0.018288
  H     -2.848843    3.799490    1.699799
  H     -3.630872    2.422301    0.905771
  H     -2.999054    2.248491    2.549789
  H     -3.505233   -2.346841   -0.635902
  H     -4.344741   -2.349281    0.938026
  H     -5.953715   -1.967312   -0.931587
  H     -5.864902   -0.545034    0.120362
  H     -5.037239   -0.542273   -1.440848

 Total Charge           Charge          ....    0
 Multiplicity           Mult            ....    1
 Number of Electrons    NEL             ....  202
 Basis Dimension        Dim             ....  539

ORBITAL ENERGIES
----------------

  NO   OCC          E(Eh)            E(eV)
   0   2.0000     -88.580088     -2410.3867
   1   2.0000     -88.577708     -2410.3220
   2   2.0000     -88.527781     -2408.9634
   3   2.0000     -88.527418     -2408.9535
   4   2.0000     -76.919230     -2093.0787
   5   2.0000     -76.919009     -2093.0727
   6   2.0000     -18.996143      -516.9113
   7   2.0000     -18.993403      -516.8368
   8   2.0000     -18.991087      -516.7738
   9   2.0000     -18.990629      -516.7613
  10   2.0000     -10.104988      -274.9707
  11   2.0000     -10.091802      -274.6119
  12   2.0000     -10.090642      -274.5803
  13   2.0000     -10.089619      -274.5525
  14   2.0000     -10.088096      -274.5110
  15   2.0000     -10.017698      -272.5954
  16   2.0000     -10.016675      -272.5676
  17   2.0000     -10.016462      -272.5618
  18   2.0000     -10.015590      -272.5381
  19   2.0000      -7.874364      -214.2723
  20   2.0000      -7.872110      -214.2110
  21   2.0000      -7.822903      -212.8720
  22   2.0000      -7.822560      -212.8627
  23   2.0000      -6.597651      -179.5312
  24   2.0000      -6.597367      -179.5235
  25   2.0000      -5.821247      -158.4042
  26   2.0000      -5.818976      -158.3424
  27   2.0000      -5.818159      -158.3202
  28   2.0000      -5.815910      -158.2590
  29   2.0000      -5.811557      -158.1405
  30   2.0000      -5.809273      -158.0784
  31   2.0000      -5.770496      -157.0232
  32   2.0000      -5.770114      -157.0128
  33   2.0000      -5.763096      -156.8218
  34   2.0000      -5.762990      -156.8189
  35   2.0000      -5.762915      -156.8169
  36   2.0000      -5.762524      -156.8063
  37   2.0000      -4.743004      -129.0637
  38   2.0000      -4.742756      -129.0570
  39   2.0000      -4.742652      -129.0541
  40   2.0000      -4.742305      -129.0447
  41   2.0000      -4.741495      -129.0226
  42   2.0000      -4.741252      -129.0160
  43   2.0000      -1.053449       -28.6658
  44   2.0000      -1.050521       -28.5861
  45   2.0000      -1.012838       -27.5607
  46   2.0000      -1.009723       -27.4760
  47   2.0000      -0.804653       -21.8957
  48   2.0000      -0.755970       -20.5710
  49   2.0000      -0.743502       -20.2317
  50   2.0000      -0.721820       -19.6417
  51   2.0000      -0.720929       -19.6175
  52   2.0000      -0.709070       -19.2948
  53   2.0000      -0.689522       -18.7628
  54   2.0000      -0.675817       -18.3899
  55   2.0000      -0.628635       -17.1060
  56   2.0000      -0.620452       -16.8834
  57   2.0000      -0.601324       -16.3628
  58   2.0000      -0.595613       -16.2075
  59   2.0000      -0.589182       -16.0325
  60   2.0000      -0.527593       -14.3565
  61   2.0000      -0.518266       -14.1027
  62   2.0000      -0.494075       -13.4445
  63   2.0000      -0.490929       -13.3588
  64   2.0000      -0.471523       -12.8308
  65   2.0000      -0.456383       -12.4188
  66   2.0000      -0.453879       -12.3507
  67   2.0000      -0.450474       -12.2580
  68   2.0000      -0.439822       -11.9682
  69   2.0000      -0.422762       -11.5039
  70   2.0000      -0.420061       -11.4304
  71   2.0000      -0.415620       -11.3096
  72   2.0000      -0.409249       -11.1362
  73   2.0000      -0.402879       -10.9629
  74   2.0000      -0.393603       -10.7105
  75   2.0000      -0.386338       -10.5128
  76   2.0000      -0.381149       -10.3716
  77   2.0000      -0.367349        -9.9961
  78   2.0000      -0.361575        -9.8390
  79   2.0000      -0.356652        -9.7050
  80   2.0000      -0.355094        -9.6626
  81   2.0000      -0.353110        -9.6086
  82   2.0000      -0.347443        -9.4544
  83   2.0000      -0.346374        -9.4253
  84   2.0000      -0.344214        -9.3665
  85   2.0000      -0.335495        -9.1293
  86   2.0000      -0.317429        -8.6377
  87   2.0000      -0.307234        -8.3603
  88   2.0000      -0.306474        -8.3396
  89   2.0000      -0.303200        -8.2505
  90   2.0000      -0.297287        -8.0896
  91   2.0000      -0.294435        -8.0120
  92   2.0000      -0.285909        -7.7800
  93   2.0000      -0.281007        -7.6466
  94   2.0000      -0.273655        -7.4465
  95   2.0000      -0.249054        -6.7771
  96   2.0000      -0.237083        -6.4514
  97   2.0000      -0.233455        -6.3526
  98   2.0000      -0.226260        -6.1569
  99   2.0000      -0.220591        -6.0026
 100   2.0000      -0.217432        -5.9166
 101   0.0000      -0.052128        -1.4185
 102   0.0000      -0.030916        -0.8413
 103   0.0000      -0.005841        -0.1589
 104   0.0000      -0.003475        -0.0946
 105   0.0000       0.009994         0.2719

MULLIKEN ATOMIC CHARGES
-----------------------
   0 C :   -0.501754
   1 C :   -0.121240
   2 O :   -0.284897
   3 P :    0.707794
   4 S :   -0.518147
   5 O :   -0.328250
   6 C :   -0.124996
   7 C :   -0.491074
   8 S :   -0.149221
   9 C :   -0.239495
  10 S :   -0.148350
  11 P :    0.728823
  12 S :   -0.522664
  13 O :   -0.280908
  14 C :   -0.143862
  15 C :   -0.487002
  16 O :   -0.339075
  17 C :   -0.130310
  18 C :   -0.489574
  19 H :    0.166651
  20 H :    0.171134
  21 H :    0.166520
  22 H :    0.169662
  23 H :    0.173978
  24 H :    0.163548
  25 H :    0.176112
  26 H :    0.169333
  27 H :    0.166386
  28 H :    0.171136
  29 H :    0.230187
  30 H :    0.229924
  31 H :    0.180065
  32 H :    0.176008
  33 H :    0.171434
  34 H :    0.164712
  35 H :    0.168171
  36 H :    0.164082
  37 H :    0.176964
  38 H :    0.169974
  39 H :    0.167974
  40 H :    0.170250
Sum of atomic charges:   -0.0000000

LOEWDIN ATOMIC CHARGES
----------------------
   0 C :   -0.405339
   1 C :    0.032476
   2 O :   -0.674703
   3 P :    0.381799
   4 S :   -0.154535
   5 O :   -0.675896
   6 C :    0.025800
   7 C :   -0.405546
   8 S :    0.171005
   9 C :   -0.412823
  10 S :    0.158743
  11 P :    0.384296
  12 S :   -0.155207
  13 O :   -0.683424
  14 C :    0.016404
  15 C :   -0.401441
  16 O :   -0.669956
  17 C :    0.029102
  18 C :   -0.406441
  19 H :    0.164445
  20 H :    0.162375
  21 H :    0.165271
  22 H :    0.181821
  23 H :    0.187550
  24 H :    0.179684
  25 H :    0.189332
  26 H :    0.167198
  27 H :    0.162264
  28 H :    0.162629
  29 H :    0.197156
  30 H :    0.196361
  31 H :    0.189807
  32 H :    0.182549
  33 H :    0.168474
  34 H :    0.161907
  35 H :    0.163162
  36 H :    0.179866
  37 H :    0.190980
  38 H :    0.167314
  39 H :    0.162584
  40 H :    0.162959

  Mayer bond orders larger than 0.100000
B(  0-C ,  1-C ) :   0.9370 B(  0-C , 19-H ) :   0.9661 B(  0-C , 20-H ) :   0.9656
B(  0-C , 21-H ) :   0.9589 B(  1-C ,  2-O ) :   0.7487 B(  1-C , 22-H ) :   0.9626
B(  1-C , 23-H ) :   0.9490 B(  2-O ,  3-P ) :   1.1804 B(  3-P ,  4-S ) :   1.7146
B(  3-P ,  5-O ) :   1.0740 B(  3-P ,  8-S ) :   1.1012 B(  5-O ,  6-C ) :   0.7629
B(  6-C ,  7-C ) :   0.9464 B(  6-C , 24-H ) :   0.9555 B(  6-C , 25-H ) :   0.9536
B(  7-C , 26-H ) :   0.9599 B(  7-C , 27-H ) :   0.9723 B(  7-C , 28-H ) :   0.9615
B(  8-S ,  9-C ) :   0.8869 B(  9-C , 10-S ) :   0.8917 B(  9-C , 29-H ) :   0.9048
B(  9-C , 30-H ) :   0.9040 B( 10-S , 11-P ) :   1.0786 B( 11-P , 12-S ) :   1.7166
B( 11-P , 13-O ) :   1.1398 B( 11-P , 16-O ) :   1.0824 B( 13-O , 14-C ) :   0.7597
B( 14-C , 15-C ) :   0.9224 B( 14-C , 31-H ) :   0.9529 B( 14-C , 32-H ) :   0.9546
B( 15-C , 33-H ) :   0.9591 B( 15-C , 34-H ) :   0.9620 B( 15-C , 35-H ) :   0.9721
B( 16-O , 17-C ) :   0.7784 B( 17-C , 18-C ) :   0.9429 B( 17-C , 36-H ) :   0.9548
B( 17-C , 37-H ) :   0.9526 B( 18-C , 38-H ) :   0.9594 B( 18-C , 39-H ) :   0.9721
B( 18-C , 40-H ) :   0.9598

Dispersion correction           -0.021931525
FINAL SINGLE POINT ENERGY     -2932.470896457777

DIPOLE MOMENT
-------------

Method             : SCF
Type of density    : Electron Density
Multiplicity       :   1
Irrep              :   0
Energy             : -2932.4953188878325818 Eh
Relativity type    :
Basis              : AO
                                X                 Y                 Z
Electronic contribution:      4.401962581      -2.303692826     -10.871258695
Nuclear contribution   :     -4.433349197       2.566871377      11.836538072
                        -----------------------------------------
Total Dipole Moment    :     -0.031386615       0.263178552       0.965279377
                        -----------------------------------------
Magnitude (a.u.)       :      1.001005667
Magnitude (Debye)      :      2.544354201

Rotational constants in cm-1:             0.013903             0.004875             0.004769
Rotational constants in MHz :           416.791402           146.154758           142.963986

                             ****ORCA TERMINATED NORMALLY****
TOTAL RUN TIME: 0 days 0 hours 1 minutes 58 seconds 255 msec
