                         Program Version 6.0.0  -   RELEASE  -
|  1> ! pbe def2-sv(p) def2/J RI DEFGRID1 loosescf d4 GCP(DFT/SV(P)) printgap
|  2> %output
|  3>     printlevel normal
|  4> end
|  5> * xyz 0 1
|  6> C 5.1417432099 1.0594293819 -0.6097902063
|  7> C 4.7088863091 -0.3924911747 -0.5716326115
|  8> O 3.4648428346 -0.5590558576 0.1324305595
|  9> P 2.0668697776 -0.1091483414 -0.5073371943
| 10> S 1.9665729312 -0.250855163 -2.4498234178
| 11> O 1.8079341953 1.370273871 0.0081550489
| 12> C 1.817424179 1.7014434089 1.4168816672
| 13> C 2.3171668202 3.123599927 1.5646521886
| 14> S 0.8880641492 -1.4003993016 0.6763696032
| 15> C -0.2768839158 -2.0219732212 -0.58704482
| 16> S -1.9889398206 -1.9227817522 -0.043148767
| 17> P -2.0928994171 0.1958448992 0.1748880389
| 18> S -1.1629973418 1.1993464083 -1.232453581
| 19> O -1.5017490653 0.6256053923 1.5738530412
| 20> C -2.0826337669 0.3579069967 2.8770620609
| 21> C -1.8597953184 -1.0729562212 3.3237706854
| 22> O -3.6414100576 0.4582595597 0.3966409503
| 23> C -4.7018557614 -0.0968731046 -0.4046857442
| 24> C -4.5520914857 0.2261152506 -1.8761294579
| 25> H 6.0947123065 1.1378064775 -1.1235501915
| 26> H 4.3997524024 1.6491942285 -1.1487432464
| 27> H 5.2436493908 1.4510402233 0.399295398
| 28> H 5.4125575916 -1.0129378784 -0.0149042778
| 29> H 4.5872888526 -0.7845349048 -1.5863337278
| 30> H 0.7891535006 1.6032093107 1.775048171
| 31> H 2.4572235146 0.9879368683 1.9452757911
| 32> H 3.3384290345 3.2071068881 1.2032147381
| 33> H 1.6871863079 3.7936506633 0.9859090328
| 34> H 2.2801206075 3.4065403482 2.6116816036
| 35> H -0.0723035563 -3.0754133215 -0.7607671982
| 36> H -0.1386186193 -1.4365238883 -1.5004470114
| 37> H -1.5623486986 1.0621228659 3.5285767114
| 38> H -3.1446227862 0.6041074602 2.8390100709
| 39> H -2.1361305737 -1.1592896358 4.3699406852
| 40> H -2.4664514058 -1.7607205862 2.7404473654
| 41> H -0.8131361442 -1.3450205041 3.206223262
| 42> H -4.7187284766 -1.1782963964 -0.2457186341
| 43> H -5.6021745335 0.3569226326 0.013331204
| 44> H -5.413138549 -0.1501479512 -2.4188578042
| 45> H -4.473363011 1.300733899 -2.0235841688
| 46> H -3.6509195527 -0.2390868064 -2.273503072
| 47> *
| 48>
| 49>                          ****END OF INPUT****

CARTESIAN COORDINATES (ANGSTROEM)
---------------------------------
  C      5.141743    1.059429   -0.609790
  C      4.708886   -0.392491   -0.571633
  O      3.464843   -0.559056    0.132431
  P      2.066870   -0.109148   -0.507337
  S      1.966573   -0.250855   -2.449823
  O      1.807934    1.370274    0.008155
  C      1.817424    1.701443    1.416882
  C      2.317167    3.123600    1.564652
  S      0.888064   -1.400399    0.676370
  C     -0.276884   -2.021973   -0.587045
  S     -1.988940   -1.922782   -0.043149
  P     -2.092899    0.195845    0.174888
  S     -1.162997    1.199346   -1.232454
  O     -1.501749    0.625605    1.573853
  C     -2.082634    0.357907    2.877062
  C     -1.859795   -1.072956    3.323771
  O     -3.641410    0.458260    0.396641
  C     -4.701856   -0.096873   -0.404686
  C     -4.552091    0.226115   -1.876129
  H      6.094712    1.137806   -1.123550
  H      4.399752    1.649194   -1.148743
  H      5.243649    1.451040    0.399295
  H      5.412558   -1.012938   -0.014904
  H      4.587289   -0.784535   -1.586334
  H      0.789154    1.603209    1.775048
  H      2.457224    0.987937    1.945276
  H      3.338429    3.207107    1.203215
  H      1.687186    3.793651    0.985909
  H      2.280121    3.406540    2.611682
  H     -0.072304   -3.075413   -0.760767
  H     -0.138619   -1.436524   -1.500447
  H     -1.562349    1.062123    3.528577
  H     -3.144623    0.604107    2.839010
  H     -2.136131   -1.159290    4.369941
  H     -2.466451   -1.760721    2.740447
  H     -0.813136   -1.345021    3.206223
  H     -4.718728   -1.178296   -0.245719
  H     -5.602175    0.356923    0.013331
  H     -5.413139   -0.150148   -2.418858
  H     -4.473363    1.300734   -2.023584
  H     -3.650920   -0.239087   -2.273503

 Total Charge           Charge          ....    0
 Multiplicity           Mult            ....    1
 Number of Electrons    NEL             ....  202
 Basis Dimension        Dim             ....  334

ORBITAL ENERGIES
----------------

  NO   OCC          E(Eh)            E(eV)
   0   2.0000     -88.045036     -2395.8272
   1   2.0000     -88.035653     -2395.5719
   2   2.0000     -87.979999     -2394.0575
   3   2.0000     -87.975556     -2393.9366
   4   2.0000     -76.424807     -2079.6247
   5   2.0000     -76.417260     -2079.4194
   6   2.0000     -18.796487      -511.4784
   7   2.0000     -18.789577      -511.2904
   8   2.0000     -18.782024      -511.0849
   9   2.0000     -18.781153      -511.0611
  10   2.0000      -9.961342      -271.0619
  11   2.0000      -9.956917      -270.9415
  12   2.0000      -9.952864      -270.8312
  13   2.0000      -9.946192      -270.6497
  14   2.0000      -9.945762      -270.6379
  15   2.0000      -9.886517      -269.0258
  16   2.0000      -9.883536      -268.9447
  17   2.0000      -9.882884      -268.9270
  18   2.0000      -9.881893      -268.9000
  19   2.0000      -7.689899      -209.2528
  20   2.0000      -7.680698      -209.0024
  21   2.0000      -7.625302      -207.4950
  22   2.0000      -7.620435      -207.3626
  23   2.0000      -6.421693      -174.7431
  24   2.0000      -6.415221      -174.5670
  25   2.0000      -5.717688      -155.5862
  26   2.0000      -5.714271      -155.4932
  27   2.0000      -5.708631      -155.3397
  28   2.0000      -5.707149      -155.2994
  29   2.0000      -5.705426      -155.2525
  30   2.0000      -5.697314      -155.0318
  31   2.0000      -5.654397      -153.8640
  32   2.0000      -5.649630      -153.7342
  33   2.0000      -5.646181      -153.6404
  34   2.0000      -5.644944      -153.6067
  35   2.0000      -5.640977      -153.4988
  36   2.0000      -5.640437      -153.4841
  37   2.0000      -4.644707      -126.3889
  38   2.0000      -4.643708      -126.3617
  39   2.0000      -4.641560      -126.3033
  40   2.0000      -4.637982      -126.2059
  41   2.0000      -4.636656      -126.1698
  42   2.0000      -4.635833      -126.1474
  43   2.0000      -0.989404       -26.9230
  44   2.0000      -0.975615       -26.5478
  45   2.0000      -0.944698       -25.7065
  46   2.0000      -0.934159       -25.4198
  47   2.0000      -0.761151       -20.7120
  48   2.0000      -0.719329       -19.5739
  49   2.0000      -0.709189       -19.2980
  50   2.0000      -0.691977       -18.8296
  51   2.0000      -0.686064       -18.6687
  52   2.0000      -0.672043       -18.2872
  53   2.0000      -0.647516       -17.6198
  54   2.0000      -0.632293       -17.2056
  55   2.0000      -0.591235       -16.0883
  56   2.0000      -0.585999       -15.9458
  57   2.0000      -0.580900       -15.8071
  58   2.0000      -0.564831       -15.3698
  59   2.0000      -0.559043       -15.2123
  60   2.0000      -0.503187       -13.6924
  61   2.0000      -0.495877       -13.4935
  62   2.0000      -0.472980       -12.8704
  63   2.0000      -0.471934       -12.8420
  64   2.0000      -0.451224       -12.2784
  65   2.0000      -0.444339       -12.0911
  66   2.0000      -0.440612       -11.9897
  67   2.0000      -0.433437       -11.7944
  68   2.0000      -0.431087       -11.7305
  69   2.0000      -0.413736       -11.2583
  70   2.0000      -0.408874       -11.1260
  71   2.0000      -0.396120       -10.7790
  72   2.0000      -0.392238       -10.6734
  73   2.0000      -0.388047       -10.5593
  74   2.0000      -0.383651       -10.4397
  75   2.0000      -0.364178        -9.9098
  76   2.0000      -0.355659        -9.6780
  77   2.0000      -0.355044        -9.6612
  78   2.0000      -0.352987        -9.6053
  79   2.0000      -0.348391        -9.4802
  80   2.0000      -0.343145        -9.3374
  81   2.0000      -0.342697        -9.3252
  82   2.0000      -0.340069        -9.2537
  83   2.0000      -0.336169        -9.1476
  84   2.0000      -0.333037        -9.0624
  85   2.0000      -0.320745        -8.7279
  86   2.0000      -0.311712        -8.4821
  87   2.0000      -0.303554        -8.2601
  88   2.0000      -0.298270        -8.1163
  89   2.0000      -0.291931        -7.9439
  90   2.0000      -0.278315        -7.5733
  91   2.0000      -0.273277        -7.4362
  92   2.0000      -0.264378        -7.1941
  93   2.0000      -0.259211        -7.0535
  94   2.0000      -0.258806        -7.0425
  95   2.0000      -0.231723        -6.3055
  96   2.0000      -0.212806        -5.7907
  97   2.0000      -0.209835        -5.7099
  98   2.0000      -0.195123        -5.3096
  99   2.0000      -0.188662        -5.1338
 100   2.0000      -0.182301        -4.9607
 101   0.0000      -0.043067        -1.1719
 102   0.0000      -0.032131        -0.8743
 103   0.0000      -0.007402        -0.2014
 104   0.0000       0.011216         0.3052
 105   0.0000       0.021710         0.5908

MULLIKEN ATOMIC CHARGES
-----------------------
   0 C :   -0.320998
   1 C :   -0.006822
   2 O :   -0.391257
   3 P :    0.626983
   4 S :   -0.298542
   5 O :   -0.357394
   6 C :   -0.044727
   7 C :   -0.283916
   8 S :   -0.111026
   9 C :   -0.339740
  10 S :   -0.130779
  11 P :    0.598112
  12 S :   -0.281576
  13 O :   -0.351434
  14 C :   -0.003710
  15 C :   -0.315850
  16 O :   -0.381726
  17 C :   -0.014202
  18 C :   -0.307639
  19 H :    0.111546
  20 H :    0.135247
  21 H :    0.116202
  22 H :    0.102144
  23 H :    0.111585
  24 H :    0.132329
  25 H :    0.098206
  26 H :    0.114719
  27 H :    0.128072
  28 H :    0.105070
  29 H :    0.181400
  30 H :    0.210345
  31 H :    0.105667
  32 H :    0.110020
  33 H :    0.109606
  34 H :    0.123121
  35 H :    0.128968
  36 H :    0.114241
  37 H :    0.109041
  38 H :    0.111086
  39 H :    0.127381
  40 H :    0.130247
Sum of atomic charges:    0.0000000

LOEWDIN ATOMIC CHARGES
----------------------
   0 C :   -0.366342
   1 C :   -0.119887
   2 O :   -0.262544
   3 P :    0.573920
   4 S :   -0.292084
   5 O :   -0.235860
   6 C :   -0.126200
   7 C :   -0.350174
   8 S :    0.073116
   9 C :   -0.475180
  10 S :    0.066645
  11 P :    0.558858
  12 S :   -0.287596
  13 O :   -0.232814
  14 C :   -0.110641
  15 C :   -0.371110
  16 O :   -0.245252
  17 C :   -0.114847
  18 C :   -0.368644
  19 H :    0.130480
  20 H :    0.127427
  21 H :    0.121414
  22 H :    0.116855
  23 H :    0.109325
  24 H :    0.117079
  25 H :    0.102608
  26 H :    0.123530
  27 H :    0.133388
  28 H :    0.127667
  29 H :    0.136048
  30 H :    0.125581
  31 H :    0.118105
  32 H :    0.112827
  33 H :    0.129123
  34 H :    0.116683
  35 H :    0.124987
  36 H :    0.107648
  37 H :    0.120969
  38 H :    0.130091
  39 H :    0.131451
  40 H :    0.123352

  Mayer bond orders larger than 0.100000
B(  0-C ,  1-C ) :   1.1599 B(  0-C , 19-H ) :   0.9380 B(  0-C , 20-H ) :   0.9356
B(  0-C , 21-H ) :   0.9423 B(  1-C ,  2-O ) :   0.9183 B(  1-C , 22-H ) :   0.9349
B(  1-C , 23-H ) :   0.9123 B(  2-O ,  3-P ) :   1.0654 B(  3-P ,  4-S ) :   1.6359
B(  3-P ,  5-O ) :   1.1150 B(  3-P ,  8-S ) :   0.9496 B(  4-S ,  8-S ) :   0.1081
B(  5-O ,  6-C ) :   0.8989 B(  6-C ,  7-C ) :   1.1653 B(  6-C , 24-H ) :   0.9105
B(  6-C , 25-H ) :   0.9149 B(  7-C , 26-H ) :   0.9478 B(  7-C , 27-H ) :   0.9474
B(  7-C , 28-H ) :   0.9411 B(  8-S ,  9-C ) :   1.0045 B(  9-C , 10-S ) :   1.0060
B(  9-C , 29-H ) :   0.9103 B(  9-C , 30-H ) :   0.8475 B( 10-S , 11-P ) :   0.9234
B( 10-S , 12-S ) :   0.1094 B( 11-P , 12-S ) :   1.6764 B( 11-P , 13-O ) :   1.1104
B( 11-P , 16-O ) :   1.0811 B( 13-O , 14-C ) :   0.8982 B( 14-C , 15-C ) :   1.1687
B( 14-C , 31-H ) :   0.9341 B( 14-C , 32-H ) :   0.9252 B( 15-C , 33-H ) :   0.9365
B( 15-C , 34-H ) :   0.9372 B( 15-C , 35-H ) :   0.9406 B( 16-O , 17-C ) :   0.9113
B( 17-C , 18-C ) :   1.1668 B( 17-C , 36-H ) :   0.9258 B( 17-C , 37-H ) :   0.9333
B( 18-C , 38-H ) :   0.9348 B( 18-C , 39-H ) :   0.9432 B( 18-C , 40-H ) :   0.9311

Dispersion correction           -0.067319935
FINAL SINGLE POINT ENERGY     -2929.511784817735

DIPOLE MOMENT
-------------

Method             : SCF
Type of density    : Electron Density
Multiplicity       :   1
Irrep              :   0
Energy             : -2929.6303107496451048 Eh
Relativity type    :
Basis              : AO
                                X                 Y                 Z
Electronic contribution:     -2.532478736      -8.202546659     -10.475791262
Nuclear contribution   :      2.002196698       7.917248848      12.163932497
                        -----------------------------------------
Total Dipole Moment    :     -0.530282038      -0.285297811       1.688141235
                        -----------------------------------------
Magnitude (a.u.)       :      1.792321039
Magnitude (Debye)      :      4.555718033

Rotational constants in cm-1:             0.013082             0.005173             0.004867
Rotational constants in MHz :           392.184322           155.076824           145.895591

                             ****ORCA TERMINATED NORMALLY****
TOTAL RUN TIME: 0 days 0 hours 0 minutes 21 seconds 303 msec
