                         Program Version 6.0.1  -  RELEASE   -
|  1> ! pbe def2-sv(p) def2/J RI DEFGRID1 loosescf d4 GCP(DFT/SV(P)) printgap
|  2> %output
|  3>     printlevel normal
|  4> end
|  5> * xyz 0 1
|  6> C 5.4144396904 -1.7612460641 -1.0862292879
|  7> C 4.5668752403 -0.4995900955 -1.0476090424
|  8> O 3.1643176363 -0.8160716598 -1.1371962226
|  9> C 2.5126703325 -1.0950750045 -0.0248835364
| 10> O 3.0057339312 -1.1049902573 1.0791828296
| 11> C 1.0530445545 -1.4126019362 -0.3048841833
| 12> C 0.3936227087 -0.2723248961 -1.0830020698
| 13> H 0.9216605464 -0.1167241301 -2.0276590213
| 14> C 0.402737901 1.0116077958 -0.2811290214
| 15> O -0.6175592568 1.5829811888 0.0535395897
| 16> O 1.6079667043 1.408991313 0.0090286043
| 17> C 1.7580142915 2.5608378479 0.871599811
| 18> C 3.1991950542 2.6060718346 1.3365076087
| 19> S -1.325251088 -0.6441857259 -1.5365596568
| 20> P -2.3781449076 -0.2314111928 0.2809234382
| 21> S -1.5450719322 -0.3572709945 2.0527062303
| 22> O -3.3699720645 0.9909436478 0.0002130583
| 23> C -3.22519083 2.3544638893 0.3922261617
| 24> O -3.4406704019 -1.4186912243 0.2157093821
| 25> C -4.3239439756 -1.6384932192 -0.8966526011
| 26> H 6.4645249539 -1.4883563586 -1.0840717656
| 27> H 5.2084620819 -2.376358364 -0.2131516045
| 28> H 5.1945774972 -2.3339045848 -1.9829584309
| 29> H 4.75838634 0.1342885035 -1.913350254
| 30> H 4.7396135675 0.0540984733 -0.1209996304
| 31> H 0.5465011946 -1.5789584622 0.6487630871
| 32> H 1.0004160328 -2.3220053067 -0.9053141368
| 33> H 1.4842418467 3.4500974412 0.2970526446
| 34> H 1.0619299693 2.4499068056 1.7085330554
| 35> H 3.3267150811 3.4355000105 2.0237624487
| 36> H 3.4499019079 1.678936531 1.846231861
| 37> H 3.8636456157 2.7364109683 0.4876003723
| 38> H -2.6947334363 2.4218058768 1.3418660509
| 39> H -4.239131115 2.7363420326 0.4926470472
| 40> H -2.6768644307 2.9011989319 -0.372479561
| 41> H -3.7458610158 -1.7773994796 -1.810700897
| 42> H -5.0014575114 -0.7937055388 -1.0063334049
| 43> H -4.8720290513 -2.5438819594 -0.6482307241
| 44> *
| 45>
| 46>                          ****END OF INPUT****

CARTESIAN COORDINATES (ANGSTROEM)
---------------------------------
  C      5.414440   -1.761246   -1.086229
  C      4.566875   -0.499590   -1.047609
  O      3.164318   -0.816072   -1.137196
  C      2.512670   -1.095075   -0.024884
  O      3.005734   -1.104990    1.079183
  C      1.053045   -1.412602   -0.304884
  C      0.393623   -0.272325   -1.083002
  H      0.921661   -0.116724   -2.027659
  C      0.402738    1.011608   -0.281129
  O     -0.617559    1.582981    0.053540
  O      1.607967    1.408991    0.009029
  C      1.758014    2.560838    0.871600
  C      3.199195    2.606072    1.336508
  S     -1.325251   -0.644186   -1.536560
  P     -2.378145   -0.231411    0.280923
  S     -1.545072   -0.357271    2.052706
  O     -3.369972    0.990944    0.000213
  C     -3.225191    2.354464    0.392226
  O     -3.440670   -1.418691    0.215709
  C     -4.323944   -1.638493   -0.896653
  H      6.464525   -1.488356   -1.084072
  H      5.208462   -2.376358   -0.213152
  H      5.194577   -2.333905   -1.982958
  H      4.758386    0.134289   -1.913350
  H      4.739614    0.054098   -0.121000
  H      0.546501   -1.578958    0.648763
  H      1.000416   -2.322005   -0.905314
  H      1.484242    3.450097    0.297053
  H      1.061930    2.449907    1.708533
  H      3.326715    3.435500    2.023762
  H      3.449902    1.678937    1.846232
  H      3.863646    2.736411    0.487600
  H     -2.694733    2.421806    1.341866
  H     -4.239131    2.736342    0.492647
  H     -2.676864    2.901199   -0.372480
  H     -3.745861   -1.777399   -1.810701
  H     -5.001458   -0.793706   -1.006333
  H     -4.872029   -2.543882   -0.648231

 Total Charge           Charge          ....    0
 Multiplicity           Mult            ....    1
 Number of Electrons    NEL             ....  174
 Basis Dimension        Dim             ....  316

ORBITAL ENERGIES
----------------

  NO   OCC          E(Eh)            E(eV)
   0   2.0000     -88.032949     -2395.4983
   1   2.0000     -87.967997     -2393.7309
   2   2.0000     -76.418222     -2079.4455
   3   2.0000     -18.827153      -512.3129
   4   2.0000     -18.805168      -511.7146
   5   2.0000     -18.780882      -511.0538
   6   2.0000     -18.771914      -510.8097
   7   2.0000     -18.760970      -510.5120
   8   2.0000     -18.738820      -509.9092
   9   2.0000     -10.031057      -272.9589
  10   2.0000     -10.011017      -272.4136
  11   2.0000      -9.960303      -271.0336
  12   2.0000      -9.954086      -270.8644
  13   2.0000      -9.952787      -270.8291
  14   2.0000      -9.937912      -270.4243
  15   2.0000      -9.933849      -270.3138
  16   2.0000      -9.906363      -269.5658
  17   2.0000      -9.894462      -269.2420
  18   2.0000      -9.890699      -269.1396
  19   2.0000      -7.678100      -208.9317
  20   2.0000      -7.613296      -207.1683
  21   2.0000      -6.413765      -174.5274
  22   2.0000      -5.706160      -155.2725
  23   2.0000      -5.702729      -155.1791
  24   2.0000      -5.694705      -154.9608
  25   2.0000      -5.642756      -153.5472
  26   2.0000      -5.634138      -153.3127
  27   2.0000      -5.632641      -153.2720
  28   2.0000      -4.636662      -126.1700
  29   2.0000      -4.635665      -126.1429
  30   2.0000      -4.634285      -126.1053
  31   2.0000      -1.037069       -28.2201
  32   2.0000      -1.012529       -27.5523
  33   2.0000      -0.970583       -26.4109
  34   2.0000      -0.940542       -25.5934
  35   2.0000      -0.925020       -25.1711
  36   2.0000      -0.916289       -24.9335
  37   2.0000      -0.769218       -20.9315
  38   2.0000      -0.718830       -19.5604
  39   2.0000      -0.712036       -19.3755
  40   2.0000      -0.687803       -18.7161
  41   2.0000      -0.655988       -17.8503
  42   2.0000      -0.628324       -17.0976
  43   2.0000      -0.623520       -16.9668
  44   2.0000      -0.605687       -16.4816
  45   2.0000      -0.596000       -16.2180
  46   2.0000      -0.566682       -15.4202
  47   2.0000      -0.524052       -14.2602
  48   2.0000      -0.507275       -13.8037
  49   2.0000      -0.501547       -13.6478
  50   2.0000      -0.486099       -13.2274
  51   2.0000      -0.468650       -12.7526
  52   2.0000      -0.467776       -12.7288
  53   2.0000      -0.457816       -12.4578
  54   2.0000      -0.445911       -12.1338
  55   2.0000      -0.429931       -11.6990
  56   2.0000      -0.420377       -11.4390
  57   2.0000      -0.419928       -11.4268
  58   2.0000      -0.410857       -11.1800
  59   2.0000      -0.404335       -11.0025
  60   2.0000      -0.402465       -10.9516
  61   2.0000      -0.394546       -10.7361
  62   2.0000      -0.390861       -10.6359
  63   2.0000      -0.380910       -10.3651
  64   2.0000      -0.377394       -10.2694
  65   2.0000      -0.372614       -10.1393
  66   2.0000      -0.366624        -9.9763
  67   2.0000      -0.358311        -9.7501
  68   2.0000      -0.345136        -9.3916
  69   2.0000      -0.340869        -9.2755
  70   2.0000      -0.337887        -9.1944
  71   2.0000      -0.330314        -8.9883
  72   2.0000      -0.327408        -8.9092
  73   2.0000      -0.312860        -8.5133
  74   2.0000      -0.311080        -8.4649
  75   2.0000      -0.298323        -8.1178
  76   2.0000      -0.291171        -7.9232
  77   2.0000      -0.286701        -7.8015
  78   2.0000      -0.283303        -7.7091
  79   2.0000      -0.262557        -7.1445
  80   2.0000      -0.259948        -7.0735
  81   2.0000      -0.250677        -6.8213
  82   2.0000      -0.245736        -6.6868
  83   2.0000      -0.226440        -6.1617
  84   2.0000      -0.208183        -5.6649
  85   2.0000      -0.188857        -5.1391
  86   2.0000      -0.179822        -4.8932
  87   0.0000      -0.047541        -1.2937
  88   0.0000      -0.038911        -1.0588
  89   0.0000      -0.021803        -0.5933
  90   0.0000       0.003066         0.0834
  91   0.0000       0.030680         0.8348

MULLIKEN ATOMIC CHARGES
-----------------------
   0 C :   -0.301938
   1 C :   -0.020935
   2 O :   -0.243348
   3 C :    0.107667
   4 O :   -0.195083
   5 C :   -0.042609
   6 C :   -0.311299
   7 H :    0.156561
   8 C :    0.218252
   9 O :   -0.195693
  10 O :   -0.219316
  11 C :   -0.030131
  12 C :   -0.295461
  13 S :   -0.113007
  14 P :    0.636057
  15 S :   -0.324594
  16 O :   -0.399590
  17 C :   -0.077023
  18 O :   -0.370772
  19 C :   -0.112598
  20 H :    0.113063
  21 H :    0.129286
  22 H :    0.113916
  23 H :    0.100222
  24 H :    0.113171
  25 H :    0.124769
  26 H :    0.120663
  27 H :    0.106835
  28 H :    0.127736
  29 H :    0.115757
  30 H :    0.147925
  31 H :    0.114074
  32 H :    0.115434
  33 H :    0.115147
  34 H :    0.111114
  35 H :    0.119709
  36 H :    0.118090
  37 H :    0.127949
Sum of atomic charges:    0.0000000

LOEWDIN ATOMIC CHARGES
----------------------
   0 C :   -0.355417
   1 C :   -0.111281
   2 O :   -0.064514
   3 C :    0.022993
   4 O :   -0.160767
   5 C :   -0.248720
   6 C :   -0.266607
   7 H :    0.150150
   8 C :    0.027717
   9 O :   -0.150719
  10 O :   -0.029820
  11 C :   -0.100816
  12 C :   -0.354207
  13 S :    0.087778
  14 P :    0.585792
  15 S :   -0.324612
  16 O :   -0.254907
  17 C :   -0.206089
  18 O :   -0.255501
  19 C :   -0.214617
  20 H :    0.130849
  21 H :    0.131960
  22 H :    0.124915
  23 H :    0.116419
  24 H :    0.119883
  25 H :    0.137087
  26 H :    0.144101
  27 H :    0.117874
  28 H :    0.127515
  29 H :    0.133516
  30 H :    0.137445
  31 H :    0.124078
  32 H :    0.111793
  33 H :    0.115383
  34 H :    0.110941
  35 H :    0.103716
  36 H :    0.112508
  37 H :    0.124180

  Mayer bond orders larger than 0.100000
B(  0-C ,  1-C ) :   1.1733 B(  0-C , 20-H ) :   0.9440 B(  0-C , 21-H ) :   0.9456
B(  0-C , 22-H ) :   0.9486 B(  1-C ,  2-O ) :   0.9167 B(  1-C , 23-H ) :   0.9374
B(  1-C , 24-H ) :   0.9104 B(  2-O ,  3-C ) :   1.1924 B(  3-C ,  4-O ) :   2.0507
B(  3-C ,  5-C ) :   1.0179 B(  5-C ,  6-C ) :   1.0249 B(  5-C , 25-H ) :   0.8760
B(  5-C , 26-H ) :   0.8860 B(  6-C ,  7-H ) :   0.8659 B(  6-C ,  8-C ) :   0.9084
B(  6-C , 13-S ) :   1.0471 B(  8-C ,  9-O ) :   1.9348 B(  8-C , 10-O ) :   1.2745
B(  9-O , 14-P ) :   0.1118 B( 10-O , 11-C ) :   0.8810 B( 11-C , 12-C ) :   1.1611
B( 11-C , 27-H ) :   0.9346 B( 11-C , 28-H ) :   0.9236 B( 12-C , 29-H ) :   0.9400
B( 12-C , 30-H ) :   0.9377 B( 12-C , 31-H ) :   0.9463 B( 13-S , 14-P ) :   0.9143
B( 13-S , 15-S ) :   0.1105 B( 14-P , 15-S ) :   1.5851 B( 14-P , 16-O ) :   1.0848
B( 14-P , 18-O ) :   1.0999 B( 16-O , 17-C ) :   0.9301 B( 17-C , 32-H ) :   0.9421
B( 17-C , 33-H ) :   0.9538 B( 17-C , 34-H ) :   0.9531 B( 18-O , 19-C ) :   0.9351
B( 19-C , 35-H ) :   0.9365 B( 19-C , 36-H ) :   0.9458 B( 19-C , 37-H ) :   0.9607

Dispersion correction           -0.052089099
FINAL SINGLE POINT ENERGY     -1979.007563233244

DIPOLE MOMENT
-------------

Method             : SCF
Type of density    : Electron Density
Multiplicity       :   1
Irrep              :   0
Energy             : -1979.1397543401571966 Eh
Relativity type    :
Basis              : AO
                                X                 Y                 Z
Electronic contribution:    -18.898729615      -5.371575277       1.735842086
Nuclear contribution   :     19.841869174       6.500345214      -3.301226111
                        -----------------------------------------
Total Dipole Moment    :      0.943139559       1.128769936      -1.565384025
                        -----------------------------------------
Magnitude (a.u.)       :      2.148036532
Magnitude (Debye)      :      5.459874961

Rotational constants in cm-1:             0.017239             0.006000             0.005237
Rotational constants in MHz :           516.806590           179.875489           156.995923

                             ****ORCA TERMINATED NORMALLY****
TOTAL RUN TIME: 0 days 0 hours 0 minutes 34 seconds 31 msec
