                         Program Version 6.0.0  -   RELEASE  -
|  1> ! r2scan-3c def2/J RI DEFGRID2 scfconv6 printgap
|  2> %output
|  3>     printlevel normal
|  4> end
|  5> * xyz 0 1
|  6> C 3.9973667362 -1.0613995988 -2.6900567333
|  7> C 4.2736591183 -1.6205108108 -1.3094412965
|  8> O 3.0700930342 -1.7586195692 -0.5347287643
|  9> P 2.2524044862 -0.5021648666 -0.0019264583
| 10> S 3.3764888967 0.9936685227 0.5969366299
| 11> O 1.3206717726 -1.1841713154 1.0817825982
| 12> C 1.7818194605 -1.4539282276 2.4276553855
| 13> C 1.355458508 -0.3475405582 3.3721700918
| 14> S 0.8196435168 -0.0927665957 -1.495598086
| 15> C 0.2812559993 1.4950410437 -0.802212393
| 16> S -0.7296151455 1.3112146445 0.6842146245
| 17> P -2.4117989411 0.4408560402 -0.3011011613
| 18> S -2.8195646448 1.1485772788 -2.0759692016
| 19> O -3.573208012 0.5399417517 0.7818664321
| 20> C -4.4392809477 1.6854035099 0.891852594
| 21> C -3.6963499886 2.9324680609 1.3243025607
| 22> O -2.1357880383 -1.111205515 -0.3327668268
| 23> C -1.9568274758 -1.9097689506 0.8638554607
| 24> C -1.3117807845 -3.2160042289 0.4509326343
| 25> H 3.6476644681 -0.0325003971 -2.6118601487
| 26> H 4.91069135 -1.0790304795 -3.2759865528
| 27> H 3.2340257557 -1.6511786117 -3.1916048304
| 28> H 4.9641920329 -0.9700937961 -0.7628002057
| 29> H 4.6740956875 -2.6340109679 -1.3562457077
| 30> H 1.3192345487 -2.4066887695 2.6901845687
| 31> H 2.8694300138 -1.5638817618 2.4200616266
| 32> H 1.8297968001 0.5905365428 3.0921965059
| 33> H 0.2781453716 -0.2108485161 3.3358114445
| 34> H 1.6522532568 -0.6070957595 4.3832027634
| 35> H -0.3044646019 1.9891440385 -1.5775424417
| 36> H 1.1546337334 2.0847363033 -0.5225473858
| 37> H -4.9242328532 1.8430095244 -0.0761826556
| 38> H -5.1785469853 1.3785559414 1.6331345046
| 39> H -3.1191639195 2.7382085918 2.2248160633
| 40> H -3.0191100267 3.2554455476 0.5351864093
| 41> H -4.4119167923 3.7251167738 1.517884296
| 42> H -1.3243838318 -1.3537883952 1.5618039959
| 43> H -2.9404243465 -2.0659156349 1.3108199537
| 44> H -1.9191459346 -3.7064432113 -0.3043923888
| 45> H -0.3233186494 -3.0307097032 0.0375129149
| 46> H -1.2243638867 -3.8615505597 1.318992118
| 47> *
| 48>
| 49>                          ****END OF INPUT****

CARTESIAN COORDINATES (ANGSTROEM)
---------------------------------
  C      3.997367   -1.061400   -2.690057
  C      4.273659   -1.620511   -1.309441
  O      3.070093   -1.758620   -0.534729
  P      2.252404   -0.502165   -0.001926
  S      3.376489    0.993669    0.596937
  O      1.320672   -1.184171    1.081783
  C      1.781819   -1.453928    2.427655
  C      1.355459   -0.347541    3.372170
  S      0.819644   -0.092767   -1.495598
  C      0.281256    1.495041   -0.802212
  S     -0.729615    1.311215    0.684215
  P     -2.411799    0.440856   -0.301101
  S     -2.819565    1.148577   -2.075969
  O     -3.573208    0.539942    0.781866
  C     -4.439281    1.685404    0.891853
  C     -3.696350    2.932468    1.324303
  O     -2.135788   -1.111206   -0.332767
  C     -1.956827   -1.909769    0.863855
  C     -1.311781   -3.216004    0.450933
  H      3.647664   -0.032500   -2.611860
  H      4.910691   -1.079030   -3.275987
  H      3.234026   -1.651179   -3.191605
  H      4.964192   -0.970094   -0.762800
  H      4.674096   -2.634011   -1.356246
  H      1.319235   -2.406689    2.690185
  H      2.869430   -1.563882    2.420062
  H      1.829797    0.590537    3.092197
  H      0.278145   -0.210849    3.335811
  H      1.652253   -0.607096    4.383203
  H     -0.304465    1.989144   -1.577542
  H      1.154634    2.084736   -0.522547
  H     -4.924233    1.843010   -0.076183
  H     -5.178547    1.378556    1.633135
  H     -3.119164    2.738209    2.224816
  H     -3.019110    3.255446    0.535186
  H     -4.411917    3.725117    1.517884
  H     -1.324384   -1.353788    1.561804
  H     -2.940424   -2.065916    1.310820
  H     -1.919146   -3.706443   -0.304392
  H     -0.323319   -3.030710    0.037513
  H     -1.224364   -3.861551    1.318992

 Total Charge           Charge          ....    0
 Multiplicity           Mult            ....    1
 Number of Electrons    NEL             ....  202
 Basis Dimension        Dim             ....  539

ORBITAL ENERGIES
----------------

  NO   OCC          E(Eh)            E(eV)
   0   2.0000     -88.575829     -2410.2708
   1   2.0000     -88.572432     -2410.1784
   2   2.0000     -88.523563     -2408.8486
   3   2.0000     -88.519992     -2408.7514
   4   2.0000     -76.916383     -2093.0012
   5   2.0000     -76.912829     -2092.9045
   6   2.0000     -18.996024      -516.9081
   7   2.0000     -18.994586      -516.8690
   8   2.0000     -18.992772      -516.8196
   9   2.0000     -18.987531      -516.6770
  10   2.0000     -10.104383      -274.9542
  11   2.0000     -10.103045      -274.9178
  12   2.0000     -10.100788      -274.8564
  13   2.0000     -10.099856      -274.8311
  14   2.0000     -10.098386      -274.7911
  15   2.0000     -10.029448      -272.9152
  16   2.0000     -10.029386      -272.9135
  17   2.0000     -10.028961      -272.9019
  18   2.0000     -10.028632      -272.8929
  19   2.0000      -7.870042      -214.1547
  20   2.0000      -7.866905      -214.0694
  21   2.0000      -7.818396      -212.7494
  22   2.0000      -7.814763      -212.6505
  23   2.0000      -6.594991      -179.4588
  24   2.0000      -6.591322      -179.3590
  25   2.0000      -5.816957      -158.2874
  26   2.0000      -5.814008      -158.2072
  27   2.0000      -5.813714      -158.1992
  28   2.0000      -5.810777      -158.1193
  29   2.0000      -5.807020      -158.0171
  30   2.0000      -5.804039      -157.9359
  31   2.0000      -5.765978      -156.9002
  32   2.0000      -5.762431      -156.8037
  33   2.0000      -5.758782      -156.7044
  34   2.0000      -5.758348      -156.6926
  35   2.0000      -5.755009      -156.6018
  36   2.0000      -5.754778      -156.5955
  37   2.0000      -4.740563      -128.9973
  38   2.0000      -4.739813      -128.9769
  39   2.0000      -4.738735      -128.9475
  40   2.0000      -4.737206      -128.9059
  41   2.0000      -4.736147      -128.8771
  42   2.0000      -4.734825      -128.8411
  43   2.0000      -1.053195       -28.6589
  44   2.0000      -1.050504       -28.5857
  45   2.0000      -1.013574       -27.5807
  46   2.0000      -1.008727       -27.4489
  47   2.0000      -0.802233       -21.8299
  48   2.0000      -0.759699       -20.6725
  49   2.0000      -0.750919       -20.4335
  50   2.0000      -0.733512       -19.9599
  51   2.0000      -0.732691       -19.9375
  52   2.0000      -0.712860       -19.3979
  53   2.0000      -0.686265       -18.6742
  54   2.0000      -0.669298       -18.2125
  55   2.0000      -0.632670       -17.2158
  56   2.0000      -0.622395       -16.9362
  57   2.0000      -0.610538       -16.6136
  58   2.0000      -0.603024       -16.4091
  59   2.0000      -0.588698       -16.0193
  60   2.0000      -0.532147       -14.4805
  61   2.0000      -0.525952       -14.3119
  62   2.0000      -0.494447       -13.4546
  63   2.0000      -0.492047       -13.3893
  64   2.0000      -0.480411       -13.0727
  65   2.0000      -0.465693       -12.6721
  66   2.0000      -0.459099       -12.4927
  67   2.0000      -0.455155       -12.3854
  68   2.0000      -0.446567       -12.1517
  69   2.0000      -0.438783       -11.9399
  70   2.0000      -0.427047       -11.6205
  71   2.0000      -0.417021       -11.3477
  72   2.0000      -0.407682       -11.0936
  73   2.0000      -0.399488       -10.8706
  74   2.0000      -0.393901       -10.7186
  75   2.0000      -0.390002       -10.6125
  76   2.0000      -0.380566       -10.3557
  77   2.0000      -0.378297       -10.2940
  78   2.0000      -0.371024       -10.0961
  79   2.0000      -0.368874       -10.0376
  80   2.0000      -0.364840        -9.9278
  81   2.0000      -0.359556        -9.7840
  82   2.0000      -0.356433        -9.6990
  83   2.0000      -0.353199        -9.6110
  84   2.0000      -0.350046        -9.5252
  85   2.0000      -0.330613        -8.9964
  86   2.0000      -0.324224        -8.8226
  87   2.0000      -0.317051        -8.6274
  88   2.0000      -0.312311        -8.4984
  89   2.0000      -0.310319        -8.4442
  90   2.0000      -0.305532        -8.3139
  91   2.0000      -0.295803        -8.0492
  92   2.0000      -0.283401        -7.7117
  93   2.0000      -0.280129        -7.6227
  94   2.0000      -0.273506        -7.4425
  95   2.0000      -0.246457        -6.7064
  96   2.0000      -0.231480        -6.2989
  97   2.0000      -0.226926        -6.1750
  98   2.0000      -0.218872        -5.9558
  99   2.0000      -0.216082        -5.8799
 100   2.0000      -0.213176        -5.8008
 101   0.0000      -0.046542        -1.2665
 102   0.0000      -0.025657        -0.6982
 103   0.0000      -0.004320        -0.1176
 104   0.0000      -0.001548        -0.0421
 105   0.0000       0.013739         0.3739

MULLIKEN ATOMIC CHARGES
-----------------------
   0 C :   -0.455522
   1 C :   -0.148562
   2 O :   -0.306866
   3 P :    0.656644
   4 S :   -0.481830
   5 O :   -0.257423
   6 C :   -0.145030
   7 C :   -0.440659
   8 S :   -0.093638
   9 C :   -0.250909
  10 S :   -0.157856
  11 P :    0.648895
  12 S :   -0.444900
  13 O :   -0.293974
  14 C :   -0.164664
  15 C :   -0.445785
  16 O :   -0.254697
  17 C :   -0.104178
  18 C :   -0.471073
  19 H :    0.177895
  20 H :    0.148325
  21 H :    0.157792
  22 H :    0.171765
  23 H :    0.147911
  24 H :    0.153057
  25 H :    0.153796
  26 H :    0.183379
  27 H :    0.148457
  28 H :    0.145944
  29 H :    0.221729
  30 H :    0.212542
  31 H :    0.174291
  32 H :    0.147686
  33 H :    0.153187
  34 H :    0.180398
  35 H :    0.148022
  36 H :    0.157601
  37 H :    0.154574
  38 H :    0.155607
  39 H :    0.176951
  40 H :    0.141119
Sum of atomic charges:    0.0000000

LOEWDIN ATOMIC CHARGES
----------------------
   0 C :   -0.405726
   1 C :    0.019269
   2 O :   -0.660189
   3 P :    0.374985
   4 S :   -0.136493
   5 O :   -0.687203
   6 C :    0.023532
   7 C :   -0.404584
   8 S :    0.190184
   9 C :   -0.423403
  10 S :    0.146676
  11 P :    0.378944
  12 S :   -0.102968
  13 O :   -0.667243
  14 C :    0.022660
  15 C :   -0.408804
  16 O :   -0.653361
  17 C :    0.023725
  18 C :   -0.388722
  19 H :    0.166215
  20 H :    0.159938
  21 H :    0.160771
  22 H :    0.179877
  23 H :    0.179388
  24 H :    0.178147
  25 H :    0.177372
  26 H :    0.169694
  27 H :    0.157259
  28 H :    0.157791
  29 H :    0.192811
  30 H :    0.192249
  31 H :    0.180378
  32 H :    0.179355
  33 H :    0.159756
  34 H :    0.166801
  35 H :    0.159525
  36 H :    0.178250
  37 H :    0.172898
  38 H :    0.162247
  39 H :    0.169621
  40 H :    0.158380

  Mayer bond orders larger than 0.100000
B(  0-C ,  1-C ) :   0.9226 B(  0-C , 19-H ) :   0.9609 B(  0-C , 20-H ) :   0.9586
B(  0-C , 21-H ) :   0.9689 B(  1-C ,  2-O ) :   0.8164 B(  1-C , 22-H ) :   0.9647
B(  1-C , 23-H ) :   0.9581 B(  2-O ,  3-P ) :   1.0711 B(  3-P ,  4-S ) :   1.7552
B(  3-P ,  5-O ) :   1.1302 B(  3-P ,  8-S ) :   1.1128 B(  5-O ,  6-C ) :   0.7442
B(  6-C ,  7-C ) :   0.9393 B(  6-C , 24-H ) :   0.9665 B(  6-C , 25-H ) :   0.9598
B(  7-C , 26-H ) :   0.9588 B(  7-C , 27-H ) :   0.9700 B(  7-C , 28-H ) :   0.9657
B(  8-S ,  9-C ) :   0.9067 B(  9-C , 10-S ) :   0.9100 B(  9-C , 29-H ) :   0.9047
B(  9-C , 30-H ) :   0.9044 B( 10-S , 11-P ) :   0.9986 B( 11-P , 12-S ) :   1.8335
B( 11-P , 13-O ) :   1.0351 B( 11-P , 16-O ) :   1.1686 B( 13-O , 14-C ) :   0.8194
B( 14-C , 15-C ) :   0.9181 B( 14-C , 31-H ) :   0.9689 B( 14-C , 32-H ) :   0.9613
B( 15-C , 33-H ) :   0.9676 B( 15-C , 34-H ) :   0.9632 B( 15-C , 35-H ) :   0.9562
B( 16-O , 17-C ) :   0.7338 B( 17-C , 18-C ) :   0.9311 B( 17-C , 36-H ) :   0.9528
B( 17-C , 37-H ) :   0.9426 B( 18-C , 38-H ) :   0.9687 B( 18-C , 39-H ) :   0.9697
B( 18-C , 40-H ) :   0.9690

Dispersion correction           -0.021962468
FINAL SINGLE POINT ENERGY     -2932.464584447844

DIPOLE MOMENT
-------------

Method             : SCF
Type of density    : Electron Density
Multiplicity       :   1
Irrep              :   0
Energy             : -2932.4890878780015555 Eh
Relativity type    :
Basis              : AO
                                X                 Y                 Z
Electronic contribution:     -1.733451676       6.338383204     -10.691642638
Nuclear contribution   :      1.835181561      -7.195553579      11.968671816
                        -----------------------------------------
Total Dipole Moment    :      0.101729885      -0.857170374       1.277029178
                        -----------------------------------------
Magnitude (a.u.)       :      1.541393376
Magnitude (Debye)      :      3.917910601

Rotational constants in cm-1:             0.012598             0.005010             0.004801
Rotational constants in MHz :           377.681942           150.184834           143.923273

                             ****ORCA TERMINATED NORMALLY****
TOTAL RUN TIME: 0 days 0 hours 1 minutes 22 seconds 88 msec
