                         Program Version 6.0.0  -   RELEASE  -
|  1> ! r2scan-3c def2/J RI DEFGRID2 scfconv6 printgap
|  2> %output
|  3>     printlevel normal
|  4> end
|  5> %cpcm
|  6>     smd true
|  7>     smdsolvent "water"
|  8> end
|  9> * xyz 0 1
| 10> C 3.9973667362 -1.0613995988 -2.6900567333
| 11> C 4.2736591183 -1.6205108108 -1.3094412965
| 12> O 3.0700930342 -1.7586195692 -0.5347287643
| 13> P 2.2524044862 -0.5021648666 -0.0019264583
| 14> S 3.3764888967 0.9936685227 0.5969366299
| 15> O 1.3206717726 -1.1841713154 1.0817825982
| 16> C 1.7818194605 -1.4539282276 2.4276553855
| 17> C 1.355458508 -0.3475405582 3.3721700918
| 18> S 0.8196435168 -0.0927665957 -1.495598086
| 19> C 0.2812559993 1.4950410437 -0.802212393
| 20> S -0.7296151455 1.3112146445 0.6842146245
| 21> P -2.4117989411 0.4408560402 -0.3011011613
| 22> S -2.8195646448 1.1485772788 -2.0759692016
| 23> O -3.573208012 0.5399417517 0.7818664321
| 24> C -4.4392809477 1.6854035099 0.891852594
| 25> C -3.6963499886 2.9324680609 1.3243025607
| 26> O -2.1357880383 -1.111205515 -0.3327668268
| 27> C -1.9568274758 -1.9097689506 0.8638554607
| 28> C -1.3117807845 -3.2160042289 0.4509326343
| 29> H 3.6476644681 -0.0325003971 -2.6118601487
| 30> H 4.91069135 -1.0790304795 -3.2759865528
| 31> H 3.2340257557 -1.6511786117 -3.1916048304
| 32> H 4.9641920329 -0.9700937961 -0.7628002057
| 33> H 4.6740956875 -2.6340109679 -1.3562457077
| 34> H 1.3192345487 -2.4066887695 2.6901845687
| 35> H 2.8694300138 -1.5638817618 2.4200616266
| 36> H 1.8297968001 0.5905365428 3.0921965059
| 37> H 0.2781453716 -0.2108485161 3.3358114445
| 38> H 1.6522532568 -0.6070957595 4.3832027634
| 39> H -0.3044646019 1.9891440385 -1.5775424417
| 40> H 1.1546337334 2.0847363033 -0.5225473858
| 41> H -4.9242328532 1.8430095244 -0.0761826556
| 42> H -5.1785469853 1.3785559414 1.6331345046
| 43> H -3.1191639195 2.7382085918 2.2248160633
| 44> H -3.0191100267 3.2554455476 0.5351864093
| 45> H -4.4119167923 3.7251167738 1.517884296
| 46> H -1.3243838318 -1.3537883952 1.5618039959
| 47> H -2.9404243465 -2.0659156349 1.3108199537
| 48> H -1.9191459346 -3.7064432113 -0.3043923888
| 49> H -0.3233186494 -3.0307097032 0.0375129149
| 50> H -1.2243638867 -3.8615505597 1.318992118
| 51> *
| 52>
| 53>                          ****END OF INPUT****

CARTESIAN COORDINATES (ANGSTROEM)
---------------------------------
  C      3.997367   -1.061400   -2.690057
  C      4.273659   -1.620511   -1.309441
  O      3.070093   -1.758620   -0.534729
  P      2.252404   -0.502165   -0.001926
  S      3.376489    0.993669    0.596937
  O      1.320672   -1.184171    1.081783
  C      1.781819   -1.453928    2.427655
  C      1.355459   -0.347541    3.372170
  S      0.819644   -0.092767   -1.495598
  C      0.281256    1.495041   -0.802212
  S     -0.729615    1.311215    0.684215
  P     -2.411799    0.440856   -0.301101
  S     -2.819565    1.148577   -2.075969
  O     -3.573208    0.539942    0.781866
  C     -4.439281    1.685404    0.891853
  C     -3.696350    2.932468    1.324303
  O     -2.135788   -1.111206   -0.332767
  C     -1.956827   -1.909769    0.863855
  C     -1.311781   -3.216004    0.450933
  H      3.647664   -0.032500   -2.611860
  H      4.910691   -1.079030   -3.275987
  H      3.234026   -1.651179   -3.191605
  H      4.964192   -0.970094   -0.762800
  H      4.674096   -2.634011   -1.356246
  H      1.319235   -2.406689    2.690185
  H      2.869430   -1.563882    2.420062
  H      1.829797    0.590537    3.092197
  H      0.278145   -0.210849    3.335811
  H      1.652253   -0.607096    4.383203
  H     -0.304465    1.989144   -1.577542
  H      1.154634    2.084736   -0.522547
  H     -4.924233    1.843010   -0.076183
  H     -5.178547    1.378556    1.633135
  H     -3.119164    2.738209    2.224816
  H     -3.019110    3.255446    0.535186
  H     -4.411917    3.725117    1.517884
  H     -1.324384   -1.353788    1.561804
  H     -2.940424   -2.065916    1.310820
  H     -1.919146   -3.706443   -0.304392
  H     -0.323319   -3.030710    0.037513
  H     -1.224364   -3.861551    1.318992

 Total Charge           Charge          ....    0
 Multiplicity           Mult            ....    1
 Number of Electrons    NEL             ....  202
 Basis Dimension        Dim             ....  539

ORBITAL ENERGIES
----------------

  NO   OCC          E(Eh)            E(eV)
   0   2.0000     -88.579483     -2410.3703
   1   2.0000     -88.575495     -2410.2618
   2   2.0000     -88.530816     -2409.0460
   3   2.0000     -88.527920     -2408.9672
   4   2.0000     -76.919652     -2093.0901
   5   2.0000     -76.918803     -2093.0670
   6   2.0000     -18.996410      -516.9186
   7   2.0000     -18.996039      -516.9085
   8   2.0000     -18.993039      -516.8269
   9   2.0000     -18.990475      -516.7571
  10   2.0000     -10.103425      -274.9282
  11   2.0000     -10.090874      -274.5866
  12   2.0000     -10.090607      -274.5794
  13   2.0000     -10.090232      -274.5692
  14   2.0000     -10.089182      -274.5406
  15   2.0000     -10.019054      -272.6323
  16   2.0000     -10.018674      -272.6220
  17   2.0000     -10.018591      -272.6197
  18   2.0000     -10.015798      -272.5437
  19   2.0000      -7.873814      -214.2574
  20   2.0000      -7.869912      -214.1512
  21   2.0000      -7.825949      -212.9549
  22   2.0000      -7.823038      -212.8757
  23   2.0000      -6.598191      -179.5459
  24   2.0000      -6.597406      -179.5246
  25   2.0000      -5.820686      -158.3889
  26   2.0000      -5.817761      -158.3093
  27   2.0000      -5.816756      -158.2820
  28   2.0000      -5.813809      -158.2018
  29   2.0000      -5.810852      -158.1213
  30   2.0000      -5.806996      -158.0164
  31   2.0000      -5.773500      -157.1049
  32   2.0000      -5.770573      -157.0253
  33   2.0000      -5.766164      -156.9053
  34   2.0000      -5.766043      -156.9020
  35   2.0000      -5.763432      -156.8310
  36   2.0000      -5.762976      -156.8185
  37   2.0000      -4.744024      -129.0915
  38   2.0000      -4.742974      -129.0629
  39   2.0000      -4.742894      -129.0607
  40   2.0000      -4.742236      -129.0428
  41   2.0000      -4.741820      -129.0315
  42   2.0000      -4.741263      -129.0163
  43   2.0000      -1.053800       -28.6753
  44   2.0000      -1.051726       -28.6189
  45   2.0000      -1.011749       -27.5311
  46   2.0000      -1.011121       -27.5140
  47   2.0000      -0.804330       -21.8869
  48   2.0000      -0.756292       -20.5797
  49   2.0000      -0.744566       -20.2607
  50   2.0000      -0.725350       -19.7378
  51   2.0000      -0.722217       -19.6525
  52   2.0000      -0.711110       -19.3503
  53   2.0000      -0.689482       -18.7618
  54   2.0000      -0.674763       -18.3612
  55   2.0000      -0.630159       -17.1475
  56   2.0000      -0.617741       -16.8096
  57   2.0000      -0.601328       -16.3630
  58   2.0000      -0.598704       -16.2916
  59   2.0000      -0.586500       -15.9595
  60   2.0000      -0.527697       -14.3594
  61   2.0000      -0.520216       -14.1558
  62   2.0000      -0.491059       -13.3624
  63   2.0000      -0.485849       -13.2206
  64   2.0000      -0.480816       -13.0837
  65   2.0000      -0.459575       -12.5057
  66   2.0000      -0.454092       -12.3565
  67   2.0000      -0.449929       -12.2432
  68   2.0000      -0.440897       -11.9974
  69   2.0000      -0.434480       -11.8228
  70   2.0000      -0.422809       -11.5052
  71   2.0000      -0.411563       -11.1992
  72   2.0000      -0.406669       -11.0660
  73   2.0000      -0.394569       -10.7368
  74   2.0000      -0.390531       -10.6269
  75   2.0000      -0.388956       -10.5840
  76   2.0000      -0.379015       -10.3135
  77   2.0000      -0.373366       -10.1598
  78   2.0000      -0.363177        -9.8825
  79   2.0000      -0.359843        -9.7918
  80   2.0000      -0.356857        -9.7106
  81   2.0000      -0.350872        -9.5477
  82   2.0000      -0.349575        -9.5124
  83   2.0000      -0.347636        -9.4597
  84   2.0000      -0.345083        -9.3902
  85   2.0000      -0.327152        -8.9023
  86   2.0000      -0.319405        -8.6915
  87   2.0000      -0.315927        -8.5968
  88   2.0000      -0.306495        -8.3401
  89   2.0000      -0.305128        -8.3030
  90   2.0000      -0.300564        -8.1788
  91   2.0000      -0.290612        -7.9080
  92   2.0000      -0.281952        -7.6723
  93   2.0000      -0.279273        -7.5994
  94   2.0000      -0.275552        -7.4982
  95   2.0000      -0.250086        -6.8052
  96   2.0000      -0.238500        -6.4899
  97   2.0000      -0.234633        -6.3847
  98   2.0000      -0.227088        -6.1794
  99   2.0000      -0.223420        -6.0796
 100   2.0000      -0.219155        -5.9635
 101   0.0000      -0.051416        -1.3991
 102   0.0000      -0.031473        -0.8564
 103   0.0000      -0.007272        -0.1979
 104   0.0000      -0.005805        -0.1580
 105   0.0000       0.014257         0.3880

MULLIKEN ATOMIC CHARGES
-----------------------
   0 C :   -0.491529
   1 C :   -0.148062
   2 O :   -0.331312
   3 P :    0.698136
   4 S :   -0.526440
   5 O :   -0.277685
   6 C :   -0.139566
   7 C :   -0.483546
   8 S :   -0.121519
   9 C :   -0.259929
  10 S :   -0.150615
  11 P :    0.661818
  12 S :   -0.500348
  13 O :   -0.313782
  14 C :   -0.157744
  15 C :   -0.482943
  16 O :   -0.285844
  17 C :   -0.108275
  18 C :   -0.505549
  19 H :    0.172114
  20 H :    0.172877
  21 H :    0.170672
  22 H :    0.177048
  23 H :    0.174839
  24 H :    0.180073
  25 H :    0.169072
  26 H :    0.172228
  27 H :    0.165584
  28 H :    0.169322
  29 H :    0.237429
  30 H :    0.231552
  31 H :    0.179327
  32 H :    0.175669
  33 H :    0.168572
  34 H :    0.174277
  35 H :    0.172771
  36 H :    0.177163
  37 H :    0.175047
  38 H :    0.166411
  39 H :    0.170602
  40 H :    0.172085
Sum of atomic charges:    0.0000000

LOEWDIN ATOMIC CHARGES
----------------------
   0 C :   -0.409519
   1 C :    0.024408
   2 O :   -0.670374
   3 P :    0.381732
   4 S :   -0.163599
   5 O :   -0.692587
   6 C :    0.030173
   7 C :   -0.408280
   8 S :    0.173205
   9 C :   -0.419075
  10 S :    0.154507
  11 P :    0.381106
  12 S :   -0.144964
  13 O :   -0.673102
  14 C :    0.028497
  15 C :   -0.411362
  16 O :   -0.677056
  17 C :    0.029380
  18 C :   -0.392221
  19 H :    0.161574
  20 H :    0.168727
  21 H :    0.163642
  22 H :    0.181511
  23 H :    0.190692
  24 H :    0.190242
  25 H :    0.181870
  26 H :    0.162734
  27 H :    0.161636
  28 H :    0.166217
  29 H :    0.197185
  30 H :    0.197714
  31 H :    0.181629
  32 H :    0.191439
  33 H :    0.163722
  34 H :    0.161911
  35 H :    0.168585
  36 H :    0.185352
  37 H :    0.182327
  38 H :    0.164127
  39 H :    0.165355
  40 H :    0.170939

  Mayer bond orders larger than 0.100000
B(  0-C ,  1-C ) :   0.9096 B(  0-C , 19-H ) :   0.9626 B(  0-C , 20-H ) :   0.9534
B(  0-C , 21-H ) :   0.9664 B(  1-C ,  2-O ) :   0.8052 B(  1-C , 22-H ) :   0.9635
B(  1-C , 23-H ) :   0.9487 B(  2-O ,  3-P ) :   1.0783 B(  3-P ,  4-S ) :   1.7174
B(  3-P ,  5-O ) :   1.1449 B(  3-P ,  8-S ) :   1.1128 B(  5-O ,  6-C ) :   0.7322
B(  6-C ,  7-C ) :   0.9236 B(  6-C , 24-H ) :   0.9550 B(  6-C , 25-H ) :   0.9564
B(  7-C , 26-H ) :   0.9640 B(  7-C , 27-H ) :   0.9690 B(  7-C , 28-H ) :   0.9609
B(  8-S ,  9-C ) :   0.8943 B(  9-C , 10-S ) :   0.9003 B(  9-C , 29-H ) :   0.9005
B(  9-C , 30-H ) :   0.9015 B( 10-S , 11-P ) :   1.0133 B( 11-P , 12-S ) :   1.8096
B( 11-P , 13-O ) :   1.0471 B( 11-P , 16-O ) :   1.1743 B( 13-O , 14-C ) :   0.8069
B( 14-C , 15-C ) :   0.9063 B( 14-C , 31-H ) :   0.9674 B( 14-C , 32-H ) :   0.9504
B( 15-C , 33-H ) :   0.9646 B( 15-C , 34-H ) :   0.9650 B( 15-C , 35-H ) :   0.9509
B( 16-O , 17-C ) :   0.7230 B( 17-C , 18-C ) :   0.9238 B( 17-C , 36-H ) :   0.9443
B( 17-C , 37-H ) :   0.9334 B( 18-C , 38-H ) :   0.9680 B( 18-C , 39-H ) :   0.9697
B( 18-C , 40-H ) :   0.9610

Dispersion correction           -0.021962468
FINAL SINGLE POINT ENERGY     -2932.473278930242

DIPOLE MOMENT
-------------

Method             : SCF
Type of density    : Electron Density
Multiplicity       :   1
Irrep              :   0
Energy             : -2932.4977823603999241 Eh
Relativity type    :
Basis              : AO
                                X                 Y                 Z
Electronic contribution:     -1.686508110       6.097956613     -10.005647642
Nuclear contribution   :      1.835181561      -7.195553579      11.968671816
                        -----------------------------------------
Total Dipole Moment    :      0.148673451      -1.097596966       1.963024174
                        -----------------------------------------
Magnitude (a.u.)       :      2.253949157
Magnitude (Debye)      :      5.729083458

Rotational constants in cm-1:             0.012598             0.005010             0.004801
Rotational constants in MHz :           377.681942           150.184834           143.923273

                             ****ORCA TERMINATED NORMALLY****
TOTAL RUN TIME: 0 days 0 hours 1 minutes 51 seconds 829 msec
