                         Program Version 6.0.0  -   RELEASE  -
|  1> ! pbe def2-sv(p) def2/J RI DEFGRID1 loosescf d4 GCP(DFT/SV(P)) printgap
|  2> %output
|  3>     printlevel normal
|  4> end
|  5> * xyz 0 1
|  6> C 5.4288911944 -1.264709044 -0.6353390947
|  7> C 4.2790235542 -0.4980168702 -1.2598359163
|  8> O 3.1447062826 -0.5698514359 -0.3768857294
|  9> P 2.2714196438 0.7056283261 0.0258919488
| 10> S 3.2980169424 2.3665814489 0.1815957998
| 11> O 1.5221149883 0.2146557929 1.3274916329
| 12> C 2.2118771016 0.0349781053 2.5869958561
| 13> C 2.6497384447 -1.404857509 2.7566830345
| 14> S 0.6489205873 0.7201895575 -1.3227920839
| 15> C 0.1266794642 -1.014902939 -1.1050393532
| 16> S -0.9623333259 -1.2617897313 0.3083039756
| 17> P -2.5907108977 -0.1071200068 -0.4370327922
| 18> S -2.8313460362 -0.2240574294 -2.3785883897
| 19> O -2.3928154862 1.4097008836 -0.043031554
| 20> C -2.5982145798 1.999450326 1.2618333735
| 21> C -1.5917421586 1.5163877953 2.2855950013
| 22> O -3.7989615247 -0.5216569973 0.5067031322
| 23> C -4.1786440418 -1.8758079142 0.8207617277
| 24> C -4.45849101 -2.7077572197 -0.4127312426
| 25> H 6.2715197598 -1.2586223862 -1.3189131014
| 26> H 5.726961959 -0.7955059627 0.298805485
| 27> H 5.1326908218 -2.2916337958 -0.4406119475
| 28> H 3.9772708631 -0.9365669522 -2.2136029737
| 29> H 4.5454668705 0.5531073625 -1.4117078657
| 30> H 3.0604364134 0.725749985 2.6243861026
| 31> H 1.4772872957 0.317406637 3.3433255749
| 32> H 3.383940119 -1.6706923516 2.0010082828
| 33> H 3.0899108843 -1.5282629934 3.7411593391
| 34> H 1.7903949003 -2.0630228257 2.6598701398
| 35> H 0.9985889826 -1.6459160079 -0.9546615087
| 36> H -0.4107678783 -1.2736497014 -2.0179047849
| 37> H -2.4892626836 3.068315984 1.0695735532
| 38> H -3.6190975535 1.7807247247 1.5801684033
| 39> H -1.7187606864 2.0861778912 3.2009818746
| 40> H -1.7390309617 0.4597759904 2.4996390477
| 41> H -0.5791131429 1.6623456854 1.9143989271
| 42> H -3.37869911 -2.3245010794 1.4158590719
| 43> H -5.0747598143 -1.7535969979 1.4318235162
| 44> H -3.5490813475 -2.8292205426 -0.9989890941
| 45> H -4.8212820599 -3.6855184311 -0.1128394849
| 46> H -5.2042943968 -2.2221873135 -1.0375458578
| 47> *
| 48>
| 49>                          ****END OF INPUT****

CARTESIAN COORDINATES (ANGSTROEM)
---------------------------------
  C      5.428891   -1.264709   -0.635339
  C      4.279024   -0.498017   -1.259836
  O      3.144706   -0.569851   -0.376886
  P      2.271420    0.705628    0.025892
  S      3.298017    2.366581    0.181596
  O      1.522115    0.214656    1.327492
  C      2.211877    0.034978    2.586996
  C      2.649738   -1.404858    2.756683
  S      0.648921    0.720190   -1.322792
  C      0.126679   -1.014903   -1.105039
  S     -0.962333   -1.261790    0.308304
  P     -2.590711   -0.107120   -0.437033
  S     -2.831346   -0.224057   -2.378588
  O     -2.392815    1.409701   -0.043032
  C     -2.598215    1.999450    1.261833
  C     -1.591742    1.516388    2.285595
  O     -3.798962   -0.521657    0.506703
  C     -4.178644   -1.875808    0.820762
  C     -4.458491   -2.707757   -0.412731
  H      6.271520   -1.258622   -1.318913
  H      5.726962   -0.795506    0.298805
  H      5.132691   -2.291634   -0.440612
  H      3.977271   -0.936567   -2.213603
  H      4.545467    0.553107   -1.411708
  H      3.060436    0.725750    2.624386
  H      1.477287    0.317407    3.343326
  H      3.383940   -1.670692    2.001008
  H      3.089911   -1.528263    3.741159
  H      1.790395   -2.063023    2.659870
  H      0.998589   -1.645916   -0.954662
  H     -0.410768   -1.273650   -2.017905
  H     -2.489263    3.068316    1.069574
  H     -3.619098    1.780725    1.580168
  H     -1.718761    2.086178    3.200982
  H     -1.739031    0.459776    2.499639
  H     -0.579113    1.662346    1.914399
  H     -3.378699   -2.324501    1.415859
  H     -5.074760   -1.753597    1.431824
  H     -3.549081   -2.829221   -0.998989
  H     -4.821282   -3.685518   -0.112839
  H     -5.204294   -2.222187   -1.037546

 Total Charge           Charge          ....    0
 Multiplicity           Mult            ....    1
 Number of Electrons    NEL             ....  202
 Basis Dimension        Dim             ....  334

ORBITAL ENERGIES
----------------

  NO   OCC          E(Eh)            E(eV)
   0   2.0000     -88.042567     -2395.7600
   1   2.0000     -88.040371     -2395.7003
   2   2.0000     -87.986557     -2394.2359
   3   2.0000     -87.980294     -2394.0655
   4   2.0000     -76.426757     -2079.6778
   5   2.0000     -76.426623     -2079.6741
   6   2.0000     -18.799238      -511.5533
   7   2.0000     -18.797260      -511.4994
   8   2.0000     -18.795047      -511.4392
   9   2.0000     -18.785955      -511.1918
  10   2.0000      -9.962438      -271.0917
  11   2.0000      -9.957804      -270.9656
  12   2.0000      -9.955302      -270.8975
  13   2.0000      -9.955218      -270.8953
  14   2.0000      -9.951629      -270.7976
  15   2.0000      -9.891813      -269.1699
  16   2.0000      -9.890835      -269.1433
  17   2.0000      -9.885190      -268.9897
  18   2.0000      -9.883138      -268.9338
  19   2.0000      -7.687456      -209.1863
  20   2.0000      -7.685521      -209.1337
  21   2.0000      -7.631773      -207.6711
  22   2.0000      -7.625632      -207.5040
  23   2.0000      -6.424629      -174.8230
  24   2.0000      -6.423614      -174.7954
  25   2.0000      -5.715159      -155.5174
  26   2.0000      -5.713712      -155.4780
  27   2.0000      -5.711999      -155.4314
  28   2.0000      -5.709899      -155.3742
  29   2.0000      -5.704582      -155.2296
  30   2.0000      -5.702313      -155.1678
  31   2.0000      -5.660715      -154.0359
  32   2.0000      -5.654711      -153.8725
  33   2.0000      -5.652441      -153.8107
  34   2.0000      -5.651863      -153.7950
  35   2.0000      -5.646252      -153.6423
  36   2.0000      -5.645593      -153.6244
  37   2.0000      -4.647252      -126.4582
  38   2.0000      -4.646721      -126.4437
  39   2.0000      -4.646545      -126.4389
  40   2.0000      -4.645458      -126.4093
  41   2.0000      -4.644816      -126.3919
  42   2.0000      -4.643613      -126.3591
  43   2.0000      -0.990995       -26.9663
  44   2.0000      -0.988850       -26.9080
  45   2.0000      -0.949614       -25.8403
  46   2.0000      -0.942877       -25.6570
  47   2.0000      -0.764339       -20.7987
  48   2.0000      -0.724963       -19.7272
  49   2.0000      -0.711715       -19.3668
  50   2.0000      -0.694371       -18.8948
  51   2.0000      -0.691512       -18.8170
  52   2.0000      -0.675629       -18.3848
  53   2.0000      -0.652201       -17.7473
  54   2.0000      -0.636210       -17.3122
  55   2.0000      -0.599317       -16.3083
  56   2.0000      -0.590985       -16.0815
  57   2.0000      -0.581335       -15.8189
  58   2.0000      -0.573629       -15.6092
  59   2.0000      -0.562150       -15.2969
  60   2.0000      -0.508568       -13.8388
  61   2.0000      -0.499104       -13.5813
  62   2.0000      -0.484747       -13.1906
  63   2.0000      -0.471172       -12.8212
  64   2.0000      -0.465301       -12.6615
  65   2.0000      -0.448375       -12.2009
  66   2.0000      -0.442225       -12.0336
  67   2.0000      -0.434511       -11.8236
  68   2.0000      -0.432416       -11.7666
  69   2.0000      -0.415359       -11.3025
  70   2.0000      -0.412767       -11.2320
  71   2.0000      -0.408735       -11.1223
  72   2.0000      -0.396400       -10.7866
  73   2.0000      -0.387282       -10.5385
  74   2.0000      -0.386075       -10.5056
  75   2.0000      -0.371705       -10.1146
  76   2.0000      -0.363614        -9.8944
  77   2.0000      -0.361030        -9.8241
  78   2.0000      -0.355553        -9.6751
  79   2.0000      -0.353438        -9.6175
  80   2.0000      -0.350876        -9.5478
  81   2.0000      -0.348955        -9.4955
  82   2.0000      -0.341491        -9.2924
  83   2.0000      -0.339524        -9.2389
  84   2.0000      -0.334651        -9.1063
  85   2.0000      -0.324888        -8.8407
  86   2.0000      -0.319738        -8.7005
  87   2.0000      -0.300684        -8.1820
  88   2.0000      -0.297458        -8.0942
  89   2.0000      -0.294095        -8.0027
  90   2.0000      -0.288893        -7.8612
  91   2.0000      -0.281561        -7.6617
  92   2.0000      -0.276242        -7.5169
  93   2.0000      -0.267065        -7.2672
  94   2.0000      -0.256287        -6.9739
  95   2.0000      -0.231745        -6.3061
  96   2.0000      -0.217861        -5.9283
  97   2.0000      -0.206522        -5.6198
  98   2.0000      -0.202117        -5.4999
  99   2.0000      -0.200519        -5.4564
 100   2.0000      -0.193651        -5.2695
 101   0.0000      -0.042940        -1.1685
 102   0.0000      -0.021335        -0.5805
 103   0.0000      -0.011237        -0.3058
 104   0.0000       0.000571         0.0155
 105   0.0000       0.009161         0.2493

MULLIKEN ATOMIC CHARGES
-----------------------
   0 C :   -0.290813
   1 C :   -0.010238
   2 O :   -0.391745
   3 P :    0.604881
   4 S :   -0.320394
   5 O :   -0.366398
   6 C :   -0.006299
   7 C :   -0.303723
   8 S :   -0.042143
   9 C :   -0.370216
  10 S :   -0.103974
  11 P :    0.613316
  12 S :   -0.314168
  13 O :   -0.350830
  14 C :    0.006781
  15 C :   -0.334882
  16 O :   -0.384979
  17 C :   -0.011047
  18 C :   -0.306947
  19 H :    0.115415
  20 H :    0.118910
  21 H :    0.117045
  22 H :    0.103239
  23 H :    0.111110
  24 H :    0.103747
  25 H :    0.109723
  26 H :    0.125014
  27 H :    0.111808
  28 H :    0.115702
  29 H :    0.183848
  30 H :    0.197730
  31 H :    0.111991
  32 H :    0.106557
  33 H :    0.108437
  34 H :    0.112787
  35 H :    0.146206
  36 H :    0.111511
  37 H :    0.108964
  38 H :    0.125311
  39 H :    0.110847
  40 H :    0.127914
Sum of atomic charges:    0.0000000

LOEWDIN ATOMIC CHARGES
----------------------
   0 C :   -0.353680
   1 C :   -0.120955
   2 O :   -0.254062
   3 P :    0.558722
   4 S :   -0.323740
   5 O :   -0.238282
   6 C :   -0.114115
   7 C :   -0.361602
   8 S :    0.103300
   9 C :   -0.484178
  10 S :    0.074329
  11 P :    0.568641
  12 S :   -0.309460
  13 O :   -0.232389
  14 C :   -0.108306
  15 C :   -0.371541
  16 O :   -0.245534
  17 C :   -0.114392
  18 C :   -0.368713
  19 H :    0.132054
  20 H :    0.126816
  21 H :    0.124507
  22 H :    0.113832
  23 H :    0.108498
  24 H :    0.109261
  25 H :    0.119354
  26 H :    0.124929
  27 H :    0.130344
  28 H :    0.125789
  29 H :    0.131217
  30 H :    0.130661
  31 H :    0.123872
  32 H :    0.112046
  33 H :    0.128487
  34 H :    0.113177
  35 H :    0.130431
  36 H :    0.106908
  37 H :    0.120962
  38 H :    0.121414
  39 H :    0.129990
  40 H :    0.131407

  Mayer bond orders larger than 0.100000
B(  0-C ,  1-C ) :   1.1656 B(  0-C , 19-H ) :   0.9411 B(  0-C , 20-H ) :   0.9471
B(  0-C , 21-H ) :   0.9485 B(  1-C ,  2-O ) :   0.9068 B(  1-C , 22-H ) :   0.9323
B(  1-C , 23-H ) :   0.8998 B(  2-O ,  3-P ) :   1.0486 B(  3-P ,  4-S ) :   1.6603
B(  3-P ,  5-O ) :   1.1052 B(  3-P ,  8-S ) :   0.9955 B(  5-O ,  6-C ) :   0.8963
B(  6-C ,  7-C ) :   1.1681 B(  6-C , 24-H ) :   0.9087 B(  6-C , 25-H ) :   0.9330
B(  7-C , 26-H ) :   0.9405 B(  7-C , 27-H ) :   0.9398 B(  7-C , 28-H ) :   0.9466
B(  8-S ,  9-C ) :   0.9856 B(  9-C , 10-S ) :   1.0089 B(  9-C , 29-H ) :   0.8896
B(  9-C , 30-H ) :   0.8717 B( 10-S , 11-P ) :   0.9381 B( 10-S , 12-S ) :   0.1126
B( 11-P , 12-S ) :   1.6388 B( 11-P , 13-O ) :   1.1379 B( 11-P , 16-O ) :   1.0797
B( 13-O , 14-C ) :   0.9029 B( 14-C , 15-C ) :   1.1700 B( 14-C , 31-H ) :   0.9335
B( 14-C , 32-H ) :   0.9278 B( 15-C , 33-H ) :   0.9359 B( 15-C , 34-H ) :   0.9416
B( 15-C , 35-H ) :   0.9299 B( 16-O , 17-C ) :   0.9112 B( 17-C , 18-C ) :   1.1678
B( 17-C , 36-H ) :   0.9255 B( 17-C , 37-H ) :   0.9333 B( 18-C , 38-H ) :   0.9315
B( 18-C , 39-H ) :   0.9349 B( 18-C , 40-H ) :   0.9433

Dispersion correction           -0.064473828
FINAL SINGLE POINT ENERGY     -2929.515425352261

DIPOLE MOMENT
-------------

Method             : SCF
Type of density    : Electron Density
Multiplicity       :   1
Irrep              :   0
Energy             : -2929.6367717878301846 Eh
Relativity type    :
Basis              : AO
                                X                 Y                 Z
Electronic contribution:     -6.468905971      13.631927982     -15.019426562
Nuclear contribution   :      6.703806852     -15.232430299      16.687454366
                        -----------------------------------------
Total Dipole Moment    :      0.234900880      -1.600502317       1.668027805
                        -----------------------------------------
Magnitude (a.u.)       :      2.323596963
Magnitude (Debye)      :      5.906114114

Rotational constants in cm-1:             0.013300             0.004492             0.004384
Rotational constants in MHz :           398.714016           134.661345           131.415068

                             ****ORCA TERMINATED NORMALLY****
TOTAL RUN TIME: 0 days 0 hours 0 minutes 21 seconds 234 msec
