                         Program Version 6.0.0  -   RELEASE  -
|  1> ! pbe def2-sv(p) def2/J RI DEFGRID1 loosescf d4 GCP(DFT/SV(P)) printgap
|  2> %output
|  3>     printlevel normal
|  4> end
|  5> * xyz 0 1
|  6> C 0.536472896 -1.2767671906 -5.22613e-05
|  7> C -0.8374864105 -1.1029805842 5.3344e-05
|  8> C -1.3739762344 0.1737840714 8.52645e-05
|  9> C -0.5364807747 1.2767656672 -7.67598e-05
| 10> C 0.8374847972 1.1029839252 -2.96572e-05
| 11> C 1.3739855809 -0.1737867273 4.35588e-05
| 12> H 0.9547826783 -2.2723959162 -0.0001280656
| 13> H -1.4905511011 -1.9631118663 -0.0002657168
| 14> H -2.4454480121 0.3093026168 -0.0003098617
| 15> H -0.9548052879 2.2724539764 0.0001644073
| 16> H 1.49058238 1.9630918925 0.0001615329
| 17> H 2.4454410761 -0.3093307144 9.78056e-05
| 18> *
| 19>
| 20>                          ****END OF INPUT****

CARTESIAN COORDINATES (ANGSTROEM)
---------------------------------
  C      0.536473   -1.276767   -0.000052
  C     -0.837486   -1.102981    0.000053
  C     -1.373976    0.173784    0.000085
  C     -0.536481    1.276766   -0.000077
  C      0.837485    1.102984   -0.000030
  C      1.373986   -0.173787    0.000044
  H      0.954783   -2.272396   -0.000128
  H     -1.490551   -1.963112   -0.000266
  H     -2.445448    0.309303   -0.000310
  H     -0.954805    2.272454    0.000164
  H      1.490582    1.963092    0.000162
  H      2.445441   -0.309331    0.000098

 Total Charge           Charge          ....    0
 Multiplicity           Mult            ....    1
 Number of Electrons    NEL             ....   42
 Basis Dimension        Dim             ....   96

ORBITAL ENERGIES
----------------

  NO   OCC          E(Eh)            E(eV)
   0   2.0000      -9.892033      -269.1759
   1   2.0000      -9.891919      -269.1728
   2   2.0000      -9.891914      -269.1727
   3   2.0000      -9.891647      -269.1654
   4   2.0000      -9.891642      -269.1653
   5   2.0000      -9.891586      -269.1637
   6   2.0000      -0.773858       -21.0577
   7   2.0000      -0.669179       -18.2093
   8   2.0000      -0.669172       -18.2091
   9   2.0000      -0.538592       -14.6558
  10   2.0000      -0.538586       -14.6557
  11   2.0000      -0.474218       -12.9041
  12   2.0000      -0.405784       -11.0419
  13   2.0000      -0.399464       -10.8700
  14   2.0000      -0.374820       -10.1994
  15   2.0000      -0.374805       -10.1990
  16   2.0000      -0.331918        -9.0320
  17   2.0000      -0.300324        -8.1722
  18   2.0000      -0.300319        -8.1721
  19   2.0000      -0.229279        -6.2390
  20   2.0000      -0.229265        -6.2386
  21   0.0000      -0.033548        -0.9129
  22   0.0000      -0.033535        -0.9125
  23   0.0000       0.039030         1.0621
  24   0.0000       0.080942         2.2025
  25   0.0000       0.080997         2.2040

MULLIKEN ATOMIC CHARGES
-----------------------
   0 C :   -0.054369
   1 C :   -0.053637
   2 C :   -0.054176
   3 C :   -0.054376
   4 C :   -0.053643
   5 C :   -0.054173
   6 H :    0.054017
   7 H :    0.054023
   8 H :    0.054137
   9 H :    0.054043
  10 H :    0.054023
  11 H :    0.054131
Sum of atomic charges:    0.0000000

LOEWDIN ATOMIC CHARGES
----------------------
   0 C :   -0.123235
   1 C :   -0.123125
   2 C :   -0.123202
   3 C :   -0.123230
   4 C :   -0.123125
   5 C :   -0.123202
   6 H :    0.123184
   7 H :    0.123180
   8 H :    0.123196
   9 H :    0.123183
  10 H :    0.123179
  11 H :    0.123197

  Mayer bond orders larger than 0.100000
B(  0-C ,  1-C ) :   1.3903 B(  0-C ,  5-C ) :   1.3905 B(  0-C ,  6-H ) :   0.9644
B(  1-C ,  2-C ) :   1.3902 B(  1-C ,  7-H ) :   0.9644 B(  2-C ,  3-C ) :   1.3905
B(  2-C ,  8-H ) :   0.9644 B(  3-C ,  4-C ) :   1.3902 B(  3-C ,  9-H ) :   0.9644
B(  4-C ,  5-C ) :   1.3902 B(  4-C , 10-H ) :   0.9644 B(  5-C , 11-H ) :   0.9644

Dispersion correction           -0.010829282
FINAL SINGLE POINT ENERGY      -231.724099511249

DIPOLE MOMENT
-------------

Method             : SCF
Type of density    : Electron Density
Multiplicity       :   1
Irrep              :   0
Energy             :  -231.7559274139897525 Eh
Relativity type    :
Basis              : AO
                                X                 Y                 Z
Electronic contribution:      0.000009850      -0.000023962       0.000196943
Nuclear contribution   :      0.000001626       0.000009371      -0.000262593
                        -----------------------------------------
Total Dipole Moment    :      0.000011477      -0.000014591      -0.000065650
                        -----------------------------------------
Magnitude (a.u.)       :      0.000068225
Magnitude (Debye)      :      0.000173413

Rotational constants in cm-1:             0.192700             0.192693             0.096348
Rotational constants in MHz :          5776.985739          5776.777848          2888.440912

                             ****ORCA TERMINATED NORMALLY****
TOTAL RUN TIME: 0 days 0 hours 0 minutes 5 seconds 85 msec
