                         Program Version 6.0.0  -   RELEASE  -
|  1> ! pbe def2-sv(p) def2/J RI DEFGRID1 loosescf d4 GCP(DFT/SV(P)) printgap
|  2> %output
|  3>     printlevel normal
|  4> end
|  5> * xyz 0 1
|  6> C 1.4248543854 1.9419921356 2.5171725486
|  7> C 2.8974193257 1.6183831401 2.3665302763
|  8> O 3.2429850189 1.2825747338 1.0095674472
|  9> P 2.8608091976 -0.1093582304 0.3603385818
| 10> S 2.8966386633 -1.6587505972 1.5687377935
| 11> O 3.9738072755 -0.0730516039 -0.7662662138
| 12> C 4.4069978651 -1.2575782694 -1.4573779566
| 13> C 3.3181482595 -1.8589403867 -2.3242334263
| 14> S 1.0395598504 0.2199096358 -0.7068424066
| 15> C -0.0278795856 -1.0077096427 0.1070271311
| 16> S -1.3843436752 -0.2528445127 1.018548268
| 17> P -2.6402440002 0.0861554445 -0.6761595466
| 18> S -2.5918055812 -1.3554546547 -2.0025365604
| 19> O -2.2280945911 1.4275207505 -1.3935651015
| 20> C -2.4166471957 2.7752774921 -0.8988763767
| 21> C -1.3528784253 3.1624459607 0.108341366
| 22> O -4.0323641374 0.4837636899 -0.0242150821
| 23> C -4.6903747367 -0.2407787778 1.0325063652
| 24> C -4.9174481683 -1.6976322719 0.6884290219
| 25> H 1.137476119 2.7176309677 1.8126291679
| 26> H 0.8205183171 1.0534837109 2.3349724607
| 27> H 1.2366450497 2.2881165374 3.5283405267
| 28> H 3.1795697273 0.7831581522 3.0159786959
| 29> H 3.5225921426 2.4846320859 2.5875555829
| 30> H 5.2510542174 -0.913872028 -2.0570106708
| 31> H 4.7515992842 -1.9856464791 -0.7158808041
| 32> H 2.5212086757 -2.2639848041 -1.7010161838
| 33> H 2.898315364 -1.1045930721 -2.9855181754
| 34> H 3.737578789 -2.6640464355 -2.9192349602
| 35> H 0.5706045006 -1.584000193 0.8169197052
| 36> H -0.4544850308 -1.6496353216 -0.6664392963
| 37> H -2.3474958326 3.3834165537 -1.8024120195
| 38> H -3.4181174043 2.8554529993 -0.4731033713
| 39> H -1.4367802359 4.2239445491 0.3198958384
| 40> H -1.4773588385 2.6053365167 1.0338762068
| 41> H -0.3668136278 2.9552589157 -0.3020140517
| 42> H -4.0860450316 -0.1468442515 1.9387288408
| 43> H -5.635181934 0.2912601456 1.1572532757
| 44> H -5.4573557069 -1.7864343771 -0.2514057266
| 45> H -3.9638118349 -2.2134015394 0.5852084931
| 46> H -5.4911487261 -2.1701505786 1.4791163225
| 47> *
| 48>
| 49>                          ****END OF INPUT****

CARTESIAN COORDINATES (ANGSTROEM)
---------------------------------
  C      1.424854    1.941992    2.517173
  C      2.897419    1.618383    2.366530
  O      3.242985    1.282575    1.009567
  P      2.860809   -0.109358    0.360339
  S      2.896639   -1.658751    1.568738
  O      3.973807   -0.073052   -0.766266
  C      4.406998   -1.257578   -1.457378
  C      3.318148   -1.858940   -2.324233
  S      1.039560    0.219910   -0.706842
  C     -0.027880   -1.007710    0.107027
  S     -1.384344   -0.252845    1.018548
  P     -2.640244    0.086155   -0.676160
  S     -2.591806   -1.355455   -2.002537
  O     -2.228095    1.427521   -1.393565
  C     -2.416647    2.775277   -0.898876
  C     -1.352878    3.162446    0.108341
  O     -4.032364    0.483764   -0.024215
  C     -4.690375   -0.240779    1.032506
  C     -4.917448   -1.697632    0.688429
  H      1.137476    2.717631    1.812629
  H      0.820518    1.053484    2.334972
  H      1.236645    2.288117    3.528341
  H      3.179570    0.783158    3.015979
  H      3.522592    2.484632    2.587556
  H      5.251054   -0.913872   -2.057011
  H      4.751599   -1.985646   -0.715881
  H      2.521209   -2.263985   -1.701016
  H      2.898315   -1.104593   -2.985518
  H      3.737579   -2.664046   -2.919235
  H      0.570605   -1.584000    0.816920
  H     -0.454485   -1.649635   -0.666439
  H     -2.347496    3.383417   -1.802412
  H     -3.418117    2.855453   -0.473103
  H     -1.436780    4.223945    0.319896
  H     -1.477359    2.605337    1.033876
  H     -0.366814    2.955259   -0.302014
  H     -4.086045   -0.146844    1.938729
  H     -5.635182    0.291260    1.157253
  H     -5.457356   -1.786434   -0.251406
  H     -3.963812   -2.213402    0.585208
  H     -5.491149   -2.170151    1.479116

 Total Charge           Charge          ....    0
 Multiplicity           Mult            ....    1
 Number of Electrons    NEL             ....  202
 Basis Dimension        Dim             ....  334

ORBITAL ENERGIES
----------------

  NO   OCC          E(Eh)            E(eV)
   0   2.0000     -88.047612     -2395.8973
   1   2.0000     -88.042941     -2395.7702
   2   2.0000     -87.996713     -2394.5123
   3   2.0000     -87.982844     -2394.1349
   4   2.0000     -76.429413     -2079.7501
   5   2.0000     -76.428695     -2079.7305
   6   2.0000     -18.800964      -511.6002
   7   2.0000     -18.791986      -511.3559
   8   2.0000     -18.790576      -511.3176
   9   2.0000     -18.790077      -511.3040
  10   2.0000      -9.963849      -271.1301
  11   2.0000      -9.956323      -270.9253
  12   2.0000      -9.953996      -270.8620
  13   2.0000      -9.952876      -270.8315
  14   2.0000      -9.949673      -270.7444
  15   2.0000      -9.886238      -269.0182
  16   2.0000      -9.886019      -269.0123
  17   2.0000      -9.885905      -269.0092
  18   2.0000      -9.882417      -268.9142
  19   2.0000      -7.691995      -209.3098
  20   2.0000      -7.687581      -209.1897
  21   2.0000      -7.641486      -207.9354
  22   2.0000      -7.628128      -207.5719
  23   2.0000      -6.426988      -174.8872
  24   2.0000      -6.425964      -174.8594
  25   2.0000      -5.719557      -155.6371
  26   2.0000      -5.716630      -155.5574
  27   2.0000      -5.715373      -155.5232
  28   2.0000      -5.712149      -155.4355
  29   2.0000      -5.709282      -155.3575
  30   2.0000      -5.704635      -155.2310
  31   2.0000      -5.670159      -154.2929
  32   2.0000      -5.662130      -154.0744
  33   2.0000      -5.661899      -154.0681
  34   2.0000      -5.657241      -153.9414
  35   2.0000      -5.648731      -153.7098
  36   2.0000      -5.648074      -153.6919
  37   2.0000      -4.649106      -126.5086
  38   2.0000      -4.649001      -126.5058
  39   2.0000      -4.648925      -126.5037
  40   2.0000      -4.647822      -126.4737
  41   2.0000      -4.647625      -126.4683
  42   2.0000      -4.645919      -126.4219
  43   2.0000      -0.992348       -27.0031
  44   2.0000      -0.989524       -26.9263
  45   2.0000      -0.947723       -25.7888
  46   2.0000      -0.945555       -25.7299
  47   2.0000      -0.763464       -20.7749
  48   2.0000      -0.723501       -19.6875
  49   2.0000      -0.713864       -19.4252
  50   2.0000      -0.693980       -18.8842
  51   2.0000      -0.683692       -18.6042
  52   2.0000      -0.681858       -18.5543
  53   2.0000      -0.653827       -17.7915
  54   2.0000      -0.639296       -17.3961
  55   2.0000      -0.605156       -16.4671
  56   2.0000      -0.592645       -16.1267
  57   2.0000      -0.582924       -15.8622
  58   2.0000      -0.570242       -15.5171
  59   2.0000      -0.560280       -15.2460
  60   2.0000      -0.503314       -13.6959
  61   2.0000      -0.495868       -13.4933
  62   2.0000      -0.474996       -12.9253
  63   2.0000      -0.467407       -12.7188
  64   2.0000      -0.460962       -12.5434
  65   2.0000      -0.449618       -12.2347
  66   2.0000      -0.443045       -12.0559
  67   2.0000      -0.439555       -11.9609
  68   2.0000      -0.430005       -11.7010
  69   2.0000      -0.422265       -11.4904
  70   2.0000      -0.414665       -11.2836
  71   2.0000      -0.405486       -11.0338
  72   2.0000      -0.398412       -10.8413
  73   2.0000      -0.391713       -10.6591
  74   2.0000      -0.387756       -10.5514
  75   2.0000      -0.374216       -10.1829
  76   2.0000      -0.359397        -9.7797
  77   2.0000      -0.358507        -9.7555
  78   2.0000      -0.353665        -9.6237
  79   2.0000      -0.350801        -9.5458
  80   2.0000      -0.347113        -9.4454
  81   2.0000      -0.344591        -9.3768
  82   2.0000      -0.343588        -9.3495
  83   2.0000      -0.342486        -9.3195
  84   2.0000      -0.337526        -9.1845
  85   2.0000      -0.326393        -8.8816
  86   2.0000      -0.311076        -8.4648
  87   2.0000      -0.302095        -8.2204
  88   2.0000      -0.301069        -8.1925
  89   2.0000      -0.293524        -7.9872
  90   2.0000      -0.290125        -7.8947
  91   2.0000      -0.279894        -7.6163
  92   2.0000      -0.268718        -7.3122
  93   2.0000      -0.267475        -7.2784
  94   2.0000      -0.258405        -7.0316
  95   2.0000      -0.233046        -6.3415
  96   2.0000      -0.222793        -6.0625
  97   2.0000      -0.216787        -5.8991
  98   2.0000      -0.210588        -5.7304
  99   2.0000      -0.202024        -5.4974
 100   2.0000      -0.195314        -5.3148
 101   0.0000      -0.045217        -1.2304
 102   0.0000      -0.037120        -1.0101
 103   0.0000      -0.016574        -0.4510
 104   0.0000      -0.001098        -0.0299
 105   0.0000       0.009502         0.2586

MULLIKEN ATOMIC CHARGES
-----------------------
   0 C :   -0.330560
   1 C :    0.001113
   2 O :   -0.357047
   3 P :    0.597468
   4 S :   -0.329607
   5 O :   -0.359422
   6 C :    0.002156
   7 C :   -0.317690
   8 S :   -0.077829
   9 C :   -0.371749
  10 S :   -0.120987
  11 P :    0.614374
  12 S :   -0.307234
  13 O :   -0.351555
  14 C :    0.004275
  15 C :   -0.339853
  16 O :   -0.384578
  17 C :   -0.013098
  18 C :   -0.308721
  19 H :    0.130508
  20 H :    0.125929
  21 H :    0.110251
  22 H :    0.112531
  23 H :    0.107132
  24 H :    0.108198
  25 H :    0.111503
  26 H :    0.124502
  27 H :    0.125030
  28 H :    0.113685
  29 H :    0.192203
  30 H :    0.198928
  31 H :    0.110321
  32 H :    0.107491
  33 H :    0.109390
  34 H :    0.129178
  35 H :    0.139843
  36 H :    0.114644
  37 H :    0.110234
  38 H :    0.128248
  39 H :    0.128065
  40 H :    0.112737
Sum of atomic charges:   -0.0000000

LOEWDIN ATOMIC CHARGES
----------------------
   0 C :   -0.367462
   1 C :   -0.116177
   2 O :   -0.237353
   3 P :    0.574051
   4 S :   -0.307647
   5 O :   -0.236971
   6 C :   -0.115056
   7 C :   -0.369034
   8 S :    0.088361
   9 C :   -0.494797
  10 S :    0.076645
  11 P :    0.567874
  12 S :   -0.303038
  13 O :   -0.233767
  14 C :   -0.109392
  15 C :   -0.372061
  16 O :   -0.244266
  17 C :   -0.114230
  18 C :   -0.368579
  19 H :    0.127757
  20 H :    0.113407
  21 H :    0.130408
  22 H :    0.109738
  23 H :    0.120054
  24 H :    0.120553
  25 H :    0.111398
  26 H :    0.120672
  27 H :    0.127246
  28 H :    0.131124
  29 H :    0.123282
  30 H :    0.124861
  31 H :    0.122718
  32 H :    0.111912
  33 H :    0.128852
  34 H :    0.117479
  35 H :    0.126309
  36 H :    0.108290
  37 H :    0.121592
  38 H :    0.131568
  39 H :    0.122750
  40 H :    0.130929

  Mayer bond orders larger than 0.100000
B(  0-C ,  1-C ) :   1.1600 B(  0-C , 19-H ) :   0.9385 B(  0-C , 20-H ) :   0.9337
B(  0-C , 21-H ) :   0.9374 B(  1-C ,  2-O ) :   0.9159 B(  1-C , 22-H ) :   0.9148
B(  1-C , 23-H ) :   0.9332 B(  2-O ,  3-P ) :   1.1283 B(  3-P ,  4-S ) :   1.5747
B(  3-P ,  5-O ) :   1.1324 B(  3-P ,  8-S ) :   0.9548 B(  4-S ,  8-S ) :   0.1235
B(  4-S , 29-H ) :   0.1178 B(  5-O ,  6-C ) :   0.9129 B(  6-C ,  7-C ) :   1.1628
B(  6-C , 24-H ) :   0.9344 B(  6-C , 25-H ) :   0.9202 B(  7-C , 26-H ) :   0.9396
B(  7-C , 27-H ) :   0.9424 B(  7-C , 28-H ) :   0.9373 B(  8-S ,  9-C ) :   1.0021
B(  9-C , 10-S ) :   1.0120 B(  9-C , 29-H ) :   0.8496 B(  9-C , 30-H ) :   0.8542
B( 10-S , 11-P ) :   0.9292 B( 10-S , 12-S ) :   0.1121 B( 11-P , 12-S ) :   1.6451
B( 11-P , 13-O ) :   1.1432 B( 11-P , 16-O ) :   1.0858 B( 12-S , 30-H ) :   0.1093
B( 13-O , 14-C ) :   0.9005 B( 14-C , 15-C ) :   1.1660 B( 14-C , 31-H ) :   0.9341
B( 14-C , 32-H ) :   0.9237 B( 15-C , 33-H ) :   0.9365 B( 15-C , 34-H ) :   0.9373
B( 15-C , 35-H ) :   0.9340 B( 16-O , 17-C ) :   0.9093 B( 17-C , 18-C ) :   1.1671
B( 17-C , 36-H ) :   0.9260 B( 17-C , 37-H ) :   0.9330 B( 18-C , 38-H ) :   0.9433
B( 18-C , 39-H ) :   0.9316 B( 18-C , 40-H ) :   0.9348

Dispersion correction           -0.064381917
FINAL SINGLE POINT ENERGY     -2929.516785983588

DIPOLE MOMENT
-------------

Method             : SCF
Type of density    : Electron Density
Multiplicity       :   1
Irrep              :   0
Energy             : -2929.6370765799556466 Eh
Relativity type    :
Basis              : AO
                                X                 Y                 Z
Electronic contribution:      4.004939390      -5.764191845      -5.693384002
Nuclear contribution   :     -4.410501868       6.871606811       6.588265679
                        -----------------------------------------
Total Dipole Moment    :     -0.405562477       1.107414966       0.894881677
                        -----------------------------------------
Magnitude (a.u.)       :      1.480426305
Magnitude (Debye)      :      3.762944622

Rotational constants in cm-1:             0.012362             0.004496             0.004139
Rotational constants in MHz :           370.589752           134.771986           124.079207

                             ****ORCA TERMINATED NORMALLY****
TOTAL RUN TIME: 0 days 0 hours 0 minutes 21 seconds 11 msec
