                         Program Version 6.0.0  -   RELEASE  -
|  1> ! pbe def2-sv(p) def2/J RI DEFGRID1 loosescf d4 GCP(DFT/SV(P)) printgap
|  2> %output
|  3>     printlevel normal
|  4> end
|  5> * xyz 0 1
|  6> C 1.6547471116 -2.6968412704 1.5528153419
|  7> C 1.8529027826 -1.2621858449 1.9976595701
|  8> O 2.906011874 -0.5991372209 1.2785262373
|  9> P 2.839277362 -0.1843276206 -0.2581938577
| 10> S 3.0011273242 -1.5971119016 -1.6056536916
| 11> O 4.0702593146 0.7883881221 -0.3690938836
| 12> C 4.5156506728 1.721164773 0.6457139994
| 13> C 3.5151564778 2.8306744957 0.889895314
| 14> S 1.0647158137 1.0126318567 -0.4327099016
| 15> C 0.0707702465 -0.0953647628 -1.4577885849
| 16> S -1.0443483948 -1.1357505936 -0.493142306
| 17> P -2.5270561482 0.3712287379 -0.1749113799
| 18> S -2.8432153613 1.5773228733 -1.6835818684
| 19> O -2.0574997858 1.2153475227 1.0694655136
| 20> C -1.8101114074 0.6479975206 2.3795082543
| 21> C -2.9942724004 0.8868175911 3.2939436915
| 22> O -3.746986129 -0.4549788032 0.4169823215
| 23> C -4.3058404539 -1.6450951642 -0.1706134514
| 24> C -4.7168705808 -1.4486317448 -1.6144495674
| 25> H 0.935781082 -3.1789889687 2.2070440385
| 26> H 1.2787030502 -2.7324669464 0.5317230659
| 27> H 2.5972608735 -3.2365806797 1.5924199096
| 28> H 2.1797470842 -1.2104468073 3.0377950041
| 29> H 0.9303312003 -0.6871721585 1.871409672
| 30> H 4.7157923531 1.161784245 1.5610577249
| 31> H 5.4490216967 2.1076204593 0.2336353008
| 32> H 2.596365972 2.429352259 1.3140230961
| 33> H 3.9413478384 3.5474031486 1.5850769666
| 34> H 3.2737313541 3.3364007813 -0.0417498003
| 35> H 0.7393345049 -0.7579341142 -2.0129006908
| 36> H -0.5252388984 0.5270236076 -2.1274324576
| 37> H -1.6041080515 -0.4209683112 2.2724452939
| 38> H -0.9201959129 1.1679782388 2.7396672364
| 39> H -2.7632483186 0.5047465519 4.2833220464
| 40> H -3.2044284186 1.9507234879 3.3589049386
| 41> H -3.8750927447 0.3805458369 2.9082812536
| 42> H -3.5674334678 -2.4470071184 -0.0847215727
| 43> H -5.168044432 -1.8635151702 0.4618832164
| 44> H -5.3960476164 -0.6040717913 -1.7049180798
| 45> H -3.8417805557 -1.2511511179 -2.2323341004
| 46> H -5.2084054725 -2.3461572344 -1.975817022
| 47> *
| 48>
| 49>                          ****END OF INPUT****

CARTESIAN COORDINATES (ANGSTROEM)
---------------------------------
  C      1.654747   -2.696841    1.552815
  C      1.852903   -1.262186    1.997660
  O      2.906012   -0.599137    1.278526
  P      2.839277   -0.184328   -0.258194
  S      3.001127   -1.597112   -1.605654
  O      4.070259    0.788388   -0.369094
  C      4.515651    1.721165    0.645714
  C      3.515156    2.830674    0.889895
  S      1.064716    1.012632   -0.432710
  C      0.070770   -0.095365   -1.457789
  S     -1.044348   -1.135751   -0.493142
  P     -2.527056    0.371229   -0.174911
  S     -2.843215    1.577323   -1.683582
  O     -2.057500    1.215348    1.069466
  C     -1.810111    0.647998    2.379508
  C     -2.994272    0.886818    3.293944
  O     -3.746986   -0.454979    0.416982
  C     -4.305840   -1.645095   -0.170613
  C     -4.716871   -1.448632   -1.614450
  H      0.935781   -3.178989    2.207044
  H      1.278703   -2.732467    0.531723
  H      2.597261   -3.236581    1.592420
  H      2.179747   -1.210447    3.037795
  H      0.930331   -0.687172    1.871410
  H      4.715792    1.161784    1.561058
  H      5.449022    2.107620    0.233635
  H      2.596366    2.429352    1.314023
  H      3.941348    3.547403    1.585077
  H      3.273731    3.336401   -0.041750
  H      0.739335   -0.757934   -2.012901
  H     -0.525239    0.527024   -2.127432
  H     -1.604108   -0.420968    2.272445
  H     -0.920196    1.167978    2.739667
  H     -2.763248    0.504747    4.283322
  H     -3.204428    1.950723    3.358905
  H     -3.875093    0.380546    2.908281
  H     -3.567433   -2.447007   -0.084722
  H     -5.168044   -1.863515    0.461883
  H     -5.396048   -0.604072   -1.704918
  H     -3.841781   -1.251151   -2.232334
  H     -5.208405   -2.346157   -1.975817

 Total Charge           Charge          ....    0
 Multiplicity           Mult            ....    1
 Number of Electrons    NEL             ....  202
 Basis Dimension        Dim             ....  334

ORBITAL ENERGIES
----------------

  NO   OCC          E(Eh)            E(eV)
   0   2.0000     -88.047669     -2395.8989
   1   2.0000     -88.043761     -2395.7925
   2   2.0000     -87.985955     -2394.2196
   3   2.0000     -87.985928     -2394.2188
   4   2.0000     -76.430073     -2079.7680
   5   2.0000     -76.428599     -2079.7279
   6   2.0000     -18.801827      -511.6237
   7   2.0000     -18.796776      -511.4863
   8   2.0000     -18.794553      -511.4258
   9   2.0000     -18.794115      -511.4139
  10   2.0000      -9.964570      -271.1497
  11   2.0000      -9.961439      -271.0645
  12   2.0000      -9.960088      -271.0278
  13   2.0000      -9.959093      -271.0007
  14   2.0000      -9.948672      -270.7171
  15   2.0000      -9.893821      -269.2246
  16   2.0000      -9.891519      -269.1619
  17   2.0000      -9.886792      -269.0333
  18   2.0000      -9.883820      -268.9524
  19   2.0000      -7.692200      -209.3154
  20   2.0000      -7.688107      -209.2040
  21   2.0000      -7.631222      -207.6561
  22   2.0000      -7.631130      -207.6536
  23   2.0000      -6.427463      -174.9002
  24   2.0000      -6.425903      -174.8577
  25   2.0000      -5.719726      -155.6416
  26   2.0000      -5.716737      -155.5603
  27   2.0000      -5.715929      -155.5383
  28   2.0000      -5.712600      -155.4477
  29   2.0000      -5.709625      -155.3668
  30   2.0000      -5.705317      -155.2496
  31   2.0000      -5.660358      -154.0262
  32   2.0000      -5.660184      -154.0214
  33   2.0000      -5.651764      -153.7923
  34   2.0000      -5.651627      -153.7886
  35   2.0000      -5.651225      -153.7777
  36   2.0000      -5.651199      -153.7770
  37   2.0000      -4.650407      -126.5440
  38   2.0000      -4.649439      -126.5177
  39   2.0000      -4.648813      -126.5006
  40   2.0000      -4.647651      -126.4690
  41   2.0000      -4.647383      -126.4617
  42   2.0000      -4.646097      -126.4267
  43   2.0000      -0.994707       -27.0673
  44   2.0000      -0.991646       -26.9841
  45   2.0000      -0.951080       -25.8802
  46   2.0000      -0.947220       -25.7752
  47   2.0000      -0.764227       -20.7957
  48   2.0000      -0.725795       -19.7499
  49   2.0000      -0.716863       -19.5068
  50   2.0000      -0.696704       -18.9583
  51   2.0000      -0.694470       -18.8975
  52   2.0000      -0.680394       -18.5145
  53   2.0000      -0.653263       -17.7762
  54   2.0000      -0.639910       -17.4128
  55   2.0000      -0.596393       -16.2287
  56   2.0000      -0.593341       -16.1456
  57   2.0000      -0.584590       -15.9075
  58   2.0000      -0.580466       -15.7953
  59   2.0000      -0.565359       -15.3842
  60   2.0000      -0.509212       -13.8564
  61   2.0000      -0.500988       -13.6326
  62   2.0000      -0.480673       -13.0798
  63   2.0000      -0.476832       -12.9753
  64   2.0000      -0.461590       -12.5605
  65   2.0000      -0.452502       -12.3132
  66   2.0000      -0.446112       -12.1393
  67   2.0000      -0.441905       -12.0248
  68   2.0000      -0.431244       -11.7347
  69   2.0000      -0.426207       -11.5977
  70   2.0000      -0.415626       -11.3098
  71   2.0000      -0.408114       -11.1053
  72   2.0000      -0.402566       -10.9544
  73   2.0000      -0.393930       -10.7194
  74   2.0000      -0.384721       -10.4688
  75   2.0000      -0.369938       -10.0665
  76   2.0000      -0.361979        -9.8499
  77   2.0000      -0.360584        -9.8120
  78   2.0000      -0.358033        -9.7426
  79   2.0000      -0.356388        -9.6978
  80   2.0000      -0.351072        -9.5532
  81   2.0000      -0.349392        -9.5074
  82   2.0000      -0.346620        -9.4320
  83   2.0000      -0.342356        -9.3160
  84   2.0000      -0.339269        -9.2320
  85   2.0000      -0.327540        -8.9128
  86   2.0000      -0.314435        -8.5562
  87   2.0000      -0.302619        -8.2347
  88   2.0000      -0.301571        -8.2062
  89   2.0000      -0.294792        -8.0217
  90   2.0000      -0.294376        -8.0104
  91   2.0000      -0.283577        -7.7165
  92   2.0000      -0.279622        -7.6089
  93   2.0000      -0.268323        -7.3014
  94   2.0000      -0.259113        -7.0508
  95   2.0000      -0.240578        -6.5464
  96   2.0000      -0.222195        -6.0462
  97   2.0000      -0.209161        -5.6916
  98   2.0000      -0.201916        -5.4944
  99   2.0000      -0.200697        -5.4613
 100   2.0000      -0.198674        -5.4062
 101   0.0000      -0.045557        -1.2397
 102   0.0000      -0.032376        -0.8810
 103   0.0000      -0.013120        -0.3570
 104   0.0000      -0.001123        -0.0306
 105   0.0000       0.006879         0.1872

MULLIKEN ATOMIC CHARGES
-----------------------
   0 C :   -0.300229
   1 C :   -0.037367
   2 O :   -0.381329
   3 P :    0.613528
   4 S :   -0.304389
   5 O :   -0.357217
   6 C :    0.002355
   7 C :   -0.330195
   8 S :   -0.111953
   9 C :   -0.351591
  10 S :   -0.121196
  11 P :    0.593146
  12 S :   -0.299489
  13 O :   -0.346755
  14 C :   -0.033881
  15 C :   -0.272926
  16 O :   -0.381771
  17 C :   -0.012731
  18 C :   -0.309655
  19 H :    0.104396
  20 H :    0.128269
  21 H :    0.120827
  22 H :    0.102402
  23 H :    0.126067
  24 H :    0.111475
  25 H :    0.113658
  26 H :    0.127406
  27 H :    0.118095
  28 H :    0.133339
  29 H :    0.195461
  30 H :    0.197033
  31 H :    0.104583
  32 H :    0.115543
  33 H :    0.107764
  34 H :    0.121685
  35 H :    0.120607
  36 H :    0.114600
  37 H :    0.109874
  38 H :    0.128313
  39 H :    0.128733
  40 H :    0.113517
Sum of atomic charges:    0.0000000

LOEWDIN ATOMIC CHARGES
----------------------
   0 C :   -0.366929
   1 C :   -0.122403
   2 O :   -0.246636
   3 P :    0.569844
   4 S :   -0.294894
   5 O :   -0.233206
   6 C :   -0.109249
   7 C :   -0.369368
   8 S :    0.078036
   9 C :   -0.494560
  10 S :    0.067896
  11 P :    0.567468
  12 S :   -0.298556
  13 O :   -0.232553
  14 C :   -0.118061
  15 C :   -0.357302
  16 O :   -0.244719
  17 C :   -0.114979
  18 C :   -0.368632
  19 H :    0.127502
  20 H :    0.115661
  21 H :    0.129191
  22 H :    0.117632
  23 H :    0.101287
  24 H :    0.114823
  25 H :    0.124326
  26 H :    0.115997
  27 H :    0.133940
  28 H :    0.132118
  29 H :    0.125809
  30 H :    0.128354
  31 H :    0.101247
  32 H :    0.119403
  33 H :    0.128622
  34 H :    0.130329
  35 H :    0.126898
  36 H :    0.108642
  37 H :    0.121300
  38 H :    0.131356
  39 H :    0.123026
  40 H :    0.131342

  Mayer bond orders larger than 0.100000
B(  0-C ,  1-C ) :   1.1659 B(  0-C , 19-H ) :   0.9372 B(  0-C , 20-H ) :   0.9278
B(  0-C , 21-H ) :   0.9441 B(  1-C ,  2-O ) :   0.9167 B(  1-C , 22-H ) :   0.9338
B(  1-C , 23-H ) :   0.9023 B(  2-O ,  3-P ) :   1.0663 B(  3-P ,  4-S ) :   1.6473
B(  3-P ,  5-O ) :   1.1487 B(  3-P ,  8-S ) :   0.9350 B(  4-S ,  8-S ) :   0.1181
B(  4-S , 29-H ) :   0.1219 B(  5-O ,  6-C ) :   0.8995 B(  6-C ,  7-C ) :   1.1681
B(  6-C , 24-H ) :   0.9264 B(  6-C , 25-H ) :   0.9333 B(  7-C , 26-H ) :   0.9329
B(  7-C , 27-H ) :   0.9358 B(  7-C , 28-H ) :   0.9433 B(  8-S ,  9-C ) :   1.0098
B(  9-C , 10-S ) :   1.0034 B(  9-C , 29-H ) :   0.8466 B(  9-C , 30-H ) :   0.8587
B( 10-S , 11-P ) :   0.9394 B( 10-S , 12-S ) :   0.1102 B( 11-P , 12-S ) :   1.6521
B( 11-P , 13-O ) :   1.1390 B( 11-P , 16-O ) :   1.0800 B( 13-O , 14-C ) :   0.8972
B( 14-C , 15-C ) :   1.1564 B( 14-C , 31-H ) :   0.9063 B( 14-C , 32-H ) :   0.9309
B( 15-C , 33-H ) :   0.9405 B( 15-C , 34-H ) :   0.9457 B( 15-C , 35-H ) :   0.9421
B( 16-O , 17-C ) :   0.9089 B( 17-C , 18-C ) :   1.1681 B( 17-C , 36-H ) :   0.9259
B( 17-C , 37-H ) :   0.9327 B( 18-C , 38-H ) :   0.9431 B( 18-C , 39-H ) :   0.9319
B( 18-C , 40-H ) :   0.9347

Dispersion correction           -0.064351647
FINAL SINGLE POINT ENERGY     -2929.515161421998

DIPOLE MOMENT
-------------

Method             : SCF
Type of density    : Electron Density
Multiplicity       :   1
Irrep              :   0
Energy             : -2929.6363762044288706 Eh
Relativity type    :
Basis              : AO
                                X                 Y                 Z
Electronic contribution:      6.862270080       3.176903107     -16.882159760
Nuclear contribution   :     -7.243592494      -3.547681894      19.100406994
                        -----------------------------------------
Total Dipole Moment    :     -0.381322414      -0.370778787       2.218247233
                        -----------------------------------------
Magnitude (a.u.)       :      2.281119129
Magnitude (Debye)      :      5.798144040

Rotational constants in cm-1:             0.012331             0.004511             0.004365
Rotational constants in MHz :           369.668910           135.236935           130.862442

                             ****ORCA TERMINATED NORMALLY****
TOTAL RUN TIME: 0 days 0 hours 0 minutes 21 seconds 72 msec
