                         Program Version 6.0.0  -   RELEASE  -
|  1> ! pbe def2-sv(p) def2/J RI DEFGRID1 loosescf d4 GCP(DFT/SV(P)) printgap
|  2> %output
|  3>     printlevel normal
|  4> end
|  5> * xyz 0 1
|  6> C 4.3225637927 -0.7916022221 -1.8475552441
|  7> C 4.5638838934 0.1741006639 -0.7063960491
|  8> O 3.3376863609 0.7143562102 -0.1504951094
|  9> P 2.2292419749 -0.1067451879 0.6184395556
| 10> S 1.3878381013 0.9598226724 2.0293027412
| 11> O 3.0166572465 -1.3808693603 1.1499210227
| 12> C 2.4994646723 -2.1906422778 2.2199828206
| 13> C 1.2380139633 -2.9244017054 1.8137441237
| 14> S 0.9907900828 -0.9277158994 -0.9289034205
| 15> C 0.6509258695 0.586249685 -1.8549680637
| 16> S -0.3557498821 1.7916824741 -0.9371555565
| 17> P -1.9478026691 0.4763203619 -0.4565378284
| 18> S -2.4558039624 -0.7255717469 -1.9232265652
| 19> O -3.0800042688 1.4595984943 0.0636736684
| 20> C -3.9452148876 2.1735486224 -0.8454085026
| 21> C -5.2767576913 1.4607801049 -0.9787157006
| 22> O -1.4447669668 -0.1891816759 0.8873137452
| 23> C -2.2998701778 -0.538384192 1.9986045452
| 24> C -3.2496752741 -1.6599275055 1.6350212118
| 25> H 5.2820105282 -1.1002014137 -2.2513139771
| 26> H 3.7886849876 -1.6705464778 -1.4940021591
| 27> H 3.7421196012 -0.3216398256 -2.6374578626
| 28> H 5.09617667 1.0668075491 -1.0388964094
| 29> H 5.1167198943 -0.3100881942 0.1001045635
| 30> H 3.3143686754 -2.8798638148 2.4449710388
| 31> H 2.307193171 -1.5421312059 3.0808336632
| 32> H 0.4445904229 -2.2053863904 1.609170047
| 33> H 1.4104650295 -3.5125794398 0.9157720702
| 34> H 0.9232299526 -3.5782967194 2.6206180382
| 35> H 0.1114153972 0.2708456798 -2.7478099104
| 36> H 1.5777806896 1.096567621 -2.1071449582
| 37> H -4.0616281455 3.1632662351 -0.4002792655
| 38> H -3.4531204376 2.2651129742 -1.8172972577
| 39> H -5.9341048975 2.0498490643 -1.6098823975
| 40> H -5.1323621672 0.4829317447 -1.4334189475
| 41> H -5.7343225282 1.3344452475 -0.0014607662
| 42> H -1.5941484793 -0.8319522032 2.7781951362
| 43> H -2.8401497299 0.3560737928 2.313981262
| 44> H -3.8346304673 -1.9353631592 2.5067175826
| 45> H -3.9204878442 -1.3335821275 0.8409695411
| 46> H -2.6949711168 -2.5260639206 1.2817070457
| 47> *
| 48>
| 49>                          ****END OF INPUT****

CARTESIAN COORDINATES (ANGSTROEM)
---------------------------------
  C      4.322564   -0.791602   -1.847555
  C      4.563884    0.174101   -0.706396
  O      3.337686    0.714356   -0.150495
  P      2.229242   -0.106745    0.618440
  S      1.387838    0.959823    2.029303
  O      3.016657   -1.380869    1.149921
  C      2.499465   -2.190642    2.219983
  C      1.238014   -2.924402    1.813744
  S      0.990790   -0.927716   -0.928903
  C      0.650926    0.586250   -1.854968
  S     -0.355750    1.791682   -0.937156
  P     -1.947803    0.476320   -0.456538
  S     -2.455804   -0.725572   -1.923227
  O     -3.080004    1.459598    0.063674
  C     -3.945215    2.173549   -0.845409
  C     -5.276758    1.460780   -0.978716
  O     -1.444767   -0.189182    0.887314
  C     -2.299870   -0.538384    1.998605
  C     -3.249675   -1.659928    1.635021
  H      5.282011   -1.100201   -2.251314
  H      3.788685   -1.670546   -1.494002
  H      3.742120   -0.321640   -2.637458
  H      5.096177    1.066808   -1.038896
  H      5.116720   -0.310088    0.100105
  H      3.314369   -2.879864    2.444971
  H      2.307193   -1.542131    3.080834
  H      0.444590   -2.205386    1.609170
  H      1.410465   -3.512579    0.915772
  H      0.923230   -3.578297    2.620618
  H      0.111415    0.270846   -2.747810
  H      1.577781    1.096568   -2.107145
  H     -4.061628    3.163266   -0.400279
  H     -3.453120    2.265113   -1.817297
  H     -5.934105    2.049849   -1.609882
  H     -5.132362    0.482932   -1.433419
  H     -5.734323    1.334445   -0.001461
  H     -1.594148   -0.831952    2.778195
  H     -2.840150    0.356074    2.313981
  H     -3.834630   -1.935363    2.506718
  H     -3.920488   -1.333582    0.840970
  H     -2.694971   -2.526064    1.281707

 Total Charge           Charge          ....    0
 Multiplicity           Mult            ....    1
 Number of Electrons    NEL             ....  202
 Basis Dimension        Dim             ....  334

ORBITAL ENERGIES
----------------

  NO   OCC          E(Eh)            E(eV)
   0   2.0000     -88.036008     -2395.5816
   1   2.0000     -88.032084     -2395.4748
   2   2.0000     -87.980888     -2394.0817
   3   2.0000     -87.974296     -2393.9023
   4   2.0000     -76.423541     -2079.5903
   5   2.0000     -76.421991     -2079.5481
   6   2.0000     -18.794337      -511.4199
   7   2.0000     -18.793773      -511.4046
   8   2.0000     -18.789934      -511.3001
   9   2.0000     -18.780981      -511.0565
  10   2.0000      -9.957942      -270.9694
  11   2.0000      -9.954567      -270.8775
  12   2.0000      -9.953609      -270.8515
  13   2.0000      -9.952855      -270.8310
  14   2.0000      -9.948350      -270.7084
  15   2.0000      -9.888595      -269.0823
  16   2.0000      -9.885886      -269.0086
  17   2.0000      -9.882481      -268.9160
  18   2.0000      -9.880526      -268.8628
  19   2.0000      -7.680279      -208.9910
  20   2.0000      -7.677472      -208.9146
  21   2.0000      -7.626076      -207.5161
  22   2.0000      -7.619512      -207.3375
  23   2.0000      -6.420495      -174.7106
  24   2.0000      -6.419226      -174.6760
  25   2.0000      -5.708172      -155.3273
  26   2.0000      -5.705446      -155.2531
  27   2.0000      -5.705007      -155.2411
  28   2.0000      -5.702124      -155.1627
  29   2.0000      -5.697119      -155.0265
  30   2.0000      -5.694153      -154.9458
  31   2.0000      -5.654865      -153.8767
  32   2.0000      -5.648567      -153.7053
  33   2.0000      -5.646811      -153.6575
  34   2.0000      -5.646259      -153.6425
  35   2.0000      -5.640319      -153.4809
  36   2.0000      -5.639321      -153.4537
  37   2.0000      -4.643726      -126.3622
  38   2.0000      -4.642680      -126.3338
  39   2.0000      -4.642019      -126.3158
  40   2.0000      -4.640793      -126.2824
  41   2.0000      -4.640703      -126.2800
  42   2.0000      -4.639061      -126.2353
  43   2.0000      -0.987763       -26.8784
  44   2.0000      -0.984794       -26.7976
  45   2.0000      -0.944942       -25.7132
  46   2.0000      -0.939630       -25.5686
  47   2.0000      -0.758828       -20.6488
  48   2.0000      -0.717093       -19.5131
  49   2.0000      -0.707179       -19.2433
  50   2.0000      -0.692077       -18.8324
  51   2.0000      -0.686464       -18.6796
  52   2.0000      -0.669381       -18.2148
  53   2.0000      -0.647275       -17.6132
  54   2.0000      -0.632852       -17.2208
  55   2.0000      -0.592161       -16.1135
  56   2.0000      -0.586759       -15.9665
  57   2.0000      -0.581026       -15.8105
  58   2.0000      -0.573784       -15.6135
  59   2.0000      -0.557211       -15.1625
  60   2.0000      -0.500523       -13.6199
  61   2.0000      -0.495669       -13.4878
  62   2.0000      -0.471991       -12.8435
  63   2.0000      -0.471462       -12.8291
  64   2.0000      -0.458843       -12.4858
  65   2.0000      -0.447525       -12.1778
  66   2.0000      -0.438483       -11.9317
  67   2.0000      -0.429523       -11.6879
  68   2.0000      -0.426798       -11.6138
  69   2.0000      -0.415198       -11.2981
  70   2.0000      -0.405672       -11.0389
  71   2.0000      -0.401063       -10.9135
  72   2.0000      -0.392972       -10.6933
  73   2.0000      -0.383733       -10.4419
  74   2.0000      -0.376281       -10.2391
  75   2.0000      -0.369239       -10.0475
  76   2.0000      -0.365358        -9.9419
  77   2.0000      -0.357584        -9.7303
  78   2.0000      -0.353822        -9.6280
  79   2.0000      -0.350375        -9.5342
  80   2.0000      -0.348562        -9.4849
  81   2.0000      -0.342670        -9.3245
  82   2.0000      -0.339759        -9.2453
  83   2.0000      -0.335408        -9.1269
  84   2.0000      -0.331562        -9.0223
  85   2.0000      -0.324410        -8.8276
  86   2.0000      -0.310651        -8.4532
  87   2.0000      -0.298190        -8.1142
  88   2.0000      -0.297530        -8.0962
  89   2.0000      -0.293109        -7.9759
  90   2.0000      -0.285969        -7.7816
  91   2.0000      -0.272749        -7.4219
  92   2.0000      -0.270824        -7.3695
  93   2.0000      -0.255118        -6.9421
  94   2.0000      -0.253592        -6.9006
  95   2.0000      -0.236421        -6.4334
  96   2.0000      -0.210555        -5.7295
  97   2.0000      -0.202505        -5.5104
  98   2.0000      -0.195857        -5.3296
  99   2.0000      -0.186685        -5.0800
 100   2.0000      -0.180501        -4.9117
 101   0.0000      -0.044856        -1.2206
 102   0.0000      -0.024770        -0.6740
 103   0.0000      -0.005326        -0.1449
 104   0.0000       0.004034         0.1098
 105   0.0000       0.021802         0.5933

MULLIKEN ATOMIC CHARGES
-----------------------
   0 C :   -0.321138
   1 C :    0.008471
   2 O :   -0.375129
   3 P :    0.608524
   4 S :   -0.300030
   5 O :   -0.386429
   6 C :    0.003341
   7 C :   -0.360253
   8 S :   -0.095841
   9 C :   -0.351783
  10 S :   -0.076533
  11 P :    0.635095
  12 S :   -0.341710
  13 O :   -0.385560
  14 C :   -0.006401
  15 C :   -0.294574
  16 O :   -0.357002
  17 C :    0.001881
  18 C :   -0.314292
  19 H :    0.112581
  20 H :    0.131919
  21 H :    0.118088
  22 H :    0.109932
  23 H :    0.110319
  24 H :    0.103536
  25 H :    0.110775
  26 H :    0.165126
  27 H :    0.121617
  28 H :    0.114692
  29 H :    0.191580
  30 H :    0.180553
  31 H :    0.108737
  32 H :    0.103953
  33 H :    0.109321
  34 H :    0.130168
  35 H :    0.111751
  36 H :    0.107529
  37 H :    0.111628
  38 H :    0.107624
  39 H :    0.125864
  40 H :    0.122068
Sum of atomic charges:   -0.0000000

LOEWDIN ATOMIC CHARGES
----------------------
   0 C :   -0.368790
   1 C :   -0.107134
   2 O :   -0.245888
   3 P :    0.569791
   4 S :   -0.306631
   5 O :   -0.248625
   6 C :   -0.119126
   7 C :   -0.375938
   8 S :    0.088818
   9 C :   -0.479552
  10 S :    0.078975
  11 P :    0.573888
  12 S :   -0.331760
  13 O :   -0.246732
  14 C :   -0.114752
  15 C :   -0.362380
  16 O :   -0.234717
  17 C :   -0.109632
  18 C :   -0.364630
  19 H :    0.131123
  20 H :    0.122089
  21 H :    0.124029
  22 H :    0.121640
  23 H :    0.116031
  24 H :    0.117692
  25 H :    0.110900
  26 H :    0.127002
  27 H :    0.125637
  28 H :    0.132002
  29 H :    0.131976
  30 H :    0.127753
  31 H :    0.119157
  32 H :    0.109874
  33 H :    0.129781
  34 H :    0.125515
  35 H :    0.123938
  36 H :    0.116837
  37 H :    0.113061
  38 H :    0.127691
  39 H :    0.122322
  40 H :    0.128766

  Mayer bond orders larger than 0.100000
B(  0-C ,  1-C ) :   1.1691 B(  0-C , 19-H ) :   0.9352 B(  0-C , 20-H ) :   0.9359
B(  0-C , 21-H ) :   0.9450 B(  1-C ,  2-O ) :   0.8969 B(  1-C , 22-H ) :   0.9359
B(  1-C , 23-H ) :   0.9272 B(  2-O ,  3-P ) :   1.1065 B(  3-P ,  4-S ) :   1.6868
B(  3-P ,  5-O ) :   1.0628 B(  3-P ,  8-S ) :   0.9333 B(  4-S ,  8-S ) :   0.1147
B(  5-O ,  6-C ) :   0.9060 B(  6-C ,  7-C ) :   1.1631 B(  6-C , 24-H ) :   0.9328
B(  6-C , 25-H ) :   0.9126 B(  7-C , 26-H ) :   0.9190 B(  7-C , 27-H ) :   0.9423
B(  7-C , 28-H ) :   0.9375 B(  8-S ,  9-C ) :   1.0087 B(  9-C , 10-S ) :   1.0004
B(  9-C , 29-H ) :   0.8897 B(  9-C , 30-H ) :   0.8961 B( 10-S , 11-P ) :   0.9583
B( 10-S , 12-S ) :   0.1214 B( 11-P , 12-S ) :   1.6021 B( 11-P , 13-O ) :   1.0847
B( 11-P , 16-O ) :   1.1253 B( 13-O , 14-C ) :   0.8988 B( 14-C , 15-C ) :   1.1686
B( 14-C , 31-H ) :   0.9350 B( 14-C , 32-H ) :   0.9127 B( 15-C , 33-H ) :   0.9396
B( 15-C , 34-H ) :   0.9329 B( 15-C , 35-H ) :   0.9469 B( 16-O , 17-C ) :   0.8988
B( 17-C , 18-C ) :   1.1675 B( 17-C , 36-H ) :   0.9260 B( 17-C , 37-H ) :   0.9285
B( 18-C , 38-H ) :   0.9379 B( 18-C , 39-H ) :   0.9351 B( 18-C , 40-H ) :   0.9473

Dispersion correction           -0.067534318
FINAL SINGLE POINT ENERGY     -2929.510192925688

DIPOLE MOMENT
-------------

Method             : SCF
Type of density    : Electron Density
Multiplicity       :   1
Irrep              :   0
Energy             : -2929.6279342098382585 Eh
Relativity type    :
Basis              : AO
                                X                 Y                 Z
Electronic contribution:      6.238739171      10.860495942      -2.624296951
Nuclear contribution   :     -5.920774822     -11.293830962       2.706603560
                        -----------------------------------------
Total Dipole Moment    :      0.317964349      -0.433335020       0.082306608
                        -----------------------------------------
Magnitude (a.u.)       :      0.543741616
Magnitude (Debye)      :      1.382081353

Rotational constants in cm-1:             0.013425             0.005240             0.004726
Rotational constants in MHz :           402.467602           157.087404           141.669522

                             ****ORCA TERMINATED NORMALLY****
TOTAL RUN TIME: 0 days 0 hours 0 minutes 21 seconds 548 msec
