                         Program Version 6.0.0  -   RELEASE  -
|  1> ! pbe def2-sv(p) def2/J RI DEFGRID1 loosescf d4 GCP(DFT/SV(P)) printgap
|  2> %output
|  3>     printlevel normal
|  4> end
|  5> * xyz 0 1
|  6> C 2.9613729491 0.0004673355 -2.0864982604
|  7> C 2.5591647558 1.2471723793 -1.3273622962
|  8> O 1.6170149567 0.9857975417 -0.2588608252
|  9> P 1.8640419711 0.0457147888 0.9871637533
| 10> S 0.7847563705 0.5454073254 2.542720651
| 11> O 3.4350004586 0.1605807132 1.1912544979
| 12> C 4.0830984605 -0.202819319 2.4233094539
| 13> C 4.0216059231 -1.692861405 2.6881121836
| 14> S 1.5644532346 -1.9620443903 0.3349070994
| 15> C -0.2174577378 -1.8790089804 0.0908725437
| 16> S -0.6498732721 -1.128825421 -1.5310814974
| 17> P -2.0561777947 0.2974299829 -0.9301564874
| 18> S -2.8856361737 1.3660631708 -2.3449750158
| 19> O -1.2019634718 1.0714122096 0.1599154874
| 20> C -1.7122621683 2.2741982786 0.7766237763
| 21> C -1.0749191364 3.4941765779 0.1449795891
| 22> O -3.1072802141 -0.4617963172 0.009446818
| 23> C -4.3259299764 -1.0160619949 -0.5133176531
| 24> C -4.0709497885 -2.2656893844 -1.331947558
| 25> H 3.5210528069 -0.6736694954 -1.4418079037
| 26> H 2.0826762547 -0.5175485956 -2.4654160617
| 27> H 3.5887801368 0.2903275236 -2.9238304481
| 28> H 2.0174198332 1.9458421337 -1.9680651204
| 29> H 3.4321010497 1.7391694095 -0.8939456083
| 30> H 5.1095281366 0.140282158 2.2856242922
| 31> H 3.61073272 0.3529223042 3.2392909089
| 32> H 4.6383949651 -1.9274525775 3.5497076725
| 33> H 2.9963390069 -1.9935018157 2.8964437267
| 34> H 4.3804233118 -2.2477366805 1.8251560433
| 35> H -0.6700559005 -1.2895015267 0.8877092024
| 36> H -0.577210235 -2.9040441591 0.0906692599
| 37> H -2.8007886097 2.2961120076 0.6745209948
| 38> H -1.4432384496 2.1827650225 1.8312448295
| 39> H -1.4153188719 4.3849800393 0.6628543198
| 40> H 0.0070493651 3.42155875 0.2226661379
| 41> H -1.3514584759 3.5605518714 -0.9054245328
| 42> H -4.9233896544 -1.2269269123 0.3746651044
| 43> H -4.8191294106 -0.2517448252 -1.1227646423
| 44> H -3.5350718779 -3.0046615985 -0.7419993777
| 45> H -5.0203697996 -2.6827865367 -1.6518462711
| 46> H -3.4798211539 -2.0178273368 -2.2132406692
| 47> *
| 48>
| 49>                          ****END OF INPUT****

CARTESIAN COORDINATES (ANGSTROEM)
---------------------------------
  C      2.961373    0.000467   -2.086498
  C      2.559165    1.247172   -1.327362
  O      1.617015    0.985798   -0.258861
  P      1.864042    0.045715    0.987164
  S      0.784756    0.545407    2.542721
  O      3.435000    0.160581    1.191254
  C      4.083098   -0.202819    2.423309
  C      4.021606   -1.692861    2.688112
  S      1.564453   -1.962044    0.334907
  C     -0.217458   -1.879009    0.090873
  S     -0.649873   -1.128825   -1.531081
  P     -2.056178    0.297430   -0.930156
  S     -2.885636    1.366063   -2.344975
  O     -1.201963    1.071412    0.159915
  C     -1.712262    2.274198    0.776624
  C     -1.074919    3.494177    0.144980
  O     -3.107280   -0.461796    0.009447
  C     -4.325930   -1.016062   -0.513318
  C     -4.070950   -2.265689   -1.331948
  H      3.521053   -0.673669   -1.441808
  H      2.082676   -0.517549   -2.465416
  H      3.588780    0.290328   -2.923830
  H      2.017420    1.945842   -1.968065
  H      3.432101    1.739169   -0.893946
  H      5.109528    0.140282    2.285624
  H      3.610733    0.352922    3.239291
  H      4.638395   -1.927453    3.549708
  H      2.996339   -1.993502    2.896444
  H      4.380423   -2.247737    1.825156
  H     -0.670056   -1.289502    0.887709
  H     -0.577210   -2.904044    0.090669
  H     -2.800789    2.296112    0.674521
  H     -1.443238    2.182765    1.831245
  H     -1.415319    4.384980    0.662854
  H      0.007049    3.421559    0.222666
  H     -1.351458    3.560552   -0.905425
  H     -4.923390   -1.226927    0.374665
  H     -4.819129   -0.251745   -1.122765
  H     -3.535072   -3.004662   -0.741999
  H     -5.020370   -2.682787   -1.651846
  H     -3.479821   -2.017827   -2.213241

 Total Charge           Charge          ....    0
 Multiplicity           Mult            ....    1
 Number of Electrons    NEL             ....  202
 Basis Dimension        Dim             ....  334

ORBITAL ENERGIES
----------------

  NO   OCC          E(Eh)            E(eV)
   0   2.0000     -88.047556     -2395.8958
   1   2.0000     -88.041969     -2395.7438
   2   2.0000     -87.986432     -2394.2325
   3   2.0000     -87.983548     -2394.1541
   4   2.0000     -76.430652     -2079.7838
   5   2.0000     -76.420560     -2079.5091
   6   2.0000     -18.803525      -511.6699
   7   2.0000     -18.790077      -511.3040
   8   2.0000     -18.788051      -511.2489
   9   2.0000     -18.778641      -510.9928
  10   2.0000      -9.960016      -271.0258
  11   2.0000      -9.959585      -271.0141
  12   2.0000      -9.955078      -270.8915
  13   2.0000      -9.948021      -270.6994
  14   2.0000      -9.938999      -270.4539
  15   2.0000      -9.890303      -269.1288
  16   2.0000      -9.883667      -268.9483
  17   2.0000      -9.883263      -268.9373
  18   2.0000      -9.869003      -268.5492
  19   2.0000      -7.692575      -209.3256
  20   2.0000      -7.687279      -209.1815
  21   2.0000      -7.631444      -207.6621
  22   2.0000      -7.628728      -207.5882
  23   2.0000      -6.427854      -174.9108
  24   2.0000      -6.418538      -174.6573
  25   2.0000      -5.720415      -155.6604
  26   2.0000      -5.717147      -155.5715
  27   2.0000      -5.715685      -155.5317
  28   2.0000      -5.711471      -155.4170
  29   2.0000      -5.709514      -155.3638
  30   2.0000      -5.703949      -155.2123
  31   2.0000      -5.660455      -154.0288
  32   2.0000      -5.657709      -153.9541
  33   2.0000      -5.652066      -153.8005
  34   2.0000      -5.651483      -153.7847
  35   2.0000      -5.649397      -153.7279
  36   2.0000      -5.648774      -153.7110
  37   2.0000      -4.651047      -126.5614
  38   2.0000      -4.649401      -126.5166
  39   2.0000      -4.647995      -126.4784
  40   2.0000      -4.640898      -126.2852
  41   2.0000      -4.640480      -126.2739
  42   2.0000      -4.639019      -126.2341
  43   2.0000      -0.993120       -27.0242
  44   2.0000      -0.979200       -26.6454
  45   2.0000      -0.947645       -25.7867
  46   2.0000      -0.936234       -25.4762
  47   2.0000      -0.764805       -20.8114
  48   2.0000      -0.721632       -19.6366
  49   2.0000      -0.707222       -19.2445
  50   2.0000      -0.694085       -18.8870
  51   2.0000      -0.682460       -18.5707
  52   2.0000      -0.671696       -18.2778
  53   2.0000      -0.652809       -17.7638
  54   2.0000      -0.636878       -17.3303
  55   2.0000      -0.601179       -16.3589
  56   2.0000      -0.586248       -15.9526
  57   2.0000      -0.581218       -15.8157
  58   2.0000      -0.567624       -15.4458
  59   2.0000      -0.558346       -15.1934
  60   2.0000      -0.499405       -13.5895
  61   2.0000      -0.494731       -13.4623
  62   2.0000      -0.473218       -12.8769
  63   2.0000      -0.463538       -12.6135
  64   2.0000      -0.458812       -12.4849
  65   2.0000      -0.449621       -12.2348
  66   2.0000      -0.443769       -12.0756
  67   2.0000      -0.432486       -11.7686
  68   2.0000      -0.428105       -11.6493
  69   2.0000      -0.419553       -11.4166
  70   2.0000      -0.415373       -11.3029
  71   2.0000      -0.400991       -10.9115
  72   2.0000      -0.392262       -10.6740
  73   2.0000      -0.385299       -10.4845
  74   2.0000      -0.376476       -10.2444
  75   2.0000      -0.372034       -10.1236
  76   2.0000      -0.369196       -10.0463
  77   2.0000      -0.359371        -9.7790
  78   2.0000      -0.351327        -9.5601
  79   2.0000      -0.346931        -9.4405
  80   2.0000      -0.346311        -9.4236
  81   2.0000      -0.342844        -9.3293
  82   2.0000      -0.339013        -9.2250
  83   2.0000      -0.332359        -9.0440
  84   2.0000      -0.326754        -8.8914
  85   2.0000      -0.324481        -8.8296
  86   2.0000      -0.308253        -8.3880
  87   2.0000      -0.300762        -8.1841
  88   2.0000      -0.297087        -8.0841
  89   2.0000      -0.290891        -7.9155
  90   2.0000      -0.279601        -7.6083
  91   2.0000      -0.274242        -7.4625
  92   2.0000      -0.266291        -7.2461
  93   2.0000      -0.262247        -7.1361
  94   2.0000      -0.260588        -7.0910
  95   2.0000      -0.236945        -6.4476
  96   2.0000      -0.218211        -5.9378
  97   2.0000      -0.210174        -5.7191
  98   2.0000      -0.204701        -5.5702
  99   2.0000      -0.197869        -5.3843
 100   2.0000      -0.195080        -5.3084
 101   0.0000      -0.044733        -1.2172
 102   0.0000      -0.026640        -0.7249
 103   0.0000      -0.020751        -0.5647
 104   0.0000       0.000099         0.0027
 105   0.0000       0.020819         0.5665

MULLIKEN ATOMIC CHARGES
-----------------------
   0 C :   -0.329162
   1 C :    0.010389
   2 O :   -0.355137
   3 P :    0.628686
   4 S :   -0.314861
   5 O :   -0.383127
   6 C :   -0.001457
   7 C :   -0.325326
   8 S :   -0.099930
   9 C :   -0.354813
  10 S :   -0.075884
  11 P :    0.601796
  12 S :   -0.327570
  13 O :   -0.362149
  14 C :    0.001329
  15 C :   -0.291000
  16 O :   -0.383483
  17 C :   -0.007330
  18 C :   -0.312476
  19 H :    0.119142
  20 H :    0.136742
  21 H :    0.111953
  22 H :    0.114290
  23 H :    0.106031
  24 H :    0.106397
  25 H :    0.115162
  26 H :    0.117889
  27 H :    0.132934
  28 H :    0.119102
  29 H :    0.203602
  30 H :    0.187771
  31 H :    0.095919
  32 H :    0.113340
  33 H :    0.102141
  34 H :    0.116907
  35 H :    0.117383
  36 H :    0.103608
  37 H :    0.111745
  38 H :    0.110128
  39 H :    0.112317
  40 H :    0.127001
Sum of atomic charges:   -0.0000000

LOEWDIN ATOMIC CHARGES
----------------------
   0 C :   -0.373895
   1 C :   -0.106941
   2 O :   -0.229792
   3 P :    0.584496
   4 S :   -0.304405
   5 O :   -0.244471
   6 C :   -0.117622
   7 C :   -0.372319
   8 S :    0.086775
   9 C :   -0.473320
  10 S :    0.088941
  11 P :    0.562812
  12 S :   -0.323800
  13 O :   -0.236913
  14 C :   -0.116864
  15 C :   -0.360484
  16 O :   -0.253663
  17 C :   -0.123130
  18 C :   -0.367112
  19 H :    0.116016
  20 H :    0.122528
  21 H :    0.131043
  22 H :    0.124385
  23 H :    0.113244
  24 H :    0.119285
  25 H :    0.113618
  26 H :    0.133959
  27 H :    0.123343
  28 H :    0.124017
  29 H :    0.131249
  30 H :    0.136592
  31 H :    0.105341
  32 H :    0.113229
  33 H :    0.126132
  34 H :    0.125464
  35 H :    0.121896
  36 H :    0.117570
  37 H :    0.109052
  38 H :    0.121252
  39 H :    0.130658
  40 H :    0.121834

  Mayer bond orders larger than 0.100000
B(  0-C ,  1-C ) :   1.1720 B(  0-C , 19-H ) :   0.9393 B(  0-C , 20-H ) :   0.9338
B(  0-C , 21-H ) :   0.9347 B(  1-C ,  2-O ) :   0.8933 B(  1-C , 22-H ) :   0.9314
B(  1-C , 23-H ) :   0.9295 B(  2-O ,  3-P ) :   1.1386 B(  3-P ,  4-S ) :   1.6296
B(  3-P ,  5-O ) :   1.0795 B(  3-P ,  8-S ) :   0.9375 B(  4-S ,  8-S ) :   0.1056
B(  5-O ,  6-C ) :   0.9017 B(  6-C ,  7-C ) :   1.1667 B(  6-C , 24-H ) :   0.9334
B(  6-C , 25-H ) :   0.9156 B(  7-C , 26-H ) :   0.9369 B(  7-C , 27-H ) :   0.9326
B(  7-C , 28-H ) :   0.9444 B(  8-S ,  9-C ) :   1.0178 B(  9-C , 10-S ) :   0.9555
B(  9-C , 29-H ) :   0.8652 B(  9-C , 30-H ) :   0.9091 B( 10-S , 11-P ) :   0.9929
B( 11-P , 12-S ) :   1.6298 B( 11-P , 13-O ) :   1.1308 B( 11-P , 16-O ) :   1.0558
B( 13-O , 14-C ) :   0.8847 B( 14-C , 15-C ) :   1.1748 B( 14-C , 31-H ) :   0.9138
B( 14-C , 32-H ) :   0.9167 B( 15-C , 33-H ) :   0.9409 B( 15-C , 34-H ) :   0.9430
B( 15-C , 35-H ) :   0.9383 B( 16-O , 17-C ) :   0.9178 B( 17-C , 18-C ) :   1.1628
B( 17-C , 36-H ) :   0.9335 B( 17-C , 37-H ) :   0.9108 B( 18-C , 38-H ) :   0.9468
B( 18-C , 39-H ) :   0.9393 B( 18-C , 40-H ) :   0.9359

Dispersion correction           -0.067367391
FINAL SINGLE POINT ENERGY     -2929.516537425827

DIPOLE MOMENT
-------------

Method             : SCF
Type of density    : Electron Density
Multiplicity       :   1
Irrep              :   0
Energy             : -2929.6368037929569255 Eh
Relativity type    :
Basis              : AO
                                X                 Y                 Z
Electronic contribution:     -4.268976310      -0.049537203      -1.634901876
Nuclear contribution   :      5.234963125      -0.643198915       2.069717387
                        -----------------------------------------
Total Dipole Moment    :      0.965986816      -0.692736118       0.434815511
                        -----------------------------------------
Magnitude (a.u.)       :      1.265732351
Magnitude (Debye)      :      3.217235959

Rotational constants in cm-1:             0.012871             0.005236             0.004945
Rotational constants in MHz :           385.868322           156.961751           148.236983

                             ****ORCA TERMINATED NORMALLY****
TOTAL RUN TIME: 0 days 0 hours 0 minutes 21 seconds 528 msec
