                         Program Version 6.0.0  -   RELEASE  -
|  1> ! r2scan-3c def2/J RI DEFGRID2 scfconv6 printgap
|  2> %output
|  3>     printlevel normal
|  4> end
|  5> * xyz 0 1
|  6> C 2.4907082742 -1.5223193662 3.0294624472
|  7> C 1.3217213391 -1.6260643949 2.0730035105
|  8> O 1.1641272005 -0.4215346512 1.2985346479
|  9> P 2.1863400411 -0.0035009965 0.1609359052
| 10> S 3.1623006532 -1.453073504 -0.7320782735
| 11> O 3.0876767638 1.0490141959 0.9358910854
| 12> C 4.3523697392 1.5088500312 0.426414786
| 13> C 4.1905217058 2.3679484754 -0.8108651596
| 14> S 0.9130167406 1.1898401803 -1.0365857898
| 15> C 0.2986809901 -0.1552162122 -2.0855021209
| 16> S -0.5658464862 -1.4501393686 -1.1517599313
| 17> P -2.1773720586 -0.2552281182 -0.4694073707
| 18> S -2.8109614057 1.1567758248 -1.6730846405
| 19> O -1.8077503201 0.2260754196 1.0014360156
| 20> C -1.4705013932 1.5714911151 1.3827904323
| 21> C -2.3086539649 1.9719304636 2.5810390312
| 22> O -3.1528475077 -1.4695459786 -0.1930045771
| 23> C -4.5890717292 -1.3249236119 -0.1892489765
| 24> C -5.0716764673 -0.4462514102 0.9457524224
| 25> H 2.3879968847 -0.639831343 3.6553471379
| 26> H 2.5254518559 -2.4093768536 3.6540796943
| 27> H 3.4204258444 -1.4489385033 2.4661277764
| 28> H 0.369666768 -1.72789699 2.5962932272
| 29> H 1.4530494912 -2.4668626823 1.383710653
| 30> H 4.7789622868 2.0729866591 1.2567723179
| 31> H 4.9747296961 0.6351142022 0.2084665807
| 32> H 5.1526759788 2.788701011 -1.0848343686
| 33> H 3.8209731713 1.7638926431 -1.6385117525
| 34> H 3.4834091764 3.1721597533 -0.6236163464
| 35> H 1.1352290644 -0.6436938929 -2.5835953978
| 36> H -0.3818233414 0.3004153821 -2.8039041453
| 37> H -0.405067809 1.577129453 1.6267251354
| 38> H -1.6480916172 2.2382447553 0.5317853584
| 39> H -1.9894563575 2.9520822511 2.9202103717
| 40> H -3.3609211733 2.0141139306 2.3134289646
| 41> H -2.176819978 1.253029092 3.3844281731
| 42> H -4.8961345452 -0.9107419486 -1.1544990985
| 43> H -4.9510557682 -2.3494516933 -0.0929542627
| 44> H -6.1567181386 -0.4609525278 0.976171142
| 45> H -4.6768689714 -0.8041950455 1.893077456
| 46> H -4.737028174 0.5776071582 0.7833945344
| 47> *
| 48>
| 49>                          ****END OF INPUT****

CARTESIAN COORDINATES (ANGSTROEM)
---------------------------------
  C      2.490708   -1.522319    3.029462
  C      1.321721   -1.626064    2.073004
  O      1.164127   -0.421535    1.298535
  P      2.186340   -0.003501    0.160936
  S      3.162301   -1.453074   -0.732078
  O      3.087677    1.049014    0.935891
  C      4.352370    1.508850    0.426415
  C      4.190522    2.367948   -0.810865
  S      0.913017    1.189840   -1.036586
  C      0.298681   -0.155216   -2.085502
  S     -0.565846   -1.450139   -1.151760
  P     -2.177372   -0.255228   -0.469407
  S     -2.810961    1.156776   -1.673085
  O     -1.807750    0.226075    1.001436
  C     -1.470501    1.571491    1.382790
  C     -2.308654    1.971930    2.581039
  O     -3.152848   -1.469546   -0.193005
  C     -4.589072   -1.324924   -0.189249
  C     -5.071676   -0.446251    0.945752
  H      2.387997   -0.639831    3.655347
  H      2.525452   -2.409377    3.654080
  H      3.420426   -1.448939    2.466128
  H      0.369667   -1.727897    2.596293
  H      1.453049   -2.466863    1.383711
  H      4.778962    2.072987    1.256772
  H      4.974730    0.635114    0.208467
  H      5.152676    2.788701   -1.084834
  H      3.820973    1.763893   -1.638512
  H      3.483409    3.172160   -0.623616
  H      1.135229   -0.643694   -2.583595
  H     -0.381823    0.300415   -2.803904
  H     -0.405068    1.577129    1.626725
  H     -1.648092    2.238245    0.531785
  H     -1.989456    2.952082    2.920210
  H     -3.360921    2.014114    2.313429
  H     -2.176820    1.253029    3.384428
  H     -4.896135   -0.910742   -1.154499
  H     -4.951056   -2.349452   -0.092954
  H     -6.156718   -0.460953    0.976171
  H     -4.676869   -0.804195    1.893077
  H     -4.737028    0.577607    0.783395

 Total Charge           Charge          ....    0
 Multiplicity           Mult            ....    1
 Number of Electrons    NEL             ....  202
 Basis Dimension        Dim             ....  539

ORBITAL ENERGIES
----------------

  NO   OCC          E(Eh)            E(eV)
   0   2.0000     -88.575131     -2410.2519
   1   2.0000     -88.569743     -2410.1052
   2   2.0000     -88.523773     -2408.8543
   3   2.0000     -88.521485     -2408.7921
   4   2.0000     -76.915152     -2092.9677
   5   2.0000     -76.912418     -2092.8933
   6   2.0000     -18.995647      -516.8978
   7   2.0000     -18.989411      -516.7281
   8   2.0000     -18.988103      -516.6925
   9   2.0000     -18.986758      -516.6559
  10   2.0000     -10.104082      -274.9460
  11   2.0000     -10.101274      -274.8696
  12   2.0000     -10.100125      -274.8384
  13   2.0000     -10.095314      -274.7075
  14   2.0000     -10.089856      -274.5590
  15   2.0000     -10.031036      -272.9584
  16   2.0000     -10.030672      -272.9485
  17   2.0000     -10.028875      -272.8996
  18   2.0000     -10.028391      -272.8864
  19   2.0000      -7.869626      -214.1434
  20   2.0000      -7.863951      -213.9890
  21   2.0000      -7.818478      -212.7516
  22   2.0000      -7.816317      -212.6928
  23   2.0000      -6.593765      -179.4255
  24   2.0000      -6.590777      -179.3442
  25   2.0000      -5.816458      -158.2739
  26   2.0000      -5.813538      -158.1944
  27   2.0000      -5.810974      -158.1246
  28   2.0000      -5.807930      -158.0418
  29   2.0000      -5.806709      -158.0086
  30   2.0000      -5.800809      -157.8480
  31   2.0000      -5.766086      -156.9032
  32   2.0000      -5.763893      -156.8435
  33   2.0000      -5.758770      -156.7041
  34   2.0000      -5.758528      -156.6975
  35   2.0000      -5.756799      -156.6505
  36   2.0000      -5.756174      -156.6335
  37   2.0000      -4.739111      -128.9578
  38   2.0000      -4.738642      -128.9450
  39   2.0000      -4.737671      -128.9186
  40   2.0000      -4.736086      -128.8755
  41   2.0000      -4.735584      -128.8618
  42   2.0000      -4.734811      -128.8408
  43   2.0000      -1.051498       -28.6127
  44   2.0000      -1.046166       -28.4676
  45   2.0000      -1.012082       -27.5402
  46   2.0000      -1.007052       -27.4033
  47   2.0000      -0.800817       -21.7913
  48   2.0000      -0.759284       -20.6612
  49   2.0000      -0.748507       -20.3679
  50   2.0000      -0.731724       -19.9112
  51   2.0000      -0.730953       -19.8903
  52   2.0000      -0.708822       -19.2880
  53   2.0000      -0.687118       -18.6974
  54   2.0000      -0.669538       -18.2191
  55   2.0000      -0.635911       -17.3040
  56   2.0000      -0.627782       -17.0828
  57   2.0000      -0.605845       -16.4859
  58   2.0000      -0.599456       -16.3120
  59   2.0000      -0.590888       -16.0789
  60   2.0000      -0.524937       -14.2843
  61   2.0000      -0.516315       -14.0496
  62   2.0000      -0.495855       -13.4929
  63   2.0000      -0.492569       -13.4035
  64   2.0000      -0.473985       -12.8978
  65   2.0000      -0.463843       -12.6218
  66   2.0000      -0.460053       -12.5187
  67   2.0000      -0.449654       -12.2357
  68   2.0000      -0.444435       -12.0937
  69   2.0000      -0.430396       -11.7117
  70   2.0000      -0.423488       -11.5237
  71   2.0000      -0.413038       -11.2393
  72   2.0000      -0.410072       -11.1586
  73   2.0000      -0.405171       -11.0253
  74   2.0000      -0.391927       -10.6649
  75   2.0000      -0.389974       -10.6117
  76   2.0000      -0.387241       -10.5374
  77   2.0000      -0.374966       -10.2034
  78   2.0000      -0.372847       -10.1457
  79   2.0000      -0.369205       -10.0466
  80   2.0000      -0.363969        -9.9041
  81   2.0000      -0.362195        -9.8558
  82   2.0000      -0.356408        -9.6984
  83   2.0000      -0.353805        -9.6275
  84   2.0000      -0.347270        -9.4497
  85   2.0000      -0.336641        -9.1605
  86   2.0000      -0.322013        -8.7624
  87   2.0000      -0.311919        -8.4877
  88   2.0000      -0.306467        -8.3394
  89   2.0000      -0.300326        -8.1723
  90   2.0000      -0.297432        -8.0935
  91   2.0000      -0.290394        -7.9020
  92   2.0000      -0.289057        -7.8656
  93   2.0000      -0.281227        -7.6526
  94   2.0000      -0.270751        -7.3675
  95   2.0000      -0.245265        -6.6740
  96   2.0000      -0.230478        -6.2716
  97   2.0000      -0.226502        -6.1634
  98   2.0000      -0.222969        -6.0673
  99   2.0000      -0.215674        -5.8688
 100   2.0000      -0.210213        -5.7202
 101   0.0000      -0.047897        -1.3033
 102   0.0000      -0.026730        -0.7274
 103   0.0000      -0.000207        -0.0056
 104   0.0000       0.009387         0.2554
 105   0.0000       0.009640         0.2623

MULLIKEN ATOMIC CHARGES
-----------------------
   0 C :   -0.443499
   1 C :   -0.160988
   2 O :   -0.257630
   3 P :    0.678520
   4 S :   -0.475900
   5 O :   -0.302656
   6 C :   -0.152738
   7 C :   -0.449862
   8 S :   -0.130195
   9 C :   -0.238074
  10 S :   -0.128421
  11 P :    0.698128
  12 S :   -0.488575
  13 O :   -0.258000
  14 C :   -0.111875
  15 C :   -0.480682
  16 O :   -0.313686
  17 C :   -0.154562
  18 C :   -0.445806
  19 H :    0.153821
  20 H :    0.147564
  21 H :    0.166950
  22 H :    0.159030
  23 H :    0.176043
  24 H :    0.148873
  25 H :    0.172432
  26 H :    0.148817
  27 H :    0.177392
  28 H :    0.155691
  29 H :    0.207939
  30 H :    0.208126
  31 H :    0.166663
  32 H :    0.176271
  33 H :    0.147412
  34 H :    0.150496
  35 H :    0.155358
  36 H :    0.172275
  37 H :    0.150305
  38 H :    0.149073
  39 H :    0.158278
  40 H :    0.167693
Sum of atomic charges:   -0.0000000

LOEWDIN ATOMIC CHARGES
----------------------
   0 C :   -0.399131
   1 C :    0.017577
   2 O :   -0.686457
   3 P :    0.379574
   4 S :   -0.124127
   5 O :   -0.660749
   6 C :    0.020146
   7 C :   -0.406616
   8 S :    0.168194
   9 C :   -0.418217
  10 S :    0.186786
  11 P :    0.387650
  12 S :   -0.132279
  13 O :   -0.657166
  14 C :    0.004211
  15 C :   -0.390901
  16 O :   -0.669877
  17 C :    0.025950
  18 C :   -0.402553
  19 H :    0.159542
  20 H :    0.159557
  21 H :    0.164330
  22 H :    0.182488
  23 H :    0.182331
  24 H :    0.179689
  25 H :    0.179753
  26 H :    0.159672
  27 H :    0.165748
  28 H :    0.160423
  29 H :    0.189166
  30 H :    0.189991
  31 H :    0.181550
  32 H :    0.182646
  33 H :    0.159459
  34 H :    0.157147
  35 H :    0.159076
  36 H :    0.179581
  37 H :    0.180912
  38 H :    0.160111
  39 H :    0.161515
  40 H :    0.163300

  Mayer bond orders larger than 0.100000
B(  0-C ,  1-C ) :   0.9185 B(  0-C , 19-H ) :   0.9732 B(  0-C , 20-H ) :   0.9632
B(  0-C , 21-H ) :   0.9606 B(  1-C ,  2-O ) :   0.7861 B(  1-C , 22-H ) :   0.9633
B(  1-C , 23-H ) :   0.9618 B(  2-O ,  3-P ) :   1.1316 B(  3-P ,  4-S ) :   1.7570
B(  3-P ,  5-O ) :   1.0678 B(  3-P ,  8-S ) :   1.0813 B(  5-O ,  6-C ) :   0.8125
B(  6-C ,  7-C ) :   0.9229 B(  6-C , 24-H ) :   0.9581 B(  6-C , 25-H ) :   0.9674
B(  7-C , 26-H ) :   0.9586 B(  7-C , 27-H ) :   0.9625 B(  7-C , 28-H ) :   0.9682
B(  8-S ,  9-C ) :   0.8919 B(  9-C , 10-S ) :   0.9064 B(  9-C , 29-H ) :   0.9107
B(  9-C , 30-H ) :   0.9090 B( 10-S , 11-P ) :   1.0725 B( 11-P , 12-S ) :   1.7394
B( 11-P , 13-O ) :   1.0780 B( 11-P , 16-O ) :   1.1709 B( 13-O , 14-C ) :   0.7302
B( 14-C , 15-C ) :   0.9366 B( 14-C , 31-H ) :   0.9513 B( 14-C , 32-H ) :   0.9470
B( 15-C , 33-H ) :   0.9669 B( 15-C , 34-H ) :   0.9716 B( 15-C , 35-H ) :   0.9803
B( 16-O , 17-C ) :   0.8063 B( 17-C , 18-C ) :   0.9197 B( 17-C , 36-H ) :   0.9688
B( 17-C , 37-H ) :   0.9609 B( 18-C , 38-H ) :   0.9601 B( 18-C , 39-H ) :   0.9680
B( 18-C , 40-H ) :   0.9621

Dispersion correction           -0.022066167
FINAL SINGLE POINT ENERGY     -2932.464824981902

DIPOLE MOMENT
-------------

Method             : SCF
Type of density    : Electron Density
Multiplicity       :   1
Irrep              :   0
Energy             : -2932.4892736932133630 Eh
Relativity type    :
Basis              : AO
                                X                 Y                 Z
Electronic contribution:      1.783885828      -6.844113709     -17.567447511
Nuclear contribution   :     -1.800068616       7.259006142      18.905715273
                        -----------------------------------------
Total Dipole Moment    :     -0.016182788       0.414892433       1.338267761
                        -----------------------------------------
Magnitude (a.u.)       :      1.401198849
Magnitude (Debye)      :      3.561564432

Rotational constants in cm-1:             0.013132             0.005007             0.004869
Rotational constants in MHz :           393.693181           150.099541           145.969115

                             ****ORCA TERMINATED NORMALLY****
TOTAL RUN TIME: 0 days 0 hours 1 minutes 24 seconds 495 msec
