                         Program Version 6.0.0  -   RELEASE  -
|  1> ! r2scan-3c def2/J RI DEFGRID2 scfconv6 printgap
|  2> %output
|  3>     printlevel normal
|  4> end
|  5> %cpcm
|  6>     smd true
|  7>     smdsolvent "water"
|  8> end
|  9> * xyz 0 1
| 10> C 2.4907082742 -1.5223193662 3.0294624472
| 11> C 1.3217213391 -1.6260643949 2.0730035105
| 12> O 1.1641272005 -0.4215346512 1.2985346479
| 13> P 2.1863400411 -0.0035009965 0.1609359052
| 14> S 3.1623006532 -1.453073504 -0.7320782735
| 15> O 3.0876767638 1.0490141959 0.9358910854
| 16> C 4.3523697392 1.5088500312 0.426414786
| 17> C 4.1905217058 2.3679484754 -0.8108651596
| 18> S 0.9130167406 1.1898401803 -1.0365857898
| 19> C 0.2986809901 -0.1552162122 -2.0855021209
| 20> S -0.5658464862 -1.4501393686 -1.1517599313
| 21> P -2.1773720586 -0.2552281182 -0.4694073707
| 22> S -2.8109614057 1.1567758248 -1.6730846405
| 23> O -1.8077503201 0.2260754196 1.0014360156
| 24> C -1.4705013932 1.5714911151 1.3827904323
| 25> C -2.3086539649 1.9719304636 2.5810390312
| 26> O -3.1528475077 -1.4695459786 -0.1930045771
| 27> C -4.5890717292 -1.3249236119 -0.1892489765
| 28> C -5.0716764673 -0.4462514102 0.9457524224
| 29> H 2.3879968847 -0.639831343 3.6553471379
| 30> H 2.5254518559 -2.4093768536 3.6540796943
| 31> H 3.4204258444 -1.4489385033 2.4661277764
| 32> H 0.369666768 -1.72789699 2.5962932272
| 33> H 1.4530494912 -2.4668626823 1.383710653
| 34> H 4.7789622868 2.0729866591 1.2567723179
| 35> H 4.9747296961 0.6351142022 0.2084665807
| 36> H 5.1526759788 2.788701011 -1.0848343686
| 37> H 3.8209731713 1.7638926431 -1.6385117525
| 38> H 3.4834091764 3.1721597533 -0.6236163464
| 39> H 1.1352290644 -0.6436938929 -2.5835953978
| 40> H -0.3818233414 0.3004153821 -2.8039041453
| 41> H -0.405067809 1.577129453 1.6267251354
| 42> H -1.6480916172 2.2382447553 0.5317853584
| 43> H -1.9894563575 2.9520822511 2.9202103717
| 44> H -3.3609211733 2.0141139306 2.3134289646
| 45> H -2.176819978 1.253029092 3.3844281731
| 46> H -4.8961345452 -0.9107419486 -1.1544990985
| 47> H -4.9510557682 -2.3494516933 -0.0929542627
| 48> H -6.1567181386 -0.4609525278 0.976171142
| 49> H -4.6768689714 -0.8041950455 1.893077456
| 50> H -4.737028174 0.5776071582 0.7833945344
| 51> *
| 52>
| 53>                          ****END OF INPUT****

CARTESIAN COORDINATES (ANGSTROEM)
---------------------------------
  C      2.490708   -1.522319    3.029462
  C      1.321721   -1.626064    2.073004
  O      1.164127   -0.421535    1.298535
  P      2.186340   -0.003501    0.160936
  S      3.162301   -1.453074   -0.732078
  O      3.087677    1.049014    0.935891
  C      4.352370    1.508850    0.426415
  C      4.190522    2.367948   -0.810865
  S      0.913017    1.189840   -1.036586
  C      0.298681   -0.155216   -2.085502
  S     -0.565846   -1.450139   -1.151760
  P     -2.177372   -0.255228   -0.469407
  S     -2.810961    1.156776   -1.673085
  O     -1.807750    0.226075    1.001436
  C     -1.470501    1.571491    1.382790
  C     -2.308654    1.971930    2.581039
  O     -3.152848   -1.469546   -0.193005
  C     -4.589072   -1.324924   -0.189249
  C     -5.071676   -0.446251    0.945752
  H      2.387997   -0.639831    3.655347
  H      2.525452   -2.409377    3.654080
  H      3.420426   -1.448939    2.466128
  H      0.369667   -1.727897    2.596293
  H      1.453049   -2.466863    1.383711
  H      4.778962    2.072987    1.256772
  H      4.974730    0.635114    0.208467
  H      5.152676    2.788701   -1.084834
  H      3.820973    1.763893   -1.638512
  H      3.483409    3.172160   -0.623616
  H      1.135229   -0.643694   -2.583595
  H     -0.381823    0.300415   -2.803904
  H     -0.405068    1.577129    1.626725
  H     -1.648092    2.238245    0.531785
  H     -1.989456    2.952082    2.920210
  H     -3.360921    2.014114    2.313429
  H     -2.176820    1.253029    3.384428
  H     -4.896135   -0.910742   -1.154499
  H     -4.951056   -2.349452   -0.092954
  H     -6.156718   -0.460953    0.976171
  H     -4.676869   -0.804195    1.893077
  H     -4.737028    0.577607    0.783395

 Total Charge           Charge          ....    0
 Multiplicity           Mult            ....    1
 Number of Electrons    NEL             ....  202
 Basis Dimension        Dim             ....  539

ORBITAL ENERGIES
----------------

  NO   OCC          E(Eh)            E(eV)
   0   2.0000     -88.578150     -2410.3340
   1   2.0000     -88.576607     -2410.2920
   2   2.0000     -88.529799     -2409.0183
   3   2.0000     -88.529513     -2409.0105
   4   2.0000     -76.919400     -2093.0833
   5   2.0000     -76.918958     -2093.0713
   6   2.0000     -18.996257      -516.9144
   7   2.0000     -18.993795      -516.8474
   8   2.0000     -18.992513      -516.8126
   9   2.0000     -18.990462      -516.7568
  10   2.0000     -10.104610      -274.9604
  11   2.0000     -10.091072      -274.5920
  12   2.0000     -10.090089      -274.5653
  13   2.0000     -10.088497      -274.5220
  14   2.0000     -10.085871      -274.4505
  15   2.0000     -10.018879      -272.6276
  16   2.0000     -10.018782      -272.6249
  17   2.0000     -10.018299      -272.6118
  18   2.0000     -10.017179      -272.5813
  19   2.0000      -7.872656      -214.2259
  20   2.0000      -7.870903      -214.1782
  21   2.0000      -7.824883      -212.9259
  22   2.0000      -7.824498      -212.9154
  23   2.0000      -6.597805      -179.5354
  24   2.0000      -6.597600      -179.5298
  25   2.0000      -5.819486      -158.3563
  26   2.0000      -5.817857      -158.3119
  27   2.0000      -5.816581      -158.2772
  28   2.0000      -5.814824      -158.2294
  29   2.0000      -5.809731      -158.0908
  30   2.0000      -5.807894      -158.0408
  31   2.0000      -5.772420      -157.0755
  32   2.0000      -5.772052      -157.0655
  33   2.0000      -5.765289      -156.8815
  34   2.0000      -5.764808      -156.8684
  35   2.0000      -5.764774      -156.8675
  36   2.0000      -5.764567      -156.8618
  37   2.0000      -4.743084      -129.0659
  38   2.0000      -4.742902      -129.0609
  39   2.0000      -4.742616      -129.0531
  40   2.0000      -4.742483      -129.0495
  41   2.0000      -4.741888      -129.0333
  42   2.0000      -4.741570      -129.0247
  43   2.0000      -1.052683       -28.6450
  44   2.0000      -1.050715       -28.5914
  45   2.0000      -1.012979       -27.5646
  46   2.0000      -1.011132       -27.5143
  47   2.0000      -0.803864       -21.8742
  48   2.0000      -0.757037       -20.6000
  49   2.0000      -0.742833       -20.2135
  50   2.0000      -0.723247       -19.6806
  51   2.0000      -0.722953       -19.6726
  52   2.0000      -0.708341       -19.2749
  53   2.0000      -0.690496       -18.7893
  54   2.0000      -0.675803       -18.3895
  55   2.0000      -0.634338       -17.2612
  56   2.0000      -0.624048       -16.9812
  57   2.0000      -0.598781       -16.2937
  58   2.0000      -0.594829       -16.1861
  59   2.0000      -0.589428       -16.0392
  60   2.0000      -0.523245       -14.2382
  61   2.0000      -0.512849       -13.9553
  62   2.0000      -0.494305       -13.4507
  63   2.0000      -0.489132       -13.3100
  64   2.0000      -0.474016       -12.8986
  65   2.0000      -0.461556       -12.5596
  66   2.0000      -0.454821       -12.3763
  67   2.0000      -0.446357       -12.1460
  68   2.0000      -0.441596       -12.0164
  69   2.0000      -0.426652       -11.6098
  70   2.0000      -0.421363       -11.4659
  71   2.0000      -0.412543       -11.2259
  72   2.0000      -0.405813       -11.0427
  73   2.0000      -0.403865       -10.9897
  74   2.0000      -0.390748       -10.6328
  75   2.0000      -0.386607       -10.5201
  76   2.0000      -0.385502       -10.4900
  77   2.0000      -0.370387       -10.0787
  78   2.0000      -0.365268        -9.9394
  79   2.0000      -0.364462        -9.9175
  80   2.0000      -0.354632        -9.6500
  81   2.0000      -0.352959        -9.6045
  82   2.0000      -0.348433        -9.4813
  83   2.0000      -0.345631        -9.4051
  84   2.0000      -0.344259        -9.3678
  85   2.0000      -0.333653        -9.0792
  86   2.0000      -0.319657        -8.6983
  87   2.0000      -0.305404        -8.3105
  88   2.0000      -0.304587        -8.2882
  89   2.0000      -0.301069        -8.1925
  90   2.0000      -0.296476        -8.0675
  91   2.0000      -0.290423        -7.9028
  92   2.0000      -0.288640        -7.8543
  93   2.0000      -0.280095        -7.6218
  94   2.0000      -0.273318        -7.4374
  95   2.0000      -0.249348        -6.7851
  96   2.0000      -0.237933        -6.4745
  97   2.0000      -0.234035        -6.3684
  98   2.0000      -0.229878        -6.2553
  99   2.0000      -0.222906        -6.0656
 100   2.0000      -0.217317        -5.9135
 101   0.0000      -0.053871        -1.4659
 102   0.0000      -0.033330        -0.9070
 103   0.0000      -0.004408        -0.1199
 104   0.0000       0.004841         0.1317
 105   0.0000       0.008229         0.2239

MULLIKEN ATOMIC CHARGES
-----------------------
   0 C :   -0.486342
   1 C :   -0.152706
   2 O :   -0.283696
   3 P :    0.721566
   4 S :   -0.522340
   5 O :   -0.329955
   6 C :   -0.152820
   7 C :   -0.486504
   8 S :   -0.135633
   9 C :   -0.251040
  10 S :   -0.155994
  11 P :    0.717865
  12 S :   -0.522325
  13 O :   -0.289704
  14 C :   -0.090294
  15 C :   -0.525068
  16 O :   -0.343585
  17 C :   -0.151108
  18 C :   -0.482315
  19 H :    0.169546
  20 H :    0.172059
  21 H :    0.167739
  22 H :    0.179879
  23 H :    0.176972
  24 H :    0.175944
  25 H :    0.178677
  26 H :    0.173243
  27 H :    0.173095
  28 H :    0.169686
  29 H :    0.231168
  30 H :    0.229583
  31 H :    0.174738
  32 H :    0.174851
  33 H :    0.169117
  34 H :    0.166060
  35 H :    0.169628
  36 H :    0.177885
  37 H :    0.175983
  38 H :    0.173831
  39 H :    0.170561
  40 H :    0.171757
Sum of atomic charges:    0.0000000

LOEWDIN ATOMIC CHARGES
----------------------
   0 C :   -0.402183
   1 C :    0.020888
   2 O :   -0.698416
   3 P :    0.385879
   4 S :   -0.152170
   5 O :   -0.670943
   6 C :    0.026017
   7 C :   -0.409776
   8 S :    0.167752
   9 C :   -0.412275
  10 S :    0.169206
  11 P :    0.388506
  12 S :   -0.154534
  13 O :   -0.671036
  14 C :    0.009111
  15 C :   -0.394191
  16 O :   -0.685750
  17 C :    0.030197
  18 C :   -0.404549
  19 H :    0.163900
  20 H :    0.168631
  21 H :    0.162446
  22 H :    0.190797
  23 H :    0.182199
  24 H :    0.191236
  25 H :    0.181715
  26 H :    0.168571
  27 H :    0.161611
  28 H :    0.163752
  29 H :    0.196420
  30 H :    0.196416
  31 H :    0.184827
  32 H :    0.182853
  33 H :    0.167731
  34 H :    0.161569
  35 H :    0.163491
  36 H :    0.181558
  37 H :    0.191591
  38 H :    0.169569
  39 H :    0.164679
  40 H :    0.162708

  Mayer bond orders larger than 0.100000
B(  0-C ,  1-C ) :   0.9120 B(  0-C , 19-H ) :   0.9716 B(  0-C , 20-H ) :   0.9571
B(  0-C , 21-H ) :   0.9600 B(  1-C ,  2-O ) :   0.7735 B(  1-C , 22-H ) :   0.9533
B(  1-C , 23-H ) :   0.9577 B(  2-O ,  3-P ) :   1.1396 B(  3-P ,  4-S ) :   1.7137
B(  3-P ,  5-O ) :   1.0765 B(  3-P ,  8-S ) :   1.0892 B(  5-O ,  6-C ) :   0.8004
B(  6-C ,  7-C ) :   0.9093 B(  6-C , 24-H ) :   0.9481 B(  6-C , 25-H ) :   0.9662
B(  7-C , 26-H ) :   0.9533 B(  7-C , 27-H ) :   0.9636 B(  7-C , 28-H ) :   0.9654
B(  8-S ,  9-C ) :   0.8857 B(  9-C , 10-S ) :   0.8957 B(  9-C , 29-H ) :   0.9039
B(  9-C , 30-H ) :   0.9041 B( 10-S , 11-P ) :   1.0830 B( 11-P , 12-S ) :   1.7248
B( 11-P , 13-O ) :   1.0769 B( 11-P , 16-O ) :   1.1742 B( 13-O , 14-C ) :   0.7220
B( 14-C , 15-C ) :   0.9334 B( 14-C , 31-H ) :   0.9440 B( 14-C , 32-H ) :   0.9448
B( 15-C , 33-H ) :   0.9605 B( 15-C , 34-H ) :   0.9682 B( 15-C , 35-H ) :   0.9758
B( 16-O , 17-C ) :   0.7943 B( 17-C , 18-C ) :   0.9076 B( 17-C , 36-H ) :   0.9643
B( 17-C , 37-H ) :   0.9508 B( 18-C , 38-H ) :   0.9541 B( 18-C , 39-H ) :   0.9666
B( 18-C , 40-H ) :   0.9597

Dispersion correction           -0.022066167
FINAL SINGLE POINT ENERGY     -2932.472211379662

DIPOLE MOMENT
-------------

Method             : SCF
Type of density    : Electron Density
Multiplicity       :   1
Irrep              :   0
Energy             : -2932.4966600909733643 Eh
Relativity type    :
Basis              : AO
                                X                 Y                 Z
Electronic contribution:      1.788987743      -6.589630025     -17.200444179
Nuclear contribution   :     -1.800068616       7.259006142      18.905715273
                        -----------------------------------------
Total Dipole Moment    :     -0.011080873       0.669376117       1.705271094
                        -----------------------------------------
Magnitude (a.u.)       :      1.831976167
Magnitude (Debye)      :      4.656513356

Rotational constants in cm-1:             0.013132             0.005007             0.004869
Rotational constants in MHz :           393.693181           150.099541           145.969115

                             ****ORCA TERMINATED NORMALLY****
TOTAL RUN TIME: 0 days 0 hours 1 minutes 51 seconds 963 msec
