                         Program Version 6.0.0  -   RELEASE  -
|  1> ! pbe def2-sv(p) def2/J RI DEFGRID1 loosescf d4 GCP(DFT/SV(P)) printgap
|  2> %output
|  3>     printlevel normal
|  4> end
|  5> * xyz 0 1
|  6> C 3.1328967347 -0.7025416848 -3.1313528647
|  7> C 3.852385077 -1.2889985171 -1.9351245377
|  8> O 3.5266532897 -0.6295585848 -0.6986016833
|  9> P 2.0753972901 -0.1815632199 -0.2243581348
| 10> S 1.4821966032 1.5351194637 -0.9782056591
| 11> O 2.2370295797 -0.2051228287 1.3527265514
| 12> C 2.6279829755 0.9626112581 2.0964585412
| 13> C 4.0819296603 1.3050080398 1.8561363491
| 14> S 0.9659265903 -1.9665511989 -0.5080729104
| 15> C -0.2479455644 -1.9681838757 0.8474451532
| 16> S -1.9493306542 -1.6763514656 0.3064934295
| 17> P -1.9774476612 0.4463253188 0.4247588803
| 18> S -0.8646995644 1.1974710856 1.846774262
| 19> O -3.5317540373 0.751686669 0.5508787546
| 20> C -4.2630976259 0.4428099113 1.7555400233
| 21> C -5.5718147896 1.2046794894 1.7121753011
| 22> O -1.6531358838 1.0261388648 -0.9965949672
| 23> C -2.3148001259 0.5850675673 -2.2130706312
| 24> C -1.3453996387 -0.2061083491 -3.0674390755
| 25> H 3.4678668486 -1.2015579221 -4.0349096271
| 26> H 2.0577556835 -0.8467684205 -3.0236268761
| 27> H 3.3324076539 0.3637647308 -3.2108811804
| 28> H 4.9335563631 -1.1635747801 -2.0181153282
| 29> H 3.6088810923 -2.3491159973 -1.8215528843
| 30> H 1.9749901313 1.7949637875 1.8123410082
| 31> H 2.4317403666 0.6926160493 3.1350906092
| 32> H 4.2241070035 1.5752085085 0.8102387371
| 33> H 4.3619702075 2.1456700662 2.4829232432
| 34> H 4.7111450225 0.4497367845 2.0872009216
| 35> H 0.0276114383 -1.2112287261 1.5836393049
| 36> H -0.2290693736 -2.966878155 1.2751312809
| 37> H -4.428320191 -0.6374406359 1.7843826226
| 38> H -3.6544395664 0.7369990641 2.616906542
| 39> H -5.379978394 2.2732207965 1.6685887015
| 40> H -6.1422289116 0.9136349321 0.8350502022
| 41> H -6.144053578 0.9791319065 2.6059164011
| 42> H -3.1951539102 -0.0050714707 -1.9484691
| 43> H -2.6209102781 1.5067560468 -2.7093387185
| 44> H -1.8024379795 -0.4103914845 -4.0300973748
| 45> H -0.4366263735 0.3730025804 -3.2162213159
| 46> H -1.0872475328 -1.1490157735 -2.5891449248
| 47> *
| 48>
| 49>                          ****END OF INPUT****

CARTESIAN COORDINATES (ANGSTROEM)
---------------------------------
  C      3.132897   -0.702542   -3.131353
  C      3.852385   -1.288999   -1.935125
  O      3.526653   -0.629559   -0.698602
  P      2.075397   -0.181563   -0.224358
  S      1.482197    1.535119   -0.978206
  O      2.237030   -0.205123    1.352727
  C      2.627983    0.962611    2.096459
  C      4.081930    1.305008    1.856136
  S      0.965927   -1.966551   -0.508073
  C     -0.247946   -1.968184    0.847445
  S     -1.949331   -1.676351    0.306493
  P     -1.977448    0.446325    0.424759
  S     -0.864700    1.197471    1.846774
  O     -3.531754    0.751687    0.550879
  C     -4.263098    0.442810    1.755540
  C     -5.571815    1.204679    1.712175
  O     -1.653136    1.026139   -0.996595
  C     -2.314800    0.585068   -2.213071
  C     -1.345400   -0.206108   -3.067439
  H      3.467867   -1.201558   -4.034910
  H      2.057756   -0.846768   -3.023627
  H      3.332408    0.363765   -3.210881
  H      4.933556   -1.163575   -2.018115
  H      3.608881   -2.349116   -1.821553
  H      1.974990    1.794964    1.812341
  H      2.431740    0.692616    3.135091
  H      4.224107    1.575209    0.810239
  H      4.361970    2.145670    2.482923
  H      4.711145    0.449737    2.087201
  H      0.027611   -1.211229    1.583639
  H     -0.229069   -2.966878    1.275131
  H     -4.428320   -0.637441    1.784383
  H     -3.654440    0.736999    2.616907
  H     -5.379978    2.273221    1.668589
  H     -6.142229    0.913635    0.835050
  H     -6.144054    0.979132    2.605916
  H     -3.195154   -0.005071   -1.948469
  H     -2.620910    1.506756   -2.709339
  H     -1.802438   -0.410391   -4.030097
  H     -0.436626    0.373003   -3.216221
  H     -1.087248   -1.149016   -2.589145

 Total Charge           Charge          ....    0
 Multiplicity           Mult            ....    1
 Number of Electrons    NEL             ....  202
 Basis Dimension        Dim             ....  334

ORBITAL ENERGIES
----------------

  NO   OCC          E(Eh)            E(eV)
   0   2.0000     -88.043555     -2395.7869
   1   2.0000     -88.039986     -2395.6898
   2   2.0000     -87.982942     -2394.1376
   3   2.0000     -87.972675     -2393.8582
   4   2.0000     -76.423366     -2079.5855
   5   2.0000     -76.419511     -2079.4806
   6   2.0000     -18.792713      -511.3757
   7   2.0000     -18.786693      -511.2119
   8   2.0000     -18.782445      -511.0963
   9   2.0000     -18.782378      -511.0945
  10   2.0000      -9.957970      -270.9701
  11   2.0000      -9.954624      -270.8791
  12   2.0000      -9.952938      -270.8332
  13   2.0000      -9.952271      -270.8151
  14   2.0000      -9.939081      -270.4562
  15   2.0000      -9.888819      -269.0885
  16   2.0000      -9.882687      -268.9216
  17   2.0000      -9.875553      -268.7275
  18   2.0000      -9.873921      -268.6830
  19   2.0000      -7.688797      -209.2228
  20   2.0000      -7.685281      -209.1271
  21   2.0000      -7.628018      -207.5689
  22   2.0000      -7.617606      -207.2856
  23   2.0000      -6.421177      -174.7291
  24   2.0000      -6.416718      -174.6078
  25   2.0000      -5.716480      -155.5533
  26   2.0000      -5.713428      -155.4703
  27   2.0000      -5.713173      -155.4633
  28   2.0000      -5.709503      -155.3635
  29   2.0000      -5.706069      -155.2700
  30   2.0000      -5.702192      -155.1645
  31   2.0000      -5.656932      -153.9329
  32   2.0000      -5.648632      -153.7071
  33   2.0000      -5.648105      -153.6928
  34   2.0000      -5.646602      -153.6518
  35   2.0000      -5.638377      -153.4280
  36   2.0000      -5.637560      -153.4058
  37   2.0000      -4.643866      -126.3660
  38   2.0000      -4.643001      -126.3425
  39   2.0000      -4.641418      -126.2994
  40   2.0000      -4.639278      -126.2412
  41   2.0000      -4.638950      -126.2323
  42   2.0000      -4.636812      -126.1741
  43   2.0000      -0.986823       -26.8528
  44   2.0000      -0.978397       -26.6235
  45   2.0000      -0.942582       -25.6490
  46   2.0000      -0.937914       -25.5219
  47   2.0000      -0.760845       -20.7036
  48   2.0000      -0.718499       -19.5514
  49   2.0000      -0.707023       -19.2391
  50   2.0000      -0.688186       -18.7265
  51   2.0000      -0.684179       -18.6175
  52   2.0000      -0.670200       -18.2371
  53   2.0000      -0.647969       -17.6321
  54   2.0000      -0.631935       -17.1958
  55   2.0000      -0.590136       -16.0584
  56   2.0000      -0.583353       -15.8739
  57   2.0000      -0.569988       -15.5102
  58   2.0000      -0.567921       -15.4539
  59   2.0000      -0.563617       -15.3368
  60   2.0000      -0.508639       -13.8408
  61   2.0000      -0.487548       -13.2669
  62   2.0000      -0.476016       -12.9531
  63   2.0000      -0.464196       -12.6314
  64   2.0000      -0.454300       -12.3621
  65   2.0000      -0.449354       -12.2275
  66   2.0000      -0.437730       -11.9113
  67   2.0000      -0.432562       -11.7706
  68   2.0000      -0.425979       -11.5915
  69   2.0000      -0.418467       -11.3871
  70   2.0000      -0.410263       -11.1638
  71   2.0000      -0.394017       -10.7218
  72   2.0000      -0.385932       -10.5017
  73   2.0000      -0.383930       -10.4473
  74   2.0000      -0.379583       -10.3290
  75   2.0000      -0.367089        -9.9890
  76   2.0000      -0.364354        -9.9146
  77   2.0000      -0.351737        -9.5713
  78   2.0000      -0.348737        -9.4896
  79   2.0000      -0.344500        -9.3743
  80   2.0000      -0.342551        -9.3213
  81   2.0000      -0.339085        -9.2270
  82   2.0000      -0.337655        -9.1881
  83   2.0000      -0.334440        -9.1006
  84   2.0000      -0.331132        -9.0106
  85   2.0000      -0.312418        -8.5013
  86   2.0000      -0.307468        -8.3666
  87   2.0000      -0.301220        -8.1966
  88   2.0000      -0.293505        -7.9867
  89   2.0000      -0.291979        -7.9451
  90   2.0000      -0.281116        -7.6496
  91   2.0000      -0.270365        -7.3570
  92   2.0000      -0.264346        -7.1932
  93   2.0000      -0.258364        -7.0305
  94   2.0000      -0.253601        -6.9008
  95   2.0000      -0.236518        -6.4360
  96   2.0000      -0.221066        -6.0155
  97   2.0000      -0.208615        -5.6767
  98   2.0000      -0.200966        -5.4686
  99   2.0000      -0.188811        -5.1378
 100   2.0000      -0.175694        -4.7809
 101   0.0000      -0.039947        -1.0870
 102   0.0000      -0.028008        -0.7621
 103   0.0000      -0.023218        -0.6318
 104   0.0000       0.003389         0.0922
 105   0.0000       0.017798         0.4843

MULLIKEN ATOMIC CHARGES
-----------------------
   0 C :   -0.333335
   1 C :   -0.000910
   2 O :   -0.377529
   3 P :    0.605126
   4 S :   -0.300950
   5 O :   -0.369307
   6 C :   -0.016419
   7 C :   -0.295914
   8 S :   -0.122425
   9 C :   -0.341640
  10 S :   -0.117122
  11 P :    0.600509
  12 S :   -0.305801
  13 O :   -0.381408
  14 C :   -0.010276
  15 C :   -0.280259
  16 O :   -0.333742
  17 C :   -0.005726
  18 C :   -0.313380
  19 H :    0.111088
  20 H :    0.137174
  21 H :    0.131148
  22 H :    0.109401
  23 H :    0.109214
  24 H :    0.130102
  25 H :    0.100307
  26 H :    0.122975
  27 H :    0.108600
  28 H :    0.110808
  29 H :    0.210260
  30 H :    0.184652
  31 H :    0.101977
  32 H :    0.104330
  33 H :    0.123030
  34 H :    0.114319
  35 H :    0.112266
  36 H :    0.098968
  37 H :    0.111235
  38 H :    0.101433
  39 H :    0.139657
  40 H :    0.127561
Sum of atomic charges:    0.0000000

LOEWDIN ATOMIC CHARGES
----------------------
   0 C :   -0.373972
   1 C :   -0.114109
   2 O :   -0.248738
   3 P :    0.565718
   4 S :   -0.299922
   5 O :   -0.238392
   6 C :   -0.123293
   7 C :   -0.363899
   8 S :    0.069305
   9 C :   -0.474957
  10 S :    0.060196
  11 P :    0.566627
  12 S :   -0.292039
  13 O :   -0.250552
  14 C :   -0.121084
  15 C :   -0.350393
  16 O :   -0.220925
  17 C :   -0.108122
  18 C :   -0.367142
  19 H :    0.129728
  20 H :    0.120438
  21 H :    0.130361
  22 H :    0.121772
  23 H :    0.108706
  24 H :    0.110332
  25 H :    0.116353
  26 H :    0.123349
  27 H :    0.129005
  28 H :    0.123776
  29 H :    0.129932
  30 H :    0.139837
  31 H :    0.107425
  32 H :    0.108902
  33 H :    0.130210
  34 H :    0.125883
  35 H :    0.131034
  36 H :    0.104797
  37 H :    0.122734
  38 H :    0.125815
  39 H :    0.129398
  40 H :    0.115906

  Mayer bond orders larger than 0.100000
B(  0-C ,  1-C ) :   1.1660 B(  0-C , 19-H ) :   0.9327 B(  0-C , 20-H ) :   0.9315
B(  0-C , 21-H ) :   0.9383 B(  1-C ,  2-O ) :   0.9230 B(  1-C , 22-H ) :   0.9340
B(  1-C , 23-H ) :   0.9262 B(  2-O ,  3-P ) :   1.0840 B(  3-P ,  4-S ) :   1.6532
B(  3-P ,  5-O ) :   1.1179 B(  3-P ,  8-S ) :   0.9349 B(  4-S ,  8-S ) :   0.1113
B(  5-O ,  6-C ) :   0.8953 B(  6-C ,  7-C ) :   1.1632 B(  6-C , 24-H ) :   0.9066
B(  6-C , 25-H ) :   0.9352 B(  7-C , 26-H ) :   0.9350 B(  7-C , 27-H ) :   0.9400
B(  7-C , 28-H ) :   0.9459 B(  8-S ,  9-C ) :   1.0014 B(  9-C , 10-S ) :   1.0128
B(  9-C , 29-H ) :   0.8508 B(  9-C , 30-H ) :   0.9105 B( 10-S , 11-P ) :   0.9348
B( 10-S , 12-S ) :   0.1088 B( 11-P , 12-S ) :   1.6389 B( 11-P , 13-O ) :   1.0899
B( 11-P , 16-O ) :   1.1704 B( 13-O , 14-C ) :   0.9039 B( 14-C , 15-C ) :   1.1604
B( 14-C , 31-H ) :   0.9279 B( 14-C , 32-H ) :   0.9096 B( 15-C , 33-H ) :   0.9505
B( 15-C , 34-H ) :   0.9511 B( 15-C , 35-H ) :   0.9419 B( 16-O , 17-C ) :   0.8860
B( 17-C , 18-C ) :   1.1659 B( 17-C , 36-H ) :   0.9188 B( 17-C , 37-H ) :   0.9328
B( 18-C , 38-H ) :   0.9361 B( 18-C , 39-H ) :   0.9320 B( 18-C , 40-H ) :   0.9327

Dispersion correction           -0.067130717
FINAL SINGLE POINT ENERGY     -2929.511776948655

DIPOLE MOMENT
-------------

Method             : SCF
Type of density    : Electron Density
Multiplicity       :   1
Irrep              :   0
Energy             : -2929.6299868860019160 Eh
Relativity type    :
Basis              : AO
                                X                 Y                 Z
Electronic contribution:     -0.419491587      -2.545324471       5.515770048
Nuclear contribution   :     -0.057503910       1.552187853      -5.735135592
                        -----------------------------------------
Total Dipole Moment    :     -0.476995497      -0.993136618      -0.219365544
                        -----------------------------------------
Magnitude (a.u.)       :      1.123372729
Magnitude (Debye)      :      2.855386556

Rotational constants in cm-1:             0.012794             0.005384             0.004787
Rotational constants in MHz :           383.560535           161.403773           143.501239

                             ****ORCA TERMINATED NORMALLY****
TOTAL RUN TIME: 0 days 0 hours 0 minutes 21 seconds 575 msec
