                         Program Version 6.0.0  -   RELEASE  -
|  1> ! r2scan-3c def2/J RI DEFGRID2 scfconv6 printgap
|  2> %output
|  3>     printlevel normal
|  4> end
|  5> %cpcm
|  6>     smd true
|  7>     smdsolvent "water"
|  8> end
|  9> * xyz 0 1
| 10> C 2.4050075642 1.0985583642 -8.56063e-05
| 11> C 1.1476116398 0.285981997 0.0001016786
| 12> C 1.191965161 -1.1057304838 0.0001368856
| 13> C 1.25096e-05 -1.8092693654 -2.1761e-05
| 14> C -1.1919558118 -1.1057419352 -0.0001302202
| 15> C -1.1476277437 0.2859626886 -4.0344e-05
| 16> N -8.4495e-06 0.9543133024 3.68801e-05
| 17> C -2.4050094684 1.0985541276 4.7954e-05
| 18> H 2.9978512333 0.8703632325 -0.8835434931
| 19> H 2.1577032302 2.1551449276 0.0041200587
| 20> H 3.0025339182 0.8640697632 0.8785083381
| 21> H 2.141779075 -1.6176094246 0.0002192114
| 22> H 1.31964e-05 -2.8897653111 -3.32518e-05
| 23> H -2.1417539948 -1.6176460993 -0.0002126381
| 24> H -3.0006678621 0.8666598285 -0.8804946921
| 25> H -2.9997142671 0.8677905554 0.8815358105
| 26> H -2.1576729947 2.1551285352 -0.0007141908
| 27> *
| 28>
| 29>                          ****END OF INPUT****

CARTESIAN COORDINATES (ANGSTROEM)
---------------------------------
  C      2.405008    1.098558   -0.000086
  C      1.147612    0.285982    0.000102
  C      1.191965   -1.105730    0.000137
  C      0.000013   -1.809269   -0.000022
  C     -1.191956   -1.105742   -0.000130
  C     -1.147628    0.285963   -0.000040
  N     -0.000008    0.954313    0.000037
  C     -2.405009    1.098554    0.000048
  H      2.997851    0.870363   -0.883543
  H      2.157703    2.155145    0.004120
  H      3.002534    0.864070    0.878508
  H      2.141779   -1.617609    0.000219
  H      0.000013   -2.889765   -0.000033
  H     -2.141754   -1.617646   -0.000213
  H     -3.000668    0.866660   -0.880495
  H     -2.999714    0.867791    0.881536
  H     -2.157673    2.155129   -0.000714

 Total Charge           Charge          ....    0
 Multiplicity           Mult            ....    1
 Number of Electrons    NEL             ....   58
 Basis Dimension        Dim             ....  202

ORBITAL ENERGIES
----------------

  NO   OCC          E(Eh)            E(eV)
   0   2.0000     -14.147773      -384.9805
   1   2.0000     -10.070612      -274.0353
   2   2.0000     -10.070606      -274.0351
   3   2.0000     -10.043874      -273.3077
   4   2.0000     -10.030375      -272.9404
   5   2.0000     -10.030362      -272.9400
   6   2.0000     -10.016559      -272.5644
   7   2.0000     -10.016553      -272.5643
   8   2.0000      -0.914587       -24.8872
   9   2.0000      -0.766585       -20.8598
  10   2.0000      -0.761596       -20.7241
  11   2.0000      -0.686065       -18.6688
  12   2.0000      -0.648826       -17.6554
  13   2.0000      -0.573339       -15.6014
  14   2.0000      -0.564879       -15.3711
  15   2.0000      -0.467444       -12.7198
  16   2.0000      -0.457773       -12.4566
  17   2.0000      -0.408763       -11.1230
  18   2.0000      -0.407795       -11.0967
  19   2.0000      -0.382013       -10.3951
  20   2.0000      -0.380182       -10.3453
  21   2.0000      -0.372806       -10.1446
  22   2.0000      -0.344159        -9.3650
  23   2.0000      -0.337400        -9.1811
  24   2.0000      -0.334179        -9.0935
  25   2.0000      -0.318308        -8.6616
  26   2.0000      -0.266800        -7.2600
  27   2.0000      -0.225550        -6.1375
  28   2.0000      -0.224838        -6.1182
  29   0.0000      -0.044104        -1.2001
  30   0.0000      -0.034940        -0.9508
  31   0.0000       0.079465         2.1623
  32   0.0000       0.105841         2.8801
  33   0.0000       0.115301         3.1375

MULLIKEN ATOMIC CHARGES
-----------------------
   0 C :   -0.592211
   1 C :    0.231902
   2 C :   -0.219714
   3 C :   -0.205401
   4 C :   -0.219718
   5 C :    0.231903
   6 N :   -0.245563
   7 C :   -0.592201
   8 H :    0.176365
   9 H :    0.177078
  10 H :    0.176146
  11 H :    0.184689
  12 H :    0.182451
  13 H :    0.184688
  14 H :    0.176233
  15 H :    0.176276
  16 H :    0.177078
Sum of atomic charges:   -0.0000000

LOEWDIN ATOMIC CHARGES
----------------------
   0 C :   -0.367311
   1 C :    0.124472
   2 C :   -0.156497
   3 C :   -0.119510
   4 C :   -0.156496
   5 C :    0.124474
   6 N :   -0.668633
   7 C :   -0.367303
   8 H :    0.174305
   9 H :    0.172132
  10 H :    0.174221
  11 H :    0.182229
  12 H :    0.181038
  13 H :    0.182228
  14 H :    0.174252
  15 H :    0.174268
  16 H :    0.172132

  Mayer bond orders larger than 0.100000
B(  0-C ,  1-C ) :   0.8290 B(  0-C ,  8-H ) :   0.9582 B(  0-C ,  9-H ) :   1.0040
B(  0-C , 10-H ) :   0.9585 B(  1-C ,  2-C ) :   1.3807 B(  1-C ,  6-N ) :   1.3566
B(  2-C ,  3-C ) :   1.4076 B(  2-C , 11-H ) :   0.9232 B(  3-C ,  4-C ) :   1.4076
B(  3-C , 12-H ) :   0.9597 B(  4-C ,  5-C ) :   1.3807 B(  4-C , 13-H ) :   0.9232
B(  5-C ,  6-N ) :   1.3565 B(  5-C ,  7-C ) :   0.8290 B(  7-C , 14-H ) :   0.9584
B(  7-C , 15-H ) :   0.9583 B(  7-C , 16-H ) :   1.0040

Dispersion correction           -0.005179981
FINAL SINGLE POINT ENERGY      -326.831571266549

DIPOLE MOMENT
-------------

Method             : SCF
Type of density    : Electron Density
Multiplicity       :   1
Irrep              :   0
Energy             :  -326.8336860783705333 Eh
Relativity type    :
Basis              : AO
                                X                 Y                 Z
Electronic contribution:     -0.000061608      -2.476167199       0.000288455
Nuclear contribution   :      0.000067065       1.557090848      -0.000576628
                        -----------------------------------------
Total Dipole Moment    :      0.000005457      -0.919076352      -0.000288173
                        -----------------------------------------
Magnitude (a.u.)       :      0.919076397
Magnitude (Debye)      :      2.336106547

Rotational constants in cm-1:             0.119036             0.064154             0.042342
Rotational constants in MHz :          3568.617263          1923.291264          1269.394369

                             ****ORCA TERMINATED NORMALLY****
TOTAL RUN TIME: 0 days 0 hours 0 minutes 25 seconds 712 msec
