                         Program Version 6.0.0  -   RELEASE  -
|  1> ! pbe def2-sv(p) def2/J RI DEFGRID1 loosescf d4 GCP(DFT/SV(P)) printgap
|  2> %output
|  3>     printlevel normal
|  4> end
|  5> * xyz 0 1
|  6> C 3.443151639 -2.0414909396 -2.234935748
|  7> C 4.0078779398 -0.7117206412 -1.7779354247
|  8> O 3.5915040416 -0.3802980302 -0.4442813555
|  9> P 2.0877868199 0.0184153075 -0.0782954829
| 10> S 1.2410533769 1.075418107 -1.5058029962
| 11> O 2.3059795956 0.6051188692 1.3705897516
| 12> C 3.2666648776 1.623347852 1.7149751424
| 13> C 2.9012610657 2.9710639914 1.1265140248
| 14> S 1.1129043619 -1.7661179074 0.4701507196
| 15> C -0.2218835617 -1.8002317539 -0.7753342266
| 16> S -1.8898443904 -1.7447430072 -0.0775423424
| 17> P -2.0549923263 0.3307455246 0.3767585707
| 18> S -0.7624443481 1.1105012332 1.6256953413
| 19> O -3.5877136195 0.4447743122 0.7825322475
| 20> C -4.2725681535 -0.4266690237 1.7020400821
| 21> C -3.5715218713 -0.5379400124 3.0392644681
| 22> O -2.018028126 1.1428609 -0.9708094038
| 23> C -2.9420231669 0.9951036054 -2.0785524953
| 24> C -2.364127314 0.0983578114 -3.1562237034
| 25> H 3.6537127561 -2.8134231645 -1.4991925816
| 26> H 2.3648952862 -1.9597678226 -2.3632514544
| 27> H 3.8916385936 -2.3141544063 -3.1847028009
| 28> H 3.6900621896 0.0927799451 -2.4492687522
| 29> H 5.096590885 -0.7357905574 -1.7141856268
| 30> H 3.2280124028 1.6442078843 2.8054961598
| 31> H 4.2550652 1.2982921735 1.3803886466
| 32> H 3.5755500616 3.7302376421 1.5096433421
| 33> H 2.9739753497 2.9444276342 0.0399864067
| 34> H 1.8781044183 3.2254217647 1.3974576804
| 35> H -0.1630245767 -2.7507649483 -1.2989230621
| 36> H -0.0806098007 -0.9521553364 -1.4527754312
| 37> H -5.2567259065 0.0340550908 1.8050290265
| 38> H -4.3670803579 -1.4095752619 1.232279115
| 39> H -2.5942084913 -1.0028806364 2.913900505
| 40> H -3.4262340206 0.4479915249 3.4749721075
| 41> H -4.1689767777 -1.1457105407 3.7110049806
| 42> H -3.8924780694 0.6143666013 -1.7008854297
| 43> H -3.0711817011 2.0148973977 -2.4446057979
| 44> H -2.3393197769 -0.9378504128 -2.8283888233
| 45> H -2.9838460585 0.1720296437 -4.044179926
| 46> H -1.3547686615 0.4233429795 -3.3999854008
| 47> *
| 48>
| 49>                          ****END OF INPUT****

CARTESIAN COORDINATES (ANGSTROEM)
---------------------------------
  C      3.443152   -2.041491   -2.234936
  C      4.007878   -0.711721   -1.777935
  O      3.591504   -0.380298   -0.444281
  P      2.087787    0.018415   -0.078295
  S      1.241053    1.075418   -1.505803
  O      2.305980    0.605119    1.370590
  C      3.266665    1.623348    1.714975
  C      2.901261    2.971064    1.126514
  S      1.112904   -1.766118    0.470151
  C     -0.221884   -1.800232   -0.775334
  S     -1.889844   -1.744743   -0.077542
  P     -2.054992    0.330746    0.376759
  S     -0.762444    1.110501    1.625695
  O     -3.587714    0.444774    0.782532
  C     -4.272568   -0.426669    1.702040
  C     -3.571522   -0.537940    3.039264
  O     -2.018028    1.142861   -0.970809
  C     -2.942023    0.995104   -2.078552
  C     -2.364127    0.098358   -3.156224
  H      3.653713   -2.813423   -1.499193
  H      2.364895   -1.959768   -2.363251
  H      3.891639   -2.314154   -3.184703
  H      3.690062    0.092780   -2.449269
  H      5.096591   -0.735791   -1.714186
  H      3.228012    1.644208    2.805496
  H      4.255065    1.298292    1.380389
  H      3.575550    3.730238    1.509643
  H      2.973975    2.944428    0.039986
  H      1.878104    3.225422    1.397458
  H     -0.163025   -2.750765   -1.298923
  H     -0.080610   -0.952155   -1.452775
  H     -5.256726    0.034055    1.805029
  H     -4.367080   -1.409575    1.232279
  H     -2.594208   -1.002881    2.913901
  H     -3.426234    0.447992    3.474972
  H     -4.168977   -1.145711    3.711005
  H     -3.892478    0.614367   -1.700885
  H     -3.071182    2.014897   -2.444606
  H     -2.339320   -0.937850   -2.828389
  H     -2.983846    0.172030   -4.044180
  H     -1.354769    0.423343   -3.399985

 Total Charge           Charge          ....    0
 Multiplicity           Mult            ....    1
 Number of Electrons    NEL             ....  202
 Basis Dimension        Dim             ....  334

ORBITAL ENERGIES
----------------

  NO   OCC          E(Eh)            E(eV)
   0   2.0000     -88.042009     -2395.7449
   1   2.0000     -88.036632     -2395.5985
   2   2.0000     -87.983075     -2394.1412
   3   2.0000     -87.968486     -2393.7442
   4   2.0000     -76.421421     -2079.5326
   5   2.0000     -76.417825     -2079.4347
   6   2.0000     -18.787075      -511.2223
   7   2.0000     -18.783542      -511.1262
   8   2.0000     -18.782989      -511.1111
   9   2.0000     -18.781801      -511.0788
  10   2.0000      -9.955967      -270.9156
  11   2.0000      -9.955632      -270.9065
  12   2.0000      -9.950575      -270.7689
  13   2.0000      -9.948083      -270.7011
  14   2.0000      -9.947700      -270.6907
  15   2.0000      -9.884294      -268.9653
  16   2.0000      -9.882904      -268.9275
  17   2.0000      -9.878803      -268.8159
  18   2.0000      -9.873649      -268.6757
  19   2.0000      -7.686919      -209.1717
  20   2.0000      -7.681993      -209.0377
  21   2.0000      -7.627838      -207.5640
  22   2.0000      -7.613552      -207.1753
  23   2.0000      -6.418477      -174.6556
  24   2.0000      -6.414947      -174.5596
  25   2.0000      -5.714537      -155.5004
  26   2.0000      -5.711348      -155.4137
  27   2.0000      -5.709868      -155.3734
  28   2.0000      -5.706621      -155.2850
  29   2.0000      -5.704263      -155.2209
  30   2.0000      -5.698785      -155.0718
  31   2.0000      -5.656554      -153.9227
  32   2.0000      -5.648972      -153.7163
  33   2.0000      -5.647662      -153.6807
  34   2.0000      -5.642743      -153.5468
  35   2.0000      -5.634000      -153.3089
  36   2.0000      -5.633611      -153.2984
  37   2.0000      -4.641138      -126.2918
  38   2.0000      -4.639965      -126.2599
  39   2.0000      -4.639183      -126.2386
  40   2.0000      -4.637951      -126.2051
  41   2.0000      -4.637107      -126.1821
  42   2.0000      -4.634688      -126.1163
  43   2.0000      -0.981373       -26.7045
  44   2.0000      -0.980897       -26.6916
  45   2.0000      -0.937703       -25.5162
  46   2.0000      -0.936238       -25.4763
  47   2.0000      -0.758717       -20.6457
  48   2.0000      -0.716226       -19.4895
  49   2.0000      -0.707172       -19.2431
  50   2.0000      -0.686283       -18.6747
  51   2.0000      -0.683850       -18.6085
  52   2.0000      -0.672035       -18.2870
  53   2.0000      -0.647010       -17.6060
  54   2.0000      -0.629982       -17.1427
  55   2.0000      -0.593283       -16.1440
  56   2.0000      -0.580720       -15.8022
  57   2.0000      -0.573689       -15.6109
  58   2.0000      -0.571830       -15.5603
  59   2.0000      -0.560420       -15.2498
  60   2.0000      -0.498275       -13.5587
  61   2.0000      -0.491401       -13.3717
  62   2.0000      -0.467071       -12.7096
  63   2.0000      -0.463447       -12.6110
  64   2.0000      -0.452557       -12.3147
  65   2.0000      -0.446975       -12.1628
  66   2.0000      -0.435704       -11.8561
  67   2.0000      -0.431664       -11.7462
  68   2.0000      -0.426780       -11.6133
  69   2.0000      -0.411832       -11.2065
  70   2.0000      -0.407465       -11.0877
  71   2.0000      -0.403579       -10.9819
  72   2.0000      -0.396014       -10.7761
  73   2.0000      -0.383708       -10.4412
  74   2.0000      -0.380714       -10.3598
  75   2.0000      -0.366973        -9.9858
  76   2.0000      -0.352016        -9.5789
  77   2.0000      -0.351628        -9.5683
  78   2.0000      -0.348814        -9.4917
  79   2.0000      -0.343149        -9.3376
  80   2.0000      -0.341472        -9.2919
  81   2.0000      -0.339866        -9.2482
  82   2.0000      -0.337511        -9.1842
  83   2.0000      -0.333143        -9.0653
  84   2.0000      -0.329201        -8.9580
  85   2.0000      -0.317544        -8.6408
  86   2.0000      -0.306413        -8.3379
  87   2.0000      -0.292605        -7.9622
  88   2.0000      -0.291408        -7.9296
  89   2.0000      -0.287541        -7.8244
  90   2.0000      -0.282274        -7.6811
  91   2.0000      -0.270954        -7.3730
  92   2.0000      -0.267374        -7.2756
  93   2.0000      -0.257785        -7.0147
  94   2.0000      -0.254030        -6.9125
  95   2.0000      -0.236467        -6.4346
  96   2.0000      -0.215676        -5.8689
  97   2.0000      -0.203227        -5.5301
  98   2.0000      -0.199752        -5.4355
  99   2.0000      -0.179978        -4.8974
 100   2.0000      -0.177235        -4.8228
 101   0.0000      -0.035255        -0.9593
 102   0.0000      -0.028178        -0.7668
 103   0.0000      -0.012865        -0.3501
 104   0.0000       0.005948         0.1618
 105   0.0000       0.018138         0.4936

MULLIKEN ATOMIC CHARGES
-----------------------
   0 C :   -0.315963
   1 C :    0.001100
   2 O :   -0.381222
   3 P :    0.630874
   4 S :   -0.316477
   5 O :   -0.358217
   6 C :   -0.000903
   7 C :   -0.316421
   8 S :   -0.060416
   9 C :   -0.381604
  10 S :   -0.127565
  11 P :    0.595483
  12 S :   -0.294176
  13 O :   -0.381981
  14 C :   -0.014964
  15 C :   -0.308984
  16 O :   -0.345573
  17 C :   -0.003550
  18 C :   -0.310664
  19 H :    0.119681
  20 H :    0.117959
  21 H :    0.110833
  22 H :    0.106602
  23 H :    0.100989
  24 H :    0.107892
  25 H :    0.104992
  26 H :    0.105815
  27 H :    0.125334
  28 H :    0.134192
  29 H :    0.182990
  30 H :    0.212390
  31 H :    0.108816
  32 H :    0.112891
  33 H :    0.130975
  34 H :    0.127610
  35 H :    0.108772
  36 H :    0.100696
  37 H :    0.110251
  38 H :    0.117429
  39 H :    0.109093
  40 H :    0.135020
Sum of atomic charges:   -0.0000000

LOEWDIN ATOMIC CHARGES
----------------------
   0 C :   -0.367764
   1 C :   -0.122202
   2 O :   -0.252378
   3 P :    0.571799
   4 S :   -0.295457
   5 O :   -0.228257
   6 C :   -0.109046
   7 C :   -0.367197
   8 S :    0.095328
   9 C :   -0.485657
  10 S :    0.059169
  11 P :    0.559176
  12 S :   -0.301297
  13 O :   -0.247762
  14 C :   -0.115741
  15 C :   -0.370485
  16 O :   -0.227799
  17 C :   -0.110021
  18 C :   -0.367468
  19 H :    0.125861
  20 H :    0.117850
  21 H :    0.129654
  22 H :    0.106546
  23 H :    0.116582
  24 H :    0.121246
  25 H :    0.110266
  26 H :    0.127070
  27 H :    0.121291
  28 H :    0.133291
  29 H :    0.135258
  30 H :    0.120493
  31 H :    0.121036
  32 H :    0.106319
  33 H :    0.123464
  34 H :    0.130900
  35 H :    0.128773
  36 H :    0.108492
  37 H :    0.122686
  38 H :    0.116797
  39 H :    0.129121
  40 H :    0.130062

  Mayer bond orders larger than 0.100000
B(  0-C ,  1-C ) :   1.1635 B(  0-C , 19-H ) :   0.9438 B(  0-C , 20-H ) :   0.9381
B(  0-C , 21-H ) :   0.9383 B(  1-C ,  2-O ) :   0.9237 B(  1-C , 22-H ) :   0.9104
B(  1-C , 23-H ) :   0.9331 B(  2-O ,  3-P ) :   1.0676 B(  3-P ,  4-S ) :   1.5852
B(  3-P ,  5-O ) :   1.1410 B(  3-P ,  8-S ) :   0.9654 B(  4-S ,  8-S ) :   0.1222
B(  4-S , 30-H ) :   0.1102 B(  5-O ,  6-C ) :   0.9075 B(  6-C ,  7-C ) :   1.1644
B(  6-C , 24-H ) :   0.9348 B(  6-C , 25-H ) :   0.9273 B(  7-C , 26-H ) :   0.9373
B(  7-C , 27-H ) :   0.9368 B(  7-C , 28-H ) :   0.9422 B(  8-S ,  9-C ) :   1.0100
B(  9-C , 10-S ) :   0.9930 B(  9-C , 29-H ) :   0.9089 B(  9-C , 30-H ) :   0.8337
B( 10-S , 11-P ) :   0.9308 B( 10-S , 12-S ) :   0.1138 B( 11-P , 12-S ) :   1.6822
B( 11-P , 13-O ) :   1.0756 B( 11-P , 16-O ) :   1.1342 B( 13-O , 14-C ) :   0.9162
B( 14-C , 15-C ) :   1.1671 B( 14-C , 31-H ) :   0.9335 B( 14-C , 32-H ) :   0.9252
B( 15-C , 33-H ) :   0.9313 B( 15-C , 34-H ) :   0.9420 B( 15-C , 35-H ) :   0.9343
B( 16-O , 17-C ) :   0.9018 B( 17-C , 18-C ) :   1.1708 B( 17-C , 36-H ) :   0.9190
B( 17-C , 37-H ) :   0.9352 B( 18-C , 38-H ) :   0.9329 B( 18-C , 39-H ) :   0.9383
B( 18-C , 40-H ) :   0.9354

Dispersion correction           -0.068114977
FINAL SINGLE POINT ENERGY     -2929.510305553807

DIPOLE MOMENT
-------------

Method             : SCF
Type of density    : Electron Density
Multiplicity       :   1
Irrep              :   0
Energy             : -2929.6271778282480227 Eh
Relativity type    :
Basis              : AO
                                X                 Y                 Z
Electronic contribution:     -1.015947111      -1.048721954       7.157881618
Nuclear contribution   :      0.836596169       0.334864276      -7.879332193
                        -----------------------------------------
Total Dipole Moment    :     -0.179350943      -0.713857678      -0.721450576
                        -----------------------------------------
Magnitude (a.u.)       :      1.030655364
Magnitude (Debye)      :      2.619717742

Rotational constants in cm-1:             0.011829             0.005594             0.005087
Rotational constants in MHz :           354.615647           167.689621           152.492422

                             ****ORCA TERMINATED NORMALLY****
TOTAL RUN TIME: 0 days 0 hours 0 minutes 21 seconds 389 msec
