                         Program Version 6.0.0  -   RELEASE  -
|  1> ! pbe def2-sv(p) def2/J RI DEFGRID1 loosescf d4 GCP(DFT/SV(P)) printgap
|  2> %output
|  3>     printlevel normal
|  4> end
|  5> * xyz 0 1
|  6> C 4.6251423615 0.786454803 -1.6295953906
|  7> C 4.7717700008 0.0346587561 -0.3227994609
|  8> O 3.5769012615 -0.6828967189 0.0373355045
|  9> P 2.2217898616 0.0558966845 0.4195256405
| 10> S 2.4179391496 1.6829359195 1.4805356822
| 11> O 1.4237594533 -1.0727586974 1.183409248
| 12> C 1.3247064709 -2.4358756983 0.7022624984
| 13> C 2.3305137387 -3.3229161375 1.404267959
| 14> S 1.2305812653 0.261191616 -1.4614421692
| 15> C 0.0797627007 1.5685593393 -0.9470073919
| 16> S -0.924145249 1.1475365849 0.4987314586
| 17> P -2.3281218697 -0.1348533625 -0.4854264908
| 18> S -1.6369973423 -1.8232208078 -1.1936312125
| 19> O -2.974714335 0.74854074 -1.6232107903
| 20> C -4.0720134425 1.6818975258 -1.457572983
| 21> C -3.7184026551 2.8566334596 -0.5701954679
| 22> O -3.5023962077 -0.2868463683 0.5738825612
| 23> C -3.4930626366 -1.325935231 1.5679224687
| 24> C -2.4562097998 -1.0720501452 2.643331635
| 25> H 3.9187565686 1.6064212158 -1.510251769
| 26> H 5.5892916659 1.1925850608 -1.9180750247
| 27> H 4.2636406441 0.1225963361 -2.4112013522
| 28> H 5.0156112828 0.7238541251 0.4914234517
| 29> H 5.5315557682 -0.7452382171 -0.3912067074
| 30> H 0.2994522178 -2.7396626331 0.9244711417
| 31> H 1.4655927333 -2.4455935146 -0.382158377
| 32> H 3.3426795071 -3.0167945867 1.1541797318
| 33> H 2.1968822069 -3.2541512776 2.4803583796
| 34> H 2.1759083527 -4.3490957552 1.0862113527
| 35> H -0.5609193358 1.7661859243 -1.8039550332
| 36> H 0.6506831276 2.4509905729 -0.6607197798
| 37> H -4.2811739674 1.9984433975 -2.4807444816
| 38> H -4.9257546312 1.1343863827 -1.0551765206
| 39> H -3.5254394612 2.5203787802 0.4460238311
| 40> H -2.8360454147 3.3705370282 -0.9434644411
| 41> H -4.5533748663 3.5504841961 -0.5593320083
| 42> H -4.5049460783 -1.3094459607 1.9750913786
| 43> H -3.3067467918 -2.28179302 1.0673457382
| 44> H -2.6005819582 -0.0905364471 3.0877703144
| 45> H -2.5422240557 -1.8320399687 3.4132693029
| 46> H -1.4531041717 -1.1125779394 2.2190529928
| 47> *
| 48>
| 49>                          ****END OF INPUT****

CARTESIAN COORDINATES (ANGSTROEM)
---------------------------------
  C      4.625142    0.786455   -1.629595
  C      4.771770    0.034659   -0.322799
  O      3.576901   -0.682897    0.037336
  P      2.221790    0.055897    0.419526
  S      2.417939    1.682936    1.480536
  O      1.423759   -1.072759    1.183409
  C      1.324706   -2.435876    0.702262
  C      2.330514   -3.322916    1.404268
  S      1.230581    0.261192   -1.461442
  C      0.079763    1.568559   -0.947007
  S     -0.924145    1.147537    0.498731
  P     -2.328122   -0.134853   -0.485426
  S     -1.636997   -1.823221   -1.193631
  O     -2.974714    0.748541   -1.623211
  C     -4.072013    1.681898   -1.457573
  C     -3.718403    2.856633   -0.570195
  O     -3.502396   -0.286846    0.573883
  C     -3.493063   -1.325935    1.567922
  C     -2.456210   -1.072050    2.643332
  H      3.918757    1.606421   -1.510252
  H      5.589292    1.192585   -1.918075
  H      4.263641    0.122596   -2.411201
  H      5.015611    0.723854    0.491423
  H      5.531556   -0.745238   -0.391207
  H      0.299452   -2.739663    0.924471
  H      1.465593   -2.445594   -0.382158
  H      3.342680   -3.016795    1.154180
  H      2.196882   -3.254151    2.480358
  H      2.175908   -4.349096    1.086211
  H     -0.560919    1.766186   -1.803955
  H      0.650683    2.450991   -0.660720
  H     -4.281174    1.998443   -2.480744
  H     -4.925755    1.134386   -1.055177
  H     -3.525439    2.520379    0.446024
  H     -2.836045    3.370537   -0.943464
  H     -4.553375    3.550484   -0.559332
  H     -4.504946   -1.309446    1.975091
  H     -3.306747   -2.281793    1.067346
  H     -2.600582   -0.090536    3.087770
  H     -2.542224   -1.832040    3.413269
  H     -1.453104   -1.112578    2.219053

 Total Charge           Charge          ....    0
 Multiplicity           Mult            ....    1
 Number of Electrons    NEL             ....  202
 Basis Dimension        Dim             ....  334

ORBITAL ENERGIES
----------------

  NO   OCC          E(Eh)            E(eV)
   0   2.0000     -88.038884     -2395.6598
   1   2.0000     -88.034592     -2395.5430
   2   2.0000     -87.983676     -2394.1575
   3   2.0000     -87.981302     -2394.0929
   4   2.0000     -76.425932     -2079.6554
   5   2.0000     -76.423067     -2079.5774
   6   2.0000     -18.798341      -511.5289
   7   2.0000     -18.793693      -511.4024
   8   2.0000     -18.792594      -511.3725
   9   2.0000     -18.784262      -511.1458
  10   2.0000      -9.960191      -271.0306
  11   2.0000      -9.955701      -270.9084
  12   2.0000      -9.954921      -270.8872
  13   2.0000      -9.952458      -270.8202
  14   2.0000      -9.943551      -270.5778
  15   2.0000      -9.889904      -269.1180
  16   2.0000      -9.886043      -269.0129
  17   2.0000      -9.882555      -268.9180
  18   2.0000      -9.878502      -268.8077
  19   2.0000      -7.683122      -209.0684
  20   2.0000      -7.679555      -208.9713
  21   2.0000      -7.628988      -207.5953
  22   2.0000      -7.626392      -207.5247
  23   2.0000      -6.423376      -174.7889
  24   2.0000      -6.420330      -174.7060
  25   2.0000      -5.710954      -155.4030
  26   2.0000      -5.707886      -155.3195
  27   2.0000      -5.707394      -155.3061
  28   2.0000      -5.704230      -155.2200
  29   2.0000      -5.699996      -155.1048
  30   2.0000      -5.696397      -155.0068
  31   2.0000      -5.657958      -153.9609
  32   2.0000      -5.655331      -153.8894
  33   2.0000      -5.649513      -153.7311
  34   2.0000      -5.649156      -153.7214
  35   2.0000      -5.647279      -153.6703
  36   2.0000      -5.646230      -153.6417
  37   2.0000      -4.646761      -126.4448
  38   2.0000      -4.644945      -126.3954
  39   2.0000      -4.643296      -126.3505
  40   2.0000      -4.643258      -126.3495
  41   2.0000      -4.641959      -126.3141
  42   2.0000      -4.640626      -126.2779
  43   2.0000      -0.991458       -26.9790
  44   2.0000      -0.984581       -26.7918
  45   2.0000      -0.948580       -25.8122
  46   2.0000      -0.940415       -25.5900
  47   2.0000      -0.759952       -20.6793
  48   2.0000      -0.719140       -19.5688
  49   2.0000      -0.707546       -19.2533
  50   2.0000      -0.693708       -18.8768
  51   2.0000      -0.686552       -18.6820
  52   2.0000      -0.672327       -18.2950
  53   2.0000      -0.648965       -17.6592
  54   2.0000      -0.636049       -17.3078
  55   2.0000      -0.596908       -16.2427
  56   2.0000      -0.589575       -16.0431
  57   2.0000      -0.583004       -15.8643
  58   2.0000      -0.567862       -15.4523
  59   2.0000      -0.558599       -15.2003
  60   2.0000      -0.500022       -13.6063
  61   2.0000      -0.494630       -13.4596
  62   2.0000      -0.475094       -12.9280
  63   2.0000      -0.471301       -12.8248
  64   2.0000      -0.460752       -12.5377
  65   2.0000      -0.449396       -12.2287
  66   2.0000      -0.443603       -12.0710
  67   2.0000      -0.429835       -11.6964
  68   2.0000      -0.424090       -11.5401
  69   2.0000      -0.420164       -11.4332
  70   2.0000      -0.411991       -11.2109
  71   2.0000      -0.400868       -10.9082
  72   2.0000      -0.388064       -10.5598
  73   2.0000      -0.378737       -10.3060
  74   2.0000      -0.376561       -10.2467
  75   2.0000      -0.373611       -10.1665
  76   2.0000      -0.365463        -9.9448
  77   2.0000      -0.360074        -9.7981
  78   2.0000      -0.355283        -9.6677
  79   2.0000      -0.353810        -9.6276
  80   2.0000      -0.348916        -9.4945
  81   2.0000      -0.344791        -9.3822
  82   2.0000      -0.340712        -9.2713
  83   2.0000      -0.338654        -9.2152
  84   2.0000      -0.331410        -9.0181
  85   2.0000      -0.323230        -8.7955
  86   2.0000      -0.311937        -8.4883
  87   2.0000      -0.300448        -8.1756
  88   2.0000      -0.295550        -8.0423
  89   2.0000      -0.293199        -7.9784
  90   2.0000      -0.289115        -7.8672
  91   2.0000      -0.274475        -7.4688
  92   2.0000      -0.266798        -7.2599
  93   2.0000      -0.260570        -7.0905
  94   2.0000      -0.255684        -6.9575
  95   2.0000      -0.235169        -6.3993
  96   2.0000      -0.213919        -5.8210
  97   2.0000      -0.207591        -5.6489
  98   2.0000      -0.202664        -5.5148
  99   2.0000      -0.194655        -5.2968
 100   2.0000      -0.185273        -5.0415
 101   0.0000      -0.042073        -1.1449
 102   0.0000      -0.025763        -0.7011
 103   0.0000      -0.005859        -0.1594
 104   0.0000       0.001556         0.0423
 105   0.0000       0.016563         0.4507

MULLIKEN ATOMIC CHARGES
-----------------------
   0 C :   -0.314469
   1 C :   -0.000789
   2 O :   -0.382118
   3 P :    0.601400
   4 S :   -0.321202
   5 O :   -0.352221
   6 C :   -0.020213
   7 C :   -0.281309
   8 S :   -0.076014
   9 C :   -0.355180
  10 S :   -0.077808
  11 P :    0.602924
  12 S :   -0.310899
  13 O :   -0.373689
  14 C :    0.006242
  15 C :   -0.317309
  16 O :   -0.384535
  17 C :   -0.002977
  18 C :   -0.345130
  19 H :    0.125419
  20 H :    0.112428
  21 H :    0.118859
  22 H :    0.112811
  23 H :    0.104301
  24 H :    0.114796
  25 H :    0.109018
  26 H :    0.116250
  27 H :    0.113958
  28 H :    0.108057
  29 H :    0.181380
  30 H :    0.191721
  31 H :    0.110653
  32 H :    0.111267
  33 H :    0.130852
  34 H :    0.118169
  35 H :    0.113607
  36 H :    0.104864
  37 H :    0.111776
  38 H :    0.120884
  39 H :    0.115641
  40 H :    0.158587
Sum of atomic charges:    0.0000000

LOEWDIN ATOMIC CHARGES
----------------------
   0 C :   -0.370857
   1 C :   -0.116605
   2 O :   -0.247233
   3 P :    0.572573
   4 S :   -0.317414
   5 O :   -0.234296
   6 C :   -0.117737
   7 C :   -0.359219
   8 S :    0.078583
   9 C :   -0.481708
  10 S :    0.094601
  11 P :    0.567580
  12 S :   -0.307355
  13 O :   -0.244950
  14 C :   -0.107291
  15 C :   -0.368655
  16 O :   -0.246672
  17 C :   -0.119700
  18 C :   -0.372291
  19 H :    0.120557
  20 H :    0.130708
  21 H :    0.124077
  22 H :    0.112628
  23 H :    0.118046
  24 H :    0.112328
  25 H :    0.106904
  26 H :    0.123701
  27 H :    0.126145
  28 H :    0.128845
  29 H :    0.130388
  30 H :    0.131960
  31 H :    0.122020
  32 H :    0.116186
  33 H :    0.121709
  34 H :    0.124999
  35 H :    0.131429
  36 H :    0.118399
  37 H :    0.110387
  38 H :    0.126700
  39 H :    0.132990
  40 H :    0.127542

  Mayer bond orders larger than 0.100000
B(  0-C ,  1-C ) :   1.1669 B(  0-C , 19-H ) :   0.9347 B(  0-C , 20-H ) :   0.9368
B(  0-C , 21-H ) :   0.9434 B(  1-C ,  2-O ) :   0.9069 B(  1-C , 22-H ) :   0.9183
B(  1-C , 23-H ) :   0.9340 B(  2-O ,  3-P ) :   1.0792 B(  3-P ,  4-S ) :   1.6183
B(  3-P ,  5-O ) :   1.1361 B(  3-P ,  8-S ) :   0.9606 B(  4-S ,  8-S ) :   0.1107
B(  5-O ,  6-C ) :   0.8888 B(  6-C ,  7-C ) :   1.1572 B(  6-C , 24-H ) :   0.9212
B(  6-C , 25-H ) :   0.9188 B(  7-C , 26-H ) :   0.9429 B(  7-C , 27-H ) :   0.9468
B(  7-C , 28-H ) :   0.9411 B(  8-S ,  9-C ) :   1.0010 B(  9-C , 10-S ) :   1.0029
B(  9-C , 29-H ) :   0.8950 B(  9-C , 30-H ) :   0.8900 B( 10-S , 11-P ) :   0.9467
B( 10-S , 12-S ) :   0.1130 B( 11-P , 12-S ) :   1.6712 B( 11-P , 13-O ) :   1.1067
B( 11-P , 16-O ) :   1.0707 B( 13-O , 14-C ) :   0.8952 B( 14-C , 15-C ) :   1.1701
B( 14-C , 31-H ) :   0.9357 B( 14-C , 32-H ) :   0.9273 B( 15-C , 33-H ) :   0.9368
B( 15-C , 34-H ) :   0.9456 B( 15-C , 35-H ) :   0.9352 B( 16-O , 17-C ) :   0.9039
B( 17-C , 18-C ) :   1.1635 B( 17-C , 36-H ) :   0.9326 B( 17-C , 37-H ) :   0.9123
B( 18-C , 38-H ) :   0.9440 B( 18-C , 39-H ) :   0.9380 B( 18-C , 40-H ) :   0.9241

Dispersion correction           -0.066777137
FINAL SINGLE POINT ENERGY     -2929.516598986548

DIPOLE MOMENT
-------------

Method             : SCF
Type of density    : Electron Density
Multiplicity       :   1
Irrep              :   0
Energy             : -2929.6352628647155143 Eh
Relativity type    :
Basis              : AO
                                X                 Y                 Z
Electronic contribution:     -0.010995250       2.634150029      -4.155015605
Nuclear contribution   :     -0.559005640      -2.555986533       4.048430297
                        -----------------------------------------
Total Dipole Moment    :     -0.570000890       0.078163496      -0.106585308
                        -----------------------------------------
Magnitude (a.u.)       :      0.585124752
Magnitude (Debye)      :      1.487268923

Rotational constants in cm-1:             0.012543             0.005237             0.004684
Rotational constants in MHz :           376.030454           157.012816           140.419689

                             ****ORCA TERMINATED NORMALLY****
TOTAL RUN TIME: 0 days 0 hours 0 minutes 21 seconds 241 msec
