                         Program Version 6.0.0  -   RELEASE  -
|  1> ! pbe def2-sv(p) def2/J RI DEFGRID1 loosescf d4 GCP(DFT/SV(P)) printgap
|  2> %output
|  3>     printlevel normal
|  4> end
|  5> * xyz 0 1
|  6> C 0.7486654345 -1.0647670044 3.3616977089
|  7> C 2.026089877 -0.5959969732 2.6961095716
|  8> O 1.6921662171 0.1160923496 1.4776122723
|  9> P 2.3954737345 -0.1812748343 0.0950305831
| 10> S 2.9884607099 -2.0296437655 -0.202306122
| 11> O 3.5588783621 0.8997858192 0.0930293185
| 12> C 4.6018295459 0.9111764856 -0.9024856419
| 13> C 5.8371435387 1.5316655053 -0.2811151632
| 14> S 0.9904467581 0.5834482704 -1.2817202673
| 15> C -0.0216443531 -0.9223087605 -1.3741458018
| 16> S -1.1215131282 -1.1101707091 0.0430216237
| 17> P -2.4680173795 0.4529604241 -0.5118442389
| 18> S -2.753074014 0.6861617533 -2.4339166918
| 19> O -1.9106160255 1.7759657829 0.1372537596
| 20> C -1.3215806445 1.9395399589 1.4493156645
| 21> C -2.2175673858 1.4409351587 2.5623665485
| 22> O -3.7845338702 0.1637545868 0.3288346284
| 23> C -4.8448656985 -0.6757107934 -0.160472125
| 24> C -4.4274676303 -2.1283776962 -0.2662792134
| 25> H 0.1194044121 -0.2152932301 3.6085254044
| 26> H 0.2017187033 -1.7279830592 2.6955766846
| 27> H 1.0019467332 -1.6006852711 4.270671115
| 28> H 2.6712575253 -1.4432721336 2.4423545886
| 29> H 2.5762324201 0.1060333411 3.3249606725
| 30> H 4.7915019104 -0.1185883747 -1.2242030161
| 31> H 4.2460171986 1.494440984 -1.7554857011
| 32> H 6.6241297632 1.5798912153 -1.0265427329
| 33> H 5.6109596066 2.5342188415 0.0700879689
| 34> H 6.175129405 0.9310597998 0.5587776006
| 35> H 0.632415841 -1.7946573414 -1.3992596784
| 36> H -0.6174981976 -0.841095316 -2.2840446528
| 37> H -0.3564870008 1.4249240652 1.4586048861
| 38> H -1.1591180966 3.0168205105 1.5122711371
| 39> H -2.3271583747 0.359904376 2.5039770822
| 40> H -1.7760532717 1.7059106631 3.5185797842
| 41> H -3.2005738828 1.8980757756 2.4844524689
| 42> H -5.6423911113 -0.5382093177 0.5710308123
| 43> H -5.1645824894 -0.2960765102 -1.1359820479
| 44> H -4.0028634786 -2.4712779849 0.6736914854
| 45> H -5.2949705755 -2.7325304088 -0.5117530766
| 46> H -3.6838363928 -2.2467481379 -1.0528113202
| 47> *
| 48>
| 49>                          ****END OF INPUT****

CARTESIAN COORDINATES (ANGSTROEM)
---------------------------------
  C      0.748665   -1.064767    3.361698
  C      2.026090   -0.595997    2.696110
  O      1.692166    0.116092    1.477612
  P      2.395474   -0.181275    0.095031
  S      2.988461   -2.029644   -0.202306
  O      3.558878    0.899786    0.093029
  C      4.601830    0.911176   -0.902486
  C      5.837144    1.531666   -0.281115
  S      0.990447    0.583448   -1.281720
  C     -0.021644   -0.922309   -1.374146
  S     -1.121513   -1.110171    0.043022
  P     -2.468017    0.452960   -0.511844
  S     -2.753074    0.686162   -2.433917
  O     -1.910616    1.775966    0.137254
  C     -1.321581    1.939540    1.449316
  C     -2.217567    1.440935    2.562367
  O     -3.784534    0.163755    0.328835
  C     -4.844866   -0.675711   -0.160472
  C     -4.427468   -2.128378   -0.266279
  H      0.119404   -0.215293    3.608525
  H      0.201719   -1.727983    2.695577
  H      1.001947   -1.600685    4.270671
  H      2.671258   -1.443272    2.442355
  H      2.576232    0.106033    3.324961
  H      4.791502   -0.118588   -1.224203
  H      4.246017    1.494441   -1.755486
  H      6.624130    1.579891   -1.026543
  H      5.610960    2.534219    0.070088
  H      6.175129    0.931060    0.558778
  H      0.632416   -1.794657   -1.399260
  H     -0.617498   -0.841095   -2.284045
  H     -0.356487    1.424924    1.458605
  H     -1.159118    3.016821    1.512271
  H     -2.327158    0.359904    2.503977
  H     -1.776053    1.705911    3.518580
  H     -3.200574    1.898076    2.484452
  H     -5.642391   -0.538209    0.571031
  H     -5.164582   -0.296077   -1.135982
  H     -4.002863   -2.471278    0.673691
  H     -5.294971   -2.732530   -0.511753
  H     -3.683836   -2.246748   -1.052811

 Total Charge           Charge          ....    0
 Multiplicity           Mult            ....    1
 Number of Electrons    NEL             ....  202
 Basis Dimension        Dim             ....  334

ORBITAL ENERGIES
----------------

  NO   OCC          E(Eh)            E(eV)
   0   2.0000     -88.043786     -2395.7932
   1   2.0000     -88.043566     -2395.7872
   2   2.0000     -87.991853     -2394.3800
   3   2.0000     -87.983777     -2394.1603
   4   2.0000     -76.429681     -2079.7574
   5   2.0000     -76.426518     -2079.6713
   6   2.0000     -18.797933      -511.5178
   7   2.0000     -18.796374      -511.4753
   8   2.0000     -18.794932      -511.4361
   9   2.0000     -18.788613      -511.2641
  10   2.0000      -9.957224      -270.9498
  11   2.0000      -9.955228      -270.8955
  12   2.0000      -9.953439      -270.8468
  13   2.0000      -9.951799      -270.8022
  14   2.0000      -9.950277      -270.7608
  15   2.0000      -9.890379      -269.1309
  16   2.0000      -9.889961      -269.1195
  17   2.0000      -9.887157      -269.0432
  18   2.0000      -9.884415      -268.9686
  19   2.0000      -7.689031      -209.2292
  20   2.0000      -7.688192      -209.2063
  21   2.0000      -7.636813      -207.8082
  22   2.0000      -7.629095      -207.5982
  23   2.0000      -6.427665      -174.9057
  24   2.0000      -6.423783      -174.8000
  25   2.0000      -5.716808      -155.5622
  26   2.0000      -5.715890      -155.5373
  27   2.0000      -5.713680      -155.4771
  28   2.0000      -5.712787      -155.4528
  29   2.0000      -5.705946      -155.2667
  30   2.0000      -5.705311      -155.2494
  31   2.0000      -5.665506      -154.1663
  32   2.0000      -5.658078      -153.9641
  33   2.0000      -5.657469      -153.9476
  34   2.0000      -5.657161      -153.9392
  35   2.0000      -5.649641      -153.7346
  36   2.0000      -5.649207      -153.7227
  37   2.0000      -4.650155      -126.5372
  38   2.0000      -4.649408      -126.5168
  39   2.0000      -4.648102      -126.4813
  40   2.0000      -4.646562      -126.4394
  41   2.0000      -4.645586      -126.4128
  42   2.0000      -4.644074      -126.3717
  43   2.0000      -0.991618       -26.9833
  44   2.0000      -0.986367       -26.8404
  45   2.0000      -0.950358       -25.8606
  46   2.0000      -0.944681       -25.7061
  47   2.0000      -0.765849       -20.8398
  48   2.0000      -0.725425       -19.7398
  49   2.0000      -0.712101       -19.3773
  50   2.0000      -0.692777       -18.8514
  51   2.0000      -0.690271       -18.7832
  52   2.0000      -0.677670       -18.4403
  53   2.0000      -0.651068       -17.7165
  54   2.0000      -0.638453       -17.3732
  55   2.0000      -0.601612       -16.3707
  56   2.0000      -0.594541       -16.1783
  57   2.0000      -0.576028       -15.6745
  58   2.0000      -0.572459       -15.5774
  59   2.0000      -0.559731       -15.2310
  60   2.0000      -0.512493       -13.9456
  61   2.0000      -0.491819       -13.3831
  62   2.0000      -0.485516       -13.2116
  63   2.0000      -0.471051       -12.8180
  64   2.0000      -0.459493       -12.5034
  65   2.0000      -0.445449       -12.1213
  66   2.0000      -0.443612       -12.0713
  67   2.0000      -0.438719       -11.9382
  68   2.0000      -0.435430       -11.8487
  69   2.0000      -0.421568       -11.4714
  70   2.0000      -0.407549       -11.0900
  71   2.0000      -0.397077       -10.8050
  72   2.0000      -0.395271       -10.7559
  73   2.0000      -0.384118       -10.4524
  74   2.0000      -0.382048       -10.3960
  75   2.0000      -0.378422       -10.2974
  76   2.0000      -0.367863       -10.0101
  77   2.0000      -0.363321        -9.8865
  78   2.0000      -0.359340        -9.7781
  79   2.0000      -0.355032        -9.6609
  80   2.0000      -0.352604        -9.5949
  81   2.0000      -0.346278        -9.4227
  82   2.0000      -0.345132        -9.3915
  83   2.0000      -0.341216        -9.2850
  84   2.0000      -0.336839        -9.1659
  85   2.0000      -0.321103        -8.7377
  86   2.0000      -0.311709        -8.4820
  87   2.0000      -0.302654        -8.2356
  88   2.0000      -0.294147        -8.0042
  89   2.0000      -0.292802        -7.9675
  90   2.0000      -0.290998        -7.9185
  91   2.0000      -0.282454        -7.6860
  92   2.0000      -0.269515        -7.3339
  93   2.0000      -0.263729        -7.1764
  94   2.0000      -0.261540        -7.1169
  95   2.0000      -0.237548        -6.4640
  96   2.0000      -0.220687        -6.0052
  97   2.0000      -0.213653        -5.8138
  98   2.0000      -0.205769        -5.5992
  99   2.0000      -0.202456        -5.5091
 100   2.0000      -0.200357        -5.4520
 101   0.0000      -0.045064        -1.2263
 102   0.0000      -0.026814        -0.7297
 103   0.0000      -0.005470        -0.1488
 104   0.0000       0.001043         0.0284
 105   0.0000       0.013036         0.3547

MULLIKEN ATOMIC CHARGES
-----------------------
   0 C :   -0.301937
   1 C :   -0.009701
   2 O :   -0.360302
   3 P :    0.613220
   4 S :   -0.337273
   5 O :   -0.377287
   6 C :   -0.011463
   7 C :   -0.282022
   8 S :   -0.066505
   9 C :   -0.375453
  10 S :   -0.102898
  11 P :    0.606800
  12 S :   -0.317785
  13 O :   -0.353635
  14 C :   -0.034685
  15 C :   -0.312379
  16 O :   -0.375750
  17 C :   -0.001977
  18 C :   -0.314715
  19 H :    0.120850
  20 H :    0.130236
  21 H :    0.111606
  22 H :    0.110695
  23 H :    0.105998
  24 H :    0.108336
  25 H :    0.106470
  26 H :    0.113800
  27 H :    0.117653
  28 H :    0.117247
  29 H :    0.193439
  30 H :    0.196840
  31 H :    0.142460
  32 H :    0.106931
  33 H :    0.119215
  34 H :    0.116338
  35 H :    0.121828
  36 H :    0.104747
  37 H :    0.114809
  38 H :    0.114537
  39 H :    0.113761
  40 H :    0.127954
Sum of atomic charges:    0.0000000

LOEWDIN ATOMIC CHARGES
----------------------
   0 C :   -0.356091
   1 C :   -0.115282
   2 O :   -0.237928
   3 P :    0.568672
   4 S :   -0.322017
   5 O :   -0.249366
   6 C :   -0.119172
   7 C :   -0.350682
   8 S :    0.093710
   9 C :   -0.489432
  10 S :    0.079760
  11 P :    0.574105
  12 S :   -0.311892
  13 O :   -0.231670
  14 C :   -0.120285
  15 C :   -0.366847
  16 O :   -0.242013
  17 C :   -0.117398
  18 C :   -0.370058
  19 H :    0.124106
  20 H :    0.125180
  21 H :    0.130909
  22 H :    0.108309
  23 H :    0.116152
  24 H :    0.108370
  25 H :    0.113533
  26 H :    0.131718
  27 H :    0.127220
  28 H :    0.127628
  29 H :    0.127840
  30 H :    0.128846
  31 H :    0.109691
  32 H :    0.122204
  33 H :    0.117780
  34 H :    0.128612
  35 H :    0.128303
  36 H :    0.118555
  37 H :    0.113255
  38 H :    0.122568
  39 H :    0.131460
  40 H :    0.121648

  Mayer bond orders larger than 0.100000
B(  0-C ,  1-C ) :   1.1675 B(  0-C , 19-H ) :   0.9427 B(  0-C , 20-H ) :   0.9421
B(  0-C , 21-H ) :   0.9386 B(  1-C ,  2-O ) :   0.8892 B(  1-C , 22-H ) :   0.9015
B(  1-C , 23-H ) :   0.9329 B(  2-O ,  3-P ) :   1.1249 B(  3-P ,  4-S ) :   1.6001
B(  3-P ,  5-O ) :   1.1194 B(  3-P ,  8-S ) :   0.9791 B(  4-S ,  8-S ) :   0.1072
B(  5-O ,  6-C ) :   0.9021 B(  6-C ,  7-C ) :   1.1624 B(  6-C , 24-H ) :   0.9068
B(  6-C , 25-H ) :   0.9313 B(  7-C , 26-H ) :   0.9416 B(  7-C , 27-H ) :   0.9507
B(  7-C , 28-H ) :   0.9510 B(  8-S ,  9-C ) :   1.0021 B(  9-C , 10-S ) :   1.0075
B(  9-C , 29-H ) :   0.8668 B(  9-C , 30-H ) :   0.8673 B( 10-S , 11-P ) :   0.9330
B( 10-S , 12-S ) :   0.1080 B( 11-P , 12-S ) :   1.6207 B( 11-P , 13-O ) :   1.1562
B( 11-P , 16-O ) :   1.0931 B( 13-O , 14-C ) :   0.8943 B( 14-C , 15-C ) :   1.1737
B( 14-C , 31-H ) :   0.8992 B( 14-C , 32-H ) :   0.9333 B( 15-C , 33-H ) :   0.9358
B( 15-C , 34-H ) :   0.9303 B( 15-C , 35-H ) :   0.9405 B( 16-O , 17-C ) :   0.9053
B( 17-C , 18-C ) :   1.1656 B( 17-C , 36-H ) :   0.9340 B( 17-C , 37-H ) :   0.9160
B( 18-C , 38-H ) :   0.9451 B( 18-C , 39-H ) :   0.9374 B( 18-C , 40-H ) :   0.9348

Dispersion correction           -0.064830427
FINAL SINGLE POINT ENERGY     -2929.523514847967

DIPOLE MOMENT
-------------

Method             : SCF
Type of density    : Electron Density
Multiplicity       :   1
Irrep              :   0
Energy             : -2929.6439771026234666 Eh
Relativity type    :
Basis              : AO
                                X                 Y                 Z
Electronic contribution:     -1.112041209       1.165365168     -17.075107437
Nuclear contribution   :      1.392285369      -1.059688775      18.624737904
                        -----------------------------------------
Total Dipole Moment    :      0.280244160       0.105676393       1.549630468
                        -----------------------------------------
Magnitude (a.u.)       :      1.578308866
Magnitude (Debye)      :      4.011742318

Rotational constants in cm-1:             0.013299             0.004604             0.004335
Rotational constants in MHz :           398.688262           138.013812           129.961131

                             ****ORCA TERMINATED NORMALLY****
TOTAL RUN TIME: 0 days 0 hours 0 minutes 21 seconds 356 msec
