                         Program Version 6.0.1  -  RELEASE   -
|  1> ! pbe def2-sv(p) def2/J RI DEFGRID1 loosescf d4 GCP(DFT/SV(P)) printgap
|  2> %output
|  3>     printlevel normal
|  4> end
|  5> * xyz 0 1
|  6> C 4.3125644909 -3.8063555912 -1.299003985
|  7> C 4.0564448138 -2.5248031433 -0.528614252
|  8> O 3.227375587 -1.6667381221 -1.339177928
|  9> C 2.3664947917 -0.869848902 -0.7553555334
| 10> O 2.2070217446 -0.7802459736 0.4468159331
| 11> C 1.5858498987 -0.0436593575 -1.7558572405
| 12> C 0.326709293 0.4927774402 -1.0922023035
| 13> H -0.1642376634 1.2428030724 -1.7194795769
| 14> C 0.6263308194 1.1305387368 0.2532085642
| 15> O -0.0478839665 0.9075757408 1.240592265
| 16> O 1.5890437112 2.009893458 0.171962855
| 17> C 1.9729644841 2.7241500216 1.3662843837
| 18> C 3.1631893045 2.0472396785 2.0252239973
| 19> S -0.8678755979 -0.8564252659 -0.7993230218
| 20> P -2.3444452956 0.2323040508 0.2651500552
| 21> S -2.5033159784 2.1443189323 -0.1236742366
| 22> O -3.6524917834 -0.5811822485 -0.2124447406
| 23> C -4.134932006 -0.5005075467 -1.555915192
| 24> O -2.4092495176 -0.1499553134 1.797969705
| 25> C -2.1117376576 -1.4720716211 2.2802426056
| 26> H 4.7844112323 -3.5777481165 -2.2496559329
| 27> H 4.9672210635 -4.4479219707 -0.7186147754
| 28> H 3.3778423179 -4.3265738535 -1.4868523704
| 29> H 4.9882618598 -1.9878562798 -0.330541168
| 30> H 3.5435954882 -2.7106082421 0.4196969484
| 31> H 1.3443795336 -0.6519322024 -2.6265228075
| 32> H 2.2139679659 0.792614157 -2.0700774095
| 33> H 2.2207897905 3.7277421823 1.0187332693
| 34> H 1.1128473765 2.7578287994 2.0407507046
| 35> H 4.0206217898 2.0627523218 1.358646693
| 36> H 3.4104628664 2.5689696174 2.9436034387
| 37> H 2.9166752321 1.0126430868 2.2552438176
| 38> H -5.1297251969 -0.9379647737 -1.5367650363
| 39> H -3.4778366646 -1.0621626249 -2.2198121175
| 40> H -4.1833942705 0.5429714949 -1.8723154413
| 41> H -2.4214526112 -1.4692987303 3.3220305087
| 42> H -1.0388783183 -1.6513179192 2.2015431072
| 43> H -2.6662817339 -2.2167056238 1.7108299348
| 44> *
| 45>
| 46>                          ****END OF INPUT****

CARTESIAN COORDINATES (ANGSTROEM)
---------------------------------
  C      4.312564   -3.806356   -1.299004
  C      4.056445   -2.524803   -0.528614
  O      3.227376   -1.666738   -1.339178
  C      2.366495   -0.869849   -0.755356
  O      2.207022   -0.780246    0.446816
  C      1.585850   -0.043659   -1.755857
  C      0.326709    0.492777   -1.092202
  H     -0.164238    1.242803   -1.719480
  C      0.626331    1.130539    0.253209
  O     -0.047884    0.907576    1.240592
  O      1.589044    2.009893    0.171963
  C      1.972964    2.724150    1.366284
  C      3.163189    2.047240    2.025224
  S     -0.867876   -0.856425   -0.799323
  P     -2.344445    0.232304    0.265150
  S     -2.503316    2.144319   -0.123674
  O     -3.652492   -0.581182   -0.212445
  C     -4.134932   -0.500508   -1.555915
  O     -2.409250   -0.149955    1.797970
  C     -2.111738   -1.472072    2.280243
  H      4.784411   -3.577748   -2.249656
  H      4.967221   -4.447922   -0.718615
  H      3.377842   -4.326574   -1.486852
  H      4.988262   -1.987856   -0.330541
  H      3.543595   -2.710608    0.419697
  H      1.344380   -0.651932   -2.626523
  H      2.213968    0.792614   -2.070077
  H      2.220790    3.727742    1.018733
  H      1.112847    2.757829    2.040751
  H      4.020622    2.062752    1.358647
  H      3.410463    2.568970    2.943603
  H      2.916675    1.012643    2.255244
  H     -5.129725   -0.937965   -1.536765
  H     -3.477837   -1.062163   -2.219812
  H     -4.183394    0.542971   -1.872315
  H     -2.421453   -1.469299    3.322031
  H     -1.038878   -1.651318    2.201543
  H     -2.666282   -2.216706    1.710830

 Total Charge           Charge          ....    0
 Multiplicity           Mult            ....    1
 Number of Electrons    NEL             ....  174
 Basis Dimension        Dim             ....  316

ORBITAL ENERGIES
----------------

  NO   OCC          E(Eh)            E(eV)
   0   2.0000     -88.031759     -2395.4660
   1   2.0000     -87.964199     -2393.6275
   2   2.0000     -76.412611     -2079.2928
   3   2.0000     -18.818578      -512.0795
   4   2.0000     -18.805415      -511.7214
   5   2.0000     -18.773816      -510.8615
   6   2.0000     -18.771220      -510.7909
   7   2.0000     -18.755642      -510.3670
   8   2.0000     -18.733516      -509.7649
   9   2.0000     -10.025516      -272.8082
  10   2.0000     -10.012983      -272.4671
  11   2.0000      -9.960371      -271.0355
  12   2.0000      -9.944639      -270.6074
  13   2.0000      -9.944008      -270.5902
  14   2.0000      -9.934956      -270.3439
  15   2.0000      -9.928644      -270.1721
  16   2.0000      -9.923689      -270.0373
  17   2.0000      -9.899300      -269.3736
  18   2.0000      -9.882459      -268.9154
  19   2.0000      -7.676542      -208.8893
  20   2.0000      -7.609636      -207.0687
  21   2.0000      -6.408387      -174.3811
  22   2.0000      -5.704330      -155.2227
  23   2.0000      -5.701221      -155.1381
  24   2.0000      -5.693493      -154.9278
  25   2.0000      -5.638874      -153.4416
  26   2.0000      -5.630338      -153.2093
  27   2.0000      -5.629311      -153.1813
  28   2.0000      -4.631028      -126.0167
  29   2.0000      -4.630600      -126.0050
  30   2.0000      -4.628739      -125.9544
  31   2.0000      -1.027608       -27.9626
  32   2.0000      -1.013018       -27.5656
  33   2.0000      -0.967610       -26.3300
  34   2.0000      -0.932334       -25.3701
  35   2.0000      -0.922850       -25.1120
  36   2.0000      -0.914861       -24.8946
  37   2.0000      -0.765360       -20.8265
  38   2.0000      -0.724058       -19.7026
  39   2.0000      -0.702792       -19.1239
  40   2.0000      -0.687191       -18.6994
  41   2.0000      -0.657869       -17.9015
  42   2.0000      -0.621929       -16.9235
  43   2.0000      -0.617232       -16.7957
  44   2.0000      -0.604797       -16.4574
  45   2.0000      -0.596251       -16.2248
  46   2.0000      -0.561680       -15.2841
  47   2.0000      -0.521684       -14.1957
  48   2.0000      -0.503719       -13.7069
  49   2.0000      -0.493804       -13.4371
  50   2.0000      -0.485901       -13.2220
  51   2.0000      -0.467960       -12.7338
  52   2.0000      -0.457402       -12.4465
  53   2.0000      -0.454231       -12.3603
  54   2.0000      -0.432960       -11.7814
  55   2.0000      -0.431479       -11.7412
  56   2.0000      -0.422590       -11.4993
  57   2.0000      -0.419537       -11.4162
  58   2.0000      -0.412633       -11.2283
  59   2.0000      -0.403119       -10.9694
  60   2.0000      -0.399235       -10.8637
  61   2.0000      -0.390467       -10.6251
  62   2.0000      -0.389046       -10.5865
  63   2.0000      -0.383436       -10.4338
  64   2.0000      -0.373529       -10.1642
  65   2.0000      -0.372369       -10.1327
  66   2.0000      -0.366354        -9.9690
  67   2.0000      -0.356543        -9.7020
  68   2.0000      -0.349929        -9.5220
  69   2.0000      -0.339868        -9.2483
  70   2.0000      -0.332755        -9.0547
  71   2.0000      -0.329212        -8.9583
  72   2.0000      -0.324927        -8.8417
  73   2.0000      -0.310735        -8.4555
  74   2.0000      -0.305607        -8.3160
  75   2.0000      -0.294285        -8.0079
  76   2.0000      -0.283480        -7.7139
  77   2.0000      -0.280858        -7.6425
  78   2.0000      -0.275901        -7.5077
  79   2.0000      -0.260870        -7.0986
  80   2.0000      -0.254805        -6.9336
  81   2.0000      -0.243535        -6.6269
  82   2.0000      -0.239987        -6.5304
  83   2.0000      -0.225474        -6.1354
  84   2.0000      -0.213213        -5.8018
  85   2.0000      -0.186842        -5.0842
  86   2.0000      -0.178507        -4.8574
  87   0.0000      -0.041250        -1.1225
  88   0.0000      -0.027589        -0.7507
  89   0.0000      -0.017301        -0.4708
  90   0.0000       0.012287         0.3343
  91   0.0000       0.030607         0.8329

MULLIKEN ATOMIC CHARGES
-----------------------
   0 C :   -0.283733
   1 C :   -0.031542
   2 O :   -0.222814
   3 C :    0.117157
   4 O :   -0.192494
   5 C :   -0.101013
   6 C :   -0.282246
   7 H :    0.146961
   8 C :    0.231258
   9 O :   -0.192881
  10 O :   -0.236483
  11 C :   -0.015434
  12 C :   -0.303370
  13 S :   -0.108306
  14 P :    0.616801
  15 S :   -0.338589
  16 O :   -0.392301
  17 C :   -0.096348
  18 O :   -0.352417
  19 C :   -0.098819
  20 H :    0.118149
  21 H :    0.116369
  22 H :    0.119543
  23 H :    0.109607
  24 H :    0.121796
  25 H :    0.128614
  26 H :    0.141699
  27 H :    0.103697
  28 H :    0.122934
  29 H :    0.103613
  30 H :    0.111013
  31 H :    0.139143
  32 H :    0.118021
  33 H :    0.104436
  34 H :    0.111356
  35 H :    0.125896
  36 H :    0.129496
  37 H :    0.111229
Sum of atomic charges:   -0.0000000

LOEWDIN ATOMIC CHARGES
----------------------
   0 C :   -0.350444
   1 C :   -0.107541
   2 O :   -0.052185
   3 C :    0.036707
   4 O :   -0.146192
   5 C :   -0.251514
   6 C :   -0.263392
   7 H :    0.143613
   8 C :    0.014364
   9 O :   -0.161576
  10 O :   -0.049172
  11 C :   -0.105347
  12 C :   -0.356730
  13 S :    0.087689
  14 P :    0.590440
  15 S :   -0.333207
  16 O :   -0.271095
  17 C :   -0.221594
  18 O :   -0.231598
  19 C :   -0.207927
  20 H :    0.127862
  21 H :    0.132737
  22 H :    0.128834
  23 H :    0.119176
  24 H :    0.122803
  25 H :    0.142927
  26 H :    0.156466
  27 H :    0.117718
  28 H :    0.126529
  29 H :    0.120286
  30 H :    0.129396
  31 H :    0.134737
  32 H :    0.118572
  33 H :    0.102155
  34 H :    0.107288
  35 H :    0.124099
  36 H :    0.116618
  37 H :    0.108500

  Mayer bond orders larger than 0.100000
B(  0-C ,  1-C ) :   1.1627 B(  0-C , 20-H ) :   0.9484 B(  0-C , 21-H ) :   0.9435
B(  0-C , 22-H ) :   0.9518 B(  1-C ,  2-O ) :   0.8971 B(  1-C , 23-H ) :   0.9352
B(  1-C , 24-H ) :   0.9162 B(  2-O ,  3-C ) :   1.2565 B(  3-C ,  4-O ) :   1.9862
B(  3-C ,  5-C ) :   0.9900 B(  5-C ,  6-C ) :   1.0594 B(  5-C , 25-H ) :   0.9010
B(  5-C , 26-H ) :   0.8764 B(  6-C ,  7-H ) :   0.8545 B(  6-C ,  8-C ) :   0.8750
B(  6-C , 13-S ) :   1.0351 B(  8-C ,  9-O ) :   1.9737 B(  8-C , 10-O ) :   1.2480
B(  9-O , 14-P ) :   0.1042 B( 10-O , 11-C ) :   0.9069 B( 11-C , 12-C ) :   1.1760
B( 11-C , 27-H ) :   0.9376 B( 11-C , 28-H ) :   0.9106 B( 12-C , 29-H ) :   0.9504
B( 12-C , 30-H ) :   0.9434 B( 12-C , 31-H ) :   0.9388 B( 13-S , 14-P ) :   0.9371
B( 13-S , 15-S ) :   0.1098 B( 14-P , 15-S ) :   1.6141 B( 14-P , 16-O ) :   1.0505
B( 14-P , 18-O ) :   1.1323 B( 16-O , 17-C ) :   0.9440 B( 17-C , 32-H ) :   0.9592
B( 17-C , 33-H ) :   0.9458 B( 17-C , 34-H ) :   0.9320 B( 18-O , 19-C ) :   0.9240
B( 19-C , 35-H ) :   0.9597 B( 19-C , 36-H ) :   0.9432 B( 19-C , 37-H ) :   0.9450

Dispersion correction           -0.051452869
FINAL SINGLE POINT ENERGY     -1979.013433686546

DIPOLE MOMENT
-------------

Method             : SCF
Type of density    : Electron Density
Multiplicity       :   1
Irrep              :   0
Energy             : -1979.1445906562030359 Eh
Relativity type    :
Basis              : AO
                                X                 Y                 Z
Electronic contribution:    -18.806753852       8.618532397      -0.895636431
Nuclear contribution   :     20.799773328      -9.941674677       0.234202055
                        -----------------------------------------
Total Dipole Moment    :      1.993019476      -1.323142280      -0.661434376
                        -----------------------------------------
Magnitude (a.u.)       :      2.482000717
Magnitude (Debye)      :      6.308744457

Rotational constants in cm-1:             0.013828             0.006492             0.005381
Rotational constants in MHz :           414.542789           194.633909           161.316640

                             ****ORCA TERMINATED NORMALLY****
TOTAL RUN TIME: 0 days 0 hours 0 minutes 32 seconds 745 msec
