                         Program Version 6.0.1  -  RELEASE   -
|  1> ! pbe def2-sv(p) def2/J RI DEFGRID1 loosescf d4 GCP(DFT/SV(P)) printgap
|  2> %output
|  3>     printlevel normal
|  4> end
|  5> * xyz 0 1
|  6> C 4.7613342484 -0.9618346914 -2.949456759
|  7> C 4.2687960721 -0.4813932292 -1.596446014
|  8> O 2.9634827142 -1.0401773802 -1.3523246427
|  9> C 2.6661240387 -1.4820028437 -0.1505537101
| 10> O 3.420961224 -1.4865255883 0.7963786334
| 11> C 1.2346258259 -1.9900349617 -0.0929562319
| 12> C 0.2774805487 -0.8159959356 -0.3128006595
| 13> H 0.4329916734 -0.3769533526 -1.3010457516
| 14> C 0.5117618426 0.2376805358 0.7543248811
| 15> O -0.2105555069 0.3769188438 1.7188924223
| 16> O 1.5993169674 0.9237426078 0.5093508679
| 17> C 1.999082949 1.9256400436 1.4684963189
| 18> C 2.6617526637 1.2948172963 2.6820174233
| 19> S -1.4464258311 -1.3908274402 -0.1749971503
| 20> P -2.3795235106 0.509735705 -0.0411156972
| 21> S -1.3861236915 2.0106703713 -0.8116136806
| 22> O -3.779222015 0.2219303657 -0.7659359728
| 23> C -3.8518512931 -0.0367948159 -2.1728220553
| 24> O -2.8937191896 0.7868386602 1.4230284993
| 25> C -3.6071722415 -0.1987965351 2.1962117152
| 26> H 5.7242948238 -0.5086929579 -3.1602112582
| 27> H 4.8687050721 -2.0428506561 -2.9508749056
| 28> H 4.0545222019 -0.6772916148 -3.7230814068
| 29> H 4.1551059196 0.6059611129 -1.5793270563
| 30> H 4.9362542401 -0.7884235896 -0.7861196834
| 31> H 1.0588082185 -2.4455721715 0.8820814209
| 32> H 1.0766435376 -2.7272974409 -0.8801298729
| 33> H 2.6915626288 2.5573920944 0.9127854174
| 34> H 1.111171404 2.4974298865 1.7544606411
| 35> H 3.0894173944 2.0750290567 3.3023294247
| 36> H 1.9303655854 0.7387529224 3.2639191313
| 37> H 3.4458132179 0.6108710415 2.3647013152
| 38> H -4.9075609115 0.0187320053 -2.4252115293
| 39> H -3.455142775 -1.02889055 -2.3869909916
| 40> H -3.2883303065 0.719208268 -2.7216930123
| 41> H -4.5318662299 -0.4692598421 1.6897737191
| 42> H -3.8089458242 0.2842003366 3.148547217
| 43> H -2.9796787598 -1.0784480916 2.3390642871
| 44> *
| 45>
| 46>                          ****END OF INPUT****

CARTESIAN COORDINATES (ANGSTROEM)
---------------------------------
  C      4.761334   -0.961835   -2.949457
  C      4.268796   -0.481393   -1.596446
  O      2.963483   -1.040177   -1.352325
  C      2.666124   -1.482003   -0.150554
  O      3.420961   -1.486526    0.796379
  C      1.234626   -1.990035   -0.092956
  C      0.277481   -0.815996   -0.312801
  H      0.432992   -0.376953   -1.301046
  C      0.511762    0.237681    0.754325
  O     -0.210556    0.376919    1.718892
  O      1.599317    0.923743    0.509351
  C      1.999083    1.925640    1.468496
  C      2.661753    1.294817    2.682017
  S     -1.446426   -1.390827   -0.174997
  P     -2.379524    0.509736   -0.041116
  S     -1.386124    2.010670   -0.811614
  O     -3.779222    0.221930   -0.765936
  C     -3.851851   -0.036795   -2.172822
  O     -2.893719    0.786839    1.423028
  C     -3.607172   -0.198797    2.196212
  H      5.724295   -0.508693   -3.160211
  H      4.868705   -2.042851   -2.950875
  H      4.054522   -0.677292   -3.723081
  H      4.155106    0.605961   -1.579327
  H      4.936254   -0.788424   -0.786120
  H      1.058808   -2.445572    0.882081
  H      1.076644   -2.727297   -0.880130
  H      2.691563    2.557392    0.912785
  H      1.111171    2.497430    1.754461
  H      3.089417    2.075029    3.302329
  H      1.930366    0.738753    3.263919
  H      3.445813    0.610871    2.364701
  H     -4.907561    0.018732   -2.425212
  H     -3.455143   -1.028891   -2.386991
  H     -3.288330    0.719208   -2.721693
  H     -4.531866   -0.469260    1.689774
  H     -3.808946    0.284200    3.148547
  H     -2.979679   -1.078448    2.339064

 Total Charge           Charge          ....    0
 Multiplicity           Mult            ....    1
 Number of Electrons    NEL             ....  174
 Basis Dimension        Dim             ....  316

ORBITAL ENERGIES
----------------

  NO   OCC          E(Eh)            E(eV)
   0   2.0000     -88.039470     -2395.6758
   1   2.0000     -87.979482     -2394.0434
   2   2.0000     -76.422903     -2079.5729
   3   2.0000     -18.808358      -511.8014
   4   2.0000     -18.807846      -511.7875
   5   2.0000     -18.788657      -511.2653
   6   2.0000     -18.786861      -511.2165
   7   2.0000     -18.743123      -510.0263
   8   2.0000     -18.738180      -509.8918
   9   2.0000     -10.017162      -272.5808
  10   2.0000     -10.015092      -272.5245
  11   2.0000      -9.951748      -270.8008
  12   2.0000      -9.947330      -270.6806
  13   2.0000      -9.944681      -270.6085
  14   2.0000      -9.943875      -270.5866
  15   2.0000      -9.942384      -270.5460
  16   2.0000      -9.918615      -269.8992
  17   2.0000      -9.893479      -269.2153
  18   2.0000      -9.876129      -268.7431
  19   2.0000      -7.684479      -209.1053
  20   2.0000      -7.624736      -207.4796
  21   2.0000      -6.419755      -174.6904
  22   2.0000      -5.712244      -155.4381
  23   2.0000      -5.709067      -155.3516
  24   2.0000      -5.701507      -155.1459
  25   2.0000      -5.653862      -153.8494
  26   2.0000      -5.645150      -153.6123
  27   2.0000      -5.644832      -153.6037
  28   2.0000      -4.642417      -126.3266
  29   2.0000      -4.641756      -126.3086
  30   2.0000      -4.640073      -126.2628
  31   2.0000      -1.019097       -27.7310
  32   2.0000      -1.013287       -27.5729
  33   2.0000      -0.982363       -26.7315
  34   2.0000      -0.937919       -25.5221
  35   2.0000      -0.920677       -25.0529
  36   2.0000      -0.919706       -25.0265
  37   2.0000      -0.768753       -20.9188
  38   2.0000      -0.717848       -19.5336
  39   2.0000      -0.703019       -19.1301
  40   2.0000      -0.691562       -18.8183
  41   2.0000      -0.661576       -18.0024
  42   2.0000      -0.633285       -17.2326
  43   2.0000      -0.618840       -16.8395
  44   2.0000      -0.615399       -16.7459
  45   2.0000      -0.593184       -16.1414
  46   2.0000      -0.563620       -15.3369
  47   2.0000      -0.515543       -14.0286
  48   2.0000      -0.510586       -13.8938
  49   2.0000      -0.492899       -13.4125
  50   2.0000      -0.479192       -13.0395
  51   2.0000      -0.471052       -12.8180
  52   2.0000      -0.463535       -12.6134
  53   2.0000      -0.450866       -12.2687
  54   2.0000      -0.434623       -11.8267
  55   2.0000      -0.429830       -11.6963
  56   2.0000      -0.427281       -11.6269
  57   2.0000      -0.420017       -11.4292
  58   2.0000      -0.414357       -11.2752
  59   2.0000      -0.411529       -11.1983
  60   2.0000      -0.400600       -10.9009
  61   2.0000      -0.396241       -10.7823
  62   2.0000      -0.395316       -10.7571
  63   2.0000      -0.386231       -10.5099
  64   2.0000      -0.372794       -10.1442
  65   2.0000      -0.364908        -9.9296
  66   2.0000      -0.360243        -9.8027
  67   2.0000      -0.352070        -9.5803
  68   2.0000      -0.349076        -9.4988
  69   2.0000      -0.339806        -9.2466
  70   2.0000      -0.336853        -9.1662
  71   2.0000      -0.330768        -9.0006
  72   2.0000      -0.321145        -8.7388
  73   2.0000      -0.314980        -8.5711
  74   2.0000      -0.301962        -8.2168
  75   2.0000      -0.299287        -8.1440
  76   2.0000      -0.294872        -8.0239
  77   2.0000      -0.289926        -7.8893
  78   2.0000      -0.270605        -7.3635
  79   2.0000      -0.265400        -7.2219
  80   2.0000      -0.258831        -7.0431
  81   2.0000      -0.256603        -6.9825
  82   2.0000      -0.232606        -6.3295
  83   2.0000      -0.225840        -6.1454
  84   2.0000      -0.219656        -5.9772
  85   2.0000      -0.198703        -5.4070
  86   2.0000      -0.197127        -5.3641
  87   0.0000      -0.042953        -1.1688
  88   0.0000      -0.033688        -0.9167
  89   0.0000      -0.021492        -0.5848
  90   0.0000       0.014388         0.3915
  91   0.0000       0.023742         0.6460

MULLIKEN ATOMIC CHARGES
-----------------------
   0 C :   -0.285615
   1 C :   -0.026496
   2 O :   -0.234534
   3 C :    0.102876
   4 O :   -0.191955
   5 C :   -0.044254
   6 C :   -0.285712
   7 H :    0.151870
   8 C :    0.167636
   9 O :   -0.186786
  10 O :   -0.222804
  11 C :   -0.003974
  12 C :   -0.322291
  13 S :   -0.099286
  14 P :    0.616377
  15 S :   -0.321652
  16 O :   -0.389540
  17 C :   -0.099841
  18 O :   -0.347063
  19 C :   -0.103124
  20 H :    0.114251
  21 H :    0.114617
  22 H :    0.118148
  23 H :    0.109033
  24 H :    0.117406
  25 H :    0.111654
  26 H :    0.124322
  27 H :    0.100047
  28 H :    0.116405
  29 H :    0.108856
  30 H :    0.127558
  31 H :    0.133419
  32 H :    0.124417
  33 H :    0.113170
  34 H :    0.116733
  35 H :    0.119511
  36 H :    0.132482
  37 H :    0.124138
Sum of atomic charges:    0.0000000

LOEWDIN ATOMIC CHARGES
----------------------
   0 C :   -0.350842
   1 C :   -0.109465
   2 O :   -0.056557
   3 C :    0.025794
   4 O :   -0.159901
   5 C :   -0.238049
   6 C :   -0.266723
   7 H :    0.139889
   8 C :   -0.002873
   9 O :   -0.165656
  10 O :   -0.036209
  11 C :   -0.104089
  12 C :   -0.363498
  13 S :    0.093132
  14 P :    0.584485
  15 S :   -0.310214
  16 O :   -0.262230
  17 C :   -0.217274
  18 O :   -0.226361
  19 C :   -0.207344
  20 H :    0.131489
  21 H :    0.126620
  22 H :    0.127325
  23 H :    0.119224
  24 H :    0.120736
  25 H :    0.140164
  26 H :    0.142675
  27 H :    0.116849
  28 H :    0.124484
  29 H :    0.128470
  30 H :    0.130598
  31 H :    0.130604
  32 H :    0.122005
  33 H :    0.107176
  34 H :    0.111184
  35 H :    0.113395
  36 H :    0.127518
  37 H :    0.113467

  Mayer bond orders larger than 0.100000
B(  0-C ,  1-C ) :   1.1653 B(  0-C , 20-H ) :   0.9442 B(  0-C , 21-H ) :   0.9517
B(  0-C , 22-H ) :   0.9489 B(  1-C ,  2-O ) :   0.9043 B(  1-C , 23-H ) :   0.9319
B(  1-C , 24-H ) :   0.9116 B(  2-O ,  3-C ) :   1.2098 B(  3-C ,  4-O ) :   2.0507
B(  3-C ,  5-C ) :   1.0164 B(  5-C ,  6-C ) :   1.0546 B(  5-C , 25-H ) :   0.8974
B(  5-C , 26-H ) :   0.8902 B(  6-C ,  7-H ) :   0.8652 B(  6-C ,  8-C ) :   0.8800
B(  6-C , 13-S ) :   1.0177 B(  8-C ,  9-O ) :   2.0243 B(  8-C , 10-O ) :   1.2390
B( 10-O , 11-C ) :   0.9019 B( 11-C , 12-C ) :   1.1716 B( 11-C , 27-H ) :   0.9381
B( 11-C , 28-H ) :   0.9176 B( 12-C , 29-H ) :   0.9423 B( 12-C , 30-H ) :   0.9433
B( 12-C , 31-H ) :   0.9357 B( 13-S , 14-P ) :   0.9518 B( 13-S , 15-S ) :   0.1121
B( 14-P , 15-S ) :   1.6134 B( 14-P , 16-O ) :   1.0695 B( 14-P , 18-O ) :   1.1486
B( 16-O , 17-C ) :   0.9341 B( 17-C , 32-H ) :   0.9587 B( 17-C , 33-H ) :   0.9463
B( 17-C , 34-H ) :   0.9354 B( 18-O , 19-C ) :   0.9171 B( 19-C , 35-H ) :   0.9468
B( 19-C , 36-H ) :   0.9601 B( 19-C , 37-H ) :   0.9399

Dispersion correction           -0.051988086
FINAL SINGLE POINT ENERGY     -1979.015729757672

DIPOLE MOMENT
-------------

Method             : SCF
Type of density    : Electron Density
Multiplicity       :   1
Irrep              :   0
Energy             : -1979.1466287386197109 Eh
Relativity type    :
Basis              : AO
                                X                 Y                 Z
Electronic contribution:    -16.604310786       1.700729478       1.337463791
Nuclear contribution   :     16.863761601      -2.386827640      -2.017677391
                        -----------------------------------------
Total Dipole Moment    :      0.259450815      -0.686098162      -0.680213600
                        -----------------------------------------
Magnitude (a.u.)       :      1.000367910
Magnitude (Debye)      :      2.542733153

Rotational constants in cm-1:             0.015908             0.006062             0.005473
Rotational constants in MHz :           476.895369           181.738526           164.067177

                             ****ORCA TERMINATED NORMALLY****
TOTAL RUN TIME: 0 days 0 hours 0 minutes 43 seconds 882 msec
