                         Program Version 6.0.0  -   RELEASE  -
|  1> ! pbe def2-sv(p) def2/J RI DEFGRID1 loosescf d4 GCP(DFT/SV(P)) printgap
|  2> %output
|  3>     printlevel normal
|  4> end
|  5> * xyz 0 1
|  6> C 1.0858733928 -1.6281321055 -2.2302026993
|  7> C 2.4602246513 -1.0239669457 -2.0226335871
|  8> O 2.4510537862 0.0207611809 -1.0221929993
|  9> P 2.5183113709 -0.159044755 0.5451445052
| 10> S 3.006173409 1.5575532164 1.3514678393
| 11> O 3.5280489554 -1.3787321405 0.6748179883
| 12> C 3.6979900612 -2.1959483972 1.8495303186
| 13> C 4.030588223 -1.3856477617 3.0842766996
| 14> S 0.6848781707 -0.9751826484 1.2645169517
| 15> C -0.1813657991 0.598283666 1.4324088217
| 16> S -0.4376668233 1.4505823777 -0.1566718259
| 17> P -2.2280438324 0.4944865758 -0.7388691272
| 18> S -2.9425236201 1.0385410296 -2.4811108331
| 19> O -3.2613335185 0.6684387393 0.471172207
| 20> C -4.2034600816 1.7506511038 0.5074967818
| 21> C -3.5269827727 3.0747544281 0.8005525607
| 22> O -1.7768782163 -1.0078217117 -0.5313964647
| 23> C -2.6878349941 -2.1306728916 -0.5619225351
| 24> C -2.8989098218 -2.6313283587 -1.9765484049
| 25> H 0.7631711641 -2.1700542497 -1.3440351068
| 26> H 0.3586873153 -0.8465608756 -2.4464518923
| 27> H 1.1263109489 -2.3131938343 -3.0716715647
| 28> H 2.8043020436 -0.508635561 -2.9211453003
| 29> H 3.1864617147 -1.7839303251 -1.7293421184
| 30> H 2.7805380249 -2.7713603166 1.9995665122
| 31> H 4.5172898065 -2.8643157914 1.5785375102
| 32> H 4.2306937644 -2.0574711846 3.9126711484
| 33> H 4.9037198536 -0.7626041404 2.9056863687
| 34> H 3.1958027271 -0.7369889837 3.3448108114
| 35> H 0.4268574486 1.2741030104 2.0342007134
| 36> H -1.1406123785 0.391022264 1.8994264283
| 37> H -4.7217449774 1.7914706978 -0.4560333494
| 38> H -4.9029061097 1.4703716641 1.2963456938
| 39> H -4.2787988984 3.8530067217 0.8826992708
| 40> H -2.9630902781 3.0208673624 1.7284091756
| 41> H -2.8446156175 3.3290362252 -0.0105421106
| 42> H -2.1948806347 -2.8812501569 0.0590461177
| 43> H -3.6329105864 -1.8345751893 -0.1013634766
| 44> H -3.5457143778 -3.502666937 -1.9541936947
| 45> H -3.3639234872 -1.859356585 -2.5863112944
| 46> H -1.9470110518 -2.9010348345 -2.4254538771
| 47> *
| 48>
| 49>                          ****END OF INPUT****

CARTESIAN COORDINATES (ANGSTROEM)
---------------------------------
  C      1.085873   -1.628132   -2.230203
  C      2.460225   -1.023967   -2.022634
  O      2.451054    0.020761   -1.022193
  P      2.518311   -0.159045    0.545145
  S      3.006173    1.557553    1.351468
  O      3.528049   -1.378732    0.674818
  C      3.697990   -2.195948    1.849530
  C      4.030588   -1.385648    3.084277
  S      0.684878   -0.975183    1.264517
  C     -0.181366    0.598284    1.432409
  S     -0.437667    1.450582   -0.156672
  P     -2.228044    0.494487   -0.738869
  S     -2.942524    1.038541   -2.481111
  O     -3.261334    0.668439    0.471172
  C     -4.203460    1.750651    0.507497
  C     -3.526983    3.074754    0.800553
  O     -1.776878   -1.007822   -0.531396
  C     -2.687835   -2.130673   -0.561923
  C     -2.898910   -2.631328   -1.976548
  H      0.763171   -2.170054   -1.344035
  H      0.358687   -0.846561   -2.446452
  H      1.126311   -2.313194   -3.071672
  H      2.804302   -0.508636   -2.921145
  H      3.186462   -1.783930   -1.729342
  H      2.780538   -2.771360    1.999567
  H      4.517290   -2.864316    1.578538
  H      4.230694   -2.057471    3.912671
  H      4.903720   -0.762604    2.905686
  H      3.195803   -0.736989    3.344811
  H      0.426857    1.274103    2.034201
  H     -1.140612    0.391022    1.899426
  H     -4.721745    1.791471   -0.456033
  H     -4.902906    1.470372    1.296346
  H     -4.278799    3.853007    0.882699
  H     -2.963090    3.020867    1.728409
  H     -2.844616    3.329036   -0.010542
  H     -2.194881   -2.881250    0.059046
  H     -3.632911   -1.834575   -0.101363
  H     -3.545714   -3.502667   -1.954194
  H     -3.363923   -1.859357   -2.586311
  H     -1.947011   -2.901035   -2.425454

 Total Charge           Charge          ....    0
 Multiplicity           Mult            ....    1
 Number of Electrons    NEL             ....  202
 Basis Dimension        Dim             ....  334

ORBITAL ENERGIES
----------------

  NO   OCC          E(Eh)            E(eV)
   0   2.0000     -88.043760     -2395.7925
   1   2.0000     -88.042679     -2395.7631
   2   2.0000     -87.988818     -2394.2975
   3   2.0000     -87.981151     -2394.0888
   4   2.0000     -76.428134     -2079.7152
   5   2.0000     -76.427046     -2079.6857
   6   2.0000     -18.798659      -511.5375
   7   2.0000     -18.796974      -511.4917
   8   2.0000     -18.794281      -511.4184
   9   2.0000     -18.786370      -511.2031
  10   2.0000      -9.962371      -271.0899
  11   2.0000      -9.959138      -271.0019
  12   2.0000      -9.956722      -270.9362
  13   2.0000      -9.953657      -270.8528
  14   2.0000      -9.950365      -270.7632
  15   2.0000      -9.885313      -268.9930
  16   2.0000      -9.885067      -268.9863
  17   2.0000      -9.884907      -268.9820
  18   2.0000      -9.879034      -268.8222
  19   2.0000      -7.688580      -209.2169
  20   2.0000      -7.687562      -209.1892
  21   2.0000      -7.633862      -207.7280
  22   2.0000      -7.626503      -207.5277
  23   2.0000      -6.425599      -174.8494
  24   2.0000      -6.423913      -174.8036
  25   2.0000      -5.716261      -155.5474
  26   2.0000      -5.715799      -155.5348
  27   2.0000      -5.713167      -155.4632
  28   2.0000      -5.711927      -155.4294
  29   2.0000      -5.705706      -155.2602
  30   2.0000      -5.704344      -155.2231
  31   2.0000      -5.662794      -154.0924
  32   2.0000      -5.655544      -153.8952
  33   2.0000      -5.654496      -153.8667
  34   2.0000      -5.654025      -153.8538
  35   2.0000      -5.647125      -153.6661
  36   2.0000      -5.646502      -153.6491
  37   2.0000      -4.648342      -126.4878
  38   2.0000      -4.647449      -126.4635
  39   2.0000      -4.646963      -126.4503
  40   2.0000      -4.645842      -126.4198
  41   2.0000      -4.645821      -126.4192
  42   2.0000      -4.643908      -126.3671
  43   2.0000      -0.991181       -26.9714
  44   2.0000      -0.988499       -26.8984
  45   2.0000      -0.948102       -25.7992
  46   2.0000      -0.942786       -25.6545
  47   2.0000      -0.765289       -20.8246
  48   2.0000      -0.723433       -19.6856
  49   2.0000      -0.710988       -19.3470
  50   2.0000      -0.690482       -18.7890
  51   2.0000      -0.689205       -18.7542
  52   2.0000      -0.676936       -18.4204
  53   2.0000      -0.654248       -17.8030
  54   2.0000      -0.637028       -17.3344
  55   2.0000      -0.595080       -16.1930
  56   2.0000      -0.590237       -16.0612
  57   2.0000      -0.580938       -15.8081
  58   2.0000      -0.577437       -15.7129
  59   2.0000      -0.563297       -15.3281
  60   2.0000      -0.504356       -13.7242
  61   2.0000      -0.500654       -13.6235
  62   2.0000      -0.473548       -12.8859
  63   2.0000      -0.471487       -12.8298
  64   2.0000      -0.466104       -12.6833
  65   2.0000      -0.445663       -12.1271
  66   2.0000      -0.440746       -11.9933
  67   2.0000      -0.435460       -11.8495
  68   2.0000      -0.431388       -11.7387
  69   2.0000      -0.420420       -11.4402
  70   2.0000      -0.414247       -11.2722
  71   2.0000      -0.407054       -11.0765
  72   2.0000      -0.398134       -10.8338
  73   2.0000      -0.387970       -10.5572
  74   2.0000      -0.382920       -10.4198
  75   2.0000      -0.368620       -10.0307
  76   2.0000      -0.360554        -9.8112
  77   2.0000      -0.357545        -9.7293
  78   2.0000      -0.353865        -9.6292
  79   2.0000      -0.350275        -9.5315
  80   2.0000      -0.347830        -9.4649
  81   2.0000      -0.345304        -9.3962
  82   2.0000      -0.341520        -9.2932
  83   2.0000      -0.340328        -9.2608
  84   2.0000      -0.332512        -9.0481
  85   2.0000      -0.323800        -8.8110
  86   2.0000      -0.316578        -8.6145
  87   2.0000      -0.300482        -8.1765
  88   2.0000      -0.297895        -8.1061
  89   2.0000      -0.295130        -8.0309
  90   2.0000      -0.288108        -7.8398
  91   2.0000      -0.279523        -7.6062
  92   2.0000      -0.275047        -7.4844
  93   2.0000      -0.267212        -7.2712
  94   2.0000      -0.257244        -7.0000
  95   2.0000      -0.232969        -6.3394
  96   2.0000      -0.217868        -5.9285
  97   2.0000      -0.208057        -5.6615
  98   2.0000      -0.203087        -5.5263
  99   2.0000      -0.201516        -5.4835
 100   2.0000      -0.194735        -5.2990
 101   0.0000      -0.043578        -1.1858
 102   0.0000      -0.024303        -0.6613
 103   0.0000      -0.011642        -0.3168
 104   0.0000       0.000598         0.0163
 105   0.0000       0.004742         0.1290

MULLIKEN ATOMIC CHARGES
-----------------------
   0 C :   -0.332317
   1 C :    0.002291
   2 O :   -0.348282
   3 P :    0.617939
   4 S :   -0.314770
   5 O :   -0.384605
   6 C :   -0.011413
   7 C :   -0.307362
   8 S :   -0.106965
   9 C :   -0.364766
  10 S :   -0.038353
  11 P :    0.607592
  12 S :   -0.320321
  13 O :   -0.386935
  14 C :   -0.009146
  15 C :   -0.310256
  16 O :   -0.371470
  17 C :   -0.004789
  18 C :   -0.306614
  19 H :    0.125161
  20 H :    0.136763
  21 H :    0.106225
  22 H :    0.110235
  23 H :    0.103880
  24 H :    0.111964
  25 H :    0.109541
  26 H :    0.111048
  27 H :    0.128267
  28 H :    0.125083
  29 H :    0.197088
  30 H :    0.181665
  31 H :    0.112738
  32 H :    0.102595
  33 H :    0.113834
  34 H :    0.113482
  35 H :    0.129756
  36 H :    0.104563
  37 H :    0.104277
  38 H :    0.107882
  39 H :    0.131181
  40 H :    0.123315
Sum of atomic charges:   -0.0000000

LOEWDIN ATOMIC CHARGES
----------------------
   0 C :   -0.370229
   1 C :   -0.110156
   2 O :   -0.231061
   3 P :    0.567795
   4 S :   -0.309666
   5 O :   -0.244951
   6 C :   -0.114326
   7 C :   -0.368783
   8 S :    0.072897
   9 C :   -0.482780
  10 S :    0.114426
  11 P :    0.561756
  12 S :   -0.319098
  13 O :   -0.251402
  14 C :   -0.124101
  15 C :   -0.366268
  16 O :   -0.238654
  17 C :   -0.110892
  18 C :   -0.363932
  19 H :    0.114856
  20 H :    0.127395
  21 H :    0.126817
  22 H :    0.122778
  23 H :    0.109639
  24 H :    0.107158
  25 H :    0.121215
  26 H :    0.130059
  27 H :    0.131504
  28 H :    0.121231
  29 H :    0.131058
  30 H :    0.130617
  31 H :    0.109557
  32 H :    0.116671
  33 H :    0.131490
  34 H :    0.123541
  35 H :    0.123362
  36 H :    0.117211
  37 H :    0.111039
  38 H :    0.128834
  39 H :    0.125406
  40 H :    0.127988

  Mayer bond orders larger than 0.100000
B(  0-C ,  1-C ) :   1.1655 B(  0-C , 19-H ) :   0.9378 B(  0-C , 20-H ) :   0.9358
B(  0-C , 21-H ) :   0.9363 B(  1-C ,  2-O ) :   0.9024 B(  1-C , 22-H ) :   0.9333
B(  1-C , 23-H ) :   0.9235 B(  2-O ,  3-P ) :   1.1407 B(  3-P ,  4-S ) :   1.6396
B(  3-P ,  5-O ) :   1.0833 B(  3-P ,  8-S ) :   0.9354 B(  4-S ,  8-S ) :   0.1119
B(  5-O ,  6-C ) :   0.9113 B(  6-C ,  7-C ) :   1.1671 B(  6-C , 24-H ) :   0.9259
B(  6-C , 25-H ) :   0.9332 B(  7-C , 26-H ) :   0.9349 B(  7-C , 27-H ) :   0.9433
B(  7-C , 28-H ) :   0.9315 B(  8-S ,  9-C ) :   1.0069 B(  9-C , 10-S ) :   0.9843
B(  9-C , 29-H ) :   0.8724 B(  9-C , 30-H ) :   0.8915 B( 10-S , 11-P ) :   0.9878
B( 11-P , 12-S ) :   1.6440 B( 11-P , 13-O ) :   1.0497 B( 11-P , 16-O ) :   1.1038
B( 13-O , 14-C ) :   0.9096 B( 14-C , 15-C ) :   1.1638 B( 14-C , 31-H ) :   0.9108
B( 14-C , 32-H ) :   0.9331 B( 15-C , 33-H ) :   0.9389 B( 15-C , 34-H ) :   0.9474
B( 15-C , 35-H ) :   0.9351 B( 16-O , 17-C ) :   0.8976 B( 17-C , 18-C ) :   1.1707
B( 17-C , 36-H ) :   0.9334 B( 17-C , 37-H ) :   0.9215 B( 18-C , 38-H ) :   0.9386
B( 18-C , 39-H ) :   0.9322 B( 18-C , 40-H ) :   0.9461

Dispersion correction           -0.065774636
FINAL SINGLE POINT ENERGY     -2929.517238547177

DIPOLE MOMENT
-------------

Method             : SCF
Type of density    : Electron Density
Multiplicity       :   1
Irrep              :   0
Energy             : -2929.6375030417448215 Eh
Relativity type    :
Basis              : AO
                                X                 Y                 Z
Electronic contribution:      6.394716994      12.280125714      -1.724973383
Nuclear contribution   :     -7.049010040     -14.171233312       2.602108971
                        -----------------------------------------
Total Dipole Moment    :     -0.654293047      -1.891107598       0.877135587
                        -----------------------------------------
Magnitude (a.u.)       :      2.184892257
Magnitude (Debye)      :      5.553554770

Rotational constants in cm-1:             0.012808             0.004882             0.004393
Rotational constants in MHz :           383.959787           146.354803           131.698662

                             ****ORCA TERMINATED NORMALLY****
TOTAL RUN TIME: 0 days 0 hours 0 minutes 21 seconds 350 msec
