                         Program Version 6.0.0  -   RELEASE  -
|  1> ! pbe def2-sv(p) def2/J RI DEFGRID1 loosescf d4 GCP(DFT/SV(P)) printgap
|  2> %output
|  3>     printlevel normal
|  4> end
|  5> * xyz 0 1
|  6> C 4.7485102058 2.2946209789 -1.0719905445
|  7> C 3.3386046086 1.8217121953 -0.7816574741
|  8> O 3.4313618087 0.6329759121 0.0285270949
|  9> P 2.1646309782 0.0553551494 0.7913362199
| 10> S 1.2060313244 1.3517923308 1.8927498938
| 11> O 2.7446694561 -1.1368660495 1.6372644039
| 12> C 3.6540418914 -2.1366451555 1.1051280966
| 13> C 5.091533557 -1.75528653 1.3904794487
| 14> S 1.0965067197 -0.8755931033 -0.822616825
| 15> C -0.0364210776 -1.8829946601 0.1708467204
| 16> S -1.3476297912 -0.9355420743 0.9862046818
| 17> P -2.2369184728 -0.1662855331 -0.7968668048
| 18> S -2.182786394 -1.3649408065 -2.3375940745
| 19> O -1.5575078323 1.2223764611 -1.0897857805
| 20> C -1.5842135648 2.3413781545 -0.1685860391
| 21> C -2.7140331756 3.2888907431 -0.510024448
| 22> O -3.6849364357 0.2430792544 -0.2912288312
| 23> C -4.6655862944 -0.7655830681 0.0325209066
| 24> C -6.0107434954 -0.080860142 0.1616045451
| 25> H 5.2996827067 1.5207234656 -1.5982731397
| 26> H 4.7047157174 3.1857963959 -1.6892323747
| 27> H 5.2619721426 2.527018548 -0.1433259093
| 28> H 2.8025527817 1.5687293383 -1.7009674397
| 29> H 2.7672898177 2.5744142269 -0.2282557769
| 30> H 3.37858514 -3.057331533 1.6229801931
| 31> H 3.4770938032 -2.2434446081 0.0316984199
| 32> H 5.348063544 -0.8364684945 0.8706025973
| 33> H 5.2316976941 -1.6056015603 2.4574877076
| 34> H 5.7437354171 -2.5541079118 1.0513406024
| 35> H 0.5090330195 -2.3956324349 0.9597295835
| 36> H -0.4888410612 -2.587557007 -0.5272282396
| 37> H -1.6696087488 1.9640405653 0.8544728237
| 38> H -0.6094777728 2.8186743133 -0.2881910657
| 39> H -2.662496699 4.1488896537 0.1502146513
| 40> H -2.6222973386 3.6189401041 -1.5411551404
| 41> H -3.6725886951 2.7933255025 -0.3826615047
| 42> H -4.6685771841 -1.5140737364 -0.766498535
| 43> H -4.3675247941 -1.2432357583 0.9699528976
| 44> H -6.7629508245 -0.8215988381 0.4118689594
| 45> H -5.9723653225 0.6706923 0.9449230059
| 46> H -6.2776125468 0.3980832357 -0.7762246969
| 47> *
| 48>
| 49>                          ****END OF INPUT****

CARTESIAN COORDINATES (ANGSTROEM)
---------------------------------
  C      4.748510    2.294621   -1.071991
  C      3.338605    1.821712   -0.781657
  O      3.431362    0.632976    0.028527
  P      2.164631    0.055355    0.791336
  S      1.206031    1.351792    1.892750
  O      2.744669   -1.136866    1.637264
  C      3.654042   -2.136645    1.105128
  C      5.091534   -1.755287    1.390479
  S      1.096507   -0.875593   -0.822617
  C     -0.036421   -1.882995    0.170847
  S     -1.347630   -0.935542    0.986205
  P     -2.236918   -0.166286   -0.796867
  S     -2.182786   -1.364941   -2.337594
  O     -1.557508    1.222376   -1.089786
  C     -1.584214    2.341378   -0.168586
  C     -2.714033    3.288891   -0.510024
  O     -3.684936    0.243079   -0.291229
  C     -4.665586   -0.765583    0.032521
  C     -6.010743   -0.080860    0.161605
  H      5.299683    1.520723   -1.598273
  H      4.704716    3.185796   -1.689232
  H      5.261972    2.527019   -0.143326
  H      2.802553    1.568729   -1.700967
  H      2.767290    2.574414   -0.228256
  H      3.378585   -3.057332    1.622980
  H      3.477094   -2.243445    0.031698
  H      5.348064   -0.836468    0.870603
  H      5.231698   -1.605602    2.457488
  H      5.743735   -2.554108    1.051341
  H      0.509033   -2.395632    0.959730
  H     -0.488841   -2.587557   -0.527228
  H     -1.669609    1.964041    0.854473
  H     -0.609478    2.818674   -0.288191
  H     -2.662497    4.148890    0.150215
  H     -2.622297    3.618940   -1.541155
  H     -3.672589    2.793326   -0.382662
  H     -4.668577   -1.514074   -0.766499
  H     -4.367525   -1.243236    0.969953
  H     -6.762951   -0.821599    0.411869
  H     -5.972365    0.670692    0.944923
  H     -6.277613    0.398083   -0.776225

 Total Charge           Charge          ....    0
 Multiplicity           Mult            ....    1
 Number of Electrons    NEL             ....  202
 Basis Dimension        Dim             ....  334

ORBITAL ENERGIES
----------------

  NO   OCC          E(Eh)            E(eV)
   0   2.0000     -88.039330     -2395.6720
   1   2.0000     -88.034713     -2395.5463
   2   2.0000     -87.982274     -2394.1194
   3   2.0000     -87.980391     -2394.0682
   4   2.0000     -76.426172     -2079.6619
   5   2.0000     -76.421377     -2079.5314
   6   2.0000     -18.798731      -511.5395
   7   2.0000     -18.796988      -511.4921
   8   2.0000     -18.792960      -511.3825
   9   2.0000     -18.785742      -511.1860
  10   2.0000      -9.961041      -271.0537
  11   2.0000      -9.957847      -270.9668
  12   2.0000      -9.955267      -270.8966
  13   2.0000      -9.952479      -270.8207
  14   2.0000      -9.944631      -270.6072
  15   2.0000      -9.892629      -269.1921
  16   2.0000      -9.889750      -269.1138
  17   2.0000      -9.888693      -269.0850
  18   2.0000      -9.878841      -268.8169
  19   2.0000      -7.683904      -209.0897
  20   2.0000      -7.679868      -208.9798
  21   2.0000      -7.627518      -207.5553
  22   2.0000      -7.625785      -207.5081
  23   2.0000      -6.423872      -174.8024
  24   2.0000      -6.418908      -174.6674
  25   2.0000      -5.711609      -155.4208
  26   2.0000      -5.708557      -155.3377
  27   2.0000      -5.707619      -155.3122
  28   2.0000      -5.704446      -155.2259
  29   2.0000      -5.701006      -155.1322
  30   2.0000      -5.696882      -155.0200
  31   2.0000      -5.656483      -153.9207
  32   2.0000      -5.654733      -153.8731
  33   2.0000      -5.648203      -153.6954
  34   2.0000      -5.647508      -153.6765
  35   2.0000      -5.646308      -153.6439
  36   2.0000      -5.645954      -153.6342
  37   2.0000      -4.647067      -126.4531
  38   2.0000      -4.645687      -126.4156
  39   2.0000      -4.643656      -126.3603
  40   2.0000      -4.641830      -126.3106
  41   2.0000      -4.640659      -126.2787
  42   2.0000      -4.639060      -126.2352
  43   2.0000      -0.993571       -27.0364
  44   2.0000      -0.985498       -26.8168
  45   2.0000      -0.951601       -25.8944
  46   2.0000      -0.941844       -25.6289
  47   2.0000      -0.759901       -20.6780
  48   2.0000      -0.722606       -19.6631
  49   2.0000      -0.710872       -19.3438
  50   2.0000      -0.697394       -18.9771
  51   2.0000      -0.688669       -18.7396
  52   2.0000      -0.669009       -18.2047
  53   2.0000      -0.646919       -17.6036
  54   2.0000      -0.635855       -17.3025
  55   2.0000      -0.591229       -16.0882
  56   2.0000      -0.585611       -15.9353
  57   2.0000      -0.575340       -15.6558
  58   2.0000      -0.566144       -15.4056
  59   2.0000      -0.563873       -15.3438
  60   2.0000      -0.514846       -14.0097
  61   2.0000      -0.503812       -13.7094
  62   2.0000      -0.487735       -13.2720
  63   2.0000      -0.475816       -12.9476
  64   2.0000      -0.456132       -12.4120
  65   2.0000      -0.448652       -12.2085
  66   2.0000      -0.442137       -12.0312
  67   2.0000      -0.438020       -11.9191
  68   2.0000      -0.430128       -11.7044
  69   2.0000      -0.413503       -11.2520
  70   2.0000      -0.404394       -11.0041
  71   2.0000      -0.395140       -10.7523
  72   2.0000      -0.386016       -10.5040
  73   2.0000      -0.383135       -10.4256
  74   2.0000      -0.379300       -10.3213
  75   2.0000      -0.372451       -10.1349
  76   2.0000      -0.363585        -9.8937
  77   2.0000      -0.359934        -9.7943
  78   2.0000      -0.357222        -9.7205
  79   2.0000      -0.355405        -9.6711
  80   2.0000      -0.350890        -9.5482
  81   2.0000      -0.348323        -9.4784
  82   2.0000      -0.344655        -9.3785
  83   2.0000      -0.340031        -9.2527
  84   2.0000      -0.331555        -9.0221
  85   2.0000      -0.322010        -8.7623
  86   2.0000      -0.313612        -8.5338
  87   2.0000      -0.304247        -8.2790
  88   2.0000      -0.298938        -8.1345
  89   2.0000      -0.298852        -8.1322
  90   2.0000      -0.286232        -7.7888
  91   2.0000      -0.277414        -7.5488
  92   2.0000      -0.270075        -7.3491
  93   2.0000      -0.262332        -7.1384
  94   2.0000      -0.254749        -6.9321
  95   2.0000      -0.239014        -6.5039
  96   2.0000      -0.215702        -5.8695
  97   2.0000      -0.205443        -5.5904
  98   2.0000      -0.200675        -5.4607
  99   2.0000      -0.196689        -5.3522
 100   2.0000      -0.186116        -5.0645
 101   0.0000      -0.041482        -1.1288
 102   0.0000      -0.021805        -0.5934
 103   0.0000      -0.005792        -0.1576
 104   0.0000       0.005750         0.1565
 105   0.0000       0.017547         0.4775

MULLIKEN ATOMIC CHARGES
-----------------------
   0 C :   -0.282524
   1 C :   -0.019497
   2 O :   -0.385714
   3 P :    0.595506
   4 S :   -0.305525
   5 O :   -0.362710
   6 C :   -0.018018
   7 C :   -0.289604
   8 S :   -0.088421
   9 C :   -0.356945
  10 S :   -0.087458
  11 P :    0.604359
  12 S :   -0.324396
  13 O :   -0.349906
  14 C :   -0.015496
  15 C :   -0.287640
  16 O :   -0.384131
  17 C :   -0.011405
  18 C :   -0.282535
  19 H :    0.117616
  20 H :    0.114793
  21 H :    0.122439
  22 H :    0.112072
  23 H :    0.108931
  24 H :    0.109437
  25 H :    0.105195
  26 H :    0.125895
  27 H :    0.121184
  28 H :    0.110958
  29 H :    0.180544
  30 H :    0.194881
  31 H :    0.114307
  32 H :    0.107746
  33 H :    0.108733
  34 H :    0.114715
  35 H :    0.119804
  36 H :    0.105974
  37 H :    0.104401
  38 H :    0.113056
  39 H :    0.117078
  40 H :    0.122302
Sum of atomic charges:   -0.0000000

LOEWDIN ATOMIC CHARGES
----------------------
   0 C :   -0.350537
   1 C :   -0.119744
   2 O :   -0.250256
   3 P :    0.561548
   4 S :   -0.304892
   5 O :   -0.236840
   6 C :   -0.115838
   7 C :   -0.358625
   8 S :    0.071216
   9 C :   -0.480958
  10 S :    0.069067
  11 P :    0.567696
  12 S :   -0.319418
  13 O :   -0.229450
  14 C :   -0.114998
  15 C :   -0.360888
  16 O :   -0.248667
  17 C :   -0.120760
  18 C :   -0.350642
  19 H :    0.126511
  20 H :    0.132351
  21 H :    0.129394
  22 H :    0.112672
  23 H :    0.109401
  24 H :    0.119607
  25 H :    0.106526
  26 H :    0.127100
  27 H :    0.129457
  28 H :    0.130492
  29 H :    0.129909
  30 H :    0.131231
  31 H :    0.107292
  32 H :    0.116046
  33 H :    0.129103
  34 H :    0.126452
  35 H :    0.123964
  36 H :    0.110192
  37 H :    0.108323
  38 H :    0.131475
  39 H :    0.126243
  40 H :    0.129246

  Mayer bond orders larger than 0.100000
B(  0-C ,  1-C ) :   1.1597 B(  0-C , 19-H ) :   0.9506 B(  0-C , 20-H ) :   0.9414
B(  0-C , 21-H ) :   0.9506 B(  1-C ,  2-O ) :   0.9058 B(  1-C , 22-H ) :   0.9284
B(  1-C , 23-H ) :   0.9100 B(  2-O ,  3-P ) :   1.0696 B(  3-P ,  4-S ) :   1.6858
B(  3-P ,  5-O ) :   1.1245 B(  3-P ,  8-S ) :   0.9509 B(  4-S ,  8-S ) :   0.1127
B(  5-O ,  6-C ) :   0.8863 B(  6-C ,  7-C ) :   1.1705 B(  6-C , 24-H ) :   0.9339
B(  6-C , 25-H ) :   0.9086 B(  7-C , 26-H ) :   0.9408 B(  7-C , 27-H ) :   0.9469
B(  7-C , 28-H ) :   0.9392 B(  8-S ,  9-C ) :   0.9994 B(  9-C , 10-S ) :   1.0093
B(  9-C , 29-H ) :   0.8997 B(  9-C , 30-H ) :   0.8814 B( 10-S , 11-P ) :   0.9562
B( 10-S , 12-S ) :   0.1111 B( 11-P , 12-S ) :   1.6371 B( 11-P , 13-O ) :   1.1530
B( 11-P , 16-O ) :   1.0775 B( 13-O , 14-C ) :   0.8860 B( 14-C , 15-C ) :   1.1563
B( 14-C , 31-H ) :   0.9154 B( 14-C , 32-H ) :   0.9317 B( 15-C , 33-H ) :   0.9408
B( 15-C , 34-H ) :   0.9464 B( 15-C , 35-H ) :   0.9409 B( 16-O , 17-C ) :   0.9048
B( 17-C , 18-C ) :   1.1591 B( 17-C , 36-H ) :   0.9118 B( 17-C , 37-H ) :   0.9259
B( 18-C , 38-H ) :   0.9418 B( 18-C , 39-H ) :   0.9505 B( 18-C , 40-H ) :   0.9507

Dispersion correction           -0.062964389
FINAL SINGLE POINT ENERGY     -2929.518970165057

DIPOLE MOMENT
-------------

Method             : SCF
Type of density    : Electron Density
Multiplicity       :   1
Irrep              :   0
Energy             : -2929.6396490314486982 Eh
Relativity type    :
Basis              : AO
                                X                 Y                 Z
Electronic contribution:     -3.960978367      -8.583248758      -0.387727617
Nuclear contribution   :      4.570351358       8.544298727       0.658313835
                        -----------------------------------------
Total Dipole Moment    :      0.609372991      -0.038950032       0.270586218
                        -----------------------------------------
Magnitude (a.u.)       :      0.667884308
Magnitude (Debye)      :      1.697626997

Rotational constants in cm-1:             0.013499             0.004453             0.004099
Rotational constants in MHz :           404.678125           133.484209           122.890058

                             ****ORCA TERMINATED NORMALLY****
TOTAL RUN TIME: 0 days 0 hours 0 minutes 20 seconds 634 msec
