                         Program Version 6.0.0  -   RELEASE  -
|  1> ! pbe def2-sv(p) def2/J RI DEFGRID1 loosescf d4 GCP(DFT/SV(P)) printgap
|  2> %output
|  3>     printlevel normal
|  4> end
|  5> * xyz 0 1
|  6> C 4.285317021 0.6380174268 -2.3190733182
|  7> C 3.0555383722 -0.2326204878 -2.4667205071
|  8> O 2.6860479096 -0.8461347132 -1.2142900192
|  9> P 2.0821789542 -0.0225079836 -0.0078418312
| 10> S 1.0811237852 1.6008623552 -0.5032532544
| 11> O 3.3637654758 0.3124623812 0.8701302308
| 12> C 3.3451828868 1.2859200734 1.926912058
| 13> C 2.4798746671 0.8417498032 3.0887249324
| 14> S 1.2406352303 -1.6348754481 1.0673385917
| 15> C 0.196056879 -2.4043205842 -0.218898105
| 16> S -0.5740667993 -1.2313198518 -1.3636668187
| 17> P -1.9165077729 -0.2555812076 -0.0476183937
| 18> S -1.4220135463 0.3973186933 1.7367203886
| 19> O -2.9982932068 -1.4143049726 -0.0265646539
| 20> C -4.0412465504 -1.482776268 0.9666237377
| 21> C -5.0436178669 -0.3588666622 0.8102499892
| 22> O -2.5595364498 0.8290329554 -1.007238857
| 23> C -2.2595666856 2.236460406 -0.9918624939
| 24> C -3.5332973684 2.9983107719 -1.2965868603
| 25> H 4.059804514 1.4884141749 -1.676644572
| 26> H 5.0969865344 0.0682868025 -1.8745820217
| 27> H 4.588567589 1.0030329097 -3.2952452325
| 28> H 3.2327539852 -1.0801237789 -3.1297399388
| 29> H 2.2045382487 0.3525539768 -2.8299676249
| 30> H 4.3927353938 1.3803845711 2.2156286937
| 31> H 2.9816062829 2.2349457209 1.5187073969
| 32> H 2.7835811212 -0.1440730894 3.4322621906
| 33> H 2.570764072 1.55373373 3.9026315678
| 34> H 1.4336962655 0.795215889 2.7820602752
| 35> H -0.5697695353 -2.971234534 0.3069800498
| 36> H 0.8158527809 -3.0545397754 -0.8321615928
| 37> H -4.4966237902 -2.459567177 0.7984799889
| 38> H -3.5777618961 -1.4493972819 1.9578857489
| 39> H -5.8675925307 -0.5112067231 1.5002851448
| 40> H -4.5647192303 0.5931851701 1.0360742232
| 41> H -5.4215003341 -0.331449219 -0.2084701692
| 42> H -1.8534294935 2.5024054441 -0.0097844738
| 43> H -1.4896889077 2.4223573139 -1.7449311057
| 44> H -4.2716974079 2.8291022034 -0.5176218315
| 45> H -3.3048867011 4.0576552426 -1.348873134
| 46> H -3.9405430296 2.6691314252 -2.2480811467
| 47> *
| 48>
| 49>                          ****END OF INPUT****

CARTESIAN COORDINATES (ANGSTROEM)
---------------------------------
  C      4.285317    0.638017   -2.319073
  C      3.055538   -0.232620   -2.466721
  O      2.686048   -0.846135   -1.214290
  P      2.082179   -0.022508   -0.007842
  S      1.081124    1.600862   -0.503253
  O      3.363765    0.312462    0.870130
  C      3.345183    1.285920    1.926912
  C      2.479875    0.841750    3.088725
  S      1.240635   -1.634875    1.067339
  C      0.196057   -2.404321   -0.218898
  S     -0.574067   -1.231320   -1.363667
  P     -1.916508   -0.255581   -0.047618
  S     -1.422014    0.397319    1.736720
  O     -2.998293   -1.414305   -0.026565
  C     -4.041247   -1.482776    0.966624
  C     -5.043618   -0.358867    0.810250
  O     -2.559536    0.829033   -1.007239
  C     -2.259567    2.236460   -0.991862
  C     -3.533297    2.998311   -1.296587
  H      4.059805    1.488414   -1.676645
  H      5.096987    0.068287   -1.874582
  H      4.588568    1.003033   -3.295245
  H      3.232754   -1.080124   -3.129740
  H      2.204538    0.352554   -2.829968
  H      4.392735    1.380385    2.215629
  H      2.981606    2.234946    1.518707
  H      2.783581   -0.144073    3.432262
  H      2.570764    1.553734    3.902632
  H      1.433696    0.795216    2.782060
  H     -0.569770   -2.971235    0.306980
  H      0.815853   -3.054540   -0.832162
  H     -4.496624   -2.459567    0.798480
  H     -3.577762   -1.449397    1.957886
  H     -5.867593   -0.511207    1.500285
  H     -4.564719    0.593185    1.036074
  H     -5.421500   -0.331449   -0.208470
  H     -1.853429    2.502405   -0.009784
  H     -1.489689    2.422357   -1.744931
  H     -4.271697    2.829102   -0.517622
  H     -3.304887    4.057655   -1.348873
  H     -3.940543    2.669131   -2.248081

 Total Charge           Charge          ....    0
 Multiplicity           Mult            ....    1
 Number of Electrons    NEL             ....  202
 Basis Dimension        Dim             ....  334

ORBITAL ENERGIES
----------------

  NO   OCC          E(Eh)            E(eV)
   0   2.0000     -88.038871     -2395.6595
   1   2.0000     -88.033693     -2395.5186
   2   2.0000     -87.981526     -2394.0990
   3   2.0000     -87.979288     -2394.0381
   4   2.0000     -76.422294     -2079.5563
   5   2.0000     -76.422247     -2079.5551
   6   2.0000     -18.789024      -511.2753
   7   2.0000     -18.787924      -511.2454
   8   2.0000     -18.786543      -511.2078
   9   2.0000     -18.785244      -511.1725
  10   2.0000      -9.957374      -270.9539
  11   2.0000      -9.947990      -270.6986
  12   2.0000      -9.947698      -270.6906
  13   2.0000      -9.945846      -270.6402
  14   2.0000      -9.943922      -270.5879
  15   2.0000      -9.882715      -268.9223
  16   2.0000      -9.882025      -268.9036
  17   2.0000      -9.880365      -268.8584
  18   2.0000      -9.876699      -268.7586
  19   2.0000      -7.683890      -209.0893
  20   2.0000      -7.678972      -208.9554
  21   2.0000      -7.626129      -207.5175
  22   2.0000      -7.623929      -207.4577
  23   2.0000      -6.419483      -174.6830
  24   2.0000      -6.419369      -174.6799
  25   2.0000      -5.711903      -155.4288
  26   2.0000      -5.708608      -155.3391
  27   2.0000      -5.707184      -155.3004
  28   2.0000      -5.703590      -155.2026
  29   2.0000      -5.700437      -155.1168
  30   2.0000      -5.695428      -154.9805
  31   2.0000      -5.655032      -153.8813
  32   2.0000      -5.652816      -153.8209
  33   2.0000      -5.646872      -153.6592
  34   2.0000      -5.646219      -153.6414
  35   2.0000      -5.644591      -153.5971
  36   2.0000      -5.644121      -153.5843
  37   2.0000      -4.642035      -126.3162
  38   2.0000      -4.641986      -126.3149
  39   2.0000      -4.641286      -126.2958
  40   2.0000      -4.641219      -126.2940
  41   2.0000      -4.640016      -126.2613
  42   2.0000      -4.639755      -126.2542
  43   2.0000      -0.982478       -26.7346
  44   2.0000      -0.981381       -26.7047
  45   2.0000      -0.942731       -25.6530
  46   2.0000      -0.941473       -25.6188
  47   2.0000      -0.760375       -20.6909
  48   2.0000      -0.717002       -19.5106
  49   2.0000      -0.703965       -19.1559
  50   2.0000      -0.684671       -18.6308
  51   2.0000      -0.681875       -18.5548
  52   2.0000      -0.664104       -18.0712
  53   2.0000      -0.650030       -17.6882
  54   2.0000      -0.634540       -17.2667
  55   2.0000      -0.598790       -16.2939
  56   2.0000      -0.588520       -16.0144
  57   2.0000      -0.568455       -15.4685
  58   2.0000      -0.563234       -15.3264
  59   2.0000      -0.560672       -15.2567
  60   2.0000      -0.499928       -13.6037
  61   2.0000      -0.487188       -13.2571
  62   2.0000      -0.475062       -12.9271
  63   2.0000      -0.467848       -12.7308
  64   2.0000      -0.452494       -12.3130
  65   2.0000      -0.439323       -11.9546
  66   2.0000      -0.433494       -11.7960
  67   2.0000      -0.428900       -11.6710
  68   2.0000      -0.423018       -11.5109
  69   2.0000      -0.411962       -11.2101
  70   2.0000      -0.403622       -10.9831
  71   2.0000      -0.392839       -10.6897
  72   2.0000      -0.389842       -10.6081
  73   2.0000      -0.388236       -10.5644
  74   2.0000      -0.376246       -10.2382
  75   2.0000      -0.372582       -10.1385
  76   2.0000      -0.367626       -10.0036
  77   2.0000      -0.353523        -9.6198
  78   2.0000      -0.353228        -9.6118
  79   2.0000      -0.348086        -9.4719
  80   2.0000      -0.345371        -9.3980
  81   2.0000      -0.343175        -9.3383
  82   2.0000      -0.338856        -9.2207
  83   2.0000      -0.336472        -9.1559
  84   2.0000      -0.327075        -8.9002
  85   2.0000      -0.316049        -8.6001
  86   2.0000      -0.305067        -8.3013
  87   2.0000      -0.291962        -7.9447
  88   2.0000      -0.290406        -7.9024
  89   2.0000      -0.279419        -7.6034
  90   2.0000      -0.277595        -7.5537
  91   2.0000      -0.271741        -7.3944
  92   2.0000      -0.265977        -7.2376
  93   2.0000      -0.258262        -7.0277
  94   2.0000      -0.257084        -6.9956
  95   2.0000      -0.245394        -6.6775
  96   2.0000      -0.221691        -6.0325
  97   2.0000      -0.211414        -5.7529
  98   2.0000      -0.186385        -5.0718
  99   2.0000      -0.184190        -5.0121
 100   2.0000      -0.180876        -4.9219
 101   0.0000      -0.049256        -1.3403
 102   0.0000      -0.030606        -0.8328
 103   0.0000      -0.009492        -0.2583
 104   0.0000       0.010396         0.2829
 105   0.0000       0.023135         0.6295

MULLIKEN ATOMIC CHARGES
-----------------------
   0 C :   -0.303919
   1 C :   -0.001757
   2 O :   -0.371545
   3 P :    0.621374
   4 S :   -0.335665
   5 O :   -0.369514
   6 C :   -0.000217
   7 C :   -0.341927
   8 S :   -0.093107
   9 C :   -0.313263
  10 S :   -0.094953
  11 P :    0.625842
  12 S :   -0.306927
  13 O :   -0.372479
  14 C :   -0.001563
  15 C :   -0.316212
  16 O :   -0.379367
  17 C :   -0.021513
  18 C :   -0.281667
  19 H :    0.122163
  20 H :    0.116259
  21 H :    0.109856
  22 H :    0.100577
  23 H :    0.110535
  24 H :    0.102301
  25 H :    0.108735
  26 H :    0.118806
  27 H :    0.112213
  28 H :    0.154224
  29 H :    0.178581
  30 H :    0.186794
  31 H :    0.101805
  32 H :    0.107968
  33 H :    0.110816
  34 H :    0.126024
  35 H :    0.117915
  36 H :    0.118306
  37 H :    0.111412
  38 H :    0.118035
  39 H :    0.110769
  40 H :    0.114289
Sum of atomic charges:    0.0000000

LOEWDIN ATOMIC CHARGES
----------------------
   0 C :   -0.364482
   1 C :   -0.118498
   2 O :   -0.242826
   3 P :    0.571999
   4 S :   -0.318682
   5 O :   -0.243431
   6 C :   -0.121019
   7 C :   -0.374052
   8 S :    0.085448
   9 C :   -0.467455
  10 S :    0.094565
  11 P :    0.568513
  12 S :   -0.303133
  13 O :   -0.247352
  14 C :   -0.120491
  15 C :   -0.366050
  16 O :   -0.242928
  17 C :   -0.121109
  18 C :   -0.352130
  19 H :    0.122864
  20 H :    0.126385
  21 H :    0.129269
  22 H :    0.116614
  23 H :    0.109754
  24 H :    0.117275
  25 H :    0.108574
  26 H :    0.123815
  27 H :    0.131365
  28 H :    0.125339
  29 H :    0.132562
  30 H :    0.135886
  31 H :    0.116981
  32 H :    0.108541
  33 H :    0.129817
  34 H :    0.120839
  35 H :    0.126347
  36 H :    0.108399
  37 H :    0.111241
  38 H :    0.124903
  39 H :    0.130624
  40 H :    0.125718

  Mayer bond orders larger than 0.100000
B(  0-C ,  1-C ) :   1.1663 B(  0-C , 19-H ) :   0.9356 B(  0-C , 20-H ) :   0.9461
B(  0-C , 21-H ) :   0.9395 B(  1-C ,  2-O ) :   0.9033 B(  1-C , 22-H ) :   0.9346
B(  1-C , 23-H ) :   0.9142 B(  2-O ,  3-P ) :   1.1165 B(  3-P ,  4-S ) :   1.5653
B(  3-P ,  5-O ) :   1.1102 B(  3-P ,  8-S ) :   0.9803 B(  4-S ,  8-S ) :   0.1169
B(  5-O ,  6-C ) :   0.9081 B(  6-C ,  7-C ) :   1.1651 B(  6-C , 24-H ) :   0.9328
B(  6-C , 25-H ) :   0.9125 B(  7-C , 26-H ) :   0.9432 B(  7-C , 27-H ) :   0.9376
B(  7-C , 28-H ) :   0.9255 B(  8-S ,  9-C ) :   0.9818 B(  9-C , 10-S ) :   1.0151
B(  9-C , 29-H ) :   0.9055 B(  9-C , 30-H ) :   0.9094 B( 10-S , 11-P ) :   0.9344
B( 10-S , 12-S ) :   0.1191 B( 11-P , 12-S ) :   1.6210 B( 11-P , 13-O ) :   1.1094
B( 11-P , 16-O ) :   1.1232 B( 13-O , 14-C ) :   0.9116 B( 14-C , 15-C ) :   1.1649
B( 14-C , 31-H ) :   0.9342 B( 14-C , 32-H ) :   0.9134 B( 15-C , 33-H ) :   0.9382
B( 15-C , 34-H ) :   0.9316 B( 15-C , 35-H ) :   0.9463 B( 16-O , 17-C ) :   0.8965
B( 17-C , 18-C ) :   1.1533 B( 17-C , 36-H ) :   0.9070 B( 17-C , 37-H ) :   0.9286
B( 18-C , 38-H ) :   0.9482 B( 18-C , 39-H ) :   0.9419 B( 18-C , 40-H ) :   0.9493

Dispersion correction           -0.068485663
FINAL SINGLE POINT ENERGY     -2929.512803331465

DIPOLE MOMENT
-------------

Method             : SCF
Type of density    : Electron Density
Multiplicity       :   1
Irrep              :   0
Energy             : -2929.6281199484196804 Eh
Relativity type    :
Basis              : AO
                                X                 Y                 Z
Electronic contribution:      4.914767614     -11.625875903      -0.088961853
Nuclear contribution   :     -5.026153905      11.467068475      -0.246697886
                        -----------------------------------------
Total Dipole Moment    :     -0.111386292      -0.158807429      -0.335659739
                        -----------------------------------------
Magnitude (a.u.)       :      0.387677915
Magnitude (Debye)      :      0.985398948

Rotational constants in cm-1:             0.012390             0.005368             0.005213
Rotational constants in MHz :           371.449421           160.927925           156.271763

                             ****ORCA TERMINATED NORMALLY****
TOTAL RUN TIME: 0 days 0 hours 0 minutes 21 seconds 503 msec
