                         Program Version 6.0.0  -   RELEASE  -
|  1> ! r2scan-3c def2/J RI DEFGRID2 scfconv6 printgap
|  2> %output
|  3>     printlevel normal
|  4> end
|  5> * xyz 0 1
|  6> C -1.2368590347 0.9631399201 -1.256333745
|  7> C -1.0134016806 0.1128076001 -6.7981e-06
|  8> C -1.9497417686 -1.0945299593 4.08554e-05
|  9> C -1.2363056271 0.9628095106 1.256673061
| 10> C 0.4294406097 -0.3691010984 -0.0002108017
| 11> O 0.7797535094 -1.5307893792 -0.0001047382
| 12> O 1.2936166959 0.6400655577 -0.0001886046
| 13> C 2.6841570529 0.3130062017 7.68027e-05
| 14> H -1.0628450609 0.3711368607 -2.1521964523
| 15> H -2.2614836636 1.3241268092 -1.2726424723
| 16> H -0.5617906704 1.814438911 -1.2627601863
| 17> H -2.9836516704 -0.762630715 -0.0018766021
| 18> H -1.7755584186 -1.709074572 0.8799043927
| 19> H -1.772945926 -1.7110919863 -0.8778948137
| 20> H -1.0596726446 0.3712005426 2.1522781716
| 21> H -0.5627873362 1.8153286125 1.2618868441
| 22> H -2.2615553878 1.3218894188 1.274725794
| 23> H 2.9315301282 -0.2661310383 -0.8904569034
| 24> H 2.9287678313 -0.2767913963 0.8843614979
| 25> H 3.2087315168 1.2632004555 0.0064746638
| 26> *
| 27>
| 28>                          ****END OF INPUT****

CARTESIAN COORDINATES (ANGSTROEM)
---------------------------------
  C     -1.236859    0.963140   -1.256334
  C     -1.013402    0.112808   -0.000007
  C     -1.949742   -1.094530    0.000041
  C     -1.236306    0.962810    1.256673
  C      0.429441   -0.369101   -0.000211
  O      0.779754   -1.530789   -0.000105
  O      1.293617    0.640066   -0.000189
  C      2.684157    0.313006    0.000077
  H     -1.062845    0.371137   -2.152196
  H     -2.261484    1.324127   -1.272642
  H     -0.561791    1.814439   -1.262760
  H     -2.983652   -0.762631   -0.001877
  H     -1.775558   -1.709075    0.879904
  H     -1.772946   -1.711092   -0.877895
  H     -1.059673    0.371201    2.152278
  H     -0.562787    1.815329    1.261887
  H     -2.261555    1.321889    1.274726
  H      2.931530   -0.266131   -0.890457
  H      2.928768   -0.276791    0.884361
  H      3.208732    1.263200    0.006475

 Total Charge           Charge          ....    0
 Multiplicity           Mult            ....    1
 Number of Electrons    NEL             ....   64
 Basis Dimension        Dim             ....  222

ORBITAL ENERGIES
----------------

  NO   OCC          E(Eh)            E(eV)
   0   2.0000     -18.999167      -516.9936
   1   2.0000     -18.929633      -515.1015
   2   2.0000     -10.148727      -276.1609
   3   2.0000     -10.087559      -274.4964
   4   2.0000     -10.057910      -273.6896
   5   2.0000     -10.025005      -272.7942
   6   2.0000     -10.025002      -272.7942
   7   2.0000     -10.016097      -272.5519
   8   2.0000      -1.074346       -29.2344
   9   2.0000      -0.976113       -26.5614
  10   2.0000      -0.795583       -21.6489
  11   2.0000      -0.701419       -19.0866
  12   2.0000      -0.661616       -18.0035
  13   2.0000      -0.654009       -17.7965
  14   2.0000      -0.580237       -15.7891
  15   2.0000      -0.518369       -14.1055
  16   2.0000      -0.462894       -12.5960
  17   2.0000      -0.454855       -12.3772
  18   2.0000      -0.442316       -12.0360
  19   2.0000      -0.412381       -11.2214
  20   2.0000      -0.406408       -11.0589
  21   2.0000      -0.401354       -10.9214
  22   2.0000      -0.373124       -10.1532
  23   2.0000      -0.362368        -9.8605
  24   2.0000      -0.346076        -9.4172
  25   2.0000      -0.341822        -9.3014
  26   2.0000      -0.336230        -9.1493
  27   2.0000      -0.317169        -8.6306
  28   2.0000      -0.304837        -8.2950
  29   2.0000      -0.301402        -8.2016
  30   2.0000      -0.274159        -7.4602
  31   2.0000      -0.232645        -6.3306
  32   0.0000      -0.015114        -0.4113
  33   0.0000       0.055952         1.5225
  34   0.0000       0.088729         2.4144
  35   0.0000       0.102959         2.8017
  36   0.0000       0.130670         3.5557

MULLIKEN ATOMIC CHARGES
-----------------------
   0 C :   -0.512673
   1 C :    0.186208
   2 C :   -0.485349
   3 C :   -0.512639
   4 C :    0.279024
   5 O :   -0.398617
   6 O :   -0.183610
   7 C :   -0.292721
   8 H :    0.158467
   9 H :    0.158278
  10 H :    0.167961
  11 H :    0.153445
  12 H :    0.161787
  13 H :    0.162018
  14 H :    0.158513
  15 H :    0.167889
  16 H :    0.158280
  17 H :    0.161589
  18 H :    0.161958
  19 H :    0.150193
Sum of atomic charges:    0.0000000

LOEWDIN ATOMIC CHARGES
----------------------
   0 C :   -0.377404
   1 C :   -0.147074
   2 C :   -0.383662
   3 C :   -0.377387
   4 C :    0.363469
   5 O :   -0.420105
   6 O :   -0.613925
   7 C :   -0.042658
   8 H :    0.162820
   9 H :    0.158201
  10 H :    0.168451
  11 H :    0.155019
  12 H :    0.167591
  13 H :    0.167669
  14 H :    0.162824
  15 H :    0.168422
  16 H :    0.158200
  17 H :    0.176828
  18 H :    0.177039
  19 H :    0.175682

  Mayer bond orders larger than 0.100000
B(  0-C ,  1-C ) :   0.9060 B(  0-C ,  8-H ) :   0.9704 B(  0-C ,  9-H ) :   0.9763
B(  0-C , 10-H ) :   0.9665 B(  1-C ,  2-C ) :   0.9479 B(  1-C ,  3-C ) :   0.9060
B(  1-C ,  4-C ) :   0.9384 B(  2-C , 11-H ) :   0.9792 B(  2-C , 12-H ) :   0.9660
B(  2-C , 13-H ) :   0.9662 B(  3-C , 14-H ) :   0.9705 B(  3-C , 15-H ) :   0.9664
B(  3-C , 16-H ) :   0.9763 B(  4-C ,  5-O ) :   1.8724 B(  4-C ,  6-O ) :   1.0568
B(  6-O ,  7-C ) :   0.8501 B(  7-C , 17-H ) :   0.9629 B(  7-C , 18-H ) :   0.9630
B(  7-C , 19-H ) :   0.9700

Dispersion correction           -0.005677461
FINAL SINGLE POINT ENERGY      -386.234726820443

DIPOLE MOMENT
-------------

Method             : SCF
Type of density    : Electron Density
Multiplicity       :   1
Irrep              :   0
Energy             :  -386.2416240180540399 Eh
Relativity type    :
Basis              : AO
                                X                 Y                 Z
Electronic contribution:      4.960492411      -2.542321386      -0.001448894
Nuclear contribution   :     -4.878927200       3.322539498       0.001688041
                        -----------------------------------------
Total Dipole Moment    :      0.081565210       0.780218112       0.000239147
                        -----------------------------------------
Magnitude (a.u.)       :      0.784470039
Magnitude (Debye)      :      1.993964377

Rotational constants in cm-1:             0.105854             0.050609             0.044530
Rotational constants in MHz :          3173.413712          1517.212433          1334.979522

                             ****ORCA TERMINATED NORMALLY****
TOTAL RUN TIME: 0 days 0 hours 1 minutes 6 seconds 27 msec
