                         Program Version 6.0.0  -   RELEASE  -
|  1> ! r2scan-3c def2/J RI DEFGRID2 scfconv6 printgap
|  2> %output
|  3>     printlevel normal
|  4> end
|  5> %cpcm
|  6>     smd true
|  7>     smdsolvent "water"
|  8> end
|  9> * xyz 0 1
| 10> C -1.2368590347 0.9631399201 -1.256333745
| 11> C -1.0134016806 0.1128076001 -6.7981e-06
| 12> C -1.9497417686 -1.0945299593 4.08554e-05
| 13> C -1.2363056271 0.9628095106 1.256673061
| 14> C 0.4294406097 -0.3691010984 -0.0002108017
| 15> O 0.7797535094 -1.5307893792 -0.0001047382
| 16> O 1.2936166959 0.6400655577 -0.0001886046
| 17> C 2.6841570529 0.3130062017 7.68027e-05
| 18> H -1.0628450609 0.3711368607 -2.1521964523
| 19> H -2.2614836636 1.3241268092 -1.2726424723
| 20> H -0.5617906704 1.814438911 -1.2627601863
| 21> H -2.9836516704 -0.762630715 -0.0018766021
| 22> H -1.7755584186 -1.709074572 0.8799043927
| 23> H -1.772945926 -1.7110919863 -0.8778948137
| 24> H -1.0596726446 0.3712005426 2.1522781716
| 25> H -0.5627873362 1.8153286125 1.2618868441
| 26> H -2.2615553878 1.3218894188 1.274725794
| 27> H 2.9315301282 -0.2661310383 -0.8904569034
| 28> H 2.9287678313 -0.2767913963 0.8843614979
| 29> H 3.2087315168 1.2632004555 0.0064746638
| 30> *
| 31>
| 32>                          ****END OF INPUT****

CARTESIAN COORDINATES (ANGSTROEM)
---------------------------------
  C     -1.236859    0.963140   -1.256334
  C     -1.013402    0.112808   -0.000007
  C     -1.949742   -1.094530    0.000041
  C     -1.236306    0.962810    1.256673
  C      0.429441   -0.369101   -0.000211
  O      0.779754   -1.530789   -0.000105
  O      1.293617    0.640066   -0.000189
  C      2.684157    0.313006    0.000077
  H     -1.062845    0.371137   -2.152196
  H     -2.261484    1.324127   -1.272642
  H     -0.561791    1.814439   -1.262760
  H     -2.983652   -0.762631   -0.001877
  H     -1.775558   -1.709075    0.879904
  H     -1.772946   -1.711092   -0.877895
  H     -1.059673    0.371201    2.152278
  H     -0.562787    1.815329    1.261887
  H     -2.261555    1.321889    1.274726
  H      2.931530   -0.266131   -0.890457
  H      2.928768   -0.276791    0.884361
  H      3.208732    1.263200    0.006475

 Total Charge           Charge          ....    0
 Multiplicity           Mult            ....    1
 Number of Electrons    NEL             ....   64
 Basis Dimension        Dim             ....  222

ORBITAL ENERGIES
----------------

  NO   OCC          E(Eh)            E(eV)
   0   2.0000     -19.003140      -517.1017
   1   2.0000     -18.944695      -515.5114
   2   2.0000     -10.158740      -276.4334
   3   2.0000     -10.076588      -274.1979
   4   2.0000     -10.055037      -273.6115
   5   2.0000     -10.016401      -272.5601
   6   2.0000     -10.016398      -272.5601
   7   2.0000     -10.012520      -272.4545
   8   2.0000      -1.080303       -29.3965
   9   2.0000      -0.988694       -26.9037
  10   2.0000      -0.791704       -21.5434
  11   2.0000      -0.696518       -18.9532
  12   2.0000      -0.653635       -17.7863
  13   2.0000      -0.649446       -17.6723
  14   2.0000      -0.576540       -15.6884
  15   2.0000      -0.517774       -14.0894
  16   2.0000      -0.459699       -12.5091
  17   2.0000      -0.454405       -12.3650
  18   2.0000      -0.453799       -12.3485
  19   2.0000      -0.406785       -11.0692
  20   2.0000      -0.406407       -11.0589
  21   2.0000      -0.394566       -10.7367
  22   2.0000      -0.367634       -10.0038
  23   2.0000      -0.356835        -9.7100
  24   2.0000      -0.344127        -9.3642
  25   2.0000      -0.338221        -9.2035
  26   2.0000      -0.330258        -8.9868
  27   2.0000      -0.317692        -8.6448
  28   2.0000      -0.300522        -8.1776
  29   2.0000      -0.297861        -8.1052
  30   2.0000      -0.279293        -7.5999
  31   2.0000      -0.247157        -6.7255
  32   0.0000      -0.023036        -0.6269
  33   0.0000       0.060774         1.6538
  34   0.0000       0.097151         2.6436
  35   0.0000       0.112785         3.0690
  36   0.0000       0.137523         3.7422

MULLIKEN ATOMIC CHARGES
-----------------------
   0 C :   -0.548757
   1 C :    0.240973
   2 C :   -0.553758
   3 C :   -0.548739
   4 C :    0.315065
   5 O :   -0.482915
   6 O :   -0.198127
   7 C :   -0.328147
   8 H :    0.173618
   9 H :    0.178708
  10 H :    0.173540
  11 H :    0.176441
  12 H :    0.170920
  13 H :    0.170981
  14 H :    0.173682
  15 H :    0.173494
  16 H :    0.178702
  17 H :    0.177962
  18 H :    0.177880
  19 H :    0.178477
Sum of atomic charges:   -0.0000000

LOEWDIN ATOMIC CHARGES
----------------------
   0 C :   -0.379773
   1 C :   -0.142599
   2 C :   -0.392233
   3 C :   -0.379761
   4 C :    0.373908
   5 O :   -0.480548
   6 O :   -0.613167
   7 C :   -0.040328
   8 H :    0.166977
   9 H :    0.165446
  10 H :    0.169752
  11 H :    0.164301
  12 H :    0.166752
  13 H :    0.166787
  14 H :    0.166982
  15 H :    0.169731
  16 H :    0.165443
  17 H :    0.182098
  18 H :    0.182173
  19 H :    0.188059

  Mayer bond orders larger than 0.100000
B(  0-C ,  1-C ) :   0.8937 B(  0-C ,  8-H ) :   0.9664 B(  0-C ,  9-H ) :   0.9714
B(  0-C , 10-H ) :   0.9639 B(  1-C ,  2-C ) :   0.9016 B(  1-C ,  3-C ) :   0.8937
B(  1-C ,  4-C ) :   0.9469 B(  2-C , 11-H ) :   0.9707 B(  2-C , 12-H ) :   0.9712
B(  2-C , 13-H ) :   0.9713 B(  3-C , 14-H ) :   0.9664 B(  3-C , 15-H ) :   0.9639
B(  3-C , 16-H ) :   0.9714 B(  4-C ,  5-O ) :   1.8081 B(  4-C ,  6-O ) :   1.0863
B(  6-O ,  7-C ) :   0.8302 B(  7-C , 17-H ) :   0.9578 B(  7-C , 18-H ) :   0.9579
B(  7-C , 19-H ) :   0.9598

Dispersion correction           -0.005677461
FINAL SINGLE POINT ENERGY      -386.238518198223

DIPOLE MOMENT
-------------

Method             : SCF
Type of density    : Electron Density
Multiplicity       :   1
Irrep              :   0
Energy             :  -386.2454153958341863 Eh
Relativity type    :
Basis              : AO
                                X                 Y                 Z
Electronic contribution:      4.898908884      -2.173395207      -0.001446085
Nuclear contribution   :     -4.878927200       3.322539498       0.001688041
                        -----------------------------------------
Total Dipole Moment    :      0.019981684       1.149144290       0.000241956
                        -----------------------------------------
Magnitude (a.u.)       :      1.149318027
Magnitude (Debye)      :      2.921334262

Rotational constants in cm-1:             0.105854             0.050609             0.044530
Rotational constants in MHz :          3173.413712          1517.212433          1334.979522

                             ****ORCA TERMINATED NORMALLY****
TOTAL RUN TIME: 0 days 0 hours 1 minutes 12 seconds 562 msec
