                         Program Version 6.0.0  -   RELEASE  -
|  1> ! pbe def2-sv(p) def2/J RI DEFGRID1 loosescf d4 GCP(DFT/SV(P)) printgap
|  2> %output
|  3>     printlevel normal
|  4> end
|  5> * xyz 0 1
|  6> C 2.844897863 -2.7034930927 -2.4658598474
|  7> C 3.1587782129 -2.5729642326 -0.9890597659
|  8> O 3.5051540389 -1.2075260385 -0.6484619906
|  9> P 2.4753697207 -0.1542726398 -0.0622676366
| 10> S 3.4052154838 1.4875741499 0.443236439
| 11> O 1.6822628099 -0.9142940283 1.1048845819
| 12> C 2.1757881209 -0.926411936 2.4639034791
| 13> C 1.4756537393 0.1257299014 3.2998077999
| 14> S 0.9273057814 0.0188768066 -1.4876957235
| 15> C 0.2057212944 1.5327985511 -0.8023327829
| 16> S -0.7444973287 1.250507012 0.7064021852
| 17> P -2.4348302251 0.3865463724 -0.2686713427
| 18> S -3.056781546 1.3185323602 -1.8704269558
| 19> O -3.4914712707 0.2017933832 0.90566663
| 20> C -4.4334620139 1.2260125747 1.2748776992
| 21> C -3.7548464546 2.4631761695 1.8254549231
| 22> O -2.0308430634 -1.1006711529 -0.5902750984
| 23> C -1.5520751618 -2.048901258 0.3971687436
| 24> C -1.0052799515 -3.2427773695 -0.3573038837
| 25> H 3.680268691 -2.3399035168 -3.0576953657
| 26> H 2.667940565 -3.7486589118 -2.7000231457
| 27> H 1.9598658157 -2.1250232049 -2.7247932619
| 28> H 4.0478628627 -3.1475988476 -0.7237981826
| 29> H 2.3139867535 -2.8897810968 -0.3727353853
| 30> H 1.962953472 -1.9327998814 2.82863428
| 31> H 3.2567465225 -0.7577198272 2.4547103396
| 32> H 1.6990409427 1.1186194437 2.9154942761
| 33> H 0.399759218 -0.0207852167 3.2709834329
| 34> H 1.8236578078 0.0557910002 4.3252396465
| 35> H -0.4536974061 1.9425982417 -1.5686236804
| 36> H 1.0087786862 2.2276348814 -0.5539268668
| 37> H -5.0320513971 1.4761306721 0.3938145145
| 38> H -5.0601227559 0.7417670465 2.0252118623
| 39> H -3.0737190956 2.1977733401 2.6300686314
| 40> H -3.1912381838 2.9603840047 1.0373011067
| 41> H -4.5086659762 3.1474260623 2.2015894091
| 42> H -0.7751551192 -1.5652478424 0.9966486306
| 43> H -2.3905151567 -2.3209044247 1.0408731871
| 44> H -1.7866470413 -3.689016379 -0.9654287708
| 45> H -0.1966280325 -2.9266196607 -1.011408541
| 46> H -0.6358893166 -3.9767163233 0.351663714
| 47> *
| 48>
| 49>                          ****END OF INPUT****

CARTESIAN COORDINATES (ANGSTROEM)
---------------------------------
  C      2.844898   -2.703493   -2.465860
  C      3.158778   -2.572964   -0.989060
  O      3.505154   -1.207526   -0.648462
  P      2.475370   -0.154273   -0.062268
  S      3.405215    1.487574    0.443236
  O      1.682263   -0.914294    1.104885
  C      2.175788   -0.926412    2.463903
  C      1.475654    0.125730    3.299808
  S      0.927306    0.018877   -1.487696
  C      0.205721    1.532799   -0.802333
  S     -0.744497    1.250507    0.706402
  P     -2.434830    0.386546   -0.268671
  S     -3.056782    1.318532   -1.870427
  O     -3.491471    0.201793    0.905667
  C     -4.433462    1.226013    1.274878
  C     -3.754846    2.463176    1.825455
  O     -2.030843   -1.100671   -0.590275
  C     -1.552075   -2.048901    0.397169
  C     -1.005280   -3.242777   -0.357304
  H      3.680269   -2.339904   -3.057695
  H      2.667941   -3.748659   -2.700023
  H      1.959866   -2.125023   -2.724793
  H      4.047863   -3.147599   -0.723798
  H      2.313987   -2.889781   -0.372735
  H      1.962953   -1.932800    2.828634
  H      3.256747   -0.757720    2.454710
  H      1.699041    1.118619    2.915494
  H      0.399759   -0.020785    3.270983
  H      1.823658    0.055791    4.325240
  H     -0.453697    1.942598   -1.568624
  H      1.008779    2.227635   -0.553927
  H     -5.032051    1.476131    0.393815
  H     -5.060123    0.741767    2.025212
  H     -3.073719    2.197773    2.630069
  H     -3.191238    2.960384    1.037301
  H     -4.508666    3.147426    2.201589
  H     -0.775155   -1.565248    0.996649
  H     -2.390515   -2.320904    1.040873
  H     -1.786647   -3.689016   -0.965429
  H     -0.196628   -2.926620   -1.011409
  H     -0.635889   -3.976716    0.351664

 Total Charge           Charge          ....    0
 Multiplicity           Mult            ....    1
 Number of Electrons    NEL             ....  202
 Basis Dimension        Dim             ....  334

ORBITAL ENERGIES
----------------

  NO   OCC          E(Eh)            E(eV)
   0   2.0000     -88.045807     -2395.8482
   1   2.0000     -88.042092     -2395.7471
   2   2.0000     -87.989089     -2394.3048
   3   2.0000     -87.986114     -2394.2239
   4   2.0000     -76.429709     -2079.7581
   5   2.0000     -76.426636     -2079.6745
   6   2.0000     -18.799108      -511.5497
   7   2.0000     -18.796686      -511.4838
   8   2.0000     -18.796615      -511.4819
   9   2.0000     -18.791219      -511.3351
  10   2.0000      -9.964796      -271.1559
  11   2.0000      -9.958428      -270.9826
  12   2.0000      -9.956322      -270.9253
  13   2.0000      -9.953411      -270.8461
  14   2.0000      -9.953357      -270.8446
  15   2.0000      -9.894651      -269.2471
  16   2.0000      -9.890154      -269.1248
  17   2.0000      -9.886374      -269.0219
  18   2.0000      -9.883664      -268.9482
  19   2.0000      -7.690902      -209.2801
  20   2.0000      -7.686902      -209.1712
  21   2.0000      -7.634386      -207.7422
  22   2.0000      -7.631402      -207.6610
  23   2.0000      -6.427775      -174.9086
  24   2.0000      -6.424206      -174.8115
  25   2.0000      -5.718705      -155.6139
  26   2.0000      -5.715570      -155.5286
  27   2.0000      -5.714587      -155.5018
  28   2.0000      -5.711510      -155.4181
  29   2.0000      -5.707752      -155.3158
  30   2.0000      -5.703964      -155.2128
  31   2.0000      -5.663458      -154.1105
  32   2.0000      -5.660346      -154.0258
  33   2.0000      -5.655062      -153.8821
  34   2.0000      -5.654270      -153.8605
  35   2.0000      -5.652033      -153.7996
  36   2.0000      -5.651499      -153.7851
  37   2.0000      -4.650859      -126.5563
  38   2.0000      -4.649126      -126.5091
  39   2.0000      -4.648122      -126.4818
  40   2.0000      -4.647142      -126.4551
  41   2.0000      -4.645848      -126.4199
  42   2.0000      -4.644453      -126.3820
  43   2.0000      -0.990589       -26.9553
  44   2.0000      -0.989317       -26.9207
  45   2.0000      -0.948880       -25.8203
  46   2.0000      -0.946324       -25.7508
  47   2.0000      -0.767061       -20.8728
  48   2.0000      -0.726198       -19.7609
  49   2.0000      -0.715274       -19.4636
  50   2.0000      -0.696480       -18.9522
  51   2.0000      -0.691438       -18.8150
  52   2.0000      -0.678503       -18.4630
  53   2.0000      -0.653054       -17.7705
  54   2.0000      -0.639579       -17.4038
  55   2.0000      -0.598896       -16.2968
  56   2.0000      -0.589527       -16.0419
  57   2.0000      -0.583966       -15.8905
  58   2.0000      -0.572982       -15.5916
  59   2.0000      -0.558875       -15.2077
  60   2.0000      -0.514550       -14.0016
  61   2.0000      -0.505486       -13.7550
  62   2.0000      -0.481521       -13.1028
  63   2.0000      -0.476171       -12.9573
  64   2.0000      -0.464634       -12.6433
  65   2.0000      -0.452783       -12.3208
  66   2.0000      -0.443453       -12.0670
  67   2.0000      -0.438445       -11.9307
  68   2.0000      -0.432558       -11.7705
  69   2.0000      -0.425676       -11.5832
  70   2.0000      -0.411919       -11.2089
  71   2.0000      -0.394455       -10.7337
  72   2.0000      -0.393759       -10.7147
  73   2.0000      -0.385888       -10.5006
  74   2.0000      -0.379062       -10.3148
  75   2.0000      -0.375465       -10.2169
  76   2.0000      -0.366517        -9.9734
  77   2.0000      -0.364343        -9.9143
  78   2.0000      -0.362808        -9.8725
  79   2.0000      -0.359871        -9.7926
  80   2.0000      -0.357136        -9.7182
  81   2.0000      -0.349927        -9.5220
  82   2.0000      -0.343077        -9.3356
  83   2.0000      -0.340834        -9.2746
  84   2.0000      -0.338862        -9.2209
  85   2.0000      -0.319536        -8.6950
  86   2.0000      -0.315737        -8.5916
  87   2.0000      -0.307513        -8.3679
  88   2.0000      -0.302450        -8.2301
  89   2.0000      -0.296610        -8.0712
  90   2.0000      -0.289127        -7.8675
  91   2.0000      -0.278750        -7.5852
  92   2.0000      -0.276349        -7.5198
  93   2.0000      -0.267113        -7.2685
  94   2.0000      -0.261694        -7.1210
  95   2.0000      -0.235773        -6.4157
  96   2.0000      -0.221278        -6.0213
  97   2.0000      -0.211841        -5.7645
  98   2.0000      -0.206186        -5.6106
  99   2.0000      -0.202732        -5.5166
 100   2.0000      -0.199508        -5.4289
 101   0.0000      -0.044947        -1.2231
 102   0.0000      -0.026329        -0.7165
 103   0.0000      -0.007325        -0.1993
 104   0.0000      -0.001605        -0.0437
 105   0.0000       0.005787         0.1575

MULLIKEN ATOMIC CHARGES
-----------------------
   0 C :   -0.307887
   1 C :   -0.035981
   2 O :   -0.364529
   3 P :    0.617059
   4 S :   -0.308479
   5 O :   -0.386405
   6 C :   -0.011824
   7 C :   -0.288611
   8 S :   -0.091887
   9 C :   -0.361915
  10 S :   -0.092554
  11 P :    0.604523
  12 S :   -0.314092
  13 O :   -0.386357
  14 C :    0.000431
  15 C :   -0.322246
  16 O :   -0.355349
  17 C :   -0.033237
  18 C :   -0.291727
  19 H :    0.127269
  20 H :    0.114187
  21 H :    0.144350
  22 H :    0.112708
  23 H :    0.112531
  24 H :    0.100212
  25 H :    0.109120
  26 H :    0.125358
  27 H :    0.117887
  28 H :    0.108184
  29 H :    0.194292
  30 H :    0.194183
  31 H :    0.114253
  32 H :    0.105048
  33 H :    0.117248
  34 H :    0.132481
  35 H :    0.115488
  36 H :    0.130523
  37 H :    0.104319
  38 H :    0.119788
  39 H :    0.126517
  40 H :    0.105121
Sum of atomic charges:    0.0000000

LOEWDIN ATOMIC CHARGES
----------------------
   0 C :   -0.361585
   1 C :   -0.117784
   2 O :   -0.242883
   3 P :    0.570629
   4 S :   -0.305749
   5 O :   -0.256102
   6 C :   -0.117733
   7 C :   -0.363053
   8 S :    0.094843
   9 C :   -0.487658
  10 S :    0.089257
  11 P :    0.570513
  12 S :   -0.313771
  13 O :   -0.249763
  14 C :   -0.115303
  15 C :   -0.371639
  16 O :   -0.234434
  17 C :   -0.121157
  18 C :   -0.352291
  19 H :    0.132959
  20 H :    0.132493
  21 H :    0.120288
  22 H :    0.122851
  23 H :    0.108982
  24 H :    0.114180
  25 H :    0.110768
  26 H :    0.124024
  27 H :    0.120456
  28 H :    0.128566
  29 H :    0.130138
  30 H :    0.130420
  31 H :    0.114390
  32 H :    0.118677
  33 H :    0.122854
  34 H :    0.123376
  35 H :    0.132480
  36 H :    0.106698
  37 H :    0.112522
  38 H :    0.129322
  39 H :    0.122219
  40 H :    0.126997

  Mayer bond orders larger than 0.100000
B(  0-C ,  1-C ) :   1.1703 B(  0-C , 19-H ) :   0.9445 B(  0-C , 20-H ) :   0.9380
B(  0-C , 21-H ) :   0.9301 B(  1-C ,  2-O ) :   0.9022 B(  1-C , 22-H ) :   0.9326
B(  1-C , 23-H ) :   0.9114 B(  2-O ,  3-P ) :   1.1265 B(  3-P ,  4-S ) :   1.6324
B(  3-P ,  5-O ) :   1.0636 B(  3-P ,  8-S ) :   0.9734 B(  4-S ,  8-S ) :   0.1040
B(  5-O ,  6-C ) :   0.8870 B(  6-C ,  7-C ) :   1.1754 B(  6-C , 24-H ) :   0.9332
B(  6-C , 25-H ) :   0.9121 B(  7-C , 26-H ) :   0.9341 B(  7-C , 27-H ) :   0.9456
B(  7-C , 28-H ) :   0.9387 B(  8-S ,  9-C ) :   0.9995 B(  9-C , 10-S ) :   1.0084
B(  9-C , 29-H ) :   0.8679 B(  9-C , 30-H ) :   0.8699 B( 10-S , 11-P ) :   0.9490
B( 10-S , 12-S ) :   0.1066 B( 11-P , 12-S ) :   1.6370 B( 11-P , 13-O ) :   1.0908
B( 11-P , 16-O ) :   1.1455 B( 13-O , 14-C ) :   0.9060 B( 14-C , 15-C ) :   1.1655
B( 14-C , 31-H ) :   0.9200 B( 14-C , 32-H ) :   0.9344 B( 15-C , 33-H ) :   0.9436
B( 15-C , 34-H ) :   0.9337 B( 15-C , 35-H ) :   0.9367 B( 16-O , 17-C ) :   0.8860
B( 17-C , 18-C ) :   1.1692 B( 17-C , 36-H ) :   0.8992 B( 17-C , 37-H ) :   0.9277
B( 18-C , 38-H ) :   0.9473 B( 18-C , 39-H ) :   0.9369 B( 18-C , 40-H ) :   0.9405

Dispersion correction           -0.066122849
FINAL SINGLE POINT ENERGY     -2929.520471997694

DIPOLE MOMENT
-------------

Method             : SCF
Type of density    : Electron Density
Multiplicity       :   1
Irrep              :   0
Energy             : -2929.6402983029270217 Eh
Relativity type    :
Basis              : AO
                                X                 Y                 Z
Electronic contribution:      1.977092170      13.293446023     -11.000261174
Nuclear contribution   :     -2.198845586     -14.980070645      12.373838226
                        -----------------------------------------
Total Dipole Moment    :     -0.221753416      -1.686624622       1.373577052
                        -----------------------------------------
Magnitude (a.u.)       :      2.186456290
Magnitude (Debye)      :      5.557530225

Rotational constants in cm-1:             0.011851             0.005256             0.004813
Rotational constants in MHz :           355.291779           157.573760           144.283540

                             ****ORCA TERMINATED NORMALLY****
TOTAL RUN TIME: 0 days 0 hours 0 minutes 21 seconds 579 msec
