                         Program Version 6.0.0  -   RELEASE  -
|  1> ! r2scan-3c def2/J RI DEFGRID2 scfconv6 printgap
|  2> %output
|  3>     printlevel normal
|  4> end
|  5> * xyz 0 1
|  6> C 3.0490832528 -0.1129287545 -2.8691102339
|  7> C 1.7914664067 -0.8056484933 -2.3890506895
|  8> O 1.8930711235 -1.2289284187 -1.0155447287
|  9> P 2.1297143072 -0.24297761 0.1996576673
| 10> S 1.296061233 1.5353730956 0.0852876469
| 11> O 3.7147695508 -0.2191688635 0.2925423291
| 12> C 4.4350621877 0.7512896435 1.071453252
| 13> C 4.2227482242 0.5615665467 2.5595124975
| 14> S 1.5376277355 -1.5015556182 1.7766942931
| 15> C -0.2329367159 -1.1264794713 1.7819025167
| 16> S -1.0794169649 -1.6246170592 0.2404443641
| 17> P -2.062798699 0.1793453085 -0.2502910247
| 18> S -2.2230023103 1.5478984437 1.1481773803
| 19> O -3.4542817437 -0.3122935737 -0.8463245254
| 20> C -4.6285639184 -0.4781341367 -0.0347170312
| 21> C -4.483815206 -1.6067385662 0.9658905696
| 22> O -1.3001272258 0.5659206763 -1.5867616173
| 23> C -1.3650220579 1.8945788064 -2.1459379111
| 24> C -2.7681373134 2.2760838263 -2.5651742278
| 25> H 3.9145312553 -0.7475840178 -2.696779114
| 26> H 2.9609684799 0.1008184087 -3.9297980017
| 27> H 3.1854474902 0.8235004775 -2.3285024044
| 28> H 1.6065854059 -1.7354836234 -2.9291457733
| 29> H 0.9211163755 -0.148831369 -2.4811481016
| 30> H 5.4764546378 0.5913919118 0.7890749036
| 31> H 4.1134231328 1.7510642091 0.7618509307
| 32> H 3.1915124811 0.7943916958 2.8221250083
| 33> H 4.4310493911 -0.4670977164 2.84252855
| 34> H 4.8830792022 1.2284867903 3.1045900953
| 35> H -0.3914253057 -0.0550326012 1.9335259531
| 36> H -0.6494326556 -1.7027685839 2.6040265735
| 37> H -4.8260712776 0.466623195 0.4820486606
| 38> H -5.4195046153 -0.6796133938 -0.7583368162
| 39> H -3.738876065 -1.3431921056 1.7156927832
| 40> H -5.4360307454 -1.7722896833 1.4595137636
| 41> H -4.1712786462 -2.5193955375 0.4648056302
| 42> H -0.9694718543 2.596601393 -1.4039813708
| 43> H -0.6865741036 1.8520645633 -2.9996937713
| 44> H -2.7390042634 3.2327041016 -3.0774405772
| 45> H -3.1800713038 1.519200138 -3.2277355661
| 46> H -3.4074386475 2.3650380526 -1.6876251665
| 47> *
| 48>
| 49>                          ****END OF INPUT****

CARTESIAN COORDINATES (ANGSTROEM)
---------------------------------
  C      3.049083   -0.112929   -2.869110
  C      1.791466   -0.805648   -2.389051
  O      1.893071   -1.228928   -1.015545
  P      2.129714   -0.242978    0.199658
  S      1.296061    1.535373    0.085288
  O      3.714770   -0.219169    0.292542
  C      4.435062    0.751290    1.071453
  C      4.222748    0.561567    2.559512
  S      1.537628   -1.501556    1.776694
  C     -0.232937   -1.126479    1.781903
  S     -1.079417   -1.624617    0.240444
  P     -2.062799    0.179345   -0.250291
  S     -2.223002    1.547898    1.148177
  O     -3.454282   -0.312294   -0.846325
  C     -4.628564   -0.478134   -0.034717
  C     -4.483815   -1.606739    0.965891
  O     -1.300127    0.565921   -1.586762
  C     -1.365022    1.894579   -2.145938
  C     -2.768137    2.276084   -2.565174
  H      3.914531   -0.747584   -2.696779
  H      2.960968    0.100818   -3.929798
  H      3.185447    0.823500   -2.328502
  H      1.606585   -1.735484   -2.929146
  H      0.921116   -0.148831   -2.481148
  H      5.476455    0.591392    0.789075
  H      4.113423    1.751064    0.761851
  H      3.191512    0.794392    2.822125
  H      4.431049   -0.467098    2.842529
  H      4.883079    1.228487    3.104590
  H     -0.391425   -0.055033    1.933526
  H     -0.649433   -1.702769    2.604027
  H     -4.826071    0.466623    0.482049
  H     -5.419505   -0.679613   -0.758337
  H     -3.738876   -1.343192    1.715693
  H     -5.436031   -1.772290    1.459514
  H     -4.171279   -2.519396    0.464806
  H     -0.969472    2.596601   -1.403981
  H     -0.686574    1.852065   -2.999694
  H     -2.739004    3.232704   -3.077441
  H     -3.180071    1.519200   -3.227736
  H     -3.407439    2.365038   -1.687625

 Total Charge           Charge          ....    0
 Multiplicity           Mult            ....    1
 Number of Electrons    NEL             ....  202
 Basis Dimension        Dim             ....  539

ORBITAL ENERGIES
----------------

  NO   OCC          E(Eh)            E(eV)
   0   2.0000     -88.574367     -2410.2311
   1   2.0000     -88.571301     -2410.1476
   2   2.0000     -88.518195     -2408.7025
   3   2.0000     -88.515268     -2408.6229
   4   2.0000     -76.910862     -2092.8510
   5   2.0000     -76.910555     -2092.8426
   6   2.0000     -18.990284      -516.7519
   7   2.0000     -18.986901      -516.6598
   8   2.0000     -18.984213      -516.5867
   9   2.0000     -18.983201      -516.5592
  10   2.0000     -10.104434      -274.9556
  11   2.0000     -10.096867      -274.7497
  12   2.0000     -10.095452      -274.7112
  13   2.0000     -10.092882      -274.6413
  14   2.0000     -10.092275      -274.6248
  15   2.0000     -10.027167      -272.8531
  16   2.0000     -10.026266      -272.8286
  17   2.0000     -10.025415      -272.8054
  18   2.0000     -10.025048      -272.7954
  19   2.0000      -7.868978      -214.1258
  20   2.0000      -7.865687      -214.0362
  21   2.0000      -7.812933      -212.6007
  22   2.0000      -7.810023      -212.5215
  23   2.0000      -6.589234      -179.3022
  24   2.0000      -6.588984      -179.2954
  25   2.0000      -5.815968      -158.2605
  26   2.0000      -5.812717      -158.1721
  27   2.0000      -5.812539      -158.1672
  28   2.0000      -5.809702      -158.0900
  29   2.0000      -5.806028      -157.9901
  30   2.0000      -5.802636      -157.8978
  31   2.0000      -5.760600      -156.7539
  32   2.0000      -5.757699      -156.6750
  33   2.0000      -5.753428      -156.5587
  34   2.0000      -5.752709      -156.5392
  35   2.0000      -5.750333      -156.4745
  36   2.0000      -5.749988      -156.4651
  37   2.0000      -4.734613      -128.8354
  38   2.0000      -4.734249      -128.8255
  39   2.0000      -4.734176      -128.8235
  40   2.0000      -4.733762      -128.8122
  41   2.0000      -4.733089      -128.7939
  42   2.0000      -4.733087      -128.7939
  43   2.0000      -1.046377       -28.4734
  44   2.0000      -1.045150       -28.4400
  45   2.0000      -1.007117       -27.4050
  46   2.0000      -1.005226       -27.3536
  47   2.0000      -0.797632       -21.7047
  48   2.0000      -0.754989       -20.5443
  49   2.0000      -0.744891       -20.2695
  50   2.0000      -0.729095       -19.8397
  51   2.0000      -0.727987       -19.8095
  52   2.0000      -0.709976       -19.3194
  53   2.0000      -0.685697       -18.6588
  54   2.0000      -0.663491       -18.0545
  55   2.0000      -0.634241       -17.2586
  56   2.0000      -0.623721       -16.9723
  57   2.0000      -0.603705       -16.4276
  58   2.0000      -0.601974       -16.3805
  59   2.0000      -0.588607       -16.0168
  60   2.0000      -0.517461       -14.0808
  61   2.0000      -0.510652       -13.8956
  62   2.0000      -0.487964       -13.2782
  63   2.0000      -0.486794       -13.2463
  64   2.0000      -0.465509       -12.6671
  65   2.0000      -0.463423       -12.6104
  66   2.0000      -0.455884       -12.4052
  67   2.0000      -0.454385       -12.3644
  68   2.0000      -0.443300       -12.0628
  69   2.0000      -0.431548       -11.7430
  70   2.0000      -0.426005       -11.5922
  71   2.0000      -0.413117       -11.2415
  72   2.0000      -0.407448       -11.0872
  73   2.0000      -0.404287       -11.0012
  74   2.0000      -0.396036       -10.7767
  75   2.0000      -0.394232       -10.7276
  76   2.0000      -0.385612       -10.4930
  77   2.0000      -0.368295       -10.0218
  78   2.0000      -0.366867        -9.9830
  79   2.0000      -0.360980        -9.8228
  80   2.0000      -0.359455        -9.7813
  81   2.0000      -0.355998        -9.6872
  82   2.0000      -0.352776        -9.5995
  83   2.0000      -0.349042        -9.4979
  84   2.0000      -0.346212        -9.4209
  85   2.0000      -0.325748        -8.8641
  86   2.0000      -0.322472        -8.7749
  87   2.0000      -0.307394        -8.3646
  88   2.0000      -0.306161        -8.3311
  89   2.0000      -0.296797        -8.0763
  90   2.0000      -0.294495        -8.0136
  91   2.0000      -0.285355        -7.7649
  92   2.0000      -0.283218        -7.7067
  93   2.0000      -0.277271        -7.5449
  94   2.0000      -0.274060        -7.4576
  95   2.0000      -0.242354        -6.5948
  96   2.0000      -0.231722        -6.3055
  97   2.0000      -0.227231        -6.1833
  98   2.0000      -0.215347        -5.8599
  99   2.0000      -0.209014        -5.6876
 100   2.0000      -0.201564        -5.4848
 101   0.0000      -0.041266        -1.1229
 102   0.0000      -0.032798        -0.8925
 103   0.0000      -0.007509        -0.2043
 104   0.0000       0.016205         0.4410
 105   0.0000       0.021255         0.5784

MULLIKEN ATOMIC CHARGES
-----------------------
   0 C :   -0.459135
   1 C :   -0.145424
   2 O :   -0.291616
   3 P :    0.708521
   4 S :   -0.446088
   5 O :   -0.306946
   6 C :   -0.153481
   7 C :   -0.460257
   8 S :   -0.107557
   9 C :   -0.236816
  10 S :   -0.118913
  11 P :    0.673865
  12 S :   -0.469624
  13 O :   -0.292006
  14 C :   -0.154605
  15 C :   -0.441585
  16 O :   -0.296506
  17 C :   -0.154820
  18 C :   -0.451181
  19 H :    0.157468
  20 H :    0.145533
  21 H :    0.172089
  22 H :    0.150053
  23 H :    0.175420
  24 H :    0.147638
  25 H :    0.172438
  26 H :    0.179862
  27 H :    0.156052
  28 H :    0.147876
  29 H :    0.218546
  30 H :    0.187895
  31 H :    0.171232
  32 H :    0.147188
  33 H :    0.168657
  34 H :    0.146782
  35 H :    0.157518
  36 H :    0.181109
  37 H :    0.147213
  38 H :    0.146698
  39 H :    0.156244
  40 H :    0.170662
Sum of atomic charges:    0.0000000

LOEWDIN ATOMIC CHARGES
----------------------
   0 C :   -0.402922
   1 C :    0.024815
   2 O :   -0.669532
   3 P :    0.376240
   4 S :   -0.089748
   5 O :   -0.662858
   6 C :    0.018963
   7 C :   -0.407366
   8 S :    0.168088
   9 C :   -0.413890
  10 S :    0.180969
  11 P :    0.378606
  12 S :   -0.126591
  13 O :   -0.670314
  14 C :    0.017966
  15 C :   -0.407430
  16 O :   -0.690009
  17 C :    0.008350
  18 C :   -0.400937
  19 H :    0.161377
  20 H :    0.158276
  21 H :    0.165577
  22 H :    0.181613
  23 H :    0.188926
  24 H :    0.179221
  25 H :    0.179625
  26 H :    0.166179
  27 H :    0.160059
  28 H :    0.159356
  29 H :    0.199955
  30 H :    0.178747
  31 H :    0.178945
  32 H :    0.178940
  33 H :    0.162649
  34 H :    0.157954
  35 H :    0.161444
  36 H :    0.183548
  37 H :    0.178914
  38 H :    0.159120
  39 H :    0.161421
  40 H :    0.165756

  Mayer bond orders larger than 0.100000
B(  0-C ,  1-C ) :   0.9100 B(  0-C , 19-H ) :   0.9707 B(  0-C , 20-H ) :   0.9603
B(  0-C , 21-H ) :   0.9609 B(  1-C ,  2-O ) :   0.8157 B(  1-C , 22-H ) :   0.9623
B(  1-C , 23-H ) :   0.9630 B(  2-O ,  3-P ) :   1.1670 B(  3-P ,  4-S ) :   1.7373
B(  3-P ,  5-O ) :   1.0576 B(  3-P ,  8-S ) :   1.0997 B(  5-O ,  6-C ) :   0.8175
B(  6-C ,  7-C ) :   0.9190 B(  6-C , 24-H ) :   0.9587 B(  6-C , 25-H ) :   0.9665
B(  7-C , 26-H ) :   0.9624 B(  7-C , 27-H ) :   0.9688 B(  7-C , 28-H ) :   0.9587
B(  8-S ,  9-C ) :   0.9255 B(  9-C , 10-S ) :   0.8905 B(  9-C , 29-H ) :   0.9039
B(  9-C , 30-H ) :   0.9130 B( 10-S , 11-P ) :   1.1252 B( 11-P , 12-S ) :   1.7305
B( 11-P , 13-O ) :   1.0508 B( 11-P , 16-O ) :   1.1650 B( 13-O , 14-C ) :   0.8223
B( 14-C , 15-C ) :   0.9205 B( 14-C , 31-H ) :   0.9680 B( 14-C , 32-H ) :   0.9585
B( 15-C , 33-H ) :   0.9669 B( 15-C , 34-H ) :   0.9600 B( 15-C , 35-H ) :   0.9667
B( 16-O , 17-C ) :   0.8098 B( 17-C , 18-C ) :   0.9142 B( 17-C , 36-H ) :   0.9629
B( 17-C , 37-H ) :   0.9597 B( 18-C , 38-H ) :   0.9595 B( 18-C , 39-H ) :   0.9712
B( 18-C , 40-H ) :   0.9618

Dispersion correction           -0.022404380
FINAL SINGLE POINT ENERGY     -2932.459104852010

DIPOLE MOMENT
-------------

Method             : SCF
Type of density    : Electron Density
Multiplicity       :   1
Irrep              :   0
Energy             : -2932.4834037084915508 Eh
Relativity type    :
Basis              : AO
                                X                 Y                 Z
Electronic contribution:      0.984076078      -6.085193852       7.510649911
Nuclear contribution   :     -0.907030332       5.810723368      -8.107963137
                        -----------------------------------------
Total Dipole Moment    :      0.077045747      -0.274470483      -0.597313226
                        -----------------------------------------
Magnitude (a.u.)       :      0.661855863
Magnitude (Debye)      :      1.682303909

Rotational constants in cm-1:             0.012714             0.005437             0.004862
Rotational constants in MHz :           381.168488           162.990790           145.744438

                             ****ORCA TERMINATED NORMALLY****
TOTAL RUN TIME: 0 days 0 hours 1 minutes 20 seconds 602 msec
