                         Program Version 6.0.0  -   RELEASE  -
|  1> ! r2scan-3c def2/J RI DEFGRID2 scfconv6 printgap
|  2> %output
|  3>     printlevel normal
|  4> end
|  5> %cpcm
|  6>     smd true
|  7>     smdsolvent "water"
|  8> end
|  9> * xyz 0 1
| 10> C 3.0490832528 -0.1129287545 -2.8691102339
| 11> C 1.7914664067 -0.8056484933 -2.3890506895
| 12> O 1.8930711235 -1.2289284187 -1.0155447287
| 13> P 2.1297143072 -0.24297761 0.1996576673
| 14> S 1.296061233 1.5353730956 0.0852876469
| 15> O 3.7147695508 -0.2191688635 0.2925423291
| 16> C 4.4350621877 0.7512896435 1.071453252
| 17> C 4.2227482242 0.5615665467 2.5595124975
| 18> S 1.5376277355 -1.5015556182 1.7766942931
| 19> C -0.2329367159 -1.1264794713 1.7819025167
| 20> S -1.0794169649 -1.6246170592 0.2404443641
| 21> P -2.062798699 0.1793453085 -0.2502910247
| 22> S -2.2230023103 1.5478984437 1.1481773803
| 23> O -3.4542817437 -0.3122935737 -0.8463245254
| 24> C -4.6285639184 -0.4781341367 -0.0347170312
| 25> C -4.483815206 -1.6067385662 0.9658905696
| 26> O -1.3001272258 0.5659206763 -1.5867616173
| 27> C -1.3650220579 1.8945788064 -2.1459379111
| 28> C -2.7681373134 2.2760838263 -2.5651742278
| 29> H 3.9145312553 -0.7475840178 -2.696779114
| 30> H 2.9609684799 0.1008184087 -3.9297980017
| 31> H 3.1854474902 0.8235004775 -2.3285024044
| 32> H 1.6065854059 -1.7354836234 -2.9291457733
| 33> H 0.9211163755 -0.148831369 -2.4811481016
| 34> H 5.4764546378 0.5913919118 0.7890749036
| 35> H 4.1134231328 1.7510642091 0.7618509307
| 36> H 3.1915124811 0.7943916958 2.8221250083
| 37> H 4.4310493911 -0.4670977164 2.84252855
| 38> H 4.8830792022 1.2284867903 3.1045900953
| 39> H -0.3914253057 -0.0550326012 1.9335259531
| 40> H -0.6494326556 -1.7027685839 2.6040265735
| 41> H -4.8260712776 0.466623195 0.4820486606
| 42> H -5.4195046153 -0.6796133938 -0.7583368162
| 43> H -3.738876065 -1.3431921056 1.7156927832
| 44> H -5.4360307454 -1.7722896833 1.4595137636
| 45> H -4.1712786462 -2.5193955375 0.4648056302
| 46> H -0.9694718543 2.596601393 -1.4039813708
| 47> H -0.6865741036 1.8520645633 -2.9996937713
| 48> H -2.7390042634 3.2327041016 -3.0774405772
| 49> H -3.1800713038 1.519200138 -3.2277355661
| 50> H -3.4074386475 2.3650380526 -1.6876251665
| 51> *
| 52>
| 53>                          ****END OF INPUT****

CARTESIAN COORDINATES (ANGSTROEM)
---------------------------------
  C      3.049083   -0.112929   -2.869110
  C      1.791466   -0.805648   -2.389051
  O      1.893071   -1.228928   -1.015545
  P      2.129714   -0.242978    0.199658
  S      1.296061    1.535373    0.085288
  O      3.714770   -0.219169    0.292542
  C      4.435062    0.751290    1.071453
  C      4.222748    0.561567    2.559512
  S      1.537628   -1.501556    1.776694
  C     -0.232937   -1.126479    1.781903
  S     -1.079417   -1.624617    0.240444
  P     -2.062799    0.179345   -0.250291
  S     -2.223002    1.547898    1.148177
  O     -3.454282   -0.312294   -0.846325
  C     -4.628564   -0.478134   -0.034717
  C     -4.483815   -1.606739    0.965891
  O     -1.300127    0.565921   -1.586762
  C     -1.365022    1.894579   -2.145938
  C     -2.768137    2.276084   -2.565174
  H      3.914531   -0.747584   -2.696779
  H      2.960968    0.100818   -3.929798
  H      3.185447    0.823500   -2.328502
  H      1.606585   -1.735484   -2.929146
  H      0.921116   -0.148831   -2.481148
  H      5.476455    0.591392    0.789075
  H      4.113423    1.751064    0.761851
  H      3.191512    0.794392    2.822125
  H      4.431049   -0.467098    2.842529
  H      4.883079    1.228487    3.104590
  H     -0.391425   -0.055033    1.933526
  H     -0.649433   -1.702769    2.604027
  H     -4.826071    0.466623    0.482049
  H     -5.419505   -0.679613   -0.758337
  H     -3.738876   -1.343192    1.715693
  H     -5.436031   -1.772290    1.459514
  H     -4.171279   -2.519396    0.464806
  H     -0.969472    2.596601   -1.403981
  H     -0.686574    1.852065   -2.999694
  H     -2.739004    3.232704   -3.077441
  H     -3.180071    1.519200   -3.227736
  H     -3.407439    2.365038   -1.687625

 Total Charge           Charge          ....    0
 Multiplicity           Mult            ....    1
 Number of Electrons    NEL             ....  202
 Basis Dimension        Dim             ....  539

ORBITAL ENERGIES
----------------

  NO   OCC          E(Eh)            E(eV)
   0   2.0000     -88.579438     -2410.3690
   1   2.0000     -88.576191     -2410.2807
   2   2.0000     -88.526427     -2408.9266
   3   2.0000     -88.522532     -2408.8206
   4   2.0000     -76.916816     -2093.0130
   5   2.0000     -76.916758     -2093.0114
   6   2.0000     -18.993826      -516.8483
   7   2.0000     -18.990935      -516.7696
   8   2.0000     -18.989297      -516.7250
   9   2.0000     -18.988372      -516.6999
  10   2.0000     -10.104505      -274.9576
  11   2.0000     -10.089074      -274.5376
  12   2.0000     -10.087740      -274.5014
  13   2.0000     -10.087474      -274.4941
  14   2.0000     -10.087348      -274.4907
  15   2.0000     -10.018467      -272.6163
  16   2.0000     -10.017850      -272.5996
  17   2.0000     -10.017652      -272.5942
  18   2.0000     -10.017213      -272.5822
  19   2.0000      -7.874028      -214.2632
  20   2.0000      -7.870617      -214.1704
  21   2.0000      -7.821474      -212.8331
  22   2.0000      -7.817512      -212.7253
  23   2.0000      -6.595293      -179.4670
  24   2.0000      -6.595228      -179.4653
  25   2.0000      -5.820985      -158.3970
  26   2.0000      -5.817738      -158.3087
  27   2.0000      -5.817466      -158.3013
  28   2.0000      -5.814647      -158.2246
  29   2.0000      -5.811157      -158.1296
  30   2.0000      -5.807567      -158.0319
  31   2.0000      -5.769083      -156.9847
  32   2.0000      -5.765154      -156.8778
  33   2.0000      -5.761953      -156.7907
  34   2.0000      -5.761266      -156.7720
  35   2.0000      -5.757833      -156.6786
  36   2.0000      -5.757457      -156.6684
  37   2.0000      -4.740573      -128.9976
  38   2.0000      -4.740522      -128.9962
  39   2.0000      -4.740176      -128.9867
  40   2.0000      -4.740062      -128.9836
  41   2.0000      -4.739469      -128.9675
  42   2.0000      -4.739116      -128.9579
  43   2.0000      -1.050798       -28.5937
  44   2.0000      -1.048949       -28.5434
  45   2.0000      -1.011223       -27.5168
  46   2.0000      -1.008326       -27.4379
  47   2.0000      -0.800570       -21.7846
  48   2.0000      -0.754431       -20.5291
  49   2.0000      -0.741224       -20.1697
  50   2.0000      -0.723116       -19.6770
  51   2.0000      -0.721850       -19.6425
  52   2.0000      -0.710166       -19.3246
  53   2.0000      -0.689753       -18.7691
  54   2.0000      -0.670095       -18.2342
  55   2.0000      -0.634917       -17.2770
  56   2.0000      -0.622308       -16.9339
  57   2.0000      -0.599650       -16.3173
  58   2.0000      -0.597402       -16.2561
  59   2.0000      -0.588676       -16.0187
  60   2.0000      -0.515841       -14.0368
  61   2.0000      -0.508778       -13.8446
  62   2.0000      -0.487145       -13.2559
  63   2.0000      -0.485497       -13.2110
  64   2.0000      -0.466116       -12.6837
  65   2.0000      -0.464440       -12.6380
  66   2.0000      -0.453553       -12.3418
  67   2.0000      -0.451862       -12.2958
  68   2.0000      -0.441901       -12.0247
  69   2.0000      -0.429463       -11.6863
  70   2.0000      -0.423174       -11.5151
  71   2.0000      -0.411205       -11.1895
  72   2.0000      -0.404958       -11.0195
  73   2.0000      -0.404128       -10.9969
  74   2.0000      -0.396729       -10.7956
  75   2.0000      -0.392997       -10.6940
  76   2.0000      -0.384525       -10.4635
  77   2.0000      -0.364049        -9.9063
  78   2.0000      -0.363107        -9.8806
  79   2.0000      -0.353772        -9.6266
  80   2.0000      -0.353271        -9.6130
  81   2.0000      -0.351904        -9.5758
  82   2.0000      -0.348303        -9.4778
  83   2.0000      -0.346675        -9.4335
  84   2.0000      -0.344243        -9.3673
  85   2.0000      -0.324995        -8.8436
  86   2.0000      -0.321949        -8.7607
  87   2.0000      -0.303809        -8.2671
  88   2.0000      -0.303283        -8.2528
  89   2.0000      -0.297784        -8.1031
  90   2.0000      -0.296641        -8.0720
  91   2.0000      -0.286708        -7.8017
  92   2.0000      -0.284256        -7.7350
  93   2.0000      -0.279214        -7.5978
  94   2.0000      -0.276209        -7.5160
  95   2.0000      -0.247639        -6.7386
  96   2.0000      -0.239274        -6.5110
  97   2.0000      -0.234998        -6.3946
  98   2.0000      -0.222641        -6.0584
  99   2.0000      -0.216279        -5.8853
 100   2.0000      -0.209907        -5.7119
 101   0.0000      -0.046327        -1.2606
 102   0.0000      -0.039516        -1.0753
 103   0.0000      -0.011596        -0.3155
 104   0.0000       0.011749         0.3197
 105   0.0000       0.016153         0.4395

MULLIKEN ATOMIC CHARGES
-----------------------
   0 C :   -0.496014
   1 C :   -0.144004
   2 O :   -0.321773
   3 P :    0.734769
   4 S :   -0.489167
   5 O :   -0.332641
   6 C :   -0.153738
   7 C :   -0.493947
   8 S :   -0.122511
   9 C :   -0.235102
  10 S :   -0.134826
  11 P :    0.719375
  12 S :   -0.521498
  13 O :   -0.320209
  14 C :   -0.157283
  15 C :   -0.475005
  16 O :   -0.319768
  17 C :   -0.153581
  18 C :   -0.493282
  19 H :    0.168929
  20 H :    0.172201
  21 H :    0.170529
  22 H :    0.174559
  23 H :    0.182051
  24 H :    0.174761
  25 H :    0.177746
  26 H :    0.173925
  27 H :    0.169667
  28 H :    0.173035
  29 H :    0.214838
  30 H :    0.230874
  31 H :    0.176865
  32 H :    0.173524
  33 H :    0.170470
  34 H :    0.171396
  35 H :    0.166205
  36 H :    0.178718
  37 H :    0.178649
  38 H :    0.171693
  39 H :    0.169041
  40 H :    0.170533
Sum of atomic charges:    0.0000000

LOEWDIN ATOMIC CHARGES
----------------------
   0 C :   -0.404300
   1 C :    0.027500
   2 O :   -0.688814
   3 P :    0.378483
   4 S :   -0.112644
   5 O :   -0.676234
   6 C :    0.024117
   7 C :   -0.410386
   8 S :    0.162939
   9 C :   -0.406690
  10 S :    0.174118
  11 P :    0.384509
  12 S :   -0.157463
  13 O :   -0.682955
  14 C :    0.022897
  15 C :   -0.410101
  16 O :   -0.700441
  17 C :    0.011869
  18 C :   -0.403987
  19 H :    0.163832
  20 H :    0.168575
  21 H :    0.163156
  22 H :    0.191157
  23 H :    0.190737
  24 H :    0.190609
  25 H :    0.181263
  26 H :    0.161578
  27 H :    0.163516
  28 H :    0.168481
  29 H :    0.198371
  30 H :    0.195441
  31 H :    0.180822
  32 H :    0.189938
  33 H :    0.160871
  34 H :    0.166935
  35 H :    0.163320
  36 H :    0.182236
  37 H :    0.190682
  38 H :    0.168401
  39 H :    0.164506
  40 H :    0.163159

  Mayer bond orders larger than 0.100000
B(  0-C ,  1-C ) :   0.9050 B(  0-C , 19-H ) :   0.9701 B(  0-C , 20-H ) :   0.9536
B(  0-C , 21-H ) :   0.9602 B(  1-C ,  2-O ) :   0.8040 B(  1-C , 22-H ) :   0.9512
B(  1-C , 23-H ) :   0.9562 B(  2-O ,  3-P ) :   1.1664 B(  3-P ,  4-S ) :   1.7064
B(  3-P ,  5-O ) :   1.0621 B(  3-P ,  8-S ) :   1.1131 B(  5-O ,  6-C ) :   0.8062
B(  6-C ,  7-C ) :   0.9059 B(  6-C , 24-H ) :   0.9490 B(  6-C , 25-H ) :   0.9650
B(  7-C , 26-H ) :   0.9642 B(  7-C , 27-H ) :   0.9657 B(  7-C , 28-H ) :   0.9533
B(  8-S ,  9-C ) :   0.9174 B(  9-C , 10-S ) :   0.8841 B(  9-C , 29-H ) :   0.9078
B(  9-C , 30-H ) :   0.8978 B( 10-S , 11-P ) :   1.1378 B( 11-P , 12-S ) :   1.6814
B( 11-P , 13-O ) :   1.0596 B( 11-P , 16-O ) :   1.1699 B( 13-O , 14-C ) :   0.8097
B( 14-C , 15-C ) :   0.9088 B( 14-C , 31-H ) :   0.9662 B( 14-C , 32-H ) :   0.9488
B( 15-C , 33-H ) :   0.9661 B( 15-C , 34-H ) :   0.9549 B( 15-C , 35-H ) :   0.9648
B( 16-O , 17-C ) :   0.7943 B( 17-C , 18-C ) :   0.9054 B( 17-C , 36-H ) :   0.9609
B( 17-C , 37-H ) :   0.9490 B( 18-C , 38-H ) :   0.9534 B( 18-C , 39-H ) :   0.9696
B( 18-C , 40-H ) :   0.9619

Dispersion correction           -0.022404380
FINAL SINGLE POINT ENERGY     -2932.466581592467

DIPOLE MOMENT
-------------

Method             : SCF
Type of density    : Electron Density
Multiplicity       :   1
Irrep              :   0
Energy             : -2932.4908804489482463 Eh
Relativity type    :
Basis              : AO
                                X                 Y                 Z
Electronic contribution:      0.954331232      -6.163888484       7.348568303
Nuclear contribution   :     -0.907030332       5.810723368      -8.107963137
                        -----------------------------------------
Total Dipole Moment    :      0.047300900      -0.353165115      -0.759394835
                        -----------------------------------------
Magnitude (a.u.)       :      0.838834602
Magnitude (Debye)      :      2.132148113

Rotational constants in cm-1:             0.012714             0.005437             0.004862
Rotational constants in MHz :           381.168488           162.990790           145.744438

                             ****ORCA TERMINATED NORMALLY****
TOTAL RUN TIME: 0 days 0 hours 1 minutes 57 seconds 206 msec
