                         Program Version 6.0.0  -   RELEASE  -
|  1> ! pbe def2-sv(p) def2/J RI DEFGRID1 loosescf d4 GCP(DFT/SV(P)) printgap
|  2> %output
|  3>     printlevel normal
|  4> end
|  5> * xyz 0 1
|  6> C 2.414881937 -2.0939689349 -1.999164632
|  7> C 2.4625008342 -0.5930662004 -2.1995000196
|  8> O 1.7175965755 0.1284907425 -1.1880121469
|  9> P 2.0581467373 0.2619515302 0.3426378407
| 10> S 1.0617910101 1.7703145094 1.1072537431
| 11> O 3.6418031227 0.3367576398 0.3216652835
| 12> C 4.4972921004 0.0799590768 1.4533859543
| 13> C 4.1856743715 0.9691209416 2.6380834933
| 14> S 1.6430797095 -1.5769940209 1.3174239555
| 15> C -0.1376037353 -1.3224465218 1.4544447665
| 16> S -1.0170154774 -1.5453520739 -0.1295092229
| 17> P -1.8435310208 0.3894525832 -0.5369579098
| 18> S -0.9578054263 1.476067593 -1.909265776
| 19> O -2.0653449899 1.106231682 0.8469382318
| 20> C -3.266961106 1.012193523 1.6589993233
| 21> C -3.4076838111 -0.332744079 2.3401052131
| 22> O -3.3265987602 -0.0060719094 -0.9594716059
| 23> C -3.5998773895 -0.5784059142 -2.251988884
| 24> C -5.0873926911 -0.4548082268 -2.5124812201
| 25> H 2.8585123769 -2.5745330086 -2.8655534084
| 26> H 2.9716443819 -2.3828633123 -1.110382857
| 27> H 1.3848176868 -2.4291795034 -1.8960244282
| 28> H 1.9622214248 -0.2937430626 -3.1227232274
| 29> H 3.4889225097 -0.2222126937 -2.1948917754
| 30> H 4.3956161915 -0.974433237 1.7241230431
| 31> H 5.4986088876 0.2700119583 1.0629494876
| 32> H 4.2274107018 2.0164743036 2.3482662283
| 33> H 3.1852268335 0.7587278613 3.0128984069
| 34> H 4.9076720656 0.7839491011 3.4267243203
| 35> H -0.3190962871 -0.3108577013 1.8223553218
| 36> H -0.505133738 -2.0833407057 2.1372451267
| 37> H -3.1349086479 1.8196985955 2.3807745307
| 38> H -4.1256701424 1.2195115629 1.0192861238
| 39> H -2.5681248426 -0.5166684634 3.0048753173
| 40> H -4.3243836291 -0.3313712878 2.9219339912
| 41> H -3.4621499422 -1.1277273832 1.599490505
| 42> H -3.0116651771 -0.0383781666 -3.0018557736
| 43> H -3.2814856595 -1.6246398931 -2.2328468755
| 44> H -5.6458051506 -0.9726177166 -1.7382448524
| 45> H -5.3788323776 0.5917571926 -2.52033001
| 46> H -5.3152843044 -0.8961163329 -3.4769773794
| 47> *
| 48>
| 49>                          ****END OF INPUT****

CARTESIAN COORDINATES (ANGSTROEM)
---------------------------------
  C      2.414882   -2.093969   -1.999165
  C      2.462501   -0.593066   -2.199500
  O      1.717597    0.128491   -1.188012
  P      2.058147    0.261952    0.342638
  S      1.061791    1.770315    1.107254
  O      3.641803    0.336758    0.321665
  C      4.497292    0.079959    1.453386
  C      4.185674    0.969121    2.638083
  S      1.643080   -1.576994    1.317424
  C     -0.137604   -1.322447    1.454445
  S     -1.017015   -1.545352   -0.129509
  P     -1.843531    0.389453   -0.536958
  S     -0.957805    1.476068   -1.909266
  O     -2.065345    1.106232    0.846938
  C     -3.266961    1.012194    1.658999
  C     -3.407684   -0.332744    2.340105
  O     -3.326599   -0.006072   -0.959472
  C     -3.599877   -0.578406   -2.251989
  C     -5.087393   -0.454808   -2.512481
  H      2.858512   -2.574533   -2.865553
  H      2.971644   -2.382863   -1.110383
  H      1.384818   -2.429180   -1.896024
  H      1.962221   -0.293743   -3.122723
  H      3.488923   -0.222213   -2.194892
  H      4.395616   -0.974433    1.724123
  H      5.498609    0.270012    1.062949
  H      4.227411    2.016474    2.348266
  H      3.185227    0.758728    3.012898
  H      4.907672    0.783949    3.426724
  H     -0.319096   -0.310858    1.822355
  H     -0.505134   -2.083341    2.137245
  H     -3.134909    1.819699    2.380775
  H     -4.125670    1.219512    1.019286
  H     -2.568125   -0.516668    3.004875
  H     -4.324384   -0.331371    2.921934
  H     -3.462150   -1.127727    1.599491
  H     -3.011665   -0.038378   -3.001856
  H     -3.281486   -1.624640   -2.232847
  H     -5.645805   -0.972618   -1.738245
  H     -5.378832    0.591757   -2.520330
  H     -5.315284   -0.896116   -3.476977

 Total Charge           Charge          ....    0
 Multiplicity           Mult            ....    1
 Number of Electrons    NEL             ....  202
 Basis Dimension        Dim             ....  334

ORBITAL ENERGIES
----------------

  NO   OCC          E(Eh)            E(eV)
   0   2.0000     -88.041347     -2395.7269
   1   2.0000     -88.034033     -2395.5278
   2   2.0000     -87.973023     -2393.8677
   3   2.0000     -87.966009     -2393.6768
   4   2.0000     -76.420023     -2079.4945
   5   2.0000     -76.416518     -2079.3992
   6   2.0000     -18.792984      -511.3831
   7   2.0000     -18.786612      -511.2097
   8   2.0000     -18.783807      -511.1334
   9   2.0000     -18.777301      -510.9563
  10   2.0000      -9.959554      -271.0133
  11   2.0000      -9.956080      -270.9187
  12   2.0000      -9.955257      -270.8963
  13   2.0000      -9.948474      -270.7117
  14   2.0000      -9.946181      -270.6494
  15   2.0000      -9.889670      -269.1116
  16   2.0000      -9.886690      -269.0305
  17   2.0000      -9.882245      -268.9096
  18   2.0000      -9.879466      -268.8339
  19   2.0000      -7.686528      -209.1611
  20   2.0000      -7.678906      -208.9536
  21   2.0000      -7.618055      -207.2978
  22   2.0000      -7.611144      -207.1098
  23   2.0000      -6.417116      -174.6186
  24   2.0000      -6.413773      -174.5276
  25   2.0000      -5.714167      -155.4904
  26   2.0000      -5.710987      -155.4039
  27   2.0000      -5.706940      -155.2937
  28   2.0000      -5.703763      -155.2073
  29   2.0000      -5.703368      -155.1965
  30   2.0000      -5.695796      -154.9905
  31   2.0000      -5.647138      -153.6664
  32   2.0000      -5.640311      -153.4807
  33   2.0000      -5.638696      -153.4367
  34   2.0000      -5.638009      -153.4180
  35   2.0000      -5.631935      -153.2527
  36   2.0000      -5.630891      -153.2243
  37   2.0000      -4.640176      -126.2656
  38   2.0000      -4.639069      -126.2355
  39   2.0000      -4.637136      -126.1829
  40   2.0000      -4.636984      -126.1787
  41   2.0000      -4.635597      -126.1410
  42   2.0000      -4.633419      -126.0817
  43   2.0000      -0.983428       -26.7604
  44   2.0000      -0.982684       -26.7402
  45   2.0000      -0.938598       -25.5406
  46   2.0000      -0.937056       -25.4986
  47   2.0000      -0.759099       -20.6561
  48   2.0000      -0.716214       -19.4892
  49   2.0000      -0.708750       -19.2861
  50   2.0000      -0.691392       -18.8137
  51   2.0000      -0.687377       -18.7045
  52   2.0000      -0.672218       -18.2920
  53   2.0000      -0.643274       -17.5044
  54   2.0000      -0.624793       -17.0015
  55   2.0000      -0.586996       -15.9730
  56   2.0000      -0.583991       -15.8912
  57   2.0000      -0.577187       -15.7060
  58   2.0000      -0.571177       -15.5425
  59   2.0000      -0.561470       -15.2784
  60   2.0000      -0.500801       -13.6275
  61   2.0000      -0.494462       -13.4550
  62   2.0000      -0.474357       -12.9079
  63   2.0000      -0.465909       -12.6780
  64   2.0000      -0.453192       -12.3320
  65   2.0000      -0.446410       -12.1474
  66   2.0000      -0.439769       -11.9667
  67   2.0000      -0.432704       -11.7745
  68   2.0000      -0.428589       -11.6625
  69   2.0000      -0.418581       -11.3902
  70   2.0000      -0.407971       -11.1014
  71   2.0000      -0.400323       -10.8933
  72   2.0000      -0.395556       -10.7636
  73   2.0000      -0.383564       -10.4373
  74   2.0000      -0.378079       -10.2880
  75   2.0000      -0.364720        -9.9245
  76   2.0000      -0.354791        -9.6543
  77   2.0000      -0.351544        -9.5660
  78   2.0000      -0.349227        -9.5029
  79   2.0000      -0.347849        -9.4655
  80   2.0000      -0.344701        -9.3798
  81   2.0000      -0.342047        -9.3076
  82   2.0000      -0.339708        -9.2439
  83   2.0000      -0.335869        -9.1395
  84   2.0000      -0.328963        -8.9515
  85   2.0000      -0.320192        -8.7129
  86   2.0000      -0.316602        -8.6152
  87   2.0000      -0.299221        -8.1422
  88   2.0000      -0.295637        -8.0447
  89   2.0000      -0.289564        -7.8794
  90   2.0000      -0.282575        -7.6892
  91   2.0000      -0.271827        -7.3968
  92   2.0000      -0.267251        -7.2723
  93   2.0000      -0.255746        -6.9592
  94   2.0000      -0.248666        -6.7665
  95   2.0000      -0.231476        -6.2988
  96   2.0000      -0.212852        -5.7920
  97   2.0000      -0.202796        -5.5184
  98   2.0000      -0.190104        -5.1730
  99   2.0000      -0.177591        -4.8325
 100   2.0000      -0.169505        -4.6125
 101   0.0000      -0.040778        -1.1096
 102   0.0000      -0.031469        -0.8563
 103   0.0000      -0.013980        -0.3804
 104   0.0000       0.005146         0.1400
 105   0.0000       0.019041         0.5181

MULLIKEN ATOMIC CHARGES
-----------------------
   0 C :   -0.319903
   1 C :    0.008148
   2 O :   -0.331443
   3 P :    0.603894
   4 S :   -0.289824
   5 O :   -0.381471
   6 C :   -0.014396
   7 C :   -0.305879
   8 S :   -0.116170
   9 C :   -0.371433
  10 S :   -0.123806
  11 P :    0.614450
  12 S :   -0.287018
  13 O :   -0.360122
  14 C :    0.008407
  15 C :   -0.328092
  16 O :   -0.393677
  17 C :   -0.009262
  18 C :   -0.282137
  19 H :    0.107843
  20 H :    0.113625
  21 H :    0.130682
  22 H :    0.110137
  23 H :    0.105083
  24 H :    0.112665
  25 H :    0.109539
  26 H :    0.127738
  27 H :    0.124714
  28 H :    0.109455
  29 H :    0.212425
  30 H :    0.180780
  31 H :    0.114154
  32 H :    0.112500
  33 H :    0.120915
  34 H :    0.114183
  35 H :    0.127325
  36 H :    0.103695
  37 H :    0.098128
  38 H :    0.112151
  39 H :    0.120918
  40 H :    0.111081
Sum of atomic charges:    0.0000000

LOEWDIN ATOMIC CHARGES
----------------------
   0 C :   -0.371080
   1 C :   -0.107055
   2 O :   -0.220123
   3 P :    0.565882
   4 S :   -0.290818
   5 O :   -0.244886
   6 C :   -0.114153
   7 C :   -0.369377
   8 S :    0.064624
   9 C :   -0.481365
  10 S :    0.047053
  11 P :    0.564968
  12 S :   -0.294333
  13 O :   -0.231340
  14 C :   -0.105624
  15 C :   -0.368183
  16 O :   -0.255076
  17 C :   -0.124845
  18 C :   -0.351005
  19 H :    0.128305
  20 H :    0.113623
  21 H :    0.124811
  22 H :    0.122619
  23 H :    0.111740
  24 H :    0.106959
  25 H :    0.121194
  26 H :    0.131627
  27 H :    0.121090
  28 H :    0.129263
  29 H :    0.126091
  30 H :    0.133694
  31 H :    0.124243
  32 H :    0.116111
  33 H :    0.124535
  34 H :    0.132217
  35 H :    0.122018
  36 H :    0.106525
  37 H :    0.106498
  38 H :    0.124146
  39 H :    0.128874
  40 H :    0.130551

  Mayer bond orders larger than 0.100000
B(  0-C ,  1-C ) :   1.1686 B(  0-C , 19-H ) :   0.9365 B(  0-C , 20-H ) :   0.9415
B(  0-C , 21-H ) :   0.9373 B(  1-C ,  2-O ) :   0.8993 B(  1-C , 22-H ) :   0.9300
B(  1-C , 23-H ) :   0.9293 B(  2-O ,  3-P ) :   1.1598 B(  3-P ,  4-S ) :   1.6467
B(  3-P ,  5-O ) :   1.0806 B(  3-P ,  8-S ) :   0.9197 B(  4-S ,  8-S ) :   0.1084
B(  5-O ,  6-C ) :   0.9133 B(  6-C ,  7-C ) :   1.1670 B(  6-C , 24-H ) :   0.9259
B(  6-C , 25-H ) :   0.9337 B(  7-C , 26-H ) :   0.9434 B(  7-C , 27-H ) :   0.9305
B(  7-C , 28-H ) :   0.9346 B(  8-S ,  9-C ) :   1.0137 B(  9-C , 10-S ) :   1.0002
B(  9-C , 29-H ) :   0.8452 B(  9-C , 30-H ) :   0.9077 B( 10-S , 11-P ) :   0.9227
B( 10-S , 12-S ) :   0.1088 B( 11-P , 12-S ) :   1.7062 B( 11-P , 13-O ) :   1.1204
B( 11-P , 16-O ) :   1.0383 B( 13-O , 14-C ) :   0.8939 B( 14-C , 15-C ) :   1.1716
B( 14-C , 31-H ) :   0.9333 B( 14-C , 32-H ) :   0.9244 B( 15-C , 33-H ) :   0.9413
B( 15-C , 34-H ) :   0.9369 B( 15-C , 35-H ) :   0.9356 B( 16-O , 17-C ) :   0.9123
B( 17-C , 18-C ) :   1.1601 B( 17-C , 36-H ) :   0.9015 B( 17-C , 37-H ) :   0.9273
B( 18-C , 38-H ) :   0.9518 B( 18-C , 39-H ) :   0.9512 B( 18-C , 40-H ) :   0.9421

Dispersion correction           -0.067848464
FINAL SINGLE POINT ENERGY     -2929.498769672262

DIPOLE MOMENT
-------------

Method             : SCF
Type of density    : Electron Density
Multiplicity       :   1
Irrep              :   0
Energy             : -2929.6168620721350635 Eh
Relativity type    :
Basis              : AO
                                X                 Y                 Z
Electronic contribution:      5.898571434       7.790727943      -1.741564167
Nuclear contribution   :     -6.022428620      -9.304842129       2.306777198
                        -----------------------------------------
Total Dipole Moment    :     -0.123857186      -1.514114186       0.565213031
                        -----------------------------------------
Magnitude (a.u.)       :      1.620909665
Magnitude (Debye)      :      4.120024945

Rotational constants in cm-1:             0.013233             0.005321             0.004860
Rotational constants in MHz :           396.713544           159.512029           145.712694

                             ****ORCA TERMINATED NORMALLY****
TOTAL RUN TIME: 0 days 0 hours 0 minutes 21 seconds 574 msec
