                         Program Version 6.0.0  -   RELEASE  -
|  1> ! r2scan-3c def2/J RI DEFGRID2 scfconv6 printgap
|  2> %output
|  3>     printlevel normal
|  4> end
|  5> * xyz 0 1
|  6> C 4.0963839575 -1.6602199875 -2.2899270399
|  7> C 4.3480353772 -1.6727808571 -0.7960871006
|  8> O 3.1253792309 -1.5930456983 -0.0428071931
|  9> P 2.2237453809 -0.282805844 -0.0129929574
| 10> S 3.236040624 1.3985453173 0.0550665545
| 11> O 1.2846147054 -0.5918913593 1.2240396053
| 12> C 1.6430787788 -0.2402908705 2.5814045162
| 13> C 0.3865047788 0.1874657421 3.3111559279
| 14> S 0.8388170031 -0.5381386277 -1.5831762246
| 15> C 0.2811660093 1.1882447076 -1.6443048531
| 16> S -0.557163131 1.7191610678 -0.1373294117
| 17> P -2.2919518749 0.4762648818 -0.3395757217
| 18> S -2.7996799097 -0.0032847814 -2.1631795294
| 19> O -3.4069002311 1.3170531132 0.3837781983
| 20> C -3.2676167183 2.0121858136 1.6469317432
| 21> C -3.4942698974 1.0854877744 2.8227638218
| 22> O -2.0546928993 -0.7553084119 0.6438583336
| 23> C -1.6567455685 -2.0730146131 0.2323114058
| 24> C -2.6342659664 -3.0791156613 0.8075076117
| 25> H 3.7013551692 -0.6912877648 -2.5930799558
| 26> H 5.0298862111 -1.8384560437 -2.8139361267
| 27> H 3.3772628595 -2.4298465318 -2.559165685
| 28> H 4.986891811 -0.8325058445 -0.5059247271
| 29> H 4.7964874703 -2.6119457634 -0.4697195659
| 30> H 2.0941844342 -1.1243339922 3.0373054232
| 31> H 2.3802424053 0.5692823349 2.5517293675
| 32> H -0.3480396885 -0.6126354762 3.2836966259
| 33> H 0.6329433679 0.4152861305 4.3429638719
| 34> H -0.0342466352 1.0718383055 2.8389011398
| 35> H -0.4014511256 1.2586220613 -2.4907734853
| 36> H 1.1412830858 1.8461034848 -1.7647539332
| 37> H -2.2759756515 2.4717964071 1.6845772101
| 38> H -4.0300440542 2.7916084692 1.598304192
| 39> H -2.7341976949 0.3099388061 2.8436621506
| 40> H -3.4436275675 1.6609992437 3.7417344077
| 41> H -4.4720449213 0.6181434954 2.7447520494
| 42> H -1.6461500209 -2.1210448296 -0.8618743201
| 43> H -0.643317792 -2.2334551603 0.6092644905
| 44> H -3.6291348882 -2.8980548457 0.4082508375
| 45> H -2.3165066787 -4.0795581974 0.5323495833
| 46> H -2.6677882964 -2.9964466579 1.8900059504
| 47> *
| 48>
| 49>                          ****END OF INPUT****

CARTESIAN COORDINATES (ANGSTROEM)
---------------------------------
  C      4.096384   -1.660220   -2.289927
  C      4.348035   -1.672781   -0.796087
  O      3.125379   -1.593046   -0.042807
  P      2.223745   -0.282806   -0.012993
  S      3.236041    1.398545    0.055067
  O      1.284615   -0.591891    1.224040
  C      1.643079   -0.240291    2.581405
  C      0.386505    0.187466    3.311156
  S      0.838817   -0.538139   -1.583176
  C      0.281166    1.188245   -1.644305
  S     -0.557163    1.719161   -0.137329
  P     -2.291952    0.476265   -0.339576
  S     -2.799680   -0.003285   -2.163180
  O     -3.406900    1.317053    0.383778
  C     -3.267617    2.012186    1.646932
  C     -3.494270    1.085488    2.822764
  O     -2.054693   -0.755308    0.643858
  C     -1.656746   -2.073015    0.232311
  C     -2.634266   -3.079116    0.807508
  H      3.701355   -0.691288   -2.593080
  H      5.029886   -1.838456   -2.813936
  H      3.377263   -2.429847   -2.559166
  H      4.986892   -0.832506   -0.505925
  H      4.796487   -2.611946   -0.469720
  H      2.094184   -1.124334    3.037305
  H      2.380242    0.569282    2.551729
  H     -0.348040   -0.612635    3.283697
  H      0.632943    0.415286    4.342964
  H     -0.034247    1.071838    2.838901
  H     -0.401451    1.258622   -2.490773
  H      1.141283    1.846103   -1.764754
  H     -2.275976    2.471796    1.684577
  H     -4.030044    2.791608    1.598304
  H     -2.734198    0.309939    2.843662
  H     -3.443628    1.660999    3.741734
  H     -4.472045    0.618143    2.744752
  H     -1.646150   -2.121045   -0.861874
  H     -0.643318   -2.233455    0.609264
  H     -3.629135   -2.898055    0.408251
  H     -2.316507   -4.079558    0.532350
  H     -2.667788   -2.996447    1.890006

 Total Charge           Charge          ....    0
 Multiplicity           Mult            ....    1
 Number of Electrons    NEL             ....  202
 Basis Dimension        Dim             ....  539

ORBITAL ENERGIES
----------------

  NO   OCC          E(Eh)            E(eV)
   0   2.0000     -88.578401     -2410.3408
   1   2.0000     -88.572386     -2410.1771
   2   2.0000     -88.524378     -2408.8708
   3   2.0000     -88.519163     -2408.7289
   4   2.0000     -76.916504     -2093.0045
   5   2.0000     -76.914393     -2092.9470
   6   2.0000     -18.995618      -516.8971
   7   2.0000     -18.993403      -516.8368
   8   2.0000     -18.991716      -516.7909
   9   2.0000     -18.988104      -516.6926
  10   2.0000     -10.108981      -275.0793
  11   2.0000     -10.106070      -275.0001
  12   2.0000     -10.100658      -274.8529
  13   2.0000     -10.100602      -274.8513
  14   2.0000     -10.090203      -274.5684
  15   2.0000     -10.035429      -273.0779
  16   2.0000     -10.034478      -273.0520
  17   2.0000     -10.030729      -272.9500
  18   2.0000     -10.027399      -272.8594
  19   2.0000      -7.872798      -214.2297
  20   2.0000      -7.866791      -214.0663
  21   2.0000      -7.819132      -212.7694
  22   2.0000      -7.814053      -212.6312
  23   2.0000      -6.595158      -179.4634
  24   2.0000      -6.592508      -179.3913
  25   2.0000      -5.819691      -158.3619
  26   2.0000      -5.816678      -158.2798
  27   2.0000      -5.813697      -158.1987
  28   2.0000      -5.810659      -158.1161
  29   2.0000      -5.809866      -158.0945
  30   2.0000      -5.803835      -157.9304
  31   2.0000      -5.766686      -156.9195
  32   2.0000      -5.761821      -156.7871
  33   2.0000      -5.759456      -156.7228
  34   2.0000      -5.759182      -156.7153
  35   2.0000      -5.754357      -156.5840
  36   2.0000      -5.753880      -156.5710
  37   2.0000      -4.740612      -128.9986
  38   2.0000      -4.740034      -128.9829
  39   2.0000      -4.738944      -128.9532
  40   2.0000      -4.738289      -128.9354
  41   2.0000      -4.737317      -128.9090
  42   2.0000      -4.736141      -128.8770
  43   2.0000      -1.052247       -28.6331
  44   2.0000      -1.049108       -28.5477
  45   2.0000      -1.012709       -27.5572
  46   2.0000      -1.009409       -27.4674
  47   2.0000      -0.803467       -21.8634
  48   2.0000      -0.762179       -20.7399
  49   2.0000      -0.754211       -20.5231
  50   2.0000      -0.734990       -20.0001
  51   2.0000      -0.733641       -19.9634
  52   2.0000      -0.710633       -19.3373
  53   2.0000      -0.685905       -18.6644
  54   2.0000      -0.671616       -18.2756
  55   2.0000      -0.633124       -17.2282
  56   2.0000      -0.624683       -16.9985
  57   2.0000      -0.608925       -16.5697
  58   2.0000      -0.604987       -16.4625
  59   2.0000      -0.591989       -16.1088
  60   2.0000      -0.533306       -14.5120
  61   2.0000      -0.524266       -14.2660
  62   2.0000      -0.501930       -13.6582
  63   2.0000      -0.495586       -13.4856
  64   2.0000      -0.475561       -12.9407
  65   2.0000      -0.465604       -12.6697
  66   2.0000      -0.463260       -12.6060
  67   2.0000      -0.452940       -12.3251
  68   2.0000      -0.446898       -12.1607
  69   2.0000      -0.435928       -11.8622
  70   2.0000      -0.424411       -11.5488
  71   2.0000      -0.413507       -11.2521
  72   2.0000      -0.410409       -11.1678
  73   2.0000      -0.404644       -11.0109
  74   2.0000      -0.400708       -10.9038
  75   2.0000      -0.389224       -10.5913
  76   2.0000      -0.384149       -10.4532
  77   2.0000      -0.376267       -10.2387
  78   2.0000      -0.371341       -10.1047
  79   2.0000      -0.370329       -10.0772
  80   2.0000      -0.365995        -9.9592
  81   2.0000      -0.362278        -9.8581
  82   2.0000      -0.361382        -9.8337
  83   2.0000      -0.356773        -9.7083
  84   2.0000      -0.353389        -9.6162
  85   2.0000      -0.332073        -9.0362
  86   2.0000      -0.326779        -8.8921
  87   2.0000      -0.314892        -8.5686
  88   2.0000      -0.311246        -8.4694
  89   2.0000      -0.304651        -8.2900
  90   2.0000      -0.303038        -8.2461
  91   2.0000      -0.294604        -8.0166
  92   2.0000      -0.291101        -7.9213
  93   2.0000      -0.281930        -7.6717
  94   2.0000      -0.270070        -7.3490
  95   2.0000      -0.247610        -6.7378
  96   2.0000      -0.229537        -6.2460
  97   2.0000      -0.226841        -6.1727
  98   2.0000      -0.222207        -6.0466
  99   2.0000      -0.215017        -5.8509
 100   2.0000      -0.212563        -5.7841
 101   0.0000      -0.049506        -1.3471
 102   0.0000      -0.028463        -0.7745
 103   0.0000      -0.005237        -0.1425
 104   0.0000       0.002430         0.0661
 105   0.0000       0.006009         0.1635

MULLIKEN ATOMIC CHARGES
-----------------------
   0 C :   -0.448712
   1 C :   -0.152201
   2 O :   -0.305881
   3 P :    0.697011
   4 S :   -0.486209
   5 O :   -0.262614
   6 C :   -0.135809
   7 C :   -0.464470
   8 S :   -0.123782
   9 C :   -0.239160
  10 S :   -0.175833
  11 P :    0.664844
  12 S :   -0.453857
  13 O :   -0.285292
  14 C :   -0.147417
  15 C :   -0.428913
  16 O :   -0.238953
  17 C :   -0.118029
  18 C :   -0.484369
  19 H :    0.175485
  20 H :    0.148734
  21 H :    0.155868
  22 H :    0.173095
  23 H :    0.147755
  24 H :    0.149754
  25 H :    0.169302
  26 H :    0.154961
  27 H :    0.146315
  28 H :    0.163735
  29 H :    0.213661
  30 H :    0.214564
  31 H :    0.150161
  32 H :    0.157883
  33 H :    0.162250
  34 H :    0.149419
  35 H :    0.156870
  36 H :    0.174218
  37 H :    0.168331
  38 H :    0.163222
  39 H :    0.146619
  40 H :    0.147447
Sum of atomic charges:    0.0000000

LOEWDIN ATOMIC CHARGES
----------------------
   0 C :   -0.406110
   1 C :    0.019594
   2 O :   -0.660113
   3 P :    0.375841
   4 S :   -0.133059
   5 O :   -0.682148
   6 C :    0.024894
   7 C :   -0.393561
   8 S :    0.174519
   9 C :   -0.422266
  10 S :    0.132125
  11 P :    0.393562
  12 S :   -0.100838
  13 O :   -0.650248
  14 C :    0.027725
  15 C :   -0.396350
  16 O :   -0.672828
  17 C :    0.004135
  18 C :   -0.390450
  19 H :    0.165230
  20 H :    0.159759
  21 H :    0.160365
  22 H :    0.179997
  23 H :    0.179416
  24 H :    0.172158
  25 H :    0.182993
  26 H :    0.159830
  27 H :    0.158654
  28 H :    0.162828
  29 H :    0.192529
  30 H :    0.190995
  31 H :    0.174510
  32 H :    0.183764
  33 H :    0.167541
  34 H :    0.159607
  35 H :    0.162976
  36 H :    0.183468
  37 H :    0.181319
  38 H :    0.162376
  39 H :    0.159289
  40 H :    0.155974

  Mayer bond orders larger than 0.100000
B(  0-C ,  1-C ) :   0.9234 B(  0-C , 19-H ) :   0.9622 B(  0-C , 20-H ) :   0.9589
B(  0-C , 21-H ) :   0.9683 B(  1-C ,  2-O ) :   0.8160 B(  1-C , 22-H ) :   0.9673
B(  1-C , 23-H ) :   0.9583 B(  2-O ,  3-P ) :   1.0607 B(  3-P ,  4-S ) :   1.7405
B(  3-P ,  5-O ) :   1.1552 B(  3-P ,  8-S ) :   1.0969 B(  5-O ,  6-C ) :   0.7724
B(  6-C ,  7-C ) :   0.9592 B(  6-C , 24-H ) :   0.9491 B(  6-C , 25-H ) :   0.9547
B(  7-C , 26-H ) :   0.9676 B(  7-C , 27-H ) :   0.9630 B(  7-C , 28-H ) :   0.9681
B(  8-S ,  9-C ) :   0.8885 B(  9-C , 10-S ) :   0.9137 B(  9-C , 29-H ) :   0.9069
B(  9-C , 30-H ) :   0.9117 B( 10-S , 11-P ) :   0.9810 B( 11-P , 12-S ) :   1.8346
B( 11-P , 13-O ) :   1.1912 B( 11-P , 16-O ) :   1.0410 B( 13-O , 14-C ) :   0.7702
B( 14-C , 15-C ) :   0.9426 B( 14-C , 31-H ) :   0.9641 B( 14-C , 32-H ) :   0.9642
B( 15-C , 33-H ) :   0.9567 B( 15-C , 34-H ) :   0.9665 B( 15-C , 35-H ) :   0.9678
B( 16-O , 17-C ) :   0.7246 B( 17-C , 18-C ) :   0.9407 B( 17-C , 36-H ) :   0.9458
B( 17-C , 37-H ) :   0.9500 B( 18-C , 38-H ) :   0.9739 B( 18-C , 39-H ) :   0.9673
B( 18-C , 40-H ) :   0.9781

Dispersion correction           -0.022134652
FINAL SINGLE POINT ENERGY     -2932.461392950095

DIPOLE MOMENT
-------------

Method             : SCF
Type of density    : Electron Density
Multiplicity       :   1
Irrep              :   0
Energy             : -2932.4859053931181734 Eh
Relativity type    :
Basis              : AO
                                X                 Y                 Z
Electronic contribution:      0.954441966      10.257871792     -15.924152428
Nuclear contribution   :     -0.446367126     -11.019124177      17.390941157
                        -----------------------------------------
Total Dipole Moment    :      0.508074840      -0.761252385       1.466788729
                        -----------------------------------------
Magnitude (a.u.)       :      1.728905553
Magnitude (Debye)      :      4.394528677

Rotational constants in cm-1:             0.011790             0.005444             0.005051
Rotational constants in MHz :           353.459560           163.200903           151.436899

                             ****ORCA TERMINATED NORMALLY****
TOTAL RUN TIME: 0 days 0 hours 1 minutes 22 seconds 346 msec
