                         Program Version 6.0.0  -   RELEASE  -
|  1> ! r2scan-3c def2/J RI DEFGRID2 scfconv6 printgap
|  2> %output
|  3>     printlevel normal
|  4> end
|  5> %cpcm
|  6>     smd true
|  7>     smdsolvent "water"
|  8> end
|  9> * xyz 0 1
| 10> C 4.0963839575 -1.6602199875 -2.2899270399
| 11> C 4.3480353772 -1.6727808571 -0.7960871006
| 12> O 3.1253792309 -1.5930456983 -0.0428071931
| 13> P 2.2237453809 -0.282805844 -0.0129929574
| 14> S 3.236040624 1.3985453173 0.0550665545
| 15> O 1.2846147054 -0.5918913593 1.2240396053
| 16> C 1.6430787788 -0.2402908705 2.5814045162
| 17> C 0.3865047788 0.1874657421 3.3111559279
| 18> S 0.8388170031 -0.5381386277 -1.5831762246
| 19> C 0.2811660093 1.1882447076 -1.6443048531
| 20> S -0.557163131 1.7191610678 -0.1373294117
| 21> P -2.2919518749 0.4762648818 -0.3395757217
| 22> S -2.7996799097 -0.0032847814 -2.1631795294
| 23> O -3.4069002311 1.3170531132 0.3837781983
| 24> C -3.2676167183 2.0121858136 1.6469317432
| 25> C -3.4942698974 1.0854877744 2.8227638218
| 26> O -2.0546928993 -0.7553084119 0.6438583336
| 27> C -1.6567455685 -2.0730146131 0.2323114058
| 28> C -2.6342659664 -3.0791156613 0.8075076117
| 29> H 3.7013551692 -0.6912877648 -2.5930799558
| 30> H 5.0298862111 -1.8384560437 -2.8139361267
| 31> H 3.3772628595 -2.4298465318 -2.559165685
| 32> H 4.986891811 -0.8325058445 -0.5059247271
| 33> H 4.7964874703 -2.6119457634 -0.4697195659
| 34> H 2.0941844342 -1.1243339922 3.0373054232
| 35> H 2.3802424053 0.5692823349 2.5517293675
| 36> H -0.3480396885 -0.6126354762 3.2836966259
| 37> H 0.6329433679 0.4152861305 4.3429638719
| 38> H -0.0342466352 1.0718383055 2.8389011398
| 39> H -0.4014511256 1.2586220613 -2.4907734853
| 40> H 1.1412830858 1.8461034848 -1.7647539332
| 41> H -2.2759756515 2.4717964071 1.6845772101
| 42> H -4.0300440542 2.7916084692 1.598304192
| 43> H -2.7341976949 0.3099388061 2.8436621506
| 44> H -3.4436275675 1.6609992437 3.7417344077
| 45> H -4.4720449213 0.6181434954 2.7447520494
| 46> H -1.6461500209 -2.1210448296 -0.8618743201
| 47> H -0.643317792 -2.2334551603 0.6092644905
| 48> H -3.6291348882 -2.8980548457 0.4082508375
| 49> H -2.3165066787 -4.0795581974 0.5323495833
| 50> H -2.6677882964 -2.9964466579 1.8900059504
| 51> *
| 52>
| 53>                          ****END OF INPUT****

CARTESIAN COORDINATES (ANGSTROEM)
---------------------------------
  C      4.096384   -1.660220   -2.289927
  C      4.348035   -1.672781   -0.796087
  O      3.125379   -1.593046   -0.042807
  P      2.223745   -0.282806   -0.012993
  S      3.236041    1.398545    0.055067
  O      1.284615   -0.591891    1.224040
  C      1.643079   -0.240291    2.581405
  C      0.386505    0.187466    3.311156
  S      0.838817   -0.538139   -1.583176
  C      0.281166    1.188245   -1.644305
  S     -0.557163    1.719161   -0.137329
  P     -2.291952    0.476265   -0.339576
  S     -2.799680   -0.003285   -2.163180
  O     -3.406900    1.317053    0.383778
  C     -3.267617    2.012186    1.646932
  C     -3.494270    1.085488    2.822764
  O     -2.054693   -0.755308    0.643858
  C     -1.656746   -2.073015    0.232311
  C     -2.634266   -3.079116    0.807508
  H      3.701355   -0.691288   -2.593080
  H      5.029886   -1.838456   -2.813936
  H      3.377263   -2.429847   -2.559166
  H      4.986892   -0.832506   -0.505925
  H      4.796487   -2.611946   -0.469720
  H      2.094184   -1.124334    3.037305
  H      2.380242    0.569282    2.551729
  H     -0.348040   -0.612635    3.283697
  H      0.632943    0.415286    4.342964
  H     -0.034247    1.071838    2.838901
  H     -0.401451    1.258622   -2.490773
  H      1.141283    1.846103   -1.764754
  H     -2.275976    2.471796    1.684577
  H     -4.030044    2.791608    1.598304
  H     -2.734198    0.309939    2.843662
  H     -3.443628    1.660999    3.741734
  H     -4.472045    0.618143    2.744752
  H     -1.646150   -2.121045   -0.861874
  H     -0.643318   -2.233455    0.609264
  H     -3.629135   -2.898055    0.408251
  H     -2.316507   -4.079558    0.532350
  H     -2.667788   -2.996447    1.890006

 Total Charge           Charge          ....    0
 Multiplicity           Mult            ....    1
 Number of Electrons    NEL             ....  202
 Basis Dimension        Dim             ....  539

ORBITAL ENERGIES
----------------

  NO   OCC          E(Eh)            E(eV)
   0   2.0000     -88.580130     -2410.3879
   1   2.0000     -88.576695     -2410.2944
   2   2.0000     -88.530711     -2409.0431
   3   2.0000     -88.528999     -2408.9965
   4   2.0000     -76.921811     -2093.1489
   5   2.0000     -76.918804     -2093.0671
   6   2.0000     -18.997157      -516.9389
   7   2.0000     -18.995458      -516.8927
   8   2.0000     -18.992441      -516.8106
   9   2.0000     -18.990694      -516.7631
  10   2.0000     -10.105213      -274.9768
  11   2.0000     -10.096379      -274.7364
  12   2.0000     -10.089323      -274.5444
  13   2.0000     -10.088385      -274.5189
  14   2.0000     -10.086230      -274.4603
  15   2.0000     -10.019153      -272.6350
  16   2.0000     -10.018692      -272.6225
  17   2.0000     -10.018101      -272.6064
  18   2.0000     -10.017322      -272.5852
  19   2.0000      -7.874579      -214.2782
  20   2.0000      -7.871053      -214.1822
  21   2.0000      -7.825955      -212.9551
  22   2.0000      -7.824038      -212.9029
  23   2.0000      -6.599982      -179.5947
  24   2.0000      -6.597472      -179.5263
  25   2.0000      -5.821463      -158.4101
  26   2.0000      -5.818463      -158.3284
  27   2.0000      -5.817949      -158.3144
  28   2.0000      -5.814898      -158.2314
  29   2.0000      -5.811648      -158.1430
  30   2.0000      -5.808142      -158.0476
  31   2.0000      -5.773606      -157.1078
  32   2.0000      -5.771531      -157.0514
  33   2.0000      -5.766248      -156.9076
  34   2.0000      -5.765840      -156.8965
  35   2.0000      -5.764345      -156.8558
  36   2.0000      -5.764113      -156.8495
  37   2.0000      -4.745727      -129.1378
  38   2.0000      -4.744762      -129.1115
  39   2.0000      -4.743720      -129.0832
  40   2.0000      -4.742870      -129.0601
  41   2.0000      -4.742347      -129.0458
  42   2.0000      -4.741348      -129.0186
  43   2.0000      -1.052921       -28.6515
  44   2.0000      -1.051292       -28.6071
  45   2.0000      -1.012821       -27.5602
  46   2.0000      -1.010946       -27.5092
  47   2.0000      -0.804953       -21.9039
  48   2.0000      -0.757956       -20.6250
  49   2.0000      -0.746319       -20.3084
  50   2.0000      -0.726741       -19.7756
  51   2.0000      -0.722532       -19.6611
  52   2.0000      -0.708702       -19.2848
  53   2.0000      -0.688864       -18.7449
  54   2.0000      -0.676665       -18.4130
  55   2.0000      -0.629847       -17.1390
  56   2.0000      -0.620268       -16.8783
  57   2.0000      -0.600710       -16.3462
  58   2.0000      -0.597656       -16.2630
  59   2.0000      -0.588288       -16.0081
  60   2.0000      -0.528564       -14.3830
  61   2.0000      -0.520278       -14.1575
  62   2.0000      -0.498893       -13.5756
  63   2.0000      -0.489655       -13.3242
  64   2.0000      -0.475308       -12.9338
  65   2.0000      -0.460602       -12.5336
  66   2.0000      -0.456296       -12.4164
  67   2.0000      -0.447185       -12.1685
  68   2.0000      -0.440083       -11.9753
  69   2.0000      -0.431986       -11.7549
  70   2.0000      -0.421621       -11.4729
  71   2.0000      -0.409430       -11.1412
  72   2.0000      -0.405873       -11.0444
  73   2.0000      -0.399947       -10.8831
  74   2.0000      -0.395988       -10.7754
  75   2.0000      -0.386054       -10.5051
  76   2.0000      -0.381971       -10.3940
  77   2.0000      -0.366834        -9.9821
  78   2.0000      -0.362609        -9.8671
  79   2.0000      -0.361090        -9.8257
  80   2.0000      -0.356792        -9.7088
  81   2.0000      -0.355409        -9.6712
  82   2.0000      -0.351933        -9.5766
  83   2.0000      -0.347470        -9.4551
  84   2.0000      -0.345489        -9.4012
  85   2.0000      -0.329402        -8.9635
  86   2.0000      -0.320835        -8.7304
  87   2.0000      -0.309231        -8.4146
  88   2.0000      -0.305262        -8.3066
  89   2.0000      -0.302566        -8.2332
  90   2.0000      -0.300381        -8.1738
  91   2.0000      -0.291080        -7.9207
  92   2.0000      -0.289686        -7.8828
  93   2.0000      -0.280114        -7.6223
  94   2.0000      -0.271834        -7.3970
  95   2.0000      -0.249676        -6.7940
  96   2.0000      -0.238566        -6.4917
  97   2.0000      -0.234453        -6.3798
  98   2.0000      -0.228454        -6.2166
  99   2.0000      -0.223995        -6.0952
 100   2.0000      -0.219795        -5.9809
 101   0.0000      -0.053660        -1.4602
 102   0.0000      -0.033927        -0.9232
 103   0.0000      -0.007064        -0.1922
 104   0.0000      -0.002044        -0.0556
 105   0.0000       0.006716         0.1828

MULLIKEN ATOMIC CHARGES
-----------------------
   0 C :   -0.485870
   1 C :   -0.151097
   2 O :   -0.331776
   3 P :    0.733095
   4 S :   -0.533070
   5 O :   -0.285843
   6 C :   -0.127632
   7 C :   -0.511264
   8 S :   -0.132196
   9 C :   -0.248580
  10 S :   -0.184901
  11 P :    0.674981
  12 S :   -0.506117
  13 O :   -0.323101
  14 C :   -0.125135
  15 C :   -0.475779
  16 O :   -0.263439
  17 C :   -0.093485
  18 C :   -0.526161
  19 H :    0.171681
  20 H :    0.172845
  21 H :    0.169768
  22 H :    0.177861
  23 H :    0.174504
  24 H :    0.172721
  25 H :    0.169279
  26 H :    0.171842
  27 H :    0.169496
  28 H :    0.172531
  29 H :    0.231061
  30 H :    0.236400
  31 H :    0.162526
  32 H :    0.180835
  33 H :    0.168658
  34 H :    0.174417
  35 H :    0.168375
  36 H :    0.172379
  37 H :    0.177359
  38 H :    0.166700
  39 H :    0.169070
  40 H :    0.167062
Sum of atomic charges:    0.0000000

LOEWDIN ATOMIC CHARGES
----------------------
   0 C :   -0.409581
   1 C :    0.024815
   2 O :   -0.670550
   3 P :    0.381672
   4 S :   -0.162682
   5 O :   -0.691970
   6 C :    0.029451
   7 C :   -0.396586
   8 S :    0.170686
   9 C :   -0.417831
  10 S :    0.131660
  11 P :    0.392807
  12 S :   -0.141711
  13 O :   -0.672030
  14 C :    0.035998
  15 C :   -0.397945
  16 O :   -0.679609
  17 C :    0.008955
  18 C :   -0.393803
  19 H :    0.161320
  20 H :    0.168466
  21 H :    0.163677
  22 H :    0.181442
  23 H :    0.190704
  24 H :    0.181873
  25 H :    0.182930
  26 H :    0.163821
  27 H :    0.167731
  28 H :    0.163387
  29 H :    0.197295
  30 H :    0.197764
  31 H :    0.181111
  32 H :    0.193616
  33 H :    0.167637
  34 H :    0.170051
  35 H :    0.164867
  36 H :    0.182587
  37 H :    0.185527
  38 H :    0.162161
  39 H :    0.167794
  40 H :    0.162488

  Mayer bond orders larger than 0.100000
B(  0-C ,  1-C ) :   0.9108 B(  0-C , 19-H ) :   0.9632 B(  0-C , 20-H ) :   0.9536
B(  0-C , 21-H ) :   0.9657 B(  1-C ,  2-O ) :   0.8047 B(  1-C , 22-H ) :   0.9657
B(  1-C , 23-H ) :   0.9488 B(  2-O ,  3-P ) :   1.0690 B(  3-P ,  4-S ) :   1.6998
B(  3-P ,  5-O ) :   1.1678 B(  3-P ,  8-S ) :   1.1029 B(  5-O ,  6-C ) :   0.7628
B(  6-C ,  7-C ) :   0.9474 B(  6-C , 24-H ) :   0.9389 B(  6-C , 25-H ) :   0.9529
B(  7-C , 26-H ) :   0.9651 B(  7-C , 27-H ) :   0.9571 B(  7-C , 28-H ) :   0.9655
B(  8-S ,  9-C ) :   0.8808 B(  9-C , 10-S ) :   0.8976 B(  9-C , 29-H ) :   0.9028
B(  9-C , 30-H ) :   0.9053 B( 10-S , 11-P ) :   0.9991 B( 11-P , 12-S ) :   1.8160
B( 11-P , 13-O ) :   1.1964 B( 11-P , 16-O ) :   1.0432 B( 13-O , 14-C ) :   0.7624
B( 14-C , 15-C ) :   0.9296 B( 14-C , 31-H ) :   0.9524 B( 14-C , 32-H ) :   0.9539
B( 15-C , 33-H ) :   0.9567 B( 15-C , 34-H ) :   0.9593 B( 15-C , 35-H ) :   0.9678
B( 16-O , 17-C ) :   0.7162 B( 17-C , 18-C ) :   0.9387 B( 17-C , 36-H ) :   0.9451
B( 17-C , 37-H ) :   0.9411 B( 18-C , 38-H ) :   0.9723 B( 18-C , 39-H ) :   0.9612
B( 18-C , 40-H ) :   0.9734

Dispersion correction           -0.022134652
FINAL SINGLE POINT ENERGY     -2932.470643633528

DIPOLE MOMENT
-------------

Method             : SCF
Type of density    : Electron Density
Multiplicity       :   1
Irrep              :   0
Energy             : -2932.4951560765512113 Eh
Relativity type    :
Basis              : AO
                                X                 Y                 Z
Electronic contribution:      1.286627346      10.039491545     -15.386279647
Nuclear contribution   :     -0.446367126     -11.019124177      17.390941157
                        -----------------------------------------
Total Dipole Moment    :      0.840260220      -0.979632632       2.004661509
                        -----------------------------------------
Magnitude (a.u.)       :      2.384194853
Magnitude (Debye)      :      6.060141710

Rotational constants in cm-1:             0.011790             0.005444             0.005051
Rotational constants in MHz :           353.459560           163.200903           151.436899

                             ****ORCA TERMINATED NORMALLY****
TOTAL RUN TIME: 0 days 0 hours 1 minutes 53 seconds 715 msec
