                         Program Version 6.0.0  -   RELEASE  -
|  1> ! r2scan-3c def2/J RI DEFGRID2 scfconv6 printgap
|  2> %output
|  3>     printlevel normal
|  4> end
|  5> * xyz 0 1
|  6> C 1.5558782242 2.5239911112 1.2256794218
|  7> C 2.8318637721 1.8005931769 1.6059013821
|  8> O 3.2347380163 0.8602694927 0.5961933638
|  9> P 2.48872258 -0.5272566308 0.3839317188
| 10> S 1.926773377 -1.4263920343 2.0379210147
| 11> O 3.5197290813 -1.3362893442 -0.5057692267
| 12> C 4.5615262936 -2.1534063996 0.0679477907
| 13> C 5.6273961098 -1.3185598436 0.7462301999
| 14> S 1.0513680282 -0.139524452 -1.1180844782
| 15> C -0.1180470461 -1.4631658 -0.687979102
| 16> S -1.2587265109 -1.0017600842 0.6450612387
| 17> P -2.3810958495 0.3782562889 -0.493127706
| 18> S -2.7236531227 -0.0856527294 -2.3712052306
| 19> O -1.5279528993 1.6884022994 -0.2406893626
| 20> C -1.5810247026 2.8221505474 -1.1309938335
| 21> C -2.932813312 3.5033158889 -1.0954407681
| 22> O -3.6752740557 0.6627894644 0.3826940696
| 23> C -4.8837395602 -0.1053666661 0.2499069814
| 24> C -4.7109613153 -1.5301975268 0.7353495204
| 25> H 0.7161579606 1.8293956146 1.2094182482
| 26> H 1.3515057263 3.3020877349 1.954281667
| 27> H 1.6607627125 2.9681216115 0.2386506826
| 28> H 2.7048287462 1.2629633105 2.5516470852
| 29> H 3.6753090561 2.4886653732 1.6789236847
| 30> H 4.1038485878 -2.8474351249 0.7802805247
| 31> H 4.9594979355 -2.7034184007 -0.7857971442
| 32> H 6.0003441817 -0.5600074045 0.0631431827
| 33> H 5.2111418862 -0.8280986095 1.6248553157
| 34> H 6.4452424075 -1.9619711237 1.0553256386
| 35> H 0.4247785362 -2.3410357747 -0.345907389
| 36> H -0.6913673392 -1.6750669157 -1.5904813122
| 37> H -0.7880066529 3.4765361748 -0.7675705824
| 38> H -1.3439264966 2.4771489902 -2.1424370539
| 39> H -3.1971407971 3.7588334488 -0.0727142986
| 40> H -2.8979091062 4.4052262878 -1.6984235905
| 41> H -3.6936398332 2.8367221922 -1.4999995969
| 42> H -5.6089953832 0.4411819658 0.8542016723
| 43> H -5.1876858112 -0.0925735631 -0.8018396796
| 44> H -4.2994922039 -1.5392390464 1.7416885186
| 45> H -5.6739698043 -2.0306687298 0.7338015642
| 46> H -4.0314498825 -2.0690091118 0.0761842799
| 47> *
| 48>
| 49>                          ****END OF INPUT****

CARTESIAN COORDINATES (ANGSTROEM)
---------------------------------
  C      1.555878    2.523991    1.225679
  C      2.831864    1.800593    1.605901
  O      3.234738    0.860269    0.596193
  P      2.488723   -0.527257    0.383932
  S      1.926773   -1.426392    2.037921
  O      3.519729   -1.336289   -0.505769
  C      4.561526   -2.153406    0.067948
  C      5.627396   -1.318560    0.746230
  S      1.051368   -0.139524   -1.118084
  C     -0.118047   -1.463166   -0.687979
  S     -1.258727   -1.001760    0.645061
  P     -2.381096    0.378256   -0.493128
  S     -2.723653   -0.085653   -2.371205
  O     -1.527953    1.688402   -0.240689
  C     -1.581025    2.822151   -1.130994
  C     -2.932813    3.503316   -1.095441
  O     -3.675274    0.662789    0.382694
  C     -4.883740   -0.105367    0.249907
  C     -4.710961   -1.530198    0.735350
  H      0.716158    1.829396    1.209418
  H      1.351506    3.302088    1.954282
  H      1.660763    2.968122    0.238651
  H      2.704829    1.262963    2.551647
  H      3.675309    2.488665    1.678924
  H      4.103849   -2.847435    0.780281
  H      4.959498   -2.703418   -0.785797
  H      6.000344   -0.560007    0.063143
  H      5.211142   -0.828099    1.624855
  H      6.445242   -1.961971    1.055326
  H      0.424779   -2.341036   -0.345907
  H     -0.691367   -1.675067   -1.590481
  H     -0.788007    3.476536   -0.767571
  H     -1.343926    2.477149   -2.142437
  H     -3.197141    3.758833   -0.072714
  H     -2.897909    4.405226   -1.698424
  H     -3.693640    2.836722   -1.500000
  H     -5.608995    0.441182    0.854202
  H     -5.187686   -0.092574   -0.801840
  H     -4.299492   -1.539239    1.741689
  H     -5.673970   -2.030669    0.733802
  H     -4.031450   -2.069009    0.076184

 Total Charge           Charge          ....    0
 Multiplicity           Mult            ....    1
 Number of Electrons    NEL             ....  202
 Basis Dimension        Dim             ....  539

ORBITAL ENERGIES
----------------

  NO   OCC          E(Eh)            E(eV)
   0   2.0000     -88.572190     -2410.1718
   1   2.0000     -88.572072     -2410.1686
   2   2.0000     -88.522452     -2408.8184
   3   2.0000     -88.521371     -2408.7890
   4   2.0000     -76.913255     -2092.9161
   5   2.0000     -76.912220     -2092.8879
   6   2.0000     -18.993322      -516.8346
   7   2.0000     -18.993251      -516.8326
   8   2.0000     -18.988323      -516.6986
   9   2.0000     -18.988042      -516.6909
  10   2.0000     -10.104144      -274.9477
  11   2.0000     -10.099132      -274.8113
  12   2.0000     -10.097893      -274.7776
  13   2.0000     -10.096705      -274.7453
  14   2.0000     -10.096384      -274.7366
  15   2.0000     -10.028568      -272.8912
  16   2.0000     -10.028432      -272.8875
  17   2.0000     -10.028153      -272.8799
  18   2.0000     -10.026309      -272.8297
  19   2.0000      -7.866467      -214.0574
  20   2.0000      -7.866148      -214.0488
  21   2.0000      -7.817133      -212.7150
  22   2.0000      -7.816167      -212.6887
  23   2.0000      -6.591850      -179.3733
  24   2.0000      -6.590995      -179.3501
  25   2.0000      -5.813379      -158.1901
  26   2.0000      -5.813054      -158.1813
  27   2.0000      -5.810540      -158.1128
  28   2.0000      -5.810065      -158.0999
  29   2.0000      -5.803324      -157.9165
  30   2.0000      -5.803208      -157.9133
  31   2.0000      -5.764734      -156.8664
  32   2.0000      -5.763683      -156.8378
  33   2.0000      -5.757487      -156.6692
  34   2.0000      -5.757124      -156.6593
  35   2.0000      -5.756441      -156.6407
  36   2.0000      -5.756307      -156.6371
  37   2.0000      -4.737146      -128.9043
  38   2.0000      -4.736797      -128.8948
  39   2.0000      -4.736393      -128.8838
  40   2.0000      -4.735821      -128.8682
  41   2.0000      -4.735736      -128.8659
  42   2.0000      -4.734874      -128.8425
  43   2.0000      -1.049887       -28.5689
  44   2.0000      -1.049371       -28.5548
  45   2.0000      -1.011163       -27.5152
  46   2.0000      -1.010969       -27.5099
  47   2.0000      -0.799275       -21.7494
  48   2.0000      -0.757641       -20.6165
  49   2.0000      -0.747001       -20.3269
  50   2.0000      -0.731372       -19.9016
  51   2.0000      -0.730721       -19.8839
  52   2.0000      -0.709958       -19.3189
  53   2.0000      -0.686293       -18.6750
  54   2.0000      -0.668930       -18.2025
  55   2.0000      -0.635466       -17.2919
  56   2.0000      -0.627161       -17.0659
  57   2.0000      -0.605682       -16.4815
  58   2.0000      -0.604630       -16.4528
  59   2.0000      -0.587854       -15.9963
  60   2.0000      -0.520444       -14.1620
  61   2.0000      -0.516014       -14.0414
  62   2.0000      -0.494455       -13.4548
  63   2.0000      -0.491430       -13.3725
  64   2.0000      -0.475435       -12.9373
  65   2.0000      -0.460921       -12.5423
  66   2.0000      -0.458323       -12.4716
  67   2.0000      -0.456458       -12.4209
  68   2.0000      -0.446146       -12.1403
  69   2.0000      -0.431155       -11.7323
  70   2.0000      -0.423742       -11.5306
  71   2.0000      -0.411991       -11.2108
  72   2.0000      -0.410038       -11.1577
  73   2.0000      -0.407025       -11.0757
  74   2.0000      -0.400579       -10.9003
  75   2.0000      -0.391918       -10.6646
  76   2.0000      -0.381746       -10.3878
  77   2.0000      -0.371955       -10.1214
  78   2.0000      -0.370700       -10.0872
  79   2.0000      -0.364986        -9.9318
  80   2.0000      -0.363097        -9.8804
  81   2.0000      -0.360788        -9.8175
  82   2.0000      -0.356714        -9.7067
  83   2.0000      -0.353323        -9.6144
  84   2.0000      -0.346476        -9.4281
  85   2.0000      -0.331765        -9.0278
  86   2.0000      -0.322992        -8.7891
  87   2.0000      -0.311018        -8.4632
  88   2.0000      -0.308513        -8.3951
  89   2.0000      -0.299655        -8.1540
  90   2.0000      -0.297967        -8.1081
  91   2.0000      -0.289416        -7.8754
  92   2.0000      -0.286929        -7.8077
  93   2.0000      -0.279318        -7.6006
  94   2.0000      -0.276921        -7.5354
  95   2.0000      -0.244289        -6.6474
  96   2.0000      -0.230023        -6.2593
  97   2.0000      -0.225673        -6.1409
  98   2.0000      -0.220061        -5.9882
  99   2.0000      -0.216899        -5.9021
 100   2.0000      -0.210551        -5.7294
 101   0.0000      -0.042917        -1.1678
 102   0.0000      -0.027983        -0.7614
 103   0.0000      -0.002282        -0.0621
 104   0.0000       0.006884         0.1873
 105   0.0000       0.015759         0.4288

MULLIKEN ATOMIC CHARGES
-----------------------
   0 C :   -0.458232
   1 C :   -0.153363
   2 O :   -0.288749
   3 P :    0.662861
   4 S :   -0.466456
   5 O :   -0.288599
   6 C :   -0.154510
   7 C :   -0.435416
   8 S :   -0.103946
   9 C :   -0.250692
  10 S :   -0.075736
  11 P :    0.682482
  12 S :   -0.494073
  13 O :   -0.283260
  14 C :   -0.144326
  15 C :   -0.446236
  16 O :   -0.305706
  17 C :   -0.149975
  18 C :   -0.455630
  19 H :    0.193820
  20 H :    0.146302
  21 H :    0.149418
  22 H :    0.171471
  23 H :    0.147276
  24 H :    0.170088
  25 H :    0.149390
  26 H :    0.156502
  27 H :    0.164404
  28 H :    0.146675
  29 H :    0.198071
  30 H :    0.217132
  31 H :    0.149955
  32 H :    0.173824
  33 H :    0.156962
  34 H :    0.147046
  35 H :    0.168884
  36 H :    0.148506
  37 H :    0.170796
  38 H :    0.157806
  39 H :    0.147711
  40 H :    0.177524
Sum of atomic charges:    0.0000000

LOEWDIN ATOMIC CHARGES
----------------------
   0 C :   -0.407987
   1 C :    0.020062
   2 O :   -0.663629
   3 P :    0.381170
   4 S :   -0.117907
   5 O :   -0.669425
   6 C :    0.020953
   7 C :   -0.399116
   8 S :    0.186958
   9 C :   -0.417124
  10 S :    0.170181
  11 P :    0.375100
  12 S :   -0.140097
  13 O :   -0.679771
  14 C :    0.018151
  15 C :   -0.399587
  16 O :   -0.660212
  17 C :    0.020308
  18 C :   -0.406664
  19 H :    0.175135
  20 H :    0.159078
  21 H :    0.158790
  22 H :    0.180588
  23 H :    0.178679
  24 H :    0.179019
  25 H :    0.179954
  26 H :    0.161608
  27 H :    0.163879
  28 H :    0.159061
  29 H :    0.187927
  30 H :    0.192936
  31 H :    0.180224
  32 H :    0.180816
  33 H :    0.161167
  34 H :    0.159354
  35 H :    0.165161
  36 H :    0.179682
  37 H :    0.179213
  38 H :    0.161229
  39 H :    0.159336
  40 H :    0.165798

  Mayer bond orders larger than 0.100000
B(  0-C ,  1-C ) :   0.9362 B(  0-C , 19-H ) :   0.9514 B(  0-C , 20-H ) :   0.9582
B(  0-C , 21-H ) :   0.9671 B(  1-C ,  2-O ) :   0.8034 B(  1-C , 22-H ) :   0.9630
B(  1-C , 23-H ) :   0.9607 B(  2-O ,  3-P ) :   1.0685 B(  3-P ,  4-S ) :   1.7391
B(  3-P ,  5-O ) :   1.1775 B(  3-P ,  8-S ) :   1.1002 B(  5-O ,  6-C ) :   0.8113
B(  6-C ,  7-C ) :   0.9304 B(  6-C , 24-H ) :   0.9654 B(  6-C , 25-H ) :   0.9606
B(  7-C , 26-H ) :   0.9710 B(  7-C , 27-H ) :   0.9602 B(  7-C , 28-H ) :   0.9620
B(  8-S ,  9-C ) :   0.8873 B(  9-C , 10-S ) :   0.9270 B(  9-C , 29-H ) :   0.9139
B(  9-C , 30-H ) :   0.9065 B( 10-S , 11-P ) :   1.1027 B( 11-P , 12-S ) :   1.7325
B( 11-P , 13-O ) :   1.1496 B( 11-P , 16-O ) :   1.0606 B( 13-O , 14-C ) :   0.7890
B( 14-C , 15-C ) :   0.9224 B( 14-C , 31-H ) :   0.9600 B( 14-C , 32-H ) :   0.9653
B( 15-C , 33-H ) :   0.9720 B( 15-C , 34-H ) :   0.9618 B( 15-C , 35-H ) :   0.9599
B( 16-O , 17-C ) :   0.8146 B( 17-C , 18-C ) :   0.9225 B( 17-C , 36-H ) :   0.9582
B( 17-C , 37-H ) :   0.9668 B( 18-C , 38-H ) :   0.9684 B( 18-C , 39-H ) :   0.9585
B( 18-C , 40-H ) :   0.9621

Dispersion correction           -0.021359608
FINAL SINGLE POINT ENERGY     -2932.463975129752

DIPOLE MOMENT
-------------

Method             : SCF
Type of density    : Electron Density
Multiplicity       :   1
Irrep              :   0
Energy             : -2932.4889620357780586 Eh
Relativity type    :
Basis              : AO
                                X                 Y                 Z
Electronic contribution:      0.389910245      -9.464970738      -4.330518589
Nuclear contribution   :     -0.194383820      10.180792271       4.681267454
                        -----------------------------------------
Total Dipole Moment    :      0.195526425       0.715821533       0.350748865
                        -----------------------------------------
Magnitude (a.u.)       :      0.820765384
Magnitude (Debye)      :      2.086219812

Rotational constants in cm-1:             0.014259             0.004425             0.004083
Rotational constants in MHz :           427.485034           132.649476           122.419872

                             ****ORCA TERMINATED NORMALLY****
TOTAL RUN TIME: 0 days 0 hours 1 minutes 17 seconds 592 msec
