                         Program Version 6.0.0  -   RELEASE  -
|  1> ! r2scan-3c def2/J RI DEFGRID2 scfconv6 printgap
|  2> %output
|  3>     printlevel normal
|  4> end
|  5> %cpcm
|  6>     smd true
|  7>     smdsolvent "water"
|  8> end
|  9> * xyz 0 1
| 10> C 1.5558782242 2.5239911112 1.2256794218
| 11> C 2.8318637721 1.8005931769 1.6059013821
| 12> O 3.2347380163 0.8602694927 0.5961933638
| 13> P 2.48872258 -0.5272566308 0.3839317188
| 14> S 1.926773377 -1.4263920343 2.0379210147
| 15> O 3.5197290813 -1.3362893442 -0.5057692267
| 16> C 4.5615262936 -2.1534063996 0.0679477907
| 17> C 5.6273961098 -1.3185598436 0.7462301999
| 18> S 1.0513680282 -0.139524452 -1.1180844782
| 19> C -0.1180470461 -1.4631658 -0.687979102
| 20> S -1.2587265109 -1.0017600842 0.6450612387
| 21> P -2.3810958495 0.3782562889 -0.493127706
| 22> S -2.7236531227 -0.0856527294 -2.3712052306
| 23> O -1.5279528993 1.6884022994 -0.2406893626
| 24> C -1.5810247026 2.8221505474 -1.1309938335
| 25> C -2.932813312 3.5033158889 -1.0954407681
| 26> O -3.6752740557 0.6627894644 0.3826940696
| 27> C -4.8837395602 -0.1053666661 0.2499069814
| 28> C -4.7109613153 -1.5301975268 0.7353495204
| 29> H 0.7161579606 1.8293956146 1.2094182482
| 30> H 1.3515057263 3.3020877349 1.954281667
| 31> H 1.6607627125 2.9681216115 0.2386506826
| 32> H 2.7048287462 1.2629633105 2.5516470852
| 33> H 3.6753090561 2.4886653732 1.6789236847
| 34> H 4.1038485878 -2.8474351249 0.7802805247
| 35> H 4.9594979355 -2.7034184007 -0.7857971442
| 36> H 6.0003441817 -0.5600074045 0.0631431827
| 37> H 5.2111418862 -0.8280986095 1.6248553157
| 38> H 6.4452424075 -1.9619711237 1.0553256386
| 39> H 0.4247785362 -2.3410357747 -0.345907389
| 40> H -0.6913673392 -1.6750669157 -1.5904813122
| 41> H -0.7880066529 3.4765361748 -0.7675705824
| 42> H -1.3439264966 2.4771489902 -2.1424370539
| 43> H -3.1971407971 3.7588334488 -0.0727142986
| 44> H -2.8979091062 4.4052262878 -1.6984235905
| 45> H -3.6936398332 2.8367221922 -1.4999995969
| 46> H -5.6089953832 0.4411819658 0.8542016723
| 47> H -5.1876858112 -0.0925735631 -0.8018396796
| 48> H -4.2994922039 -1.5392390464 1.7416885186
| 49> H -5.6739698043 -2.0306687298 0.7338015642
| 50> H -4.0314498825 -2.0690091118 0.0761842799
| 51> *
| 52>
| 53>                          ****END OF INPUT****

CARTESIAN COORDINATES (ANGSTROEM)
---------------------------------
  C      1.555878    2.523991    1.225679
  C      2.831864    1.800593    1.605901
  O      3.234738    0.860269    0.596193
  P      2.488723   -0.527257    0.383932
  S      1.926773   -1.426392    2.037921
  O      3.519729   -1.336289   -0.505769
  C      4.561526   -2.153406    0.067948
  C      5.627396   -1.318560    0.746230
  S      1.051368   -0.139524   -1.118084
  C     -0.118047   -1.463166   -0.687979
  S     -1.258727   -1.001760    0.645061
  P     -2.381096    0.378256   -0.493128
  S     -2.723653   -0.085653   -2.371205
  O     -1.527953    1.688402   -0.240689
  C     -1.581025    2.822151   -1.130994
  C     -2.932813    3.503316   -1.095441
  O     -3.675274    0.662789    0.382694
  C     -4.883740   -0.105367    0.249907
  C     -4.710961   -1.530198    0.735350
  H      0.716158    1.829396    1.209418
  H      1.351506    3.302088    1.954282
  H      1.660763    2.968122    0.238651
  H      2.704829    1.262963    2.551647
  H      3.675309    2.488665    1.678924
  H      4.103849   -2.847435    0.780281
  H      4.959498   -2.703418   -0.785797
  H      6.000344   -0.560007    0.063143
  H      5.211142   -0.828099    1.624855
  H      6.445242   -1.961971    1.055326
  H      0.424779   -2.341036   -0.345907
  H     -0.691367   -1.675067   -1.590481
  H     -0.788007    3.476536   -0.767571
  H     -1.343926    2.477149   -2.142437
  H     -3.197141    3.758833   -0.072714
  H     -2.897909    4.405226   -1.698424
  H     -3.693640    2.836722   -1.500000
  H     -5.608995    0.441182    0.854202
  H     -5.187686   -0.092574   -0.801840
  H     -4.299492   -1.539239    1.741689
  H     -5.673970   -2.030669    0.733802
  H     -4.031450   -2.069009    0.076184

 Total Charge           Charge          ....    0
 Multiplicity           Mult            ....    1
 Number of Electrons    NEL             ....  202
 Basis Dimension        Dim             ....  539

ORBITAL ENERGIES
----------------

  NO   OCC          E(Eh)            E(eV)
   0   2.0000     -88.577943     -2410.3284
   1   2.0000     -88.577728     -2410.3225
   2   2.0000     -88.529831     -2409.0192
   3   2.0000     -88.528532     -2408.9838
   4   2.0000     -76.919124     -2093.0758
   5   2.0000     -76.917653     -2093.0357
   6   2.0000     -18.996174      -516.9122
   7   2.0000     -18.996030      -516.9083
   8   2.0000     -18.992529      -516.8130
   9   2.0000     -18.991678      -516.7898
  10   2.0000     -10.105336      -274.9802
  11   2.0000     -10.090029      -274.5637
  12   2.0000     -10.089411      -274.5468
  13   2.0000     -10.088745      -274.5287
  14   2.0000     -10.088543      -274.5232
  15   2.0000     -10.018663      -272.6217
  16   2.0000     -10.018488      -272.6169
  17   2.0000     -10.018476      -272.6166
  18   2.0000     -10.017531      -272.5909
  19   2.0000      -7.872289      -214.2159
  20   2.0000      -7.871879      -214.2047
  21   2.0000      -7.824763      -212.9226
  22   2.0000      -7.823591      -212.8907
  23   2.0000      -6.597768      -179.5344
  24   2.0000      -6.596475      -179.4992
  25   2.0000      -5.819165      -158.3475
  26   2.0000      -5.818755      -158.3364
  27   2.0000      -5.816316      -158.2700
  28   2.0000      -5.815774      -158.2553
  29   2.0000      -5.809229      -158.0772
  30   2.0000      -5.808997      -158.0708
  31   2.0000      -5.772328      -157.0730
  32   2.0000      -5.771065      -157.0387
  33   2.0000      -5.765105      -156.8765
  34   2.0000      -5.764757      -156.8670
  35   2.0000      -5.763849      -156.8423
  36   2.0000      -5.763739      -156.8393
  37   2.0000      -4.743018      -129.0641
  38   2.0000      -4.742721      -129.0560
  39   2.0000      -4.741823      -129.0316
  40   2.0000      -4.741717      -129.0287
  41   2.0000      -4.741302      -129.0174
  42   2.0000      -4.740425      -128.9935
  43   2.0000      -1.052717       -28.6459
  44   2.0000      -1.052546       -28.6412
  45   2.0000      -1.013727       -27.5849
  46   2.0000      -1.013172       -27.5698
  47   2.0000      -0.802974       -21.8500
  48   2.0000      -0.755912       -20.5694
  49   2.0000      -0.742099       -20.1936
  50   2.0000      -0.723885       -19.6979
  51   2.0000      -0.723163       -19.6783
  52   2.0000      -0.709734       -19.3129
  53   2.0000      -0.690001       -18.7759
  54   2.0000      -0.675629       -18.3848
  55   2.0000      -0.635052       -17.2806
  56   2.0000      -0.624369       -16.9899
  57   2.0000      -0.599639       -16.3170
  58   2.0000      -0.598866       -16.2960
  59   2.0000      -0.588113       -16.0034
  60   2.0000      -0.517665       -14.0864
  61   2.0000      -0.513044       -13.9606
  62   2.0000      -0.492297       -13.3961
  63   2.0000      -0.488801       -13.3009
  64   2.0000      -0.475920       -12.9505
  65   2.0000      -0.458569       -12.4783
  66   2.0000      -0.454699       -12.3730
  67   2.0000      -0.452977       -12.3261
  68   2.0000      -0.443491       -12.0680
  69   2.0000      -0.428538       -11.6611
  70   2.0000      -0.420990       -11.4557
  71   2.0000      -0.408490       -11.1156
  72   2.0000      -0.407242       -11.0816
  73   2.0000      -0.405016       -11.0211
  74   2.0000      -0.400889       -10.9088
  75   2.0000      -0.391037       -10.6406
  76   2.0000      -0.381141       -10.3714
  77   2.0000      -0.367831       -10.0092
  78   2.0000      -0.365671        -9.9504
  79   2.0000      -0.362557        -9.8657
  80   2.0000      -0.354931        -9.6582
  81   2.0000      -0.352538        -9.5930
  82   2.0000      -0.350251        -9.5308
  83   2.0000      -0.347390        -9.4530
  84   2.0000      -0.343508        -9.3473
  85   2.0000      -0.329586        -8.9685
  86   2.0000      -0.321930        -8.7602
  87   2.0000      -0.306623        -8.3436
  88   2.0000      -0.304524        -8.2865
  89   2.0000      -0.299669        -8.1544
  90   2.0000      -0.297067        -8.0836
  91   2.0000      -0.288807        -7.8588
  92   2.0000      -0.287289        -7.8175
  93   2.0000      -0.280041        -7.6203
  94   2.0000      -0.278403        -7.5757
  95   2.0000      -0.249534        -6.7902
  96   2.0000      -0.237513        -6.4631
  97   2.0000      -0.233166        -6.3448
  98   2.0000      -0.227952        -6.2029
  99   2.0000      -0.224243        -6.1020
 100   2.0000      -0.218117        -5.9353
 101   0.0000      -0.049500        -1.3470
 102   0.0000      -0.035089        -0.9548
 103   0.0000      -0.006780        -0.1845
 104   0.0000       0.001575         0.0429
 105   0.0000       0.011657         0.3172

MULLIKEN ATOMIC CHARGES
-----------------------
   0 C :   -0.486867
   1 C :   -0.153307
   2 O :   -0.311238
   3 P :    0.705759
   4 S :   -0.509166
   5 O :   -0.323266
   6 C :   -0.151323
   7 C :   -0.475794
   8 S :   -0.127931
   9 C :   -0.263230
  10 S :   -0.097128
  11 P :    0.719743
  12 S :   -0.538141
  13 O :   -0.309251
  14 C :   -0.143016
  15 C :   -0.486692
  16 O :   -0.330638
  17 C :   -0.151539
  18 C :   -0.490432
  19 H :    0.172341
  20 H :    0.172287
  21 H :    0.170829
  22 H :    0.175461
  23 H :    0.175193
  24 H :    0.175717
  25 H :    0.174718
  26 H :    0.168809
  27 H :    0.167310
  28 H :    0.171885
  29 H :    0.227938
  30 H :    0.233838
  31 H :    0.178857
  32 H :    0.177351
  33 H :    0.170002
  34 H :    0.172410
  35 H :    0.169025
  36 H :    0.175627
  37 H :    0.178142
  38 H :    0.169657
  39 H :    0.172863
  40 H :    0.173200
Sum of atomic charges:    0.0000000

LOEWDIN ATOMIC CHARGES
----------------------
   0 C :   -0.409084
   1 C :    0.025426
   2 O :   -0.674220
   3 P :    0.387432
   4 S :   -0.143338
   5 O :   -0.686414
   6 C :    0.025988
   7 C :   -0.402551
   8 S :    0.174216
   9 C :   -0.410708
  10 S :    0.157764
  11 P :    0.380064
  12 S :   -0.166104
  13 O :   -0.693143
  14 C :    0.022405
  15 C :   -0.402767
  16 O :   -0.671890
  17 C :    0.026009
  18 C :   -0.409832
  19 H :    0.165821
  20 H :    0.168616
  21 H :    0.164737
  22 H :    0.181929
  23 H :    0.190670
  24 H :    0.181344
  25 H :    0.190470
  26 H :    0.164212
  27 H :    0.162568
  28 H :    0.168605
  29 H :    0.197753
  30 H :    0.197923
  31 H :    0.191519
  32 H :    0.181915
  33 H :    0.164258
  34 H :    0.168816
  35 H :    0.162830
  36 H :    0.191140
  37 H :    0.181681
  38 H :    0.163741
  39 H :    0.168541
  40 H :    0.161662

  Mayer bond orders larger than 0.100000
B(  0-C ,  1-C ) :   0.9222 B(  0-C , 19-H ) :   0.9572 B(  0-C , 20-H ) :   0.9535
B(  0-C , 21-H ) :   0.9644 B(  1-C ,  2-O ) :   0.7898 B(  1-C , 22-H ) :   0.9605
B(  1-C , 23-H ) :   0.9509 B(  2-O ,  3-P ) :   1.0792 B(  3-P ,  4-S ) :   1.7036
B(  3-P ,  5-O ) :   1.1795 B(  3-P ,  8-S ) :   1.1042 B(  5-O ,  6-C ) :   0.7997
B(  6-C ,  7-C ) :   0.9175 B(  6-C , 24-H ) :   0.9614 B(  6-C , 25-H ) :   0.9513
B(  7-C , 26-H ) :   0.9703 B(  7-C , 27-H ) :   0.9587 B(  7-C , 28-H ) :   0.9559
B(  8-S ,  9-C ) :   0.8801 B(  9-C , 10-S ) :   0.9194 B(  9-C , 29-H ) :   0.9048
B(  9-C , 30-H ) :   0.9033 B( 10-S , 11-P ) :   1.1102 B( 11-P , 12-S ) :   1.6927
B( 11-P , 13-O ) :   1.1580 B( 11-P , 16-O ) :   1.0693 B( 13-O , 14-C ) :   0.7766
B( 14-C , 15-C ) :   0.9106 B( 14-C , 31-H ) :   0.9501 B( 14-C , 32-H ) :   0.9613
B( 15-C , 33-H ) :   0.9709 B( 15-C , 34-H ) :   0.9557 B( 15-C , 35-H ) :   0.9594
B( 16-O , 17-C ) :   0.8028 B( 17-C , 18-C ) :   0.9085 B( 17-C , 36-H ) :   0.9485
B( 17-C , 37-H ) :   0.9655 B( 18-C , 38-H ) :   0.9658 B( 18-C , 39-H ) :   0.9531
B( 18-C , 40-H ) :   0.9635

Dispersion correction           -0.021359608
FINAL SINGLE POINT ENERGY     -2932.471816065322

DIPOLE MOMENT
-------------

Method             : SCF
Type of density    : Electron Density
Multiplicity       :   1
Irrep              :   0
Energy             : -2932.4968029713481883 Eh
Relativity type    :
Basis              : AO
                                X                 Y                 Z
Electronic contribution:      0.471212549      -9.263756191      -4.250848152
Nuclear contribution   :     -0.194383820      10.180792271       4.681267454
                        -----------------------------------------
Total Dipole Moment    :      0.276828729       0.917036080       0.430419302
                        -----------------------------------------
Magnitude (a.u.)       :      1.050166698
Magnitude (Debye)      :      2.669311612

Rotational constants in cm-1:             0.014259             0.004425             0.004083
Rotational constants in MHz :           427.485034           132.649476           122.419872

                             ****ORCA TERMINATED NORMALLY****
TOTAL RUN TIME: 0 days 0 hours 1 minutes 46 seconds 394 msec
