                         Program Version 6.0.1  -  RELEASE   -
|  1> ! pbe def2-sv(p) def2/J RI DEFGRID1 loosescf d4 GCP(DFT/SV(P)) printgap
|  2> %output
|  3>     printlevel normal
|  4> end
|  5> * xyz 0 1
|  6> C 3.823726757 -2.8772517557 0.6829863312
|  7> C 2.3187867598 -2.805224092 0.4832306321
|  8> O 1.9879011048 -2.0099551852 -0.6714283708
|  9> C 1.9586775061 -0.7021720641 -0.5558236825
| 10> O 2.1591732428 -0.0813974474 0.4688810607
| 11> C 1.6436294098 -0.0209319139 -1.8756265917
| 12> C 0.4429378694 0.9173613086 -1.7178213781
| 13> H 0.4101942985 1.6232556051 -2.5505479482
| 14> C 0.521903638 1.6846947462 -0.4122571471
| 15> O -0.2858960507 1.5251030412 0.4875172972
| 16> O 1.496600035 2.5404842429 -0.3991152061
| 17> C 1.7417112805 3.2729501755 0.8221212999
| 18> C 2.7709323109 4.34344116 0.522504464
| 19> S -1.1488652798 0.025604041 -1.7807740408
| 20> P -1.7829351711 -0.3293678837 0.195047781
| 21> S -0.7239340416 -1.136132113 1.6500753186
| 22> O -2.7574004321 0.8895489954 0.5253348438
| 23> C -3.6221643686 0.8313182834 1.6685155688
| 24> O -2.9389201794 -1.3928167797 -0.2116720634
| 25> C -2.6656971441 -2.7730448673 -0.4485233427
| 26> H 4.2187416767 -1.889504956 0.9092976541
| 27> H 4.0398171153 -3.5401501435 1.5140477857
| 28> H 4.3022779753 -3.257213498 -0.2154717422
| 29> H 1.8226087592 -2.3735733596 1.3581134023
| 30> H 1.8969332922 -3.7854990856 0.2621721507
| 31> H 1.4402365079 -0.7680521744 -2.6406864054
| 32> H 2.5160352653 0.5739687174 -2.1534758069
| 33> H 0.7932247912 3.6940724769 1.1690415437
| 34> H 2.0971893036 2.5530745549 1.5659639881
| 35> H 2.9775508898 4.9007953255 1.4298781282
| 36> H 3.6887087172 3.8858965172 0.1669950068
| 37> H 2.3952930254 5.0217217789 -0.2375659767
| 38> H -4.0198580192 1.8368189771 1.7802092023
| 39> H -3.0554046375 0.5430396159 2.5559276214
| 40> H -4.4221699452 0.1129957531 1.4906249229
| 41> H -1.9849186076 -3.1529243984 0.3166276354
| 42> H -2.2247851607 -2.9005554635 -1.4370094021
| 43> H -3.6254597812 -3.280140496 -0.3886755498
| 44> *
| 45>
| 46>                          ****END OF INPUT****

CARTESIAN COORDINATES (ANGSTROEM)
---------------------------------
  C      3.823727   -2.877252    0.682986
  C      2.318787   -2.805224    0.483231
  O      1.987901   -2.009955   -0.671428
  C      1.958678   -0.702172   -0.555824
  O      2.159173   -0.081397    0.468881
  C      1.643629   -0.020932   -1.875627
  C      0.442938    0.917361   -1.717821
  H      0.410194    1.623256   -2.550548
  C      0.521904    1.684695   -0.412257
  O     -0.285896    1.525103    0.487517
  O      1.496600    2.540484   -0.399115
  C      1.741711    3.272950    0.822121
  C      2.770932    4.343441    0.522504
  S     -1.148865    0.025604   -1.780774
  P     -1.782935   -0.329368    0.195048
  S     -0.723934   -1.136132    1.650075
  O     -2.757400    0.889549    0.525335
  C     -3.622164    0.831318    1.668516
  O     -2.938920   -1.392817   -0.211672
  C     -2.665697   -2.773045   -0.448523
  H      4.218742   -1.889505    0.909298
  H      4.039817   -3.540150    1.514048
  H      4.302278   -3.257213   -0.215472
  H      1.822609   -2.373573    1.358113
  H      1.896933   -3.785499    0.262172
  H      1.440237   -0.768052   -2.640686
  H      2.516035    0.573969   -2.153476
  H      0.793225    3.694072    1.169042
  H      2.097189    2.553075    1.565964
  H      2.977551    4.900795    1.429878
  H      3.688709    3.885897    0.166995
  H      2.395293    5.021722   -0.237566
  H     -4.019858    1.836819    1.780209
  H     -3.055405    0.543040    2.555928
  H     -4.422170    0.112996    1.490625
  H     -1.984919   -3.152924    0.316628
  H     -2.224785   -2.900555   -1.437009
  H     -3.625460   -3.280140   -0.388676

 Total Charge           Charge          ....    0
 Multiplicity           Mult            ....    1
 Number of Electrons    NEL             ....  174
 Basis Dimension        Dim             ....  316

ORBITAL ENERGIES
----------------

  NO   OCC          E(Eh)            E(eV)
   0   2.0000     -88.034644     -2395.5444
   1   2.0000     -87.959903     -2393.5106
   2   2.0000     -76.413339     -2079.3127
   3   2.0000     -18.815833      -512.0049
   4   2.0000     -18.804764      -511.7037
   5   2.0000     -18.767278      -510.6836
   6   2.0000     -18.767144      -510.6800
   7   2.0000     -18.753960      -510.3212
   8   2.0000     -18.739353      -509.9237
   9   2.0000     -10.025193      -272.7994
  10   2.0000     -10.012768      -272.4613
  11   2.0000      -9.954623      -270.8791
  12   2.0000      -9.951269      -270.7878
  13   2.0000      -9.940711      -270.5005
  14   2.0000      -9.928386      -270.1651
  15   2.0000      -9.924462      -270.0583
  16   2.0000      -9.917090      -269.8577
  17   2.0000      -9.892480      -269.1881
  18   2.0000      -9.884071      -268.9592
  19   2.0000      -7.679939      -208.9818
  20   2.0000      -7.604949      -206.9412
  21   2.0000      -6.408412      -174.3817
  22   2.0000      -5.708210      -155.3283
  23   2.0000      -5.704088      -155.2161
  24   2.0000      -5.696786      -155.0174
  25   2.0000      -5.634042      -153.3101
  26   2.0000      -5.626031      -153.0921
  27   2.0000      -5.624400      -153.0477
  28   2.0000      -4.631352      -126.0255
  29   2.0000      -4.630285      -125.9965
  30   2.0000      -4.628974      -125.9608
  31   2.0000      -1.027884       -27.9701
  32   2.0000      -1.010795       -27.5051
  33   2.0000      -0.962185       -26.1824
  34   2.0000      -0.931767       -25.3547
  35   2.0000      -0.917666       -24.9710
  36   2.0000      -0.915978       -24.9250
  37   2.0000      -0.767329       -20.8801
  38   2.0000      -0.714572       -19.4445
  39   2.0000      -0.706771       -19.2322
  40   2.0000      -0.683570       -18.6009
  41   2.0000      -0.649650       -17.6779
  42   2.0000      -0.620010       -16.8713
  43   2.0000      -0.612911       -16.6782
  44   2.0000      -0.607740       -16.5375
  45   2.0000      -0.594673       -16.1819
  46   2.0000      -0.561245       -15.2723
  47   2.0000      -0.517295       -14.0763
  48   2.0000      -0.498395       -13.5620
  49   2.0000      -0.497639       -13.5414
  50   2.0000      -0.484288       -13.1781
  51   2.0000      -0.459187       -12.4951
  52   2.0000      -0.456080       -12.4106
  53   2.0000      -0.449915       -12.2428
  54   2.0000      -0.435338       -11.8462
  55   2.0000      -0.432904       -11.7799
  56   2.0000      -0.421153       -11.4601
  57   2.0000      -0.409626       -11.1465
  58   2.0000      -0.405860       -11.0440
  59   2.0000      -0.398475       -10.8431
  60   2.0000      -0.396379       -10.7860
  61   2.0000      -0.392706       -10.6861
  62   2.0000      -0.386379       -10.5139
  63   2.0000      -0.382323       -10.4035
  64   2.0000      -0.370639       -10.0856
  65   2.0000      -0.365925        -9.9573
  66   2.0000      -0.359825        -9.7913
  67   2.0000      -0.356885        -9.7113
  68   2.0000      -0.355417        -9.6714
  69   2.0000      -0.339428        -9.2363
  70   2.0000      -0.333341        -9.0707
  71   2.0000      -0.325340        -8.8529
  72   2.0000      -0.319784        -8.7018
  73   2.0000      -0.313603        -8.5336
  74   2.0000      -0.296173        -8.0593
  75   2.0000      -0.291388        -7.9291
  76   2.0000      -0.284407        -7.7391
  77   2.0000      -0.273084        -7.4310
  78   2.0000      -0.271370        -7.3844
  79   2.0000      -0.258521        -7.0347
  80   2.0000      -0.252724        -6.8770
  81   2.0000      -0.242370        -6.5952
  82   2.0000      -0.235499        -6.4083
  83   2.0000      -0.226261        -6.1569
  84   2.0000      -0.221897        -6.0381
  85   2.0000      -0.182342        -4.9618
  86   2.0000      -0.169544        -4.6135
  87   0.0000      -0.039296        -1.0693
  88   0.0000      -0.031561        -0.8588
  89   0.0000      -0.024572        -0.6686
  90   0.0000       0.004845         0.1318
  91   0.0000       0.036670         0.9978

MULLIKEN ATOMIC CHARGES
-----------------------
   0 C :   -0.307208
   1 C :   -0.021804
   2 O :   -0.216605
   3 C :    0.104225
   4 O :   -0.201741
   5 C :   -0.030657
   6 C :   -0.298988
   7 H :    0.147438
   8 C :    0.228022
   9 O :   -0.194695
  10 O :   -0.220674
  11 C :   -0.028926
  12 C :   -0.277384
  13 S :   -0.091099
  14 P :    0.650152
  15 S :   -0.349246
  16 O :   -0.378582
  17 C :   -0.089259
  18 O :   -0.406867
  19 C :   -0.095876
  20 H :    0.124673
  21 H :    0.114439
  22 H :    0.109049
  23 H :    0.135287
  24 H :    0.101218
  25 H :    0.115683
  26 H :    0.123006
  27 H :    0.114175
  28 H :    0.127311
  29 H :    0.115329
  30 H :    0.118051
  31 H :    0.114327
  32 H :    0.117693
  33 H :    0.114538
  34 H :    0.112301
  35 H :    0.106714
  36 H :    0.102734
  37 H :    0.113246
Sum of atomic charges:   -0.0000000

LOEWDIN ATOMIC CHARGES
----------------------
   0 C :   -0.357576
   1 C :   -0.112910
   2 O :   -0.042694
   3 C :    0.029620
   4 O :   -0.156545
   5 C :   -0.246457
   6 C :   -0.259510
   7 H :    0.147727
   8 C :    0.024094
   9 O :   -0.139785
  10 O :   -0.037500
  11 C :   -0.101567
  12 C :   -0.350591
  13 S :    0.112123
  14 P :    0.584612
  15 S :   -0.332634
  16 O :   -0.254591
  17 C :   -0.208862
  18 O :   -0.277101
  19 C :   -0.224184
  20 H :    0.128757
  21 H :    0.131697
  22 H :    0.122130
  23 H :    0.121848
  24 H :    0.118468
  25 H :    0.135656
  26 H :    0.147072
  27 H :    0.120396
  28 H :    0.128464
  29 H :    0.133221
  30 H :    0.128171
  31 H :    0.126091
  32 H :    0.118902
  33 H :    0.111376
  34 H :    0.110710
  35 H :    0.101350
  36 H :    0.103833
  37 H :    0.116191

  Mayer bond orders larger than 0.100000
B(  0-C ,  1-C ) :   1.1650 B(  0-C , 20-H ) :   0.9460 B(  0-C , 21-H ) :   0.9447
B(  0-C , 22-H ) :   0.9476 B(  1-C ,  2-O ) :   0.9059 B(  1-C , 23-H ) :   0.9059
B(  1-C , 24-H ) :   0.9390 B(  2-O ,  3-C ) :   1.2691 B(  3-C ,  4-O ) :   1.9562
B(  3-C ,  5-C ) :   0.9993 B(  4-O ,  8-C ) :   0.1032 B(  5-C ,  6-C ) :   1.0240
B(  5-C , 25-H ) :   0.9048 B(  5-C , 26-H ) :   0.8771 B(  6-C ,  7-H ) :   0.8770
B(  6-C ,  8-C ) :   0.9129 B(  6-C , 13-S ) :   1.0279 B(  8-C ,  9-O ) :   1.8985
B(  8-C , 10-O ) :   1.2715 B(  9-O , 14-P ) :   0.1708 B( 10-O , 11-C ) :   0.8895
B( 11-C , 12-C ) :   1.1549 B( 11-C , 27-H ) :   0.9289 B( 11-C , 28-H ) :   0.9266
B( 12-C , 29-H ) :   0.9431 B( 12-C , 30-H ) :   0.9488 B( 12-C , 31-H ) :   0.9511
B( 13-S , 14-P ) :   0.9566 B( 13-S , 15-S ) :   0.1172 B( 14-P , 15-S ) :   1.5747
B( 14-P , 16-O ) :   1.0982 B( 14-P , 18-O ) :   1.0145 B( 16-O , 17-C ) :   0.9350
B( 17-C , 32-H ) :   0.9597 B( 17-C , 33-H ) :   0.9359 B( 17-C , 34-H ) :   0.9497
B( 18-O , 19-C ) :   0.9497 B( 19-C , 35-H ) :   0.9233 B( 19-C , 36-H ) :   0.9501
B( 19-C , 37-H ) :   0.9592

Dispersion correction           -0.053052008
FINAL SINGLE POINT ENERGY     -1979.006760834772

DIPOLE MOMENT
-------------

Method             : SCF
Type of density    : Electron Density
Multiplicity       :   1
Irrep              :   0
Energy             : -1979.1361786108977867 Eh
Relativity type    :
Basis              : AO
                                X                 Y                 Z
Electronic contribution:    -13.196027011       0.220586834      -5.050715040
Nuclear contribution   :     14.088248366       0.158739546       4.425247865
                        -----------------------------------------
Total Dipole Moment    :      0.892221355       0.379326380      -0.625467175
                        -----------------------------------------
Magnitude (a.u.)       :      1.153757616
Magnitude (Debye)      :      2.932618801

Rotational constants in cm-1:             0.011188             0.008870             0.006423
Rotational constants in MHz :           335.392967           265.930518           192.570257

                             ****ORCA TERMINATED NORMALLY****
TOTAL RUN TIME: 0 days 0 hours 0 minutes 38 seconds 872 msec
