                         Program Version 6.0.0  -   RELEASE  -
|  1> ! pbe def2-sv(p) def2/J RI DEFGRID1 loosescf d4 GCP(DFT/SV(P)) printgap
|  2> %output
|  3>     printlevel normal
|  4> end
|  5> * xyz 0 1
|  6> C -0.738674201 -1.1914777207 -0.2310857295
|  7> C 0.7272479847 -1.1715226996 0.220252113
|  8> O 1.3861941511 0.0013885751 -0.2327425281
|  9> C 0.724732205 1.1729027869 0.2202723576
| 10> C -0.7412240911 1.1900649065 -0.2310807811
| 11> N -1.4567710278 -0.0014571057 0.2028218462
| 12> H -1.2400717806 -2.074848529 0.1644759036
| 13> H -0.7763999559 -1.2174179146 -1.3236204754
| 14> H 0.781575066 -1.215962612 1.3199071515
| 15> H 1.2864759791 -2.0060860439 -0.2030524546
| 16> H 0.7789856507 1.2175188354 1.3199275852
| 17> H 1.2821803462 2.0086336172 -0.2030351531
| 18> H -1.2445052017 2.0723853173 0.164461434
| 19> H -0.779017626 1.2158817988 -1.3236096302
| 20> H -1.5162955814 -0.0015073842 1.2183557088
| 21> *
| 22>
| 23>                          ****END OF INPUT****

CARTESIAN COORDINATES (ANGSTROEM)
---------------------------------
  C     -0.738674   -1.191478   -0.231086
  C      0.727248   -1.171523    0.220252
  O      1.386194    0.001389   -0.232743
  C      0.724732    1.172903    0.220272
  C     -0.741224    1.190065   -0.231081
  N     -1.456771   -0.001457    0.202822
  H     -1.240072   -2.074849    0.164476
  H     -0.776400   -1.217418   -1.323620
  H      0.781575   -1.215963    1.319907
  H      1.286476   -2.006086   -0.203052
  H      0.778986    1.217519    1.319928
  H      1.282180    2.008634   -0.203035
  H     -1.244505    2.072385    0.164461
  H     -0.779018    1.215882   -1.323610
  H     -1.516296   -0.001507    1.218356

 Total Charge           Charge          ....    0
 Multiplicity           Mult            ....    1
 Number of Electrons    NEL             ....   48
 Basis Dimension        Dim             ....  102

ORBITAL ENERGIES
----------------

  NO   OCC          E(Eh)            E(eV)
   0   2.0000     -18.752184      -510.2729
   1   2.0000     -13.977725      -380.3532
   2   2.0000      -9.927916      -270.1523
   3   2.0000      -9.927913      -270.1522
   4   2.0000      -9.909267      -269.6449
   5   2.0000      -9.909264      -269.6448
   6   2.0000      -0.937517       -25.5111
   7   2.0000      -0.822725       -22.3875
   8   2.0000      -0.691770       -18.8240
   9   2.0000      -0.602255       -16.3882
  10   2.0000      -0.584094       -15.8940
  11   2.0000      -0.526349       -14.3227
  12   2.0000      -0.449401       -12.2288
  13   2.0000      -0.427413       -11.6305
  14   2.0000      -0.417790       -11.3687
  15   2.0000      -0.407819       -11.0973
  16   2.0000      -0.403077       -10.9683
  17   2.0000      -0.346924        -9.4403
  18   2.0000      -0.328990        -8.9523
  19   2.0000      -0.317646        -8.6436
  20   2.0000      -0.310506        -8.4493
  21   2.0000      -0.273588        -7.4447
  22   2.0000      -0.223453        -6.0805
  23   2.0000      -0.167552        -4.5593
  24   0.0000       0.032288         0.8786
  25   0.0000       0.059118         1.6087
  26   0.0000       0.069195         1.8829
  27   0.0000       0.080348         2.1864
  28   0.0000       0.091187         2.4813

MULLIKEN ATOMIC CHARGES
-----------------------
   0 C :   -0.094373
   1 C :    0.013857
   2 O :   -0.335670
   3 C :    0.013792
   4 C :   -0.094301
   5 N :   -0.337679
   6 H :    0.090105
   7 H :    0.087186
   8 H :    0.053373
   9 H :    0.090492
  10 H :    0.053388
  11 H :    0.090474
  12 H :    0.090123
  13 H :    0.087175
  14 H :    0.192056
Sum of atomic charges:   -0.0000000

LOEWDIN ATOMIC CHARGES
----------------------
   0 C :   -0.191433
   1 C :   -0.130937
   2 O :   -0.177596
   3 C :   -0.130934
   4 C :   -0.191436
   5 N :   -0.258347
   6 H :    0.116151
   7 H :    0.117684
   8 H :    0.090845
   9 H :    0.114043
  10 H :    0.090848
  11 H :    0.114038
  12 H :    0.116157
  13 H :    0.117684
  14 H :    0.203234

  Mayer bond orders larger than 0.100000
B(  0-C ,  1-C ) :   1.0980 B(  0-C ,  5-N ) :   1.0975 B(  0-C ,  6-H ) :   0.9252
B(  0-C ,  7-H ) :   0.9080 B(  1-C ,  2-O ) :   1.0237 B(  1-C ,  8-H ) :   0.8982
B(  1-C ,  9-H ) :   0.9242 B(  2-O ,  3-C ) :   1.0238 B(  3-C ,  4-C ) :   1.0980
B(  3-C , 10-H ) :   0.8982 B(  3-C , 11-H ) :   0.9242 B(  4-C ,  5-N ) :   1.0975
B(  4-C , 12-H ) :   0.9252 B(  4-C , 13-H ) :   0.9080 B(  5-N , 14-H ) :   0.8793

Dispersion correction           -0.011684123
FINAL SINGLE POINT ENERGY      -287.133232154250

DIPOLE MOMENT
-------------

Method             : SCF
Type of density    : Electron Density
Multiplicity       :   1
Irrep              :   0
Energy             :  -287.1973124655689844 Eh
Relativity type    :
Basis              : AO
                                X                 Y                 Z
Electronic contribution:      1.209891141       0.001209538      -0.634217322
Nuclear contribution   :     -1.326261961      -0.001303564       1.061367664
                        -----------------------------------------
Total Dipole Moment    :     -0.116370821      -0.000094026       0.427150342
                        -----------------------------------------
Magnitude (a.u.)       :      0.442718411
Magnitude (Debye)      :      1.125300773

Rotational constants in cm-1:             0.164626             0.153179             0.089997
Rotational constants in MHz :          4935.350483          4592.190707          2698.040062

                             ****ORCA TERMINATED NORMALLY****
TOTAL RUN TIME: 0 days 0 hours 0 minutes 6 seconds 173 msec
