                         Program Version 6.0.0  -   RELEASE  -
|  1> ! pbe def2-sv(p) def2/J RI DEFGRID1 loosescf d4 GCP(DFT/SV(P)) printgap
|  2> %output
|  3>     printlevel normal
|  4> end
|  5> * xyz 0 1
|  6> C 1.5022017698 0.3014893707 -0.4911266936
|  7> C 0.8281403619 -0.2222428858 0.5153733205
|  8> C -0.6646856625 -0.3833439757 0.5603539127
|  9> O -1.3620713459 0.2177384586 -0.5071243345
| 10> H 2.573838299 0.3902124409 -0.4725006026
| 11> H 1.0052330698 0.6467753726 -1.3825400379
| 12> H 1.3322073938 -0.586347884 1.3994869089
| 13> H -1.0384524225 -0.0030586619 1.5232646985
| 14> H -0.9119317263 -1.4492228515 0.5090437641
| 15> H -1.1883985203 1.169061032 -0.4931544455
| 16> *
| 17>
| 18>                          ****END OF INPUT****

CARTESIAN COORDINATES (ANGSTROEM)
---------------------------------
  C      1.502202    0.301489   -0.491127
  C      0.828140   -0.222243    0.515373
  C     -0.664686   -0.383344    0.560354
  O     -1.362071    0.217738   -0.507124
  H      2.573838    0.390212   -0.472501
  H      1.005233    0.646775   -1.382540
  H      1.332207   -0.586348    1.399487
  H     -1.038452   -0.003059    1.523265
  H     -0.911932   -1.449223    0.509044
  H     -1.188399    1.169061   -0.493154

 Total Charge           Charge          ....    0
 Multiplicity           Mult            ....    1
 Number of Electrons    NEL             ....   32
 Basis Dimension        Dim             ....   68

ORBITAL ENERGIES
----------------

  NO   OCC          E(Eh)            E(eV)
   0   2.0000     -18.747872      -510.1555
   1   2.0000      -9.936380      -270.3827
   2   2.0000      -9.891855      -269.1710
   3   2.0000      -9.882752      -268.9233
   4   2.0000      -0.923873       -25.1399
   5   2.0000      -0.700752       -19.0684
   6   2.0000      -0.612438       -16.6653
   7   2.0000      -0.508222       -13.8294
   8   2.0000      -0.445818       -12.1313
   9   2.0000      -0.430433       -11.7127
  10   2.0000      -0.395733       -10.7684
  11   2.0000      -0.357641        -9.7319
  12   2.0000      -0.327805        -8.9200
  13   2.0000      -0.282009        -7.6739
  14   2.0000      -0.237388        -6.4597
  15   2.0000      -0.219515        -5.9733
  16   0.0000      -0.018187        -0.4949
  17   0.0000       0.031542         0.8583
  18   0.0000       0.060625         1.6497
  19   0.0000       0.086588         2.3562
  20   0.0000       0.104156         2.8342

MULLIKEN ATOMIC CHARGES
-----------------------
   0 C :   -0.202420
   1 C :   -0.178809
   2 C :    0.051743
   3 O :   -0.429604
   4 H :    0.101842
   5 H :    0.091301
   6 H :    0.076198
   7 H :    0.083697
   8 H :    0.108562
   9 H :    0.297489
Sum of atomic charges:    0.0000000

LOEWDIN ATOMIC CHARGES
----------------------
   0 C :   -0.262580
   1 C :   -0.164632
   2 C :   -0.119637
   3 O :   -0.334355
   4 H :    0.124092
   5 H :    0.118308
   6 H :    0.122826
   7 H :    0.104363
   8 H :    0.127390
   9 H :    0.284224

  Mayer bond orders larger than 0.100000
B(  0-C ,  1-C ) :   2.0739 B(  0-C ,  4-H ) :   0.9253 B(  0-C ,  5-H ) :   0.9094
B(  1-C ,  2-C ) :   1.0464 B(  1-C ,  6-H ) :   0.9206 B(  2-C ,  3-O ) :   1.0976
B(  2-C ,  7-H ) :   0.9177 B(  2-C ,  8-H ) :   0.9115 B(  3-O ,  9-H ) :   0.8465

Dispersion correction           -0.005426303
FINAL SINGLE POINT ENERGY      -192.664487000608

DIPOLE MOMENT
-------------

Method             : SCF
Type of density    : Electron Density
Multiplicity       :   1
Irrep              :   0
Energy             :  -192.7041970451745101 Eh
Relativity type    :
Basis              : AO
                                X                 Y                 Z
Electronic contribution:     -1.409190487       0.141632073      -0.584680099
Nuclear contribution   :      1.642663408       0.160304585       1.009067024
                        -----------------------------------------
Total Dipole Moment    :      0.233472921       0.301936658       0.424386925
                        -----------------------------------------
Magnitude (a.u.)       :      0.570771068
Magnitude (Debye)      :      1.450784759

Rotational constants in cm-1:             0.571571             0.197002             0.152693
Rotational constants in MHz :         17135.266946          5905.962088          4577.608943

                             ****ORCA TERMINATED NORMALLY****
TOTAL RUN TIME: 0 days 0 hours 0 minutes 3 seconds 687 msec
