                         Program Version 6.0.0  -   RELEASE  -
|  1> ! pbe def2-sv(p) def2/J RI DEFGRID1 loosescf d4 GCP(DFT/SV(P)) printgap
|  2> %output
|  3>     printlevel normal
|  4> end
|  5> * xyz 0 1
|  6> C 5.8378594391 -0.3021683809 0.2632745318
|  7> C 4.5114613946 -0.6645602163 -0.3735737791
|  8> O 3.4703307074 0.0280265089 0.3427922801
|  9> P 2.021896721 0.2293526442 -0.2810621196
| 10> S 2.0262289107 0.885902566 -2.132001884
| 11> O 1.3347941279 1.1102145683 0.8372818004
| 12> C 1.3709542747 2.5508950453 0.8167711994
| 13> C 2.7761717667 3.0845884674 0.98820363
| 14> S 1.1612960091 -1.6608384798 0.0476627595
| 15> C -0.0645286945 -1.7423475122 -1.3051495894
| 16> S -1.7474101229 -1.960683009 -0.6937549008
| 17> P -2.0127511051 -0.0201975984 0.1342267173
| 18> S -1.364158057 1.4493483481 -0.9886295736
| 19> O -1.3669998655 0.0072041617 1.5664310052
| 20> C -1.3689732819 -1.0626151308 2.5484715708
| 21> C -2.7540252025 -1.5873226784 2.853947668
| 22> O -3.5687695269 0.0321191669 0.4337828059
| 23> C -4.5324176298 0.1521503932 -0.631961559
| 24> C -5.8492877062 0.585342475 -0.0206680379
| 25> H 6.0167848586 0.7658141152 0.1768299598
| 26> H 5.8290962627 -0.5741272779 1.3146383055
| 27> H 6.6329500535 -0.840248069 -0.2421049003
| 28> H 4.3160014825 -1.7381537891 -0.3044529249
| 29> H 4.4715538665 -0.3603766246 -1.425146519
| 30> H 0.9312279323 2.8938744182 -0.1260225063
| 31> H 0.7173953546 2.835315891 1.6429902817
| 32> H 3.3807818532 2.812133921 0.1237435087
| 33> H 2.7406791547 4.166664835 1.0672011949
| 34> H 3.2293607246 2.666485741 1.8832230615
| 35> H 0.1584563944 -2.6181299492 -1.9086648063
| 36> H 0.0060818245 -0.8247863584 -1.8963040018
| 37> H -0.7175536214 -1.8607890143 2.1808668229
| 38> H -0.9121890343 -0.5912682296 3.4199714723
| 39> H -3.4142082452 -0.7698575212 3.1314638776
| 40> H -3.1669096236 -2.0970685158 1.9860319352
| 41> H -2.6866731752 -2.291594882 3.677545998
| 42> H -4.1635080365 0.8866880024 -1.3558222475
| 43> H -4.6191770779 -0.8206776979 -1.122898894
| 44> H -5.7323790724 1.5447546334 0.47533899
| 45> H -6.5924525529 0.6765591772 -0.8058671693
| 46> H -6.1812319583 -0.15004171 0.7060940985
| 47> *
| 48>
| 49>                          ****END OF INPUT****

CARTESIAN COORDINATES (ANGSTROEM)
---------------------------------
  C      5.837859   -0.302168    0.263275
  C      4.511461   -0.664560   -0.373574
  O      3.470331    0.028027    0.342792
  P      2.021897    0.229353   -0.281062
  S      2.026229    0.885903   -2.132002
  O      1.334794    1.110215    0.837282
  C      1.370954    2.550895    0.816771
  C      2.776172    3.084588    0.988204
  S      1.161296   -1.660838    0.047663
  C     -0.064529   -1.742348   -1.305150
  S     -1.747410   -1.960683   -0.693755
  P     -2.012751   -0.020198    0.134227
  S     -1.364158    1.449348   -0.988630
  O     -1.367000    0.007204    1.566431
  C     -1.368973   -1.062615    2.548472
  C     -2.754025   -1.587323    2.853948
  O     -3.568770    0.032119    0.433783
  C     -4.532418    0.152150   -0.631962
  C     -5.849288    0.585342   -0.020668
  H      6.016785    0.765814    0.176830
  H      5.829096   -0.574127    1.314638
  H      6.632950   -0.840248   -0.242105
  H      4.316001   -1.738154   -0.304453
  H      4.471554   -0.360377   -1.425147
  H      0.931228    2.893874   -0.126023
  H      0.717395    2.835316    1.642990
  H      3.380782    2.812134    0.123744
  H      2.740679    4.166665    1.067201
  H      3.229361    2.666486    1.883223
  H      0.158456   -2.618130   -1.908665
  H      0.006082   -0.824786   -1.896304
  H     -0.717554   -1.860789    2.180867
  H     -0.912189   -0.591268    3.419971
  H     -3.414208   -0.769858    3.131464
  H     -3.166910   -2.097069    1.986032
  H     -2.686673   -2.291595    3.677546
  H     -4.163508    0.886688   -1.355822
  H     -4.619177   -0.820678   -1.122899
  H     -5.732379    1.544755    0.475339
  H     -6.592453    0.676559   -0.805867
  H     -6.181232   -0.150042    0.706094

 Total Charge           Charge          ....    0
 Multiplicity           Mult            ....    1
 Number of Electrons    NEL             ....  202
 Basis Dimension        Dim             ....  334

ORBITAL ENERGIES
----------------

  NO   OCC          E(Eh)            E(eV)
   0   2.0000     -88.044613     -2395.8157
   1   2.0000     -88.041258     -2395.7244
   2   2.0000     -87.980119     -2394.0608
   3   2.0000     -87.976932     -2393.9740
   4   2.0000     -76.423317     -2079.5842
   5   2.0000     -76.419923     -2079.4918
   6   2.0000     -18.793452      -511.3958
   7   2.0000     -18.789758      -511.2953
   8   2.0000     -18.787930      -511.2456
   9   2.0000     -18.779930      -511.0279
  10   2.0000      -9.954787      -270.8835
  11   2.0000      -9.952780      -270.8289
  12   2.0000      -9.952774      -270.8288
  13   2.0000      -9.947904      -270.6962
  14   2.0000      -9.938548      -270.4416
  15   2.0000      -9.888776      -269.0873
  16   2.0000      -9.886775      -269.0328
  17   2.0000      -9.885798      -269.0062
  18   2.0000      -9.875362      -268.7223
  19   2.0000      -7.689754      -209.2488
  20   2.0000      -7.686410      -209.1578
  21   2.0000      -7.625063      -207.4885
  22   2.0000      -7.621910      -207.4027
  23   2.0000      -6.420766      -174.7179
  24   2.0000      -6.417562      -174.6307
  25   2.0000      -5.717521      -155.5816
  26   2.0000      -5.714233      -155.4922
  27   2.0000      -5.714091      -155.4883
  28   2.0000      -5.710849      -155.4001
  29   2.0000      -5.707027      -155.2961
  30   2.0000      -5.703439      -155.1985
  31   2.0000      -5.653975      -153.8525
  32   2.0000      -5.650891      -153.7686
  33   2.0000      -5.645853      -153.6315
  34   2.0000      -5.645078      -153.6104
  35   2.0000      -5.642423      -153.5381
  36   2.0000      -5.642061      -153.5283
  37   2.0000      -4.643529      -126.3569
  38   2.0000      -4.642766      -126.3361
  39   2.0000      -4.640808      -126.2828
  40   2.0000      -4.639814      -126.2557
  41   2.0000      -4.639242      -126.2402
  42   2.0000      -4.638369      -126.2164
  43   2.0000      -0.986544       -26.8452
  44   2.0000      -0.980286       -26.6749
  45   2.0000      -0.944826       -25.7100
  46   2.0000      -0.937638       -25.5144
  47   2.0000      -0.762082       -20.7373
  48   2.0000      -0.720160       -19.5965
  49   2.0000      -0.708891       -19.2899
  50   2.0000      -0.692377       -18.8405
  51   2.0000      -0.682909       -18.5829
  52   2.0000      -0.671783       -18.2801
  53   2.0000      -0.645695       -17.5702
  54   2.0000      -0.630018       -17.1437
  55   2.0000      -0.595439       -16.2027
  56   2.0000      -0.590368       -16.0647
  57   2.0000      -0.569018       -15.4838
  58   2.0000      -0.565675       -15.3928
  59   2.0000      -0.557778       -15.1779
  60   2.0000      -0.505035       -13.7427
  61   2.0000      -0.496941       -13.5225
  62   2.0000      -0.474749       -12.9186
  63   2.0000      -0.467548       -12.7226
  64   2.0000      -0.450703       -12.2643
  65   2.0000      -0.446740       -12.1564
  66   2.0000      -0.435693       -11.8558
  67   2.0000      -0.434376       -11.8200
  68   2.0000      -0.426367       -11.6020
  69   2.0000      -0.415393       -11.3034
  70   2.0000      -0.408419       -11.1136
  71   2.0000      -0.399507       -10.8711
  72   2.0000      -0.391134       -10.6433
  73   2.0000      -0.379974       -10.3396
  74   2.0000      -0.376968       -10.2578
  75   2.0000      -0.369890       -10.0652
  76   2.0000      -0.363071        -9.8797
  77   2.0000      -0.358449        -9.7539
  78   2.0000      -0.353461        -9.6182
  79   2.0000      -0.350038        -9.5250
  80   2.0000      -0.349242        -9.5034
  81   2.0000      -0.340631        -9.2690
  82   2.0000      -0.337231        -9.1765
  83   2.0000      -0.336079        -9.1452
  84   2.0000      -0.331630        -9.0241
  85   2.0000      -0.314850        -8.5675
  86   2.0000      -0.308510        -8.3950
  87   2.0000      -0.298901        -8.1335
  88   2.0000      -0.295947        -8.0531
  89   2.0000      -0.290086        -7.8937
  90   2.0000      -0.275766        -7.5040
  91   2.0000      -0.272090        -7.4039
  92   2.0000      -0.262898        -7.1538
  93   2.0000      -0.260883        -7.0990
  94   2.0000      -0.256317        -6.9747
  95   2.0000      -0.238656        -6.4942
  96   2.0000      -0.221352        -6.0233
  97   2.0000      -0.211761        -5.7623
  98   2.0000      -0.199884        -5.4391
  99   2.0000      -0.190546        -5.1850
 100   2.0000      -0.182408        -4.9636
 101   0.0000      -0.040251        -1.0953
 102   0.0000      -0.028831        -0.7845
 103   0.0000      -0.005720        -0.1556
 104   0.0000       0.014430         0.3927
 105   0.0000       0.025666         0.6984

MULLIKEN ATOMIC CHARGES
-----------------------
   0 C :   -0.281458
   1 C :   -0.008503
   2 O :   -0.378751
   3 P :    0.614772
   4 S :   -0.319044
   5 O :   -0.352821
   6 C :   -0.000825
   7 C :   -0.304271
   8 S :   -0.108107
   9 C :   -0.351951
  10 S :   -0.119216
  11 P :    0.594133
  12 S :   -0.302928
  13 O :   -0.347496
  14 C :   -0.000725
  15 C :   -0.307154
  16 O :   -0.377122
  17 C :   -0.012843
  18 C :   -0.280216
  19 H :    0.120039
  20 H :    0.115187
  21 H :    0.110697
  22 H :    0.097820
  23 H :    0.103237
  24 H :    0.123231
  25 H :    0.102123
  26 H :    0.120996
  27 H :    0.109062
  28 H :    0.111940
  29 H :    0.182377
  30 H :    0.213837
  31 H :    0.115647
  32 H :    0.108350
  33 H :    0.121539
  34 H :    0.116301
  35 H :    0.112770
  36 H :    0.107992
  37 H :    0.102353
  38 H :    0.121869
  39 H :    0.112961
  40 H :    0.114196
Sum of atomic charges:   -0.0000000

LOEWDIN ATOMIC CHARGES
----------------------
   0 C :   -0.350397
   1 C :   -0.123133
   2 O :   -0.248770
   3 P :    0.568386
   4 S :   -0.313018
   5 O :   -0.229987
   6 C :   -0.117263
   7 C :   -0.366849
   8 S :    0.078874
   9 C :   -0.476888
  10 S :    0.060805
  11 P :    0.563285
  12 S :   -0.294106
  13 O :   -0.226451
  14 C :   -0.112982
  15 C :   -0.367239
  16 O :   -0.245395
  17 C :   -0.121350
  18 C :   -0.350204
  19 H :    0.127879
  20 H :    0.126246
  21 H :    0.130137
  22 H :    0.107402
  23 H :    0.106477
  24 H :    0.110065
  25 H :    0.118791
  26 H :    0.120327
  27 H :    0.129154
  28 H :    0.123637
  29 H :    0.137220
  30 H :    0.127876
  31 H :    0.103794
  32 H :    0.122624
  33 H :    0.127661
  34 H :    0.117167
  35 H :    0.131094
  36 H :    0.110025
  37 H :    0.108484
  38 H :    0.129701
  39 H :    0.131421
  40 H :    0.125501

  Mayer bond orders larger than 0.100000
B(  0-C ,  1-C ) :   1.1595 B(  0-C , 19-H ) :   0.9518 B(  0-C , 20-H ) :   0.9505
B(  0-C , 21-H ) :   0.9423 B(  1-C ,  2-O ) :   0.9078 B(  1-C , 22-H ) :   0.9277
B(  1-C , 23-H ) :   0.9070 B(  2-O ,  3-P ) :   1.0929 B(  3-P ,  4-S ) :   1.6087
B(  3-P ,  5-O ) :   1.1559 B(  3-P ,  8-S ) :   0.9569 B(  4-S ,  8-S ) :   0.1146
B(  5-O ,  6-C ) :   0.8993 B(  6-C ,  7-C ) :   1.1585 B(  6-C , 24-H ) :   0.9134
B(  6-C , 25-H ) :   0.9361 B(  7-C , 26-H ) :   0.9350 B(  7-C , 27-H ) :   0.9387
B(  7-C , 28-H ) :   0.9447 B(  8-S ,  9-C ) :   0.9922 B(  9-C , 10-S ) :   1.0058
B(  9-C , 29-H ) :   0.9111 B(  9-C , 30-H ) :   0.8463 B( 10-S , 11-P ) :   0.9342
B( 10-S , 12-S ) :   0.1053 B( 11-P , 12-S ) :   1.6458 B( 11-P , 13-O ) :   1.1587
B( 11-P , 16-O ) :   1.0879 B( 13-O , 14-C ) :   0.8948 B( 14-C , 15-C ) :   1.1693
B( 14-C , 31-H ) :   0.9107 B( 14-C , 32-H ) :   0.9354 B( 15-C , 33-H ) :   0.9427
B( 15-C , 34-H ) :   0.9389 B( 15-C , 35-H ) :   0.9356 B( 16-O , 17-C ) :   0.9026
B( 17-C , 18-C ) :   1.1601 B( 17-C , 36-H ) :   0.9074 B( 17-C , 37-H ) :   0.9293
B( 18-C , 38-H ) :   0.9507 B( 18-C , 39-H ) :   0.9418 B( 18-C , 40-H ) :   0.9515

Dispersion correction           -0.066324532
FINAL SINGLE POINT ENERGY     -2929.519877355484

DIPOLE MOMENT
-------------

Method             : SCF
Type of density    : Electron Density
Multiplicity       :   1
Irrep              :   0
Energy             : -2929.6387890236414933 Eh
Relativity type    :
Basis              : AO
                                X                 Y                 Z
Electronic contribution:     -0.498616636      -4.169647889     -11.076622143
Nuclear contribution   :      0.216690569       3.349508817      12.107038454
                        -----------------------------------------
Total Dipole Moment    :     -0.281926068      -0.820139071       1.030416312
                        -----------------------------------------
Magnitude (a.u.)       :      1.346799235
Magnitude (Debye)      :      3.423291602

Rotational constants in cm-1:             0.014073             0.004810             0.004608
Rotational constants in MHz :           421.902370           144.213726           138.131724

                             ****ORCA TERMINATED NORMALLY****
TOTAL RUN TIME: 0 days 0 hours 0 minutes 21 seconds 489 msec
