                         Program Version 6.0.0  -   RELEASE  -
|  1> ! pbe def2-sv(p) def2/J RI DEFGRID1 loosescf d4 GCP(DFT/SV(P)) printgap
|  2> %output
|  3>     printlevel normal
|  4> end
|  5> * xyz 0 1
|  6> C 2.9629522141 2.0766416977 0.8451452069
|  7> C 1.6295813881 1.6940437637 1.4525000074
|  8> O 1.468252866 0.2693394031 1.6218366243
|  9> P 1.6949808334 -0.8545471466 0.5239566798
| 10> S 0.8808514086 -2.5447095042 1.0723192575
| 11> O 3.2767364701 -0.9658334114 0.2942135024
| 12> C 4.0916131213 -1.9072207674 1.009894458
| 13> C 4.2731387089 -1.506807666 2.46062327
| 14> S 1.227224057 -0.0760613122 -1.3893543178
| 15> C -0.0658582921 -1.2441871342 -1.8893930206
| 16> S -1.6945411288 -0.497907264 -2.2346794788
| 17> P -1.9936396398 0.6903321702 -0.5026298843
| 18> S -3.8465569681 1.230570886 -0.1814350453
| 19> O -0.9455494625 1.8786070987 -0.6461114671
| 20> C -1.0536777501 2.8340102485 -1.723478973
| 21> C -1.7313468305 4.1032753689 -1.246668377
| 22> O -1.2560437804 -0.0776661362 0.680890508
| 23> C -2.0335368638 -0.7616257702 1.6835510675
| 24> C -2.6907479792 -2.0127176273 1.137099305
| 25> H 3.0584888451 1.6568416542 -0.1556613017
| 26> H 3.0231685729 3.1588769561 0.7817183901
| 27> H 3.7812950109 1.7093190157 1.4591313457
| 28> H 0.8010462173 2.053836703 0.838343668
| 29> H 1.5242287227 2.079582531 2.4683551453
| 30> H 3.626908364 -2.8962106345 0.9421621505
| 31> H 5.0379815538 -1.9065717284 0.4674898162
| 32> H 4.7314764399 -0.5238844498 2.5304859864
| 33> H 3.3040731294 -1.4812243172 2.9590058621
| 34> H 4.9069965556 -2.2336480849 2.9588502253
| 35> H -0.1686789785 -2.0036716195 -1.1101370358
| 36> H 0.2291975936 -1.6937036065 -2.8344179449
| 37> H -0.0238832707 3.0190247921 -2.0367788525
| 38> H -1.6083481318 2.3813184016 -2.5524291884
| 39> H -2.7491182196 3.8880971151 -0.9281486963
| 40> H -1.1857217272 4.5289333468 -0.4094037651
| 41> H -1.7586908817 4.8200476687 -2.0609033876
| 42> H -1.309814995 -0.998540647 2.465006385
| 43> H -2.7871211496 -0.0676066244 2.0667781144
| 44> H -1.9395459027 -2.7187470645 0.7908689938
| 45> H -3.2756449894 -2.4789236286 1.9232075949
| 46> H -3.3519722857 -1.7530044709 0.3103837454
| 47> *
| 48>
| 49>                          ****END OF INPUT****

CARTESIAN COORDINATES (ANGSTROEM)
---------------------------------
  C      2.962952    2.076642    0.845145
  C      1.629581    1.694044    1.452500
  O      1.468253    0.269339    1.621837
  P      1.694981   -0.854547    0.523957
  S      0.880851   -2.544710    1.072319
  O      3.276736   -0.965833    0.294214
  C      4.091613   -1.907221    1.009894
  C      4.273139   -1.506808    2.460623
  S      1.227224   -0.076061   -1.389354
  C     -0.065858   -1.244187   -1.889393
  S     -1.694541   -0.497907   -2.234679
  P     -1.993640    0.690332   -0.502630
  S     -3.846557    1.230571   -0.181435
  O     -0.945549    1.878607   -0.646111
  C     -1.053678    2.834010   -1.723479
  C     -1.731347    4.103275   -1.246668
  O     -1.256044   -0.077666    0.680891
  C     -2.033537   -0.761626    1.683551
  C     -2.690748   -2.012718    1.137099
  H      3.058489    1.656842   -0.155661
  H      3.023169    3.158877    0.781718
  H      3.781295    1.709319    1.459131
  H      0.801046    2.053837    0.838344
  H      1.524229    2.079583    2.468355
  H      3.626908   -2.896211    0.942162
  H      5.037982   -1.906572    0.467490
  H      4.731476   -0.523884    2.530486
  H      3.304073   -1.481224    2.959006
  H      4.906997   -2.233648    2.958850
  H     -0.168679   -2.003672   -1.110137
  H      0.229198   -1.693704   -2.834418
  H     -0.023883    3.019025   -2.036779
  H     -1.608348    2.381318   -2.552429
  H     -2.749118    3.888097   -0.928149
  H     -1.185722    4.528933   -0.409404
  H     -1.758691    4.820048   -2.060903
  H     -1.309815   -0.998541    2.465006
  H     -2.787121   -0.067607    2.066778
  H     -1.939546   -2.718747    0.790869
  H     -3.275645   -2.478924    1.923208
  H     -3.351972   -1.753004    0.310384

 Total Charge           Charge          ....    0
 Multiplicity           Mult            ....    1
 Number of Electrons    NEL             ....  202
 Basis Dimension        Dim             ....  334

ORBITAL ENERGIES
----------------

  NO   OCC          E(Eh)            E(eV)
   0   2.0000     -88.047734     -2395.9006
   1   2.0000     -88.044465     -2395.8117
   2   2.0000     -87.992147     -2394.3880
   3   2.0000     -87.987879     -2394.2719
   4   2.0000     -76.430634     -2079.7833
   5   2.0000     -76.427194     -2079.6897
   6   2.0000     -18.794836      -511.4335
   7   2.0000     -18.791432      -511.3409
   8   2.0000     -18.791271      -511.3365
   9   2.0000     -18.790725      -511.3216
  10   2.0000      -9.958941      -270.9966
  11   2.0000      -9.955514      -270.9033
  12   2.0000      -9.954527      -270.8764
  13   2.0000      -9.952078      -270.8098
  14   2.0000      -9.941279      -270.5160
  15   2.0000      -9.893209      -269.2079
  16   2.0000      -9.886624      -269.0287
  17   2.0000      -9.883087      -268.9325
  18   2.0000      -9.870868      -268.6000
  19   2.0000      -7.692598      -209.3262
  20   2.0000      -7.689585      -209.2442
  21   2.0000      -7.637210      -207.8191
  22   2.0000      -7.633043      -207.7057
  23   2.0000      -6.428046      -174.9160
  24   2.0000      -6.424704      -174.8251
  25   2.0000      -5.720576      -155.6648
  26   2.0000      -5.717811      -155.5896
  27   2.0000      -5.717367      -155.5775
  28   2.0000      -5.713705      -155.4778
  29   2.0000      -5.709149      -155.3538
  30   2.0000      -5.706642      -155.2856
  31   2.0000      -5.666130      -154.1832
  32   2.0000      -5.662011      -154.0712
  33   2.0000      -5.658206      -153.9676
  34   2.0000      -5.656842      -153.9305
  35   2.0000      -5.653801      -153.8478
  36   2.0000      -5.653010      -153.8262
  37   2.0000      -4.650786      -126.5543
  38   2.0000      -4.649552      -126.5207
  39   2.0000      -4.648703      -126.4976
  40   2.0000      -4.647109      -126.4543
  41   2.0000      -4.646924      -126.4492
  42   2.0000      -4.644892      -126.3939
  43   2.0000      -0.988149       -26.8889
  44   2.0000      -0.983850       -26.7719
  45   2.0000      -0.945760       -25.7354
  46   2.0000      -0.944340       -25.6968
  47   2.0000      -0.763654       -20.7801
  48   2.0000      -0.722567       -19.6620
  49   2.0000      -0.708693       -19.2845
  50   2.0000      -0.694929       -18.9100
  51   2.0000      -0.680638       -18.5211
  52   2.0000      -0.675854       -18.3909
  53   2.0000      -0.656873       -17.8744
  54   2.0000      -0.641674       -17.4608
  55   2.0000      -0.602689       -16.4000
  56   2.0000      -0.591958       -16.1080
  57   2.0000      -0.578999       -15.7554
  58   2.0000      -0.569940       -15.5088
  59   2.0000      -0.559584       -15.2270
  60   2.0000      -0.503658       -13.7052
  61   2.0000      -0.493014       -13.4156
  62   2.0000      -0.475958       -12.9515
  63   2.0000      -0.468137       -12.7387
  64   2.0000      -0.458340       -12.4721
  65   2.0000      -0.448603       -12.2071
  66   2.0000      -0.439117       -11.9490
  67   2.0000      -0.433832       -11.8052
  68   2.0000      -0.423113       -11.5135
  69   2.0000      -0.418921       -11.3994
  70   2.0000      -0.415892       -11.3170
  71   2.0000      -0.402292       -10.9469
  72   2.0000      -0.394518       -10.7354
  73   2.0000      -0.390506       -10.6262
  74   2.0000      -0.385571       -10.4919
  75   2.0000      -0.377033       -10.2596
  76   2.0000      -0.361012        -9.8236
  77   2.0000      -0.360621        -9.8130
  78   2.0000      -0.356747        -9.7076
  79   2.0000      -0.355350        -9.6696
  80   2.0000      -0.349366        -9.5067
  81   2.0000      -0.345750        -9.4083
  82   2.0000      -0.337941        -9.1958
  83   2.0000      -0.333709        -9.0807
  84   2.0000      -0.331138        -9.0107
  85   2.0000      -0.320908        -8.7323
  86   2.0000      -0.312468        -8.5027
  87   2.0000      -0.309574        -8.4239
  88   2.0000      -0.299184        -8.1412
  89   2.0000      -0.288712        -7.8563
  90   2.0000      -0.281314        -7.6549
  91   2.0000      -0.273713        -7.4481
  92   2.0000      -0.272635        -7.4188
  93   2.0000      -0.264635        -7.2011
  94   2.0000      -0.258024        -7.0212
  95   2.0000      -0.234492        -6.3808
  96   2.0000      -0.219784        -5.9806
  97   2.0000      -0.212084        -5.7711
  98   2.0000      -0.210026        -5.7151
  99   2.0000      -0.203636        -5.5412
 100   2.0000      -0.199140        -5.4189
 101   0.0000      -0.045714        -1.2439
 102   0.0000      -0.033632        -0.9152
 103   0.0000      -0.024228        -0.6593
 104   0.0000      -0.002486        -0.0676
 105   0.0000       0.016426         0.4470

MULLIKEN ATOMIC CHARGES
-----------------------
   0 C :   -0.331903
   1 C :   -0.026633
   2 O :   -0.372476
   3 P :    0.646444
   4 S :   -0.319930
   5 O :   -0.385388
   6 C :   -0.006670
   7 C :   -0.319439
   8 S :   -0.105538
   9 C :   -0.339588
  10 S :   -0.092547
  11 P :    0.589173
  12 S :   -0.309778
  13 O :   -0.356545
  14 C :   -0.010527
  15 C :   -0.282590
  16 O :   -0.373802
  17 C :    0.003586
  18 C :   -0.323256
  19 H :    0.130851
  20 H :    0.114771
  21 H :    0.122832
  22 H :    0.142861
  23 H :    0.107328
  24 H :    0.113654
  25 H :    0.104174
  26 H :    0.118659
  27 H :    0.128800
  28 H :    0.112499
  29 H :    0.206051
  30 H :    0.182633
  31 H :    0.102176
  32 H :    0.103307
  33 H :    0.128710
  34 H :    0.109164
  35 H :    0.107867
  36 H :    0.110929
  37 H :    0.111371
  38 H :    0.129493
  39 H :    0.107941
  40 H :    0.121334
Sum of atomic charges:    0.0000000

LOEWDIN ATOMIC CHARGES
----------------------
   0 C :   -0.367677
   1 C :   -0.121321
   2 O :   -0.235946
   3 P :    0.588623
   4 S :   -0.284278
   5 O :   -0.257160
   6 C :   -0.121051
   7 C :   -0.365613
   8 S :    0.092873
   9 C :   -0.478161
  10 S :    0.072821
  11 P :    0.566596
  12 S :   -0.309576
  13 O :   -0.237181
  14 C :   -0.121095
  15 C :   -0.360842
  16 O :   -0.237842
  17 C :   -0.125717
  18 C :   -0.372208
  19 H :    0.118181
  20 H :    0.132364
  21 H :    0.124949
  22 H :    0.116833
  23 H :    0.122050
  24 H :    0.109114
  25 H :    0.118145
  26 H :    0.121915
  27 H :    0.125490
  28 H :    0.130997
  29 H :    0.123546
  30 H :    0.139313
  31 H :    0.113181
  32 H :    0.105896
  33 H :    0.126522
  34 H :    0.123476
  35 H :    0.128803
  36 H :    0.117484
  37 H :    0.108374
  38 H :    0.118899
  39 H :    0.130623
  40 H :    0.118600

  Mayer bond orders larger than 0.100000
B(  0-C ,  1-C ) :   1.1638 B(  0-C , 19-H ) :   0.9346 B(  0-C , 20-H ) :   0.9352
B(  0-C , 21-H ) :   0.9402 B(  1-C ,  2-O ) :   0.8989 B(  1-C , 22-H ) :   0.9017
B(  1-C , 23-H ) :   0.9332 B(  2-O ,  3-P ) :   1.1190 B(  3-P ,  4-S ) :   1.5907
B(  3-P ,  5-O ) :   1.0748 B(  3-P ,  8-S ) :   0.9548 B(  4-S ,  8-S ) :   0.1066
B(  4-S , 29-H ) :   0.1053 B(  5-O ,  6-C ) :   0.9165 B(  6-C ,  7-C ) :   1.1599
B(  6-C , 24-H ) :   0.9121 B(  6-C , 25-H ) :   0.9341 B(  7-C , 26-H ) :   0.9430
B(  7-C , 27-H ) :   0.9367 B(  7-C , 28-H ) :   0.9387 B(  8-S ,  9-C ) :   1.0192
B(  9-C , 10-S ) :   0.9728 B(  9-C , 29-H ) :   0.8497 B(  9-C , 30-H ) :   0.9104
B( 10-S , 11-P ) :   0.9764 B( 11-P , 12-S ) :   1.6503 B( 11-P , 13-O ) :   1.0750
B( 11-P , 16-O ) :   1.1001 B( 13-O , 14-C ) :   0.8921 B( 14-C , 15-C ) :   1.1695
B( 14-C , 31-H ) :   0.9329 B( 14-C , 32-H ) :   0.9088 B( 15-C , 33-H ) :   0.9322
B( 15-C , 34-H ) :   0.9497 B( 15-C , 35-H ) :   0.9402 B( 16-O , 17-C ) :   0.8854
B( 17-C , 18-C ) :   1.1696 B( 17-C , 36-H ) :   0.9177 B( 17-C , 37-H ) :   0.9163
B( 18-C , 38-H ) :   0.9333 B( 18-C , 39-H ) :   0.9389 B( 18-C , 40-H ) :   0.9325

Dispersion correction           -0.069712891
FINAL SINGLE POINT ENERGY     -2929.516481714159

DIPOLE MOMENT
-------------

Method             : SCF
Type of density    : Electron Density
Multiplicity       :   1
Irrep              :   0
Energy             : -2929.6364764965514951 Eh
Relativity type    :
Basis              : AO
                                X                 Y                 Z
Electronic contribution:    -11.768485014      -7.589947754     -10.236193705
Nuclear contribution   :     13.412888629       8.229859321      10.290546775
                        -----------------------------------------
Total Dipole Moment    :      1.644403615       0.639911567       0.054353070
                        -----------------------------------------
Magnitude (a.u.)       :      1.765362376
Magnitude (Debye)      :      4.487194557

Rotational constants in cm-1:             0.012499             0.005856             0.005163
Rotational constants in MHz :           374.705054           175.565812           154.768894

                             ****ORCA TERMINATED NORMALLY****
TOTAL RUN TIME: 0 days 0 hours 0 minutes 22 seconds 649 msec
