                         Program Version 6.0.1  -  RELEASE   -
|  1> ! pbe def2-sv(p) def2/J RI DEFGRID1 loosescf d4 GCP(DFT/SV(P)) printgap
|  2> %output
|  3>     printlevel normal
|  4> end
|  5> * xyz 0 1
|  6> C 3.5553705703 -3.9822683392 -0.922368673
|  7> C 4.162808616 -2.6690002538 -1.3890503821
|  8> O 3.1635666866 -1.8366838067 -2.0124611817
|  9> C 2.4260111539 -1.0637816304 -1.246396564
| 10> O 2.5402074935 -0.9697596012 -0.0415606249
| 11> C 1.4148588587 -0.271914915 -2.0494969787
| 12> C 0.4097806691 0.3666489694 -1.1010592255
| 13> H -0.2433204303 1.0625253696 -1.6373148118
| 14> C 1.1505608686 1.1595443927 -0.0327880121
| 15> O 2.0712252695 1.8935896647 -0.3144918322
| 16> O 0.652082442 0.998273572 1.173658046
| 17> C 1.2813844578 1.7191777931 2.2527802364
| 18> C 0.8013544756 3.1597048702 2.3151728874
| 19> S -0.6471427334 -0.9180042128 -0.3585801336
| 20> P -2.2859683589 0.3231343354 0.2126839657
| 21> S -2.1086009996 2.2603503283 0.0038626559
| 22> O -3.5108103207 -0.196224446 -0.6415589054
| 23> C -3.9150224302 -1.5797541563 -0.6473758669
| 24> O -2.6955076913 -0.2106800217 1.6608952568
| 25> C -1.886911897 -0.0285562274 2.8261723737
| 26> H 2.8055270447 -3.7947289022 -0.1569922894
| 27> H 3.0878021198 -4.4956294423 -1.7577622105
| 28> H 4.3359004782 -4.6103780372 -0.5060735529
| 29> H 4.9082850644 -2.8273411913 -2.1682010454
| 30> H 4.598384196 -2.12099016 -0.5487874899
| 31> H 0.9275312747 -0.9230186891 -2.774013697
| 32> H 1.9547156695 0.5132210968 -2.583895588
| 33> H 1.0039730118 1.1630164244 3.1482166388
| 34> H 2.3630505708 1.6761514688 2.0980698607
| 35> H 1.2058912982 3.6339369686 3.2027884776
| 36> H 1.1352499915 3.7045049629 1.4352350583
| 37> H -0.2849538375 3.1978855106 2.3466705291
| 38> H -3.0428264046 -2.221458572 -0.7760873811
| 39> H -4.5942947726 -1.6759847089 -1.4903638295
| 40> H -4.4198352212 -1.8160077374 0.2868046004
| 41> H -1.7055431758 1.0327082664 2.9951625038
| 42> H -0.9394948008 -0.5538193095 2.7077256487
| 43> H -2.462503515 -0.4527333397 3.6455154217
| 44> *
| 45>
| 46>                          ****END OF INPUT****

CARTESIAN COORDINATES (ANGSTROEM)
---------------------------------
  C      3.555371   -3.982268   -0.922369
  C      4.162809   -2.669000   -1.389050
  O      3.163567   -1.836684   -2.012461
  C      2.426011   -1.063782   -1.246397
  O      2.540207   -0.969760   -0.041561
  C      1.414859   -0.271915   -2.049497
  C      0.409781    0.366649   -1.101059
  H     -0.243320    1.062525   -1.637315
  C      1.150561    1.159544   -0.032788
  O      2.071225    1.893590   -0.314492
  O      0.652082    0.998274    1.173658
  C      1.281384    1.719178    2.252780
  C      0.801354    3.159705    2.315173
  S     -0.647143   -0.918004   -0.358580
  P     -2.285968    0.323134    0.212684
  S     -2.108601    2.260350    0.003863
  O     -3.510810   -0.196224   -0.641559
  C     -3.915022   -1.579754   -0.647376
  O     -2.695508   -0.210680    1.660895
  C     -1.886912   -0.028556    2.826172
  H      2.805527   -3.794729   -0.156992
  H      3.087802   -4.495629   -1.757762
  H      4.335900   -4.610378   -0.506074
  H      4.908285   -2.827341   -2.168201
  H      4.598384   -2.120990   -0.548787
  H      0.927531   -0.923019   -2.774014
  H      1.954716    0.513221   -2.583896
  H      1.003973    1.163016    3.148217
  H      2.363051    1.676151    2.098070
  H      1.205891    3.633937    3.202788
  H      1.135250    3.704505    1.435235
  H     -0.284954    3.197886    2.346671
  H     -3.042826   -2.221459   -0.776087
  H     -4.594295   -1.675985   -1.490364
  H     -4.419835   -1.816008    0.286805
  H     -1.705543    1.032708    2.995163
  H     -0.939495   -0.553819    2.707726
  H     -2.462504   -0.452733    3.645515

 Total Charge           Charge          ....    0
 Multiplicity           Mult            ....    1
 Number of Electrons    NEL             ....  174
 Basis Dimension        Dim             ....  316

ORBITAL ENERGIES
----------------

  NO   OCC          E(Eh)            E(eV)
   0   2.0000     -88.037046     -2395.6098
   1   2.0000     -87.982460     -2394.1245
   2   2.0000     -76.423426     -2079.5871
   3   2.0000     -18.809560      -511.8342
   4   2.0000     -18.796366      -511.4751
   5   2.0000     -18.795008      -511.4382
   6   2.0000     -18.789319      -511.2834
   7   2.0000     -18.749856      -510.2095
   8   2.0000     -18.725925      -509.5583
   9   2.0000     -10.018094      -272.6062
  10   2.0000     -10.006807      -272.2991
  11   2.0000      -9.954255      -270.8691
  12   2.0000      -9.948969      -270.7252
  13   2.0000      -9.947732      -270.6915
  14   2.0000      -9.942292      -270.5435
  15   2.0000      -9.941062      -270.5101
  16   2.0000      -9.915815      -269.8230
  17   2.0000      -9.892690      -269.1938
  18   2.0000      -9.873729      -268.6778
  19   2.0000      -7.681436      -209.0225
  20   2.0000      -7.627658      -207.5591
  21   2.0000      -6.420912      -174.7219
  22   2.0000      -5.709194      -155.3551
  23   2.0000      -5.706207      -155.2738
  24   2.0000      -5.698380      -155.0608
  25   2.0000      -5.656827      -153.9301
  26   2.0000      -5.648214      -153.6957
  27   2.0000      -5.647587      -153.6787
  28   2.0000      -4.643629      -126.3596
  29   2.0000      -4.642780      -126.3365
  30   2.0000      -4.641182      -126.2930
  31   2.0000      -1.019358       -27.7381
  32   2.0000      -1.003859       -27.3164
  33   2.0000      -0.986515       -26.8444
  34   2.0000      -0.942736       -25.6531
  35   2.0000      -0.926330       -25.2067
  36   2.0000      -0.907467       -24.6934
  37   2.0000      -0.763018       -20.7628
  38   2.0000      -0.717664       -19.5286
  39   2.0000      -0.698849       -19.0166
  40   2.0000      -0.691126       -18.8065
  41   2.0000      -0.659483       -17.9454
  42   2.0000      -0.639824       -17.4105
  43   2.0000      -0.619743       -16.8641
  44   2.0000      -0.613801       -16.7024
  45   2.0000      -0.597936       -16.2707
  46   2.0000      -0.560657       -15.2563
  47   2.0000      -0.516221       -14.0471
  48   2.0000      -0.504878       -13.7384
  49   2.0000      -0.494705       -13.4616
  50   2.0000      -0.480037       -13.0625
  51   2.0000      -0.471146       -12.8205
  52   2.0000      -0.463874       -12.6226
  53   2.0000      -0.442453       -12.0398
  54   2.0000      -0.435825       -11.8594
  55   2.0000      -0.433245       -11.7892
  56   2.0000      -0.430199       -11.7063
  57   2.0000      -0.418970       -11.4008
  58   2.0000      -0.416355       -11.3296
  59   2.0000      -0.408619       -11.1191
  60   2.0000      -0.404263       -11.0006
  61   2.0000      -0.399943       -10.8830
  62   2.0000      -0.391282       -10.6473
  63   2.0000      -0.383442       -10.4340
  64   2.0000      -0.373207       -10.1555
  65   2.0000      -0.365715        -9.9516
  66   2.0000      -0.363867        -9.9013
  67   2.0000      -0.349020        -9.4973
  68   2.0000      -0.346267        -9.4224
  69   2.0000      -0.337152        -9.1744
  70   2.0000      -0.331356        -9.0166
  71   2.0000      -0.325496        -8.8572
  72   2.0000      -0.317002        -8.6261
  73   2.0000      -0.313959        -8.5433
  74   2.0000      -0.302182        -8.2228
  75   2.0000      -0.301153        -8.1948
  76   2.0000      -0.297407        -8.0929
  77   2.0000      -0.291092        -7.9210
  78   2.0000      -0.274011        -7.4562
  79   2.0000      -0.270861        -7.3705
  80   2.0000      -0.260006        -7.0751
  81   2.0000      -0.250975        -6.8294
  82   2.0000      -0.238231        -6.4826
  83   2.0000      -0.231370        -6.2959
  84   2.0000      -0.203135        -5.5276
  85   2.0000      -0.202332        -5.5057
  86   2.0000      -0.195294        -5.3142
  87   0.0000      -0.041733        -1.1356
  88   0.0000      -0.026513        -0.7215
  89   0.0000      -0.014327        -0.3898
  90   0.0000       0.005817         0.1583
  91   0.0000       0.017252         0.4695

MULLIKEN ATOMIC CHARGES
-----------------------
   0 C :   -0.307089
   1 C :   -0.012157
   2 O :   -0.224933
   3 C :    0.114896
   4 O :   -0.198900
   5 C :   -0.094969
   6 C :   -0.316489
   7 H :    0.155093
   8 C :    0.240709
   9 O :   -0.212303
  10 O :   -0.222076
  11 C :   -0.009009
  12 C :   -0.313718
  13 S :   -0.106683
  14 P :    0.618996
  15 S :   -0.311587
  16 O :   -0.359011
  17 C :   -0.107384
  18 O :   -0.391156
  19 C :   -0.117671
  20 H :    0.129070
  21 H :    0.115642
  22 H :    0.115731
  23 H :    0.106767
  24 H :    0.113239
  25 H :    0.126471
  26 H :    0.145366
  27 H :    0.091626
  28 H :    0.110711
  29 H :    0.104671
  30 H :    0.129456
  31 H :    0.127940
  32 H :    0.115992
  33 H :    0.131841
  34 H :    0.123810
  35 H :    0.129040
  36 H :    0.134496
  37 H :    0.123575
Sum of atomic charges:    0.0000000

LOEWDIN ATOMIC CHARGES
----------------------
   0 C :   -0.355915
   1 C :   -0.108698
   2 O :   -0.054130
   3 C :    0.037715
   4 O :   -0.153163
   5 C :   -0.249608
   6 C :   -0.268656
   7 H :    0.143196
   8 C :    0.019688
   9 O :   -0.171311
  10 O :   -0.054629
  11 C :   -0.105017
  12 C :   -0.361508
  13 S :    0.087962
  14 P :    0.570756
  15 S :   -0.298884
  16 O :   -0.244699
  17 C :   -0.211730
  18 O :   -0.255185
  19 C :   -0.211837
  20 H :    0.131291
  21 H :    0.125621
  22 H :    0.131995
  23 H :    0.119825
  24 H :    0.122111
  25 H :    0.142063
  26 H :    0.160793
  27 H :    0.109992
  28 H :    0.122020
  29 H :    0.126271
  30 H :    0.132701
  31 H :    0.121443
  32 H :    0.105165
  33 H :    0.126073
  34 H :    0.116933
  35 H :    0.114727
  36 H :    0.114966
  37 H :    0.121663

  Mayer bond orders larger than 0.100000
B(  0-C ,  1-C ) :   1.1737 B(  0-C , 20-H ) :   0.9460 B(  0-C , 21-H ) :   0.9486
B(  0-C , 22-H ) :   0.9439 B(  1-C ,  2-O ) :   0.9100 B(  1-C , 23-H ) :   0.9370
B(  1-C , 24-H ) :   0.9153 B(  2-O ,  3-C ) :   1.2518 B(  3-C ,  4-O ) :   1.9980
B(  3-C ,  5-C ) :   0.9952 B(  5-C ,  6-C ) :   1.0631 B(  5-C , 25-H ) :   0.9022
B(  5-C , 26-H ) :   0.8700 B(  6-C ,  7-H ) :   0.8489 B(  6-C ,  8-C ) :   0.8621
B(  6-C , 13-S ) :   1.0256 B(  8-C ,  9-O ) :   2.0364 B(  8-C , 10-O ) :   1.2557
B( 10-O , 11-C ) :   0.9168 B( 11-C , 12-C ) :   1.1755 B( 11-C , 27-H ) :   0.9335
B( 11-C , 28-H ) :   0.9187 B( 12-C , 29-H ) :   0.9424 B( 12-C , 30-H ) :   0.9410
B( 12-C , 31-H ) :   0.9361 B( 13-S , 14-P ) :   0.9552 B( 13-S , 15-S ) :   0.1180
B( 14-P , 15-S ) :   1.6451 B( 14-P , 16-O ) :   1.1300 B( 14-P , 18-O ) :   1.0775
B( 16-O , 17-C ) :   0.9207 B( 17-C , 32-H ) :   0.9342 B( 17-C , 33-H ) :   0.9601
B( 17-C , 34-H ) :   0.9500 B( 18-O , 19-C ) :   0.9320 B( 19-C , 35-H ) :   0.9390
B( 19-C , 36-H ) :   0.9405 B( 19-C , 37-H ) :   0.9548

Dispersion correction           -0.052451926
FINAL SINGLE POINT ENERGY     -1979.020323906203

DIPOLE MOMENT
-------------

Method             : SCF
Type of density    : Electron Density
Multiplicity       :   1
Irrep              :   0
Energy             : -1979.1504761223909554 Eh
Relativity type    :
Basis              : AO
                                X                 Y                 Z
Electronic contribution:    -11.801377333       7.367177739      -6.457465707
Nuclear contribution   :     12.131273260      -9.252607502       6.822675507
                        -----------------------------------------
Total Dipole Moment    :      0.329895928      -1.885429764       0.365209800
                        -----------------------------------------
Magnitude (a.u.)       :      1.948603324
Magnitude (Debye)      :      4.952956032

Rotational constants in cm-1:             0.013609             0.006776             0.005523
Rotational constants in MHz :           407.978339           203.131490           165.587902

                             ****ORCA TERMINATED NORMALLY****
TOTAL RUN TIME: 0 days 0 hours 0 minutes 31 seconds 867 msec
