                         Program Version 6.0.0  -   RELEASE  -
|  1> ! pbe def2-sv(p) def2/J RI DEFGRID1 loosescf d4 GCP(DFT/SV(P)) printgap
|  2> %output
|  3>     printlevel normal
|  4> end
|  5> * xyz 0 1
|  6> C 1.9848625767 2.6465923868 -1.4206783769
|  7> C 2.9124238231 1.8382028179 -0.5383730489
|  8> O 2.2021849422 1.412347255 0.6581203765
|  9> P 2.0923854732 -0.1031655918 1.0723090842
| 10> S 1.3249454811 -0.3732239089 2.8472477162
| 11> O 3.6054997654 -0.5771993181 0.9163193551
| 12> C 4.0070396878 -1.9114235144 1.2845929419
| 13> C 5.5197574312 -1.9332826451 1.3694059198
| 14> S 1.118239507 -1.0927334345 -0.5614975346
| 15> C -0.3371916077 -1.7248912788 0.314497788
| 16> S -1.4982610341 -0.4375036994 0.8207418702
| 17> P -2.1443106911 0.1576565631 -1.1290786566
| 18> S -1.9815441889 -1.2080646798 -2.5208231738
| 19> O -1.3309251308 1.4671292479 -1.4865456806
| 20> C -1.6395596963 2.7968485561 -1.0009551415
| 21> C -1.404505874 2.9383945863 0.4888177561
| 22> O -3.6072691221 0.7372706236 -0.9003779681
| 23> C -4.7805389427 -0.0929664938 -0.9658579168
| 24> C -4.8302359824 -1.1143832253 0.1515662878
| 25> H 1.1572476931 2.0292619254 -1.7634900436
| 26> H 1.5943087217 3.4974702603 -0.8695176051
| 27> H 2.5400768222 3.0019511181 -2.2831376905
| 28> H 3.7521134767 2.4373666175 -0.1831170718
| 29> H 3.2881270026 0.957660147 -1.0636818005
| 30> H 3.5476147105 -2.1592935584 2.2472385403
| 31> H 3.6386351817 -2.6027435964 0.5210087415
| 32> H 5.8463937976 -2.9311026144 1.642997447
| 33> H 5.9507503173 -1.663682856 0.4096351688
| 34> H 5.859933644 -1.2256206068 2.1200649291
| 35> H -0.029400819 -2.2287971141 1.2288435964
| 36> H -0.8233195017 -2.4070681052 -0.3824858651
| 37> H -0.9697200297 3.4361949284 -1.5778351226
| 38> H -2.6769961013 3.0224311841 -1.2531732028
| 39> H -0.3997510548 2.6139912339 0.7543037361
| 40> H -1.5265594005 3.9797980361 0.7700322452
| 41> H -2.1192281993 2.3359807013 1.0466413114
| 42> H -5.6047324097 0.6185518033 -0.8975201336
| 43> H -4.7956463955 -0.5900898227 -1.9406283516
| 44> H -4.6973248191 -0.6311578004 1.1163321635
| 45> H -5.7901537518 -1.6202614094 0.1307235287
| 46> H -4.0409413345 -1.8523714602 0.0167946211
| 47> *
| 48>
| 49>                          ****END OF INPUT****

CARTESIAN COORDINATES (ANGSTROEM)
---------------------------------
  C      1.984863    2.646592   -1.420678
  C      2.912424    1.838203   -0.538373
  O      2.202185    1.412347    0.658120
  P      2.092385   -0.103166    1.072309
  S      1.324945   -0.373224    2.847248
  O      3.605500   -0.577199    0.916319
  C      4.007040   -1.911424    1.284593
  C      5.519757   -1.933283    1.369406
  S      1.118240   -1.092733   -0.561498
  C     -0.337192   -1.724891    0.314498
  S     -1.498261   -0.437504    0.820742
  P     -2.144311    0.157657   -1.129079
  S     -1.981544   -1.208065   -2.520823
  O     -1.330925    1.467129   -1.486546
  C     -1.639560    2.796849   -1.000955
  C     -1.404506    2.938395    0.488818
  O     -3.607269    0.737271   -0.900378
  C     -4.780539   -0.092966   -0.965858
  C     -4.830236   -1.114383    0.151566
  H      1.157248    2.029262   -1.763490
  H      1.594309    3.497470   -0.869518
  H      2.540077    3.001951   -2.283138
  H      3.752113    2.437367   -0.183117
  H      3.288127    0.957660   -1.063682
  H      3.547615   -2.159294    2.247239
  H      3.638635   -2.602744    0.521009
  H      5.846394   -2.931103    1.642997
  H      5.950750   -1.663683    0.409635
  H      5.859934   -1.225621    2.120065
  H     -0.029401   -2.228797    1.228844
  H     -0.823320   -2.407068   -0.382486
  H     -0.969720    3.436195   -1.577835
  H     -2.676996    3.022431   -1.253173
  H     -0.399751    2.613991    0.754304
  H     -1.526559    3.979798    0.770032
  H     -2.119228    2.335981    1.046641
  H     -5.604732    0.618552   -0.897520
  H     -4.795646   -0.590090   -1.940628
  H     -4.697325   -0.631158    1.116332
  H     -5.790154   -1.620261    0.130724
  H     -4.040941   -1.852371    0.016795

 Total Charge           Charge          ....    0
 Multiplicity           Mult            ....    1
 Number of Electrons    NEL             ....  202
 Basis Dimension        Dim             ....  334

ORBITAL ENERGIES
----------------

  NO   OCC          E(Eh)            E(eV)
   0   2.0000     -88.039375     -2395.6732
   1   2.0000     -88.037506     -2395.6223
   2   2.0000     -87.987474     -2394.2609
   3   2.0000     -87.984621     -2394.1833
   4   2.0000     -76.425565     -2079.6454
   5   2.0000     -76.425312     -2079.6385
   6   2.0000     -18.796374      -511.4753
   7   2.0000     -18.794260      -511.4178
   8   2.0000     -18.792277      -511.3639
   9   2.0000     -18.789069      -511.2766
  10   2.0000      -9.959169      -271.0028
  11   2.0000      -9.954955      -270.8881
  12   2.0000      -9.954120      -270.8654
  13   2.0000      -9.952816      -270.8299
  14   2.0000      -9.951167      -270.7850
  15   2.0000      -9.889077      -269.0955
  16   2.0000      -9.887024      -269.0396
  17   2.0000      -9.884128      -268.9608
  18   2.0000      -9.882304      -268.9112
  19   2.0000      -7.683928      -209.0903
  20   2.0000      -7.681971      -209.0371
  21   2.0000      -7.632720      -207.6969
  22   2.0000      -7.629887      -207.6198
  23   2.0000      -6.423237      -174.7852
  24   2.0000      -6.422734      -174.7715
  25   2.0000      -5.711783      -155.4255
  26   2.0000      -5.709879      -155.3737
  27   2.0000      -5.708437      -155.3345
  28   2.0000      -5.706572      -155.2837
  29   2.0000      -5.701044      -155.1333
  30   2.0000      -5.698913      -155.0753
  31   2.0000      -5.661718      -154.0632
  32   2.0000      -5.658834      -153.9847
  33   2.0000      -5.653191      -153.8312
  34   2.0000      -5.652912      -153.8236
  35   2.0000      -5.650454      -153.7567
  36   2.0000      -5.650043      -153.7455
  37   2.0000      -4.645982      -126.4236
  38   2.0000      -4.645822      -126.4192
  39   2.0000      -4.644952      -126.3956
  40   2.0000      -4.644162      -126.3741
  41   2.0000      -4.643556      -126.3576
  42   2.0000      -4.643053      -126.3439
  43   2.0000      -0.989790       -26.9335
  44   2.0000      -0.988663       -26.9029
  45   2.0000      -0.944965       -25.7138
  46   2.0000      -0.943843       -25.6833
  47   2.0000      -0.759700       -20.6725
  48   2.0000      -0.720577       -19.6079
  49   2.0000      -0.711057       -19.3488
  50   2.0000      -0.692767       -18.8511
  51   2.0000      -0.690045       -18.7771
  52   2.0000      -0.673431       -18.3250
  53   2.0000      -0.648914       -17.6579
  54   2.0000      -0.636862       -17.3299
  55   2.0000      -0.596890       -16.2422
  56   2.0000      -0.584780       -15.9127
  57   2.0000      -0.578259       -15.7352
  58   2.0000      -0.573805       -15.6140
  59   2.0000      -0.559414       -15.2224
  60   2.0000      -0.511424       -13.9166
  61   2.0000      -0.496185       -13.5019
  62   2.0000      -0.482177       -13.1207
  63   2.0000      -0.470172       -12.7940
  64   2.0000      -0.460248       -12.5240
  65   2.0000      -0.449915       -12.2428
  66   2.0000      -0.442610       -12.0440
  67   2.0000      -0.436552       -11.8792
  68   2.0000      -0.425534       -11.5794
  69   2.0000      -0.423698       -11.5294
  70   2.0000      -0.408881       -11.1262
  71   2.0000      -0.398300       -10.8383
  72   2.0000      -0.386470       -10.5164
  73   2.0000      -0.382659       -10.4127
  74   2.0000      -0.374476       -10.1900
  75   2.0000      -0.371486       -10.1086
  76   2.0000      -0.368549       -10.0287
  77   2.0000      -0.358415        -9.7530
  78   2.0000      -0.355291        -9.6680
  79   2.0000      -0.351427        -9.5628
  80   2.0000      -0.349618        -9.5136
  81   2.0000      -0.347645        -9.4599
  82   2.0000      -0.341440        -9.2911
  83   2.0000      -0.338685        -9.2161
  84   2.0000      -0.336081        -9.1452
  85   2.0000      -0.320412        -8.7188
  86   2.0000      -0.308135        -8.3848
  87   2.0000      -0.304052        -8.2737
  88   2.0000      -0.299865        -8.1598
  89   2.0000      -0.297251        -8.0886
  90   2.0000      -0.293891        -7.9972
  91   2.0000      -0.276649        -7.5280
  92   2.0000      -0.271068        -7.3761
  93   2.0000      -0.261221        -7.1082
  94   2.0000      -0.255489        -6.9522
  95   2.0000      -0.233407        -6.3513
  96   2.0000      -0.213373        -5.8062
  97   2.0000      -0.209495        -5.7007
  98   2.0000      -0.207304        -5.6410
  99   2.0000      -0.200917        -5.4672
 100   2.0000      -0.192968        -5.2509
 101   0.0000      -0.042998        -1.1700
 102   0.0000      -0.028221        -0.7679
 103   0.0000      -0.002353        -0.0640
 104   0.0000       0.003439         0.0936
 105   0.0000       0.005573         0.1517

MULLIKEN ATOMIC CHARGES
-----------------------
   0 C :   -0.318236
   1 C :   -0.017600
   2 O :   -0.358416
   3 P :    0.599505
   4 S :   -0.307083
   5 O :   -0.384757
   6 C :   -0.007177
   7 C :   -0.279328
   8 S :   -0.099684
   9 C :   -0.341657
  10 S :   -0.080931
  11 P :    0.619807
  12 S :   -0.323717
  13 O :   -0.364505
  14 C :   -0.002664
  15 C :   -0.333893
  16 O :   -0.388330
  17 C :   -0.001010
  18 C :   -0.313242
  19 H :    0.154137
  20 H :    0.120316
  21 H :    0.111043
  22 H :    0.112466
  23 H :    0.109887
  24 H :    0.102766
  25 H :    0.099484
  26 H :    0.112384
  27 H :    0.114455
  28 H :    0.120518
  29 H :    0.181804
  30 H :    0.189775
  31 H :    0.109880
  32 H :    0.110971
  33 H :    0.144215
  34 H :    0.110151
  35 H :    0.122827
  36 H :    0.104268
  37 H :    0.113961
  38 H :    0.119043
  39 H :    0.113161
  40 H :    0.125409
Sum of atomic charges:   -0.0000000

LOEWDIN ATOMIC CHARGES
----------------------
   0 C :   -0.362101
   1 C :   -0.109538
   2 O :   -0.237982
   3 P :    0.566878
   4 S :   -0.302572
   5 O :   -0.254104
   6 C :   -0.122285
   7 C :   -0.349963
   8 S :    0.064081
   9 C :   -0.483703
  10 S :    0.092595
  11 P :    0.573579
  12 S :   -0.314963
  13 O :   -0.238773
  14 C :   -0.110935
  15 C :   -0.371017
  16 O :   -0.248067
  17 C :   -0.116550
  18 C :   -0.369949
  19 H :    0.132893
  20 H :    0.125536
  21 H :    0.130833
  22 H :    0.121133
  23 H :    0.109093
  24 H :    0.107661
  25 H :    0.107034
  26 H :    0.131081
  27 H :    0.125768
  28 H :    0.128921
  29 H :    0.129016
  30 H :    0.128592
  31 H :    0.117985
  32 H :    0.113974
  33 H :    0.129852
  34 H :    0.130154
  35 H :    0.118113
  36 H :    0.118301
  37 H :    0.113015
  38 H :    0.124461
  39 H :    0.131133
  40 H :    0.120822

  Mayer bond orders larger than 0.100000
B(  0-C ,  1-C ) :   1.1655 B(  0-C , 19-H ) :   0.9251 B(  0-C , 20-H ) :   0.9413
B(  0-C , 21-H ) :   0.9370 B(  1-C ,  2-O ) :   0.8895 B(  1-C , 22-H ) :   0.9343
B(  1-C , 23-H ) :   0.9176 B(  2-O ,  3-P ) :   1.1325 B(  3-P ,  4-S ) :   1.6490
B(  3-P ,  5-O ) :   1.0747 B(  3-P ,  8-S ) :   0.9398 B(  4-S ,  8-S ) :   0.1147
B(  5-O ,  6-C ) :   0.9067 B(  6-C ,  7-C ) :   1.1610 B(  6-C , 24-H ) :   0.9109
B(  6-C , 25-H ) :   0.9239 B(  7-C , 26-H ) :   0.9420 B(  7-C , 27-H ) :   0.9514
B(  7-C , 28-H ) :   0.9510 B(  8-S ,  9-C ) :   1.0033 B(  9-C , 10-S ) :   1.0134
B(  9-C , 29-H ) :   0.8875 B(  9-C , 30-H ) :   0.8769 B( 10-S , 11-P ) :   0.9436
B( 10-S , 12-S ) :   0.1123 B( 11-P , 12-S ) :   1.6266 B( 11-P , 13-O ) :   1.1198
B( 11-P , 16-O ) :   1.0739 B( 13-O , 14-C ) :   0.8921 B( 14-C , 15-C ) :   1.1723
B( 14-C , 31-H ) :   0.9290 B( 14-C , 32-H ) :   0.9245 B( 15-C , 33-H ) :   0.9298
B( 15-C , 34-H ) :   0.9360 B( 15-C , 35-H ) :   0.9370 B( 16-O , 17-C ) :   0.9055
B( 17-C , 18-C ) :   1.1670 B( 17-C , 36-H ) :   0.9342 B( 17-C , 37-H ) :   0.9178
B( 18-C , 38-H ) :   0.9437 B( 18-C , 39-H ) :   0.9366 B( 18-C , 40-H ) :   0.9348

Dispersion correction           -0.065236231
FINAL SINGLE POINT ENERGY     -2929.522301070012

DIPOLE MOMENT
-------------

Method             : SCF
Type of density    : Electron Density
Multiplicity       :   1
Irrep              :   0
Energy             : -2929.6425883975207398 Eh
Relativity type    :
Basis              : AO
                                X                 Y                 Z
Electronic contribution:     -3.365690879      -7.079451137      -0.008814013
Nuclear contribution   :      3.561854961       7.609099930      -0.175251389
                        -----------------------------------------
Total Dipole Moment    :      0.196164082       0.529648794      -0.184065402
                        -----------------------------------------
Magnitude (a.u.)       :      0.594043992
Magnitude (Debye)      :      1.509939830

Rotational constants in cm-1:             0.013138             0.004837             0.004491
Rotational constants in MHz :           393.876867           144.994873           134.622080

                             ****ORCA TERMINATED NORMALLY****
TOTAL RUN TIME: 0 days 0 hours 0 minutes 21 seconds 392 msec
