                         Program Version 6.0.0  -   RELEASE  -
|  1> ! pbe def2-sv(p) def2/J RI DEFGRID1 loosescf d4 GCP(DFT/SV(P)) printgap
|  2> %output
|  3>     printlevel normal
|  4> end
|  5> * xyz 0 1
|  6> C 3.9920472123 -0.6573787506 -2.6915088014
|  7> C 4.2890552524 0.3916088918 -1.639577866
|  8> O 3.7709110224 0.022870474 -0.3502858141
|  9> P 2.213889935 -0.0725850892 -0.0526786643
| 10> S 1.1643672991 1.3576917456 -0.8999129183
| 11> O 2.1643431996 -0.1357270137 1.5272725652
| 12> C 2.0974115602 1.0404571826 2.358061534
| 13> C 3.3527176022 1.8793663715 2.2556412222
| 14> S 1.7917510328 -2.0979598909 -0.4646006618
| 15> C 0.0440108959 -2.165819269 -0.0020948104
| 16> S -1.052381409 -1.393936278 -1.2467178465
| 17> P -2.2188839716 -0.2215680295 0.059581582
| 18> S -1.3538591749 0.451675787 1.6929760767
| 19> O -3.3866354288 -1.2517070818 0.3444663365
| 20> C -4.2774745708 -1.1222645066 1.4713941925
| 21> C -5.1799223454 0.085940497 1.3393009248
| 22> O -2.9417174295 0.8158062664 -0.8941668405
| 23> C -2.3801172606 2.0459547639 -1.3918795189
| 24> C -2.6753303222 3.1949024421 -0.4473471195
| 25> H 4.3325714047 -1.6342185827 -2.3573611854
| 26> H 2.918873989 -0.7063201289 -2.8750054629
| 27> H 4.4953922873 -0.3938929439 -3.6161781983
| 28> H 3.854289498 1.3552496175 -1.9250599634
| 29> H 5.3606598421 0.5021597121 -1.4691388456
| 30> H 1.2130943797 1.6186249855 2.0712130316
| 31> H 1.9533319238 0.6385809031 3.3618783285
| 32> H 3.4346854975 2.3039183325 1.2557343862
| 33> H 3.3028500573 2.6871854998 2.9789405715
| 34> H 4.2291070327 1.2672091146 2.4519954666
| 35> H -0.09891621 -1.6562459367 0.9540901806
| 36> H -0.2042612013 -3.2212941881 0.0673598765
| 37> H -4.8417775106 -2.0554733777 1.4644273643
| 38> H -3.6745587905 -1.0558862355 2.3829506543
| 39> H -5.9012055324 0.0887985482 2.1505175097
| 40> H -4.5845134798 0.9966664853 1.3906045308
| 41> H -5.7025227363 0.0611078977 0.3867412303
| 42> H -1.3034591384 1.9306558517 -1.5395472456
| 43> H -2.8654167121 2.1897399625 -2.3587987218
| 44> H -2.1952415573 3.0235762061 0.5140380691
| 45> H -2.2834496248 4.112606498 -0.8734925812
| 46> H -3.7470211189 3.2938662184 -0.2968449627
| 47> *
| 48>
| 49>                          ****END OF INPUT****

CARTESIAN COORDINATES (ANGSTROEM)
---------------------------------
  C      3.992047   -0.657379   -2.691509
  C      4.289055    0.391609   -1.639578
  O      3.770911    0.022870   -0.350286
  P      2.213890   -0.072585   -0.052679
  S      1.164367    1.357692   -0.899913
  O      2.164343   -0.135727    1.527273
  C      2.097412    1.040457    2.358062
  C      3.352718    1.879366    2.255641
  S      1.791751   -2.097960   -0.464601
  C      0.044011   -2.165819   -0.002095
  S     -1.052381   -1.393936   -1.246718
  P     -2.218884   -0.221568    0.059582
  S     -1.353859    0.451676    1.692976
  O     -3.386635   -1.251707    0.344466
  C     -4.277475   -1.122265    1.471394
  C     -5.179922    0.085940    1.339301
  O     -2.941717    0.815806   -0.894167
  C     -2.380117    2.045955   -1.391880
  C     -2.675330    3.194902   -0.447347
  H      4.332571   -1.634219   -2.357361
  H      2.918874   -0.706320   -2.875005
  H      4.495392   -0.393893   -3.616178
  H      3.854289    1.355250   -1.925060
  H      5.360660    0.502160   -1.469139
  H      1.213094    1.618625    2.071213
  H      1.953332    0.638581    3.361878
  H      3.434685    2.303918    1.255734
  H      3.302850    2.687185    2.978941
  H      4.229107    1.267209    2.451995
  H     -0.098916   -1.656246    0.954090
  H     -0.204261   -3.221294    0.067360
  H     -4.841778   -2.055473    1.464427
  H     -3.674559   -1.055886    2.382951
  H     -5.901206    0.088799    2.150518
  H     -4.584513    0.996666    1.390605
  H     -5.702523    0.061108    0.386741
  H     -1.303459    1.930656   -1.539547
  H     -2.865417    2.189740   -2.358799
  H     -2.195242    3.023576    0.514038
  H     -2.283450    4.112606   -0.873493
  H     -3.747021    3.293866   -0.296845

 Total Charge           Charge          ....    0
 Multiplicity           Mult            ....    1
 Number of Electrons    NEL             ....  202
 Basis Dimension        Dim             ....  334

ORBITAL ENERGIES
----------------

  NO   OCC          E(Eh)            E(eV)
   0   2.0000     -88.041404     -2395.7284
   1   2.0000     -88.035214     -2395.5600
   2   2.0000     -87.986700     -2394.2398
   3   2.0000     -87.983218     -2394.1451
   4   2.0000     -76.424292     -2079.6107
   5   2.0000     -76.423966     -2079.6018
   6   2.0000     -18.792108      -511.3592
   7   2.0000     -18.791736      -511.3491
   8   2.0000     -18.786036      -511.1940
   9   2.0000     -18.784117      -511.1418
  10   2.0000      -9.953501      -270.8485
  11   2.0000      -9.951274      -270.7879
  12   2.0000      -9.948706      -270.7181
  13   2.0000      -9.948115      -270.7020
  14   2.0000      -9.943144      -270.5667
  15   2.0000      -9.883283      -268.9378
  16   2.0000      -9.882043      -268.9041
  17   2.0000      -9.878783      -268.8153
  18   2.0000      -9.878468      -268.8068
  19   2.0000      -7.686907      -209.1714
  20   2.0000      -7.680767      -209.0043
  21   2.0000      -7.631376      -207.6603
  22   2.0000      -7.627861      -207.5646
  23   2.0000      -6.421839      -174.7471
  24   2.0000      -6.421457      -174.7367
  25   2.0000      -5.714765      -155.5067
  26   2.0000      -5.711460      -155.4167
  27   2.0000      -5.708748      -155.3429
  28   2.0000      -5.705496      -155.2544
  29   2.0000      -5.703768      -155.2074
  30   2.0000      -5.697333      -155.0323
  31   2.0000      -5.660072      -154.0184
  32   2.0000      -5.656644      -153.9251
  33   2.0000      -5.652275      -153.8062
  34   2.0000      -5.651467      -153.7842
  35   2.0000      -5.648517      -153.7040
  36   2.0000      -5.648162      -153.6943
  37   2.0000      -4.644289      -126.3775
  38   2.0000      -4.643956      -126.3685
  39   2.0000      -4.643537      -126.3571
  40   2.0000      -4.643230      -126.3487
  41   2.0000      -4.642489      -126.3285
  42   2.0000      -4.642000      -126.3153
  43   2.0000      -0.984335       -26.7851
  44   2.0000      -0.983856       -26.7721
  45   2.0000      -0.943551       -25.6753
  46   2.0000      -0.942054       -25.6346
  47   2.0000      -0.759538       -20.6681
  48   2.0000      -0.719910       -19.5898
  49   2.0000      -0.704877       -19.1807
  50   2.0000      -0.684929       -18.6379
  51   2.0000      -0.683835       -18.6081
  52   2.0000      -0.669758       -18.2250
  53   2.0000      -0.651553       -17.7297
  54   2.0000      -0.635114       -17.2823
  55   2.0000      -0.600782       -16.3481
  56   2.0000      -0.591939       -16.1075
  57   2.0000      -0.570111       -15.5135
  58   2.0000      -0.567272       -15.4362
  59   2.0000      -0.558356       -15.1936
  60   2.0000      -0.498029       -13.5521
  61   2.0000      -0.488034       -13.2801
  62   2.0000      -0.471223       -12.8226
  63   2.0000      -0.470150       -12.7934
  64   2.0000      -0.448662       -12.2087
  65   2.0000      -0.442667       -12.0456
  66   2.0000      -0.437788       -11.9128
  67   2.0000      -0.434109       -11.8127
  68   2.0000      -0.424766       -11.5585
  69   2.0000      -0.413594       -11.2545
  70   2.0000      -0.405464       -11.0332
  71   2.0000      -0.399323       -10.8661
  72   2.0000      -0.390506       -10.6262
  73   2.0000      -0.386655       -10.5214
  74   2.0000      -0.381536       -10.3821
  75   2.0000      -0.375003       -10.2044
  76   2.0000      -0.368822       -10.0361
  77   2.0000      -0.354570        -9.6483
  78   2.0000      -0.351674        -9.5695
  79   2.0000      -0.345738        -9.4080
  80   2.0000      -0.345358        -9.3977
  81   2.0000      -0.340906        -9.2765
  82   2.0000      -0.337008        -9.1705
  83   2.0000      -0.332716        -9.0537
  84   2.0000      -0.331091        -9.0094
  85   2.0000      -0.313962        -8.5434
  86   2.0000      -0.308036        -8.3821
  87   2.0000      -0.294578        -8.0159
  88   2.0000      -0.292528        -7.9601
  89   2.0000      -0.282703        -7.6927
  90   2.0000      -0.278450        -7.5770
  91   2.0000      -0.270241        -7.3536
  92   2.0000      -0.268975        -7.3192
  93   2.0000      -0.262073        -7.1314
  94   2.0000      -0.260659        -7.0929
  95   2.0000      -0.240767        -6.5516
  96   2.0000      -0.223339        -6.0774
  97   2.0000      -0.206781        -5.6268
  98   2.0000      -0.203395        -5.5347
  99   2.0000      -0.190992        -5.1972
 100   2.0000      -0.188297        -5.1238
 101   0.0000      -0.037733        -1.0268
 102   0.0000      -0.029986        -0.8160
 103   0.0000      -0.011054        -0.3008
 104   0.0000       0.006824         0.1857
 105   0.0000       0.024129         0.6566

MULLIKEN ATOMIC CHARGES
-----------------------
   0 C :   -0.323283
   1 C :   -0.003073
   2 O :   -0.372393
   3 P :    0.629308
   4 S :   -0.340737
   5 O :   -0.366796
   6 C :   -0.010658
   7 C :   -0.304615
   8 S :   -0.084401
   9 C :   -0.356026
  10 S :   -0.069927
  11 P :    0.620839
  12 S :   -0.334464
  13 O :   -0.366553
  14 C :   -0.002934
  15 C :   -0.313096
  16 O :   -0.374444
  17 C :   -0.021523
  18 C :   -0.304169
  19 H :    0.120238
  20 H :    0.131795
  21 H :    0.114113
  22 H :    0.110416
  23 H :    0.105243
  24 H :    0.127720
  25 H :    0.103382
  26 H :    0.119979
  27 H :    0.110255
  28 H :    0.115033
  29 H :    0.194618
  30 H :    0.185517
  31 H :    0.103690
  32 H :    0.108076
  33 H :    0.110283
  34 H :    0.126499
  35 H :    0.117756
  36 H :    0.136799
  37 H :    0.104316
  38 H :    0.129964
  39 H :    0.109394
  40 H :    0.113858
Sum of atomic charges:    0.0000000

LOEWDIN ATOMIC CHARGES
----------------------
   0 C :   -0.371427
   1 C :   -0.120343
   2 O :   -0.241928
   3 P :    0.575430
   4 S :   -0.318872
   5 O :   -0.237411
   6 C :   -0.119514
   7 C :   -0.365633
   8 S :    0.093605
   9 C :   -0.478289
  10 S :    0.083011
  11 P :    0.573956
  12 S :   -0.308251
  13 O :   -0.245495
  14 C :   -0.118583
  15 C :   -0.365752
  16 O :   -0.238664
  17 C :   -0.115217
  18 C :   -0.363059
  19 H :    0.124482
  20 H :    0.123137
  21 H :    0.131792
  22 H :    0.109855
  23 H :    0.118728
  24 H :    0.109221
  25 H :    0.118926
  26 H :    0.121203
  27 H :    0.129737
  28 H :    0.125352
  29 H :    0.122771
  30 H :    0.137560
  31 H :    0.118114
  32 H :    0.108294
  33 H :    0.129537
  34 H :    0.122843
  35 H :    0.126709
  36 H :    0.107946
  37 H :    0.118460
  38 H :    0.124785
  39 H :    0.130044
  40 H :    0.122940

  Mayer bond orders larger than 0.100000
B(  0-C ,  1-C ) :   1.1662 B(  0-C , 19-H ) :   0.9436 B(  0-C , 20-H ) :   0.9335
B(  0-C , 21-H ) :   0.9377 B(  1-C ,  2-O ) :   0.9072 B(  1-C , 22-H ) :   0.9139
B(  1-C , 23-H ) :   0.9331 B(  2-O ,  3-P ) :   1.1037 B(  3-P ,  4-S ) :   1.6028
B(  3-P ,  5-O ) :   1.1324 B(  3-P ,  8-S ) :   0.9643 B(  4-S ,  8-S ) :   0.1170
B(  5-O ,  6-C ) :   0.8992 B(  6-C ,  7-C ) :   1.1624 B(  6-C , 24-H ) :   0.9093
B(  6-C , 25-H ) :   0.9362 B(  7-C , 26-H ) :   0.9366 B(  7-C , 27-H ) :   0.9391
B(  7-C , 28-H ) :   0.9450 B(  8-S ,  9-C ) :   1.0032 B(  9-C , 10-S ) :   0.9893
B(  9-C , 29-H ) :   0.8546 B(  9-C , 30-H ) :   0.9114 B( 10-S , 11-P ) :   0.9791
B( 10-S , 12-S ) :   0.1163 B( 11-P , 12-S ) :   1.5709 B( 11-P , 13-O ) :   1.1248
B( 11-P , 16-O ) :   1.1283 B( 13-O , 14-C ) :   0.9134 B( 14-C , 15-C ) :   1.1640
B( 14-C , 31-H ) :   0.9347 B( 14-C , 32-H ) :   0.9145 B( 15-C , 33-H ) :   0.9382
B( 15-C , 34-H ) :   0.9348 B( 15-C , 35-H ) :   0.9462 B( 16-O , 17-C ) :   0.8926
B( 17-C , 18-C ) :   1.1709 B( 17-C , 36-H ) :   0.9051 B( 17-C , 37-H ) :   0.9347
B( 18-C , 38-H ) :   0.9332 B( 18-C , 39-H ) :   0.9393 B( 18-C , 40-H ) :   0.9448

Dispersion correction           -0.066606716
FINAL SINGLE POINT ENERGY     -2929.519977529457

DIPOLE MOMENT
-------------

Method             : SCF
Type of density    : Electron Density
Multiplicity       :   1
Irrep              :   0
Energy             : -2929.6380652679872583 Eh
Relativity type    :
Basis              : AO
                                X                 Y                 Z
Electronic contribution:      2.154597698     -14.491812059      -3.829077783
Nuclear contribution   :     -2.182096957      14.701165662       3.894093007
                        -----------------------------------------
Total Dipole Moment    :     -0.027499258       0.209353603       0.065015223
                        -----------------------------------------
Magnitude (a.u.)       :      0.220934650
Magnitude (Debye)      :      0.561571251

Rotational constants in cm-1:             0.012869             0.005016             0.004762
Rotational constants in MHz :           385.809725           150.363667           142.772575

                             ****ORCA TERMINATED NORMALLY****
TOTAL RUN TIME: 0 days 0 hours 0 minutes 20 seconds 695 msec
