                         Program Version 6.0.1  -  RELEASE   -
|  1> ! pbe def2-sv(p) def2/J RI DEFGRID1 loosescf d4 GCP(DFT/SV(P)) printgap
|  2> %output
|  3>     printlevel normal
|  4> end
|  5> * xyz 0 1
|  6> C 5.0154672544 -0.1239223923 -0.9193567562
|  7> C 4.4660162948 -1.4363848131 -1.45444457
|  8> O 3.0282562371 -1.3866025233 -1.5278982915
|  9> C 2.3250313333 -1.9202639763 -0.541963571
| 10> O 2.7974578688 -2.5297402795 0.3895077845
| 11> C 0.8325922245 -1.7558816113 -0.7715704715
| 12> C 0.497241388 -0.3155184256 -1.1396347628
| 13> H 1.0093775188 -0.0533583159 -2.0729654467
| 14> C 0.9996662572 0.6609470011 -0.0918212075
| 15> O 2.0135875847 0.4623294501 0.5361238458
| 16> O 0.27944414 1.7645522497 -0.0386732
| 17> C 0.7586928473 2.8521373273 0.7814117013
| 18> C 0.3762254247 2.6885061232 2.2415212886
| 19> S -1.2651091932 -0.0827453473 -1.5251609699
| 20> P -2.0957232528 0.1711686866 0.4140092239
| 21> S -1.1160846359 -0.5797425616 1.9382104068
| 22> O -2.4568010291 1.6956521086 0.6071714196
| 23> C -3.2263528849 2.4294345088 -0.3673131954
| 24> O -3.5612569379 -0.4405755075 0.2075616938
| 25> C -3.7654937659 -1.8471404767 0.0387739979
| 26> H 4.76770115 0.6917599557 -1.5927563335
| 27> H 4.5797000254 0.083765502 0.0559316495
| 28> H 6.0934718062 -0.195809437 -0.8215813325
| 29> H 4.7500902541 -2.2700284133 -0.8062424227
| 30> H 4.7946568255 -1.6201603392 -2.478256317
| 31> H 0.3220660498 -2.0589769968 0.1445509972
| 32> H 0.5366695066 -2.4160328117 -1.5883603956
| 33> H 1.8462076139 2.8970569675 0.675022735
| 34> H 0.2911110149 3.7343483383 0.34408797
| 35> H 0.841275528 1.7958788873 2.6559957868
| 36> H 0.7167949338 3.5552717386 2.7979960651
| 37> H -0.7021931793 2.5936632702 2.3437183629
| 38> H -2.7358798232 2.3808805227 -1.3393327303
| 39> H -3.2524603299 3.4511405312 0.0020896461
| 40> H -4.2305346637 2.0159664258 -0.433283153
| 41> H -3.4320715791 -2.153391081 -0.9524644292
| 42> H -4.8356475225 -2.0031587565 0.1483782464
| 43> H -3.2209846157 -2.4012282193 0.805023326
| 44> *
| 45>
| 46>                          ****END OF INPUT****

CARTESIAN COORDINATES (ANGSTROEM)
---------------------------------
  C      5.015467   -0.123922   -0.919357
  C      4.466016   -1.436385   -1.454445
  O      3.028256   -1.386603   -1.527898
  C      2.325031   -1.920264   -0.541964
  O      2.797458   -2.529740    0.389508
  C      0.832592   -1.755882   -0.771570
  C      0.497241   -0.315518   -1.139635
  H      1.009378   -0.053358   -2.072965
  C      0.999666    0.660947   -0.091821
  O      2.013588    0.462329    0.536124
  O      0.279444    1.764552   -0.038673
  C      0.758693    2.852137    0.781412
  C      0.376225    2.688506    2.241521
  S     -1.265109   -0.082745   -1.525161
  P     -2.095723    0.171169    0.414009
  S     -1.116085   -0.579743    1.938210
  O     -2.456801    1.695652    0.607171
  C     -3.226353    2.429435   -0.367313
  O     -3.561257   -0.440576    0.207562
  C     -3.765494   -1.847140    0.038774
  H      4.767701    0.691760   -1.592756
  H      4.579700    0.083766    0.055932
  H      6.093472   -0.195809   -0.821581
  H      4.750090   -2.270028   -0.806242
  H      4.794657   -1.620160   -2.478256
  H      0.322066   -2.058977    0.144551
  H      0.536670   -2.416033   -1.588360
  H      1.846208    2.897057    0.675023
  H      0.291111    3.734348    0.344088
  H      0.841276    1.795879    2.655996
  H      0.716795    3.555272    2.797996
  H     -0.702193    2.593663    2.343718
  H     -2.735880    2.380881   -1.339333
  H     -3.252460    3.451141    0.002090
  H     -4.230535    2.015966   -0.433283
  H     -3.432072   -2.153391   -0.952464
  H     -4.835648   -2.003159    0.148378
  H     -3.220985   -2.401228    0.805023

 Total Charge           Charge          ....    0
 Multiplicity           Mult            ....    1
 Number of Electrons    NEL             ....  174
 Basis Dimension        Dim             ....  316

ORBITAL ENERGIES
----------------

  NO   OCC          E(Eh)            E(eV)
   0   2.0000     -88.046275     -2395.8609
   1   2.0000     -87.990547     -2394.3445
   2   2.0000     -76.432672     -2079.8388
   3   2.0000     -18.811948      -511.8991
   4   2.0000     -18.801753      -511.6217
   5   2.0000     -18.798803      -511.5414
   6   2.0000     -18.790669      -511.3201
   7   2.0000     -18.744577      -510.0659
   8   2.0000     -18.720455      -509.4095
   9   2.0000     -10.022085      -272.7148
  10   2.0000      -9.998259      -272.0665
  11   2.0000      -9.956234      -270.9229
  12   2.0000      -9.952551      -270.8227
  13   2.0000      -9.949626      -270.7431
  14   2.0000      -9.949530      -270.7405
  15   2.0000      -9.937215      -270.4054
  16   2.0000      -9.900229      -269.3989
  17   2.0000      -9.875489      -268.7257
  18   2.0000      -9.874919      -268.7102
  19   2.0000      -7.691128      -209.2862
  20   2.0000      -7.635301      -207.7671
  21   2.0000      -6.429633      -174.9592
  22   2.0000      -5.719010      -155.6222
  23   2.0000      -5.715514      -155.5270
  24   2.0000      -5.708222      -155.3286
  25   2.0000      -5.664440      -154.1372
  26   2.0000      -5.655678      -153.8988
  27   2.0000      -5.655473      -153.8932
  28   2.0000      -4.652394      -126.5981
  29   2.0000      -4.651529      -126.5745
  30   2.0000      -4.649933      -126.5311
  31   2.0000      -1.019227       -27.7346
  32   2.0000      -0.996281       -27.1102
  33   2.0000      -0.994365       -27.0580
  34   2.0000      -0.949841       -25.8465
  35   2.0000      -0.925332       -25.1796
  36   2.0000      -0.899662       -24.4810
  37   2.0000      -0.768681       -20.9169
  38   2.0000      -0.709285       -19.3006
  39   2.0000      -0.702991       -19.1294
  40   2.0000      -0.689344       -18.7580
  41   2.0000      -0.657505       -17.8916
  42   2.0000      -0.643143       -17.5008
  43   2.0000      -0.628311       -17.0972
  44   2.0000      -0.614990       -16.7347
  45   2.0000      -0.585932       -15.9440
  46   2.0000      -0.567960       -15.4550
  47   2.0000      -0.522714       -14.2238
  48   2.0000      -0.498599       -13.5676
  49   2.0000      -0.491232       -13.3671
  50   2.0000      -0.486812       -13.2468
  51   2.0000      -0.481288       -13.0965
  52   2.0000      -0.455683       -12.3998
  53   2.0000      -0.441069       -12.0021
  54   2.0000      -0.440484       -11.9862
  55   2.0000      -0.433933       -11.8079
  56   2.0000      -0.425160       -11.5692
  57   2.0000      -0.421688       -11.4747
  58   2.0000      -0.413651       -11.2560
  59   2.0000      -0.408352       -11.1118
  60   2.0000      -0.402828       -10.9615
  61   2.0000      -0.397395       -10.8137
  62   2.0000      -0.393716       -10.7135
  63   2.0000      -0.378195       -10.2912
  64   2.0000      -0.367030        -9.9874
  65   2.0000      -0.360063        -9.7978
  66   2.0000      -0.356521        -9.7014
  67   2.0000      -0.348675        -9.4879
  68   2.0000      -0.341825        -9.3015
  69   2.0000      -0.337690        -9.1890
  70   2.0000      -0.329757        -8.9731
  71   2.0000      -0.321651        -8.7526
  72   2.0000      -0.315638        -8.5890
  73   2.0000      -0.315050        -8.5729
  74   2.0000      -0.314633        -8.5616
  75   2.0000      -0.303596        -8.2613
  76   2.0000      -0.297178        -8.0866
  77   2.0000      -0.284380        -7.7384
  78   2.0000      -0.276995        -7.5374
  79   2.0000      -0.269130        -7.3234
  80   2.0000      -0.264929        -7.2091
  81   2.0000      -0.245499        -6.6804
  82   2.0000      -0.243804        -6.6343
  83   2.0000      -0.222472        -6.0538
  84   2.0000      -0.209073        -5.6892
  85   2.0000      -0.207682        -5.6513
  86   2.0000      -0.201746        -5.4898
  87   0.0000      -0.043012        -1.1704
  88   0.0000      -0.035497        -0.9659
  89   0.0000      -0.005175        -0.1408
  90   0.0000       0.001695         0.0461
  91   0.0000       0.009981         0.2716

MULLIKEN ATOMIC CHARGES
-----------------------
   0 C :   -0.301177
   1 C :   -0.018295
   2 O :   -0.256808
   3 C :    0.108819
   4 O :   -0.188170
   5 C :   -0.030479
   6 C :   -0.312773
   7 H :    0.161851
   8 C :    0.187338
   9 O :   -0.174779
  10 O :   -0.229032
  11 C :   -0.009644
  12 C :   -0.311728
  13 S :   -0.096149
  14 P :    0.605685
  15 S :   -0.283629
  16 O :   -0.360000
  17 C :   -0.109326
  18 O :   -0.388479
  19 C :   -0.102436
  20 H :    0.101677
  21 H :    0.142678
  22 H :    0.106090
  23 H :    0.111041
  24 H :    0.096176
  25 H :    0.118728
  26 H :    0.108949
  27 H :    0.104546
  28 H :    0.096719
  29 H :    0.139618
  30 H :    0.104777
  31 H :    0.129426
  32 H :    0.123626
  33 H :    0.130914
  34 H :    0.127795
  35 H :    0.116912
  36 H :    0.127490
  37 H :    0.122049
Sum of atomic charges:   -0.0000000

LOEWDIN ATOMIC CHARGES
----------------------
   0 C :   -0.356967
   1 C :   -0.111750
   2 O :   -0.074605
   3 C :    0.029111
   4 O :   -0.157475
   5 C :   -0.250472
   6 C :   -0.269526
   7 H :    0.154880
   8 C :    0.013600
   9 O :   -0.134148
  10 O :   -0.060851
  11 C :   -0.105450
  12 C :   -0.363324
  13 S :    0.096262
  14 P :    0.571482
  15 S :   -0.271529
  16 O :   -0.234239
  17 C :   -0.211196
  18 O :   -0.259866
  19 C :   -0.216083
  20 H :    0.119238
  21 H :    0.136202
  22 H :    0.126827
  23 H :    0.120557
  24 H :    0.113277
  25 H :    0.134435
  26 H :    0.140655
  27 H :    0.118284
  28 H :    0.115348
  29 H :    0.133083
  30 H :    0.127054
  31 H :    0.125488
  32 H :    0.111186
  33 H :    0.125642
  34 H :    0.117957
  35 H :    0.109544
  36 H :    0.123796
  37 H :    0.113576

  Mayer bond orders larger than 0.100000
B(  0-C ,  1-C ) :   1.1775 B(  0-C , 20-H ) :   0.9514 B(  0-C , 21-H ) :   0.9383
B(  0-C , 22-H ) :   0.9435 B(  1-C ,  2-O ) :   0.9191 B(  1-C , 23-H ) :   0.9076
B(  1-C , 24-H ) :   0.9383 B(  2-O ,  3-C ) :   1.1808 B(  3-C ,  4-O ) :   2.0846
B(  3-C ,  5-C ) :   1.0141 B(  5-C ,  6-C ) :   1.0368 B(  5-C , 25-H ) :   0.8831
B(  5-C , 26-H ) :   0.8828 B(  6-C ,  7-H ) :   0.8514 B(  6-C ,  8-C ) :   0.9131
B(  6-C , 13-S ) :   0.9970 B(  8-C ,  9-O ) :   2.0077 B(  8-C , 10-O ) :   1.2465
B( 10-O , 11-C ) :   0.9025 B( 11-C , 12-C ) :   1.1785 B( 11-C , 27-H ) :   0.9198
B( 11-C , 28-H ) :   0.9368 B( 12-C , 29-H ) :   0.9393 B( 12-C , 30-H ) :   0.9389
B( 12-C , 31-H ) :   0.9378 B( 13-S , 14-P ) :   0.9611 B( 13-S , 15-S ) :   0.1136
B( 14-P , 15-S ) :   1.6381 B( 14-P , 16-O ) :   1.1163 B( 14-P , 18-O ) :   1.0699
B( 16-O , 17-C ) :   0.9157 B( 17-C , 32-H ) :   0.9371 B( 17-C , 33-H ) :   0.9587
B( 17-C , 34-H ) :   0.9473 B( 18-O , 19-C ) :   0.9295 B( 19-C , 35-H ) :   0.9470
B( 19-C , 36-H ) :   0.9583 B( 19-C , 37-H ) :   0.9360

Dispersion correction           -0.054446321
FINAL SINGLE POINT ENERGY     -1979.021557833182

DIPOLE MOMENT
-------------

Method             : SCF
Type of density    : Electron Density
Multiplicity       :   1
Irrep              :   0
Energy             : -1979.1515913829180136 Eh
Relativity type    :
Basis              : AO
                                X                 Y                 Z
Electronic contribution:    -10.592951449      -6.208063414       0.807768288
Nuclear contribution   :      9.608691234       7.391057399      -2.361141264
                        -----------------------------------------
Total Dipole Moment    :     -0.984260215       1.182993985      -1.553372976
                        -----------------------------------------
Magnitude (a.u.)       :      2.186597938
Magnitude (Debye)      :      5.557890265

Rotational constants in cm-1:             0.016028             0.006800             0.005892
Rotational constants in MHz :           480.506736           203.866604           176.649224

                             ****ORCA TERMINATED NORMALLY****
TOTAL RUN TIME: 0 days 0 hours 0 minutes 36 seconds 761 msec
