                         Program Version 6.0.1  -  RELEASE   -
|  1> ! pbe def2-sv(p) def2/J RI DEFGRID1 loosescf d4 GCP(DFT/SV(P)) printgap
|  2> %output
|  3>     printlevel normal
|  4> end
|  5> * xyz 0 1
|  6> C 3.604600326 -2.3218922292 1.5897406792
|  7> C 2.8598145429 -2.8774723443 0.3870108877
|  8> O 2.7779094768 -1.8908823411 -0.6621410271
|  9> C 1.7926987501 -1.0308239708 -0.6417577829
| 10> O 0.917447571 -1.0183591119 0.2105425806
| 11> C 1.8333778987 -0.060848607 -1.7923486704
| 12> C 0.7158439597 0.9601186016 -1.6678183156
| 13> H 0.6973999981 1.6293777491 -2.5316015809
| 14> C 0.8114965571 1.8027694395 -0.4056678234
| 15> O 1.7096612033 1.6963461608 0.3998522011
| 16> O -0.1781214661 2.6640921694 -0.3376016396
| 17> C -0.2315598462 3.5730630822 0.7776248796
| 18> C 0.5258709877 4.8524848988 0.4610846256
| 19> S -0.9462519966 0.1848789761 -1.751605211
| 20> P -1.4572581801 -0.5573305549 0.1834088658
| 21> S -1.4882973491 -2.4916761479 0.5513104967
| 22> O -0.9688291853 0.4513828615 1.313565892
| 23> C -0.2337211542 0.0541422706 2.4711792894
| 24> O -2.97693029 -0.0115983402 0.1992873007
| 25> C -3.9690972745 -0.5593574237 -0.6668121745
| 26> H 3.0669514227 -1.4705920423 2.0025730584
| 27> H 3.681051367 -3.091356669 2.3505805861
| 28> H 4.6010023743 -2.0019403794 1.2981938497
| 29> H 1.8458839471 -3.1852618275 0.6602080736
| 30> H 3.3978130552 -3.7093676825 -0.0669130874
| 31> H 1.7344537523 -0.6169450178 -2.7258857838
| 32> H 2.8058345299 0.4352222718 -1.7843533629
| 33> H -1.2956073812 3.7600590269 0.9247085067
| 34> H 0.1873375473 3.0744855719 1.6557493559
| 35> H 0.4086752154 5.5482855448 1.28518646
| 36> H 1.5837249376 4.6386199262 0.326699357
| 37> H 0.1349278881 5.3026418597 -0.447007142
| 38> H -0.7224926641 0.5201921125 3.3243076262
| 39> H 0.7934851554 0.4070182002 2.3697639886
| 40> H -0.2418092006 -1.0322045235 2.5751695448
| 41> H -4.9150343556 -0.1423053533 -0.3308123224
| 42> H -3.9804940056 -1.6481878929 -0.5815752135
| 43> H -3.7679340841 -0.2726334665 -1.7002555326
| 44> *
| 45>
| 46>                          ****END OF INPUT****

CARTESIAN COORDINATES (ANGSTROEM)
---------------------------------
  C      3.604600   -2.321892    1.589741
  C      2.859815   -2.877472    0.387011
  O      2.777909   -1.890882   -0.662141
  C      1.792699   -1.030824   -0.641758
  O      0.917448   -1.018359    0.210543
  C      1.833378   -0.060849   -1.792349
  C      0.715844    0.960119   -1.667818
  H      0.697400    1.629378   -2.531602
  C      0.811497    1.802769   -0.405668
  O      1.709661    1.696346    0.399852
  O     -0.178121    2.664092   -0.337602
  C     -0.231560    3.573063    0.777625
  C      0.525871    4.852485    0.461085
  S     -0.946252    0.184879   -1.751605
  P     -1.457258   -0.557331    0.183409
  S     -1.488297   -2.491676    0.551310
  O     -0.968829    0.451383    1.313566
  C     -0.233721    0.054142    2.471179
  O     -2.976930   -0.011598    0.199287
  C     -3.969097   -0.559357   -0.666812
  H      3.066951   -1.470592    2.002573
  H      3.681051   -3.091357    2.350581
  H      4.601002   -2.001940    1.298194
  H      1.845884   -3.185262    0.660208
  H      3.397813   -3.709368   -0.066913
  H      1.734454   -0.616945   -2.725886
  H      2.805835    0.435222   -1.784353
  H     -1.295607    3.760059    0.924709
  H      0.187338    3.074486    1.655749
  H      0.408675    5.548286    1.285186
  H      1.583725    4.638620    0.326699
  H      0.134928    5.302642   -0.447007
  H     -0.722493    0.520192    3.324308
  H      0.793485    0.407018    2.369764
  H     -0.241809   -1.032205    2.575170
  H     -4.915034   -0.142305   -0.330812
  H     -3.980494   -1.648188   -0.581575
  H     -3.767934   -0.272633   -1.700256

 Total Charge           Charge          ....    0
 Multiplicity           Mult            ....    1
 Number of Electrons    NEL             ....  174
 Basis Dimension        Dim             ....  316

ORBITAL ENERGIES
----------------

  NO   OCC          E(Eh)            E(eV)
   0   2.0000     -88.030852     -2395.4413
   1   2.0000     -87.962958     -2393.5938
   2   2.0000     -76.415326     -2079.3667
   3   2.0000     -18.813787      -511.9492
   4   2.0000     -18.806931      -511.7626
   5   2.0000     -18.781928      -511.0822
   6   2.0000     -18.763006      -510.5673
   7   2.0000     -18.755888      -510.3737
   8   2.0000     -18.745904      -510.1020
   9   2.0000     -10.023774      -272.7608
  10   2.0000     -10.021886      -272.7094
  11   2.0000      -9.954271      -270.8695
  12   2.0000      -9.950828      -270.7758
  13   2.0000      -9.949233      -270.7324
  14   2.0000      -9.929315      -270.1904
  15   2.0000      -9.925814      -270.0951
  16   2.0000      -9.919637      -269.9270
  17   2.0000      -9.890393      -269.1313
  18   2.0000      -9.889600      -269.1097
  19   2.0000      -7.675758      -208.8680
  20   2.0000      -7.608317      -207.0328
  21   2.0000      -6.410742      -174.4452
  22   2.0000      -5.704358      -155.2235
  23   2.0000      -5.700141      -155.1087
  24   2.0000      -5.692121      -154.8905
  25   2.0000      -5.637502      -153.4042
  26   2.0000      -5.629288      -153.1807
  27   2.0000      -5.627795      -153.1401
  28   2.0000      -4.633462      -126.0829
  29   2.0000      -4.633020      -126.0709
  30   2.0000      -4.631020      -126.0165
  31   2.0000      -1.024567       -27.8799
  32   2.0000      -1.016818       -27.6690
  33   2.0000      -0.968665       -26.3587
  34   2.0000      -0.932527       -25.3753
  35   2.0000      -0.923071       -25.1180
  36   2.0000      -0.921292       -25.0696
  37   2.0000      -0.765772       -20.8377
  38   2.0000      -0.718791       -19.5593
  39   2.0000      -0.702909       -19.1271
  40   2.0000      -0.686561       -18.6823
  41   2.0000      -0.655042       -17.8246
  42   2.0000      -0.622410       -16.9366
  43   2.0000      -0.613596       -16.6968
  44   2.0000      -0.605201       -16.4684
  45   2.0000      -0.603784       -16.4298
  46   2.0000      -0.566426       -15.4132
  47   2.0000      -0.509110       -13.8536
  48   2.0000      -0.506450       -13.7812
  49   2.0000      -0.496092       -13.4994
  50   2.0000      -0.486958       -13.2508
  51   2.0000      -0.467955       -12.7337
  52   2.0000      -0.459224       -12.4961
  53   2.0000      -0.445634       -12.1263
  54   2.0000      -0.438847       -11.9416
  55   2.0000      -0.437444       -11.9034
  56   2.0000      -0.428855       -11.6697
  57   2.0000      -0.414349       -11.2750
  58   2.0000      -0.409154       -11.1336
  59   2.0000      -0.400888       -10.9087
  60   2.0000      -0.396823       -10.7981
  61   2.0000      -0.393696       -10.7130
  62   2.0000      -0.385866       -10.4999
  63   2.0000      -0.381789       -10.3890
  64   2.0000      -0.380820       -10.3626
  65   2.0000      -0.375009       -10.2045
  66   2.0000      -0.364039        -9.9060
  67   2.0000      -0.358899        -9.7661
  68   2.0000      -0.346548        -9.4301
  69   2.0000      -0.339816        -9.2469
  70   2.0000      -0.334875        -9.1124
  71   2.0000      -0.329283        -8.9603
  72   2.0000      -0.326855        -8.8942
  73   2.0000      -0.309249        -8.4151
  74   2.0000      -0.300948        -8.1892
  75   2.0000      -0.296091        -8.0570
  76   2.0000      -0.288560        -7.8521
  77   2.0000      -0.280128        -7.6227
  78   2.0000      -0.268930        -7.3180
  79   2.0000      -0.264994        -7.2109
  80   2.0000      -0.256971        -6.9925
  81   2.0000      -0.244481        -6.6527
  82   2.0000      -0.240354        -6.5404
  83   2.0000      -0.229395        -6.2421
  84   2.0000      -0.211281        -5.7492
  85   2.0000      -0.184134        -5.0106
  86   2.0000      -0.171807        -4.6751
  87   0.0000      -0.048181        -1.3111
  88   0.0000      -0.042896        -1.1673
  89   0.0000      -0.020811        -0.5663
  90   0.0000      -0.006554        -0.1784
  91   0.0000       0.036037         0.9806

MULLIKEN ATOMIC CHARGES
-----------------------
   0 C :   -0.312087
   1 C :   -0.023218
   2 O :   -0.220603
   3 C :    0.156865
   4 O :   -0.216324
   5 C :   -0.045863
   6 C :   -0.306645
   7 H :    0.148704
   8 C :    0.199231
   9 O :   -0.199824
  10 O :   -0.216734
  11 C :   -0.012644
  12 C :   -0.301385
  13 S :   -0.104300
  14 P :    0.629559
  15 S :   -0.335891
  16 O :   -0.380041
  17 C :   -0.112992
  18 O :   -0.379361
  19 C :   -0.106914
  20 H :    0.134339
  21 H :    0.116746
  22 H :    0.114619
  23 H :    0.129968
  24 H :    0.106201
  25 H :    0.126927
  26 H :    0.126317
  27 H :    0.112229
  28 H :    0.112946
  29 H :    0.114300
  30 H :    0.120373
  31 H :    0.115232
  32 H :    0.114338
  33 H :    0.137059
  34 H :    0.121828
  35 H :    0.117923
  36 H :    0.110571
  37 H :    0.108552
Sum of atomic charges:   -0.0000000

LOEWDIN ATOMIC CHARGES
----------------------
   0 C :   -0.355116
   1 C :   -0.109434
   2 O :   -0.042324
   3 C :    0.056163
   4 O :   -0.159488
   5 C :   -0.250897
   6 C :   -0.260349
   7 H :    0.151614
   8 C :    0.011732
   9 O :   -0.160781
  10 O :   -0.044918
  11 C :   -0.107131
  12 C :   -0.355603
  13 S :    0.093390
  14 P :    0.592213
  15 S :   -0.337975
  16 O :   -0.235348
  17 C :   -0.220207
  18 O :   -0.267367
  19 C :   -0.224720
  20 H :    0.131572
  21 H :    0.132851
  22 H :    0.125320
  23 H :    0.126571
  24 H :    0.120030
  25 H :    0.149087
  26 H :    0.151023
  27 H :    0.123126
  28 H :    0.120182
  29 H :    0.131327
  30 H :    0.127856
  31 H :    0.125307
  32 H :    0.115105
  33 H :    0.112352
  34 H :    0.109574
  35 H :    0.118703
  36 H :    0.104932
  37 H :    0.101627

  Mayer bond orders larger than 0.100000
B(  0-C ,  1-C ) :   1.1730 B(  0-C , 20-H ) :   0.9435 B(  0-C , 21-H ) :   0.9433
B(  0-C , 22-H ) :   0.9479 B(  1-C ,  2-O ) :   0.9002 B(  1-C , 23-H ) :   0.9097
B(  1-C , 24-H ) :   0.9368 B(  2-O ,  3-C ) :   1.2753 B(  3-C ,  4-O ) :   1.8589
B(  3-C ,  5-C ) :   1.0168 B(  4-O , 14-P ) :   0.1379 B(  5-C ,  6-C ) :   1.0252
B(  5-C , 25-H ) :   0.8831 B(  5-C , 26-H ) :   0.8752 B(  6-C ,  7-H ) :   0.8752
B(  6-C ,  8-C ) :   0.8963 B(  6-C , 13-S ) :   1.0302 B(  8-C ,  9-O ) :   2.0242
B(  8-C , 10-O ) :   1.2581 B( 10-O , 11-C ) :   0.9074 B( 11-C , 12-C ) :   1.1704
B( 11-C , 27-H ) :   0.9369 B( 11-C , 28-H ) :   0.9143 B( 12-C , 29-H ) :   0.9449
B( 12-C , 30-H ) :   0.9472 B( 12-C , 31-H ) :   0.9483 B( 13-S , 14-P ) :   0.9326
B( 14-P , 15-S ) :   1.5896 B( 14-P , 16-O ) :   1.0882 B( 14-P , 18-O ) :   1.0571
B( 16-O , 17-C ) :   0.9213 B( 17-C , 32-H ) :   0.9521 B( 17-C , 33-H ) :   0.9348
B( 17-C , 34-H ) :   0.9268 B( 18-O , 19-C ) :   0.9552 B( 19-C , 35-H ) :   0.9604
B( 19-C , 36-H ) :   0.9299 B( 19-C , 37-H ) :   0.9424

Dispersion correction           -0.055113659
FINAL SINGLE POINT ENERGY     -1979.003486689948

DIPOLE MOMENT
-------------

Method             : SCF
Type of density    : Electron Density
Multiplicity       :   1
Irrep              :   0
Energy             : -1979.1350987961945975 Eh
Relativity type    :
Basis              : AO
                                X                 Y                 Z
Electronic contribution:     -9.707212230      -7.284883458      -8.190271976
Nuclear contribution   :     10.787465441       8.234269357       7.960226182
                        -----------------------------------------
Total Dipole Moment    :      1.080253210       0.949385900      -0.230045794
                        -----------------------------------------
Magnitude (a.u.)       :      1.456434568
Magnitude (Debye)      :      3.701962473

Rotational constants in cm-1:             0.011128             0.009647             0.006886
Rotational constants in MHz :           333.596913           289.210604           206.431957

                             ****ORCA TERMINATED NORMALLY****
TOTAL RUN TIME: 0 days 0 hours 0 minutes 45 seconds 327 msec
