                         Program Version 6.0.1  -  RELEASE   -
|  1> ! pbe def2-sv(p) def2/J RI DEFGRID1 loosescf d4 GCP(DFT/SV(P)) printgap
|  2> %output
|  3>     printlevel normal
|  4> end
|  5> * xyz 0 1
|  6> C 1.8184044572 -3.2805451902 -0.0156972921
|  7> C 2.9165209252 -2.2487535941 -0.2190594352
|  8> O 2.3584261155 -1.0120819384 -0.7006567793
|  9> C 2.1989239279 -0.8579245706 -2.0082303287
| 10> O 2.5966935321 -1.6402684373 -2.8387507064
| 11> C 1.4772977661 0.4343572093 -2.3368311728
| 12> C 0.3942032132 0.7488485583 -1.3104079556
| 13> H -0.1353821385 1.6658320371 -1.5862495673
| 14> C 0.9565672027 0.9346097333 0.0838464384
| 15> O 0.4622346796 0.4016198408 1.0599524686
| 16> O 1.9692386847 1.7512356752 0.1066049307
| 17> C 2.528510811 2.1107501655 1.3891418647
| 18> C 1.7708104604 3.2856347345 1.9853234127
| 19> S -0.833419716 -0.6106110732 -1.2444341482
| 20> P -1.9115456307 -0.0787626595 0.5043825288
| 21> S -2.1232098918 1.8256409499 0.9569904193
| 22> O -3.3244182362 -0.7298153601 0.0974312247
| 23> C -4.1268589651 -0.1717510719 -0.9440323226
| 24> O -1.6599483275 -1.1359763397 1.661124178
| 25> C -1.1209116104 -0.8393322053 2.9508955639
| 26> H 1.0428292568 -2.8802222495 0.6343621321
| 27> H 1.3680400853 -3.5401332679 -0.9713711592
| 28> H 2.2378726069 -4.1737115116 0.4349456826
| 29> H 3.6555098168 -2.6020899489 -0.9434026651
| 30> H 3.3994657639 -1.9880907121 0.723181633
| 31> H 1.0458206647 0.3359855683 -3.3323359611
| 32> H 2.2071478361 1.247119849 -2.341451091
| 33> H 2.4820959781 1.239916943 2.0474151323
| 34> H 3.5636159759 2.3711375241 1.1694529724
| 35> H 0.7238953129 3.0250361513 2.1322672162
| 36> H 2.2062948536 3.5466589843 2.9439493786
| 37> H 1.8233947647 4.143652361 1.3213179324
| 38> H -5.0953312857 -0.6582331286 -0.8604920536
| 39> H -3.6791618131 -0.3764250121 -1.9171459651
| 40> H -4.2303697233 0.9060910191 -0.8011125351
| 41> H -1.6957312907 -1.4310520726 3.660212494
| 42> H -1.2223912825 0.2242299566 3.1724915418
| 43> H -0.0691278565 -1.1183241876 2.9735930254
| 44> *
| 45>
| 46>                          ****END OF INPUT****

CARTESIAN COORDINATES (ANGSTROEM)
---------------------------------
  C      1.818404   -3.280545   -0.015697
  C      2.916521   -2.248754   -0.219059
  O      2.358426   -1.012082   -0.700657
  C      2.198924   -0.857925   -2.008230
  O      2.596694   -1.640268   -2.838751
  C      1.477298    0.434357   -2.336831
  C      0.394203    0.748849   -1.310408
  H     -0.135382    1.665832   -1.586250
  C      0.956567    0.934610    0.083846
  O      0.462235    0.401620    1.059952
  O      1.969239    1.751236    0.106605
  C      2.528511    2.110750    1.389142
  C      1.770810    3.285635    1.985323
  S     -0.833420   -0.610611   -1.244434
  P     -1.911546   -0.078763    0.504383
  S     -2.123210    1.825641    0.956990
  O     -3.324418   -0.729815    0.097431
  C     -4.126859   -0.171751   -0.944032
  O     -1.659948   -1.135976    1.661124
  C     -1.120912   -0.839332    2.950896
  H      1.042829   -2.880222    0.634362
  H      1.368040   -3.540133   -0.971371
  H      2.237873   -4.173712    0.434946
  H      3.655510   -2.602090   -0.943403
  H      3.399466   -1.988091    0.723182
  H      1.045821    0.335986   -3.332336
  H      2.207148    1.247120   -2.341451
  H      2.482096    1.239917    2.047415
  H      3.563616    2.371138    1.169453
  H      0.723895    3.025036    2.132267
  H      2.206295    3.546659    2.943949
  H      1.823395    4.143652    1.321318
  H     -5.095331   -0.658233   -0.860492
  H     -3.679162   -0.376425   -1.917146
  H     -4.230370    0.906091   -0.801113
  H     -1.695731   -1.431052    3.660212
  H     -1.222391    0.224230    3.172492
  H     -0.069128   -1.118324    2.973593

 Total Charge           Charge          ....    0
 Multiplicity           Mult            ....    1
 Number of Electrons    NEL             ....  174
 Basis Dimension        Dim             ....  316

ORBITAL ENERGIES
----------------

  NO   OCC          E(Eh)            E(eV)
   0   2.0000     -88.038330     -2395.6448
   1   2.0000     -87.973745     -2393.8873
   2   2.0000     -76.421674     -2079.5395
   3   2.0000     -18.824834      -512.2498
   4   2.0000     -18.811432      -511.8851
   5   2.0000     -18.781466      -511.0697
   6   2.0000     -18.772603      -510.8285
   7   2.0000     -18.759923      -510.4835
   8   2.0000     -18.744315      -510.0587
   9   2.0000     -10.032429      -272.9963
  10   2.0000     -10.019129      -272.6344
  11   2.0000      -9.961930      -271.0779
  12   2.0000      -9.954821      -270.8844
  13   2.0000      -9.952321      -270.8164
  14   2.0000      -9.934882      -270.3419
  15   2.0000      -9.930156      -270.2133
  16   2.0000      -9.924152      -270.0499
  17   2.0000      -9.892065      -269.1768
  18   2.0000      -9.884660      -268.9753
  19   2.0000      -7.683093      -209.0676
  20   2.0000      -7.618912      -207.3211
  21   2.0000      -6.416916      -174.6132
  22   2.0000      -5.711077      -155.4063
  23   2.0000      -5.707669      -155.3136
  24   2.0000      -5.699940      -155.1032
  25   2.0000      -5.647973      -153.6892
  26   2.0000      -5.639853      -153.4682
  27   2.0000      -5.638562      -153.4331
  28   2.0000      -4.639330      -126.2426
  29   2.0000      -4.639094      -126.2362
  30   2.0000      -4.637567      -126.1946
  31   2.0000      -1.036098       -28.1937
  32   2.0000      -1.017020       -27.6745
  33   2.0000      -0.973011       -26.4770
  34   2.0000      -0.939731       -25.5714
  35   2.0000      -0.926383       -25.2082
  36   2.0000      -0.922819       -25.1112
  37   2.0000      -0.774277       -21.0691
  38   2.0000      -0.716366       -19.4933
  39   2.0000      -0.711409       -19.3584
  40   2.0000      -0.689159       -18.7530
  41   2.0000      -0.656749       -17.8710
  42   2.0000      -0.629198       -17.1213
  43   2.0000      -0.622483       -16.9386
  44   2.0000      -0.610907       -16.6236
  45   2.0000      -0.599900       -16.3241
  46   2.0000      -0.573680       -15.6106
  47   2.0000      -0.515598       -14.0301
  48   2.0000      -0.506154       -13.7731
  49   2.0000      -0.505172       -13.7464
  50   2.0000      -0.489353       -13.3160
  51   2.0000      -0.470107       -12.7923
  52   2.0000      -0.464426       -12.6377
  53   2.0000      -0.453183       -12.3317
  54   2.0000      -0.444585       -12.0978
  55   2.0000      -0.435182       -11.8419
  56   2.0000      -0.425472       -11.5777
  57   2.0000      -0.415971       -11.3191
  58   2.0000      -0.411497       -11.1974
  59   2.0000      -0.407231       -11.0813
  60   2.0000      -0.401275       -10.9192
  61   2.0000      -0.397738       -10.8230
  62   2.0000      -0.389660       -10.6032
  63   2.0000      -0.383580       -10.4377
  64   2.0000      -0.382154       -10.3989
  65   2.0000      -0.376533       -10.2460
  66   2.0000      -0.363790        -9.8992
  67   2.0000      -0.357197        -9.7198
  68   2.0000      -0.355086        -9.6624
  69   2.0000      -0.346930        -9.4404
  70   2.0000      -0.339884        -9.2487
  71   2.0000      -0.334607        -9.1051
  72   2.0000      -0.327676        -8.9165
  73   2.0000      -0.313379        -8.5275
  74   2.0000      -0.308251        -8.3879
  75   2.0000      -0.297228        -8.0880
  76   2.0000      -0.294322        -8.0089
  77   2.0000      -0.285547        -7.7701
  78   2.0000      -0.277697        -7.5565
  79   2.0000      -0.266667        -7.2564
  80   2.0000      -0.262275        -7.1369
  81   2.0000      -0.247651        -6.7389
  82   2.0000      -0.242292        -6.5931
  83   2.0000      -0.230563        -6.2739
  84   2.0000      -0.220482        -5.9996
  85   2.0000      -0.195778        -5.3274
  86   2.0000      -0.186711        -5.0807
  87   0.0000      -0.047251        -1.2858
  88   0.0000      -0.040665        -1.1066
  89   0.0000      -0.023845        -0.6489
  90   0.0000       0.003548         0.0966
  91   0.0000       0.025213         0.6861

MULLIKEN ATOMIC CHARGES
-----------------------
   0 C :   -0.308979
   1 C :   -0.012225
   2 O :   -0.243339
   3 C :    0.111622
   4 O :   -0.186580
   5 C :   -0.092659
   6 C :   -0.303443
   7 H :    0.153136
   8 C :    0.258276
   9 O :   -0.207777
  10 O :   -0.223318
  11 C :   -0.012880
  12 C :   -0.312842
  13 S :   -0.093075
  14 P :    0.629325
  15 S :   -0.355346
  16 O :   -0.376489
  17 C :   -0.100337
  18 O :   -0.367574
  19 C :   -0.087339
  20 H :    0.130828
  21 H :    0.126729
  22 H :    0.110520
  23 H :    0.111019
  24 H :    0.100471
  25 H :    0.128760
  26 H :    0.142072
  27 H :    0.110705
  28 H :    0.107509
  29 H :    0.143016
  30 H :    0.114412
  31 H :    0.116413
  32 H :    0.120830
  33 H :    0.108191
  34 H :    0.110756
  35 H :    0.119201
  36 H :    0.116156
  37 H :    0.114256
Sum of atomic charges:   -0.0000000

LOEWDIN ATOMIC CHARGES
----------------------
   0 C :   -0.356858
   1 C :   -0.109011
   2 O :   -0.054004
   3 C :    0.030156
   4 O :   -0.153259
   5 C :   -0.245651
   6 C :   -0.262793
   7 H :    0.148064
   8 C :    0.022552
   9 O :   -0.159647
  10 O :   -0.035035
  11 C :   -0.104662
  12 C :   -0.358137
  13 S :    0.103050
  14 P :    0.590892
  15 S :   -0.349971
  16 O :   -0.260747
  17 C :   -0.222701
  18 O :   -0.238872
  19 C :   -0.208205
  20 H :    0.128935
  21 H :    0.130956
  22 H :    0.129123
  23 H :    0.120967
  24 H :    0.116428
  25 H :    0.145985
  26 H :    0.154580
  27 H :    0.120647
  28 H :    0.120141
  29 H :    0.133526
  30 H :    0.131857
  31 H :    0.126850
  32 H :    0.120097
  33 H :    0.103004
  34 H :    0.106082
  35 H :    0.117303
  36 H :    0.108940
  37 H :    0.109418

  Mayer bond orders larger than 0.100000
B(  0-C ,  1-C ) :   1.1760 B(  0-C , 20-H ) :   0.9417 B(  0-C , 21-H ) :   0.9445
B(  0-C , 22-H ) :   0.9422 B(  1-C ,  2-O ) :   0.9063 B(  1-C , 23-H ) :   0.9133
B(  1-C , 24-H ) :   0.9364 B(  2-O ,  3-C ) :   1.1983 B(  3-C ,  4-O ) :   2.0798
B(  3-C ,  5-C ) :   1.0030 B(  5-C ,  6-C ) :   1.0575 B(  5-C , 25-H ) :   0.9055
B(  5-C , 26-H ) :   0.8780 B(  6-C ,  7-H ) :   0.8587 B(  6-C ,  8-C ) :   0.8858
B(  6-C , 13-S ) :   1.0330 B(  8-C ,  9-O ) :   1.9043 B(  8-C , 10-O ) :   1.2745
B(  9-O , 14-P ) :   0.1296 B( 10-O , 11-C ) :   0.8968 B( 11-C , 12-C ) :   1.1780
B( 11-C , 27-H ) :   0.9146 B( 11-C , 28-H ) :   0.9363 B( 12-C , 29-H ) :   0.9331
B( 12-C , 30-H ) :   0.9418 B( 12-C , 31-H ) :   0.9481 B( 13-S , 14-P ) :   0.9308
B( 13-S , 15-S ) :   0.1115 B( 14-P , 15-S ) :   1.5601 B( 14-P , 16-O ) :   1.0789
B( 14-P , 18-O ) :   1.1290 B( 16-O , 17-C ) :   0.9468 B( 17-C , 32-H ) :   0.9594
B( 17-C , 33-H ) :   0.9438 B( 17-C , 34-H ) :   0.9327 B( 18-O , 19-C ) :   0.9314
B( 19-C , 35-H ) :   0.9541 B( 19-C , 36-H ) :   0.9358 B( 19-C , 37-H ) :   0.9512

Dispersion correction           -0.053997239
FINAL SINGLE POINT ENERGY     -1979.016137587727

DIPOLE MOMENT
-------------

Method             : SCF
Type of density    : Electron Density
Multiplicity       :   1
Irrep              :   0
Energy             : -1979.1460134459166511 Eh
Relativity type    :
Basis              : AO
                                X                 Y                 Z
Electronic contribution:     -9.627118007       0.412626473      -6.927687026
Nuclear contribution   :     10.862317149      -0.058578684       7.485134950
                        -----------------------------------------
Total Dipole Moment    :      1.235199142       0.354047790       0.557447925
                        -----------------------------------------
Magnitude (a.u.)       :      1.400648045
Magnitude (Debye)      :      3.560164400

Rotational constants in cm-1:             0.012363             0.008332             0.006827
Rotational constants in MHz :           370.625791           249.789444           204.668292

                             ****ORCA TERMINATED NORMALLY****
TOTAL RUN TIME: 0 days 0 hours 0 minutes 45 seconds 311 msec
