                         Program Version 6.0.0  -   RELEASE  -
|  1> ! pbe def2-sv(p) def2/J RI DEFGRID1 loosescf d4 GCP(DFT/SV(P)) printgap
|  2> %output
|  3>     printlevel normal
|  4> end
|  5> * xyz 0 1
|  6> C 4.5372705234 0.7499488976 -2.0861324757
|  7> C 4.5717525911 0.822382773 -0.5733039637
|  8> O 3.666395167 -0.1181176933 0.0273593011
|  9> P 2.0875478206 0.034204951 -0.0816675484
| 10> S 1.4804631526 1.8945826142 0.0878873885
| 11> O 1.56028867 -0.974699355 1.0202674159
| 12> C 1.3699660756 -0.5855104568 2.3941625362
| 13> C 2.6777806558 -0.2529077008 3.0777794241
| 14> S 1.6554371678 -1.0866368665 -1.8134771583
| 15> C -0.1109503916 -1.4534674506 -1.6261268392
| 16> S -1.1859540663 0.0102247605 -1.6198116983
| 17> P -2.0474963416 -0.1756375276 0.3295784856
| 18> S -1.6811154962 -1.8327261327 1.2987042445
| 19> O -3.5886675831 0.1386183206 0.0866363235
| 20> C -4.5459233748 -0.8797242263 -0.2555571685
| 21> C -4.254783208 -1.5327033377 -1.5909942518
| 22> O -1.5792666376 1.0998816763 1.1290247883
| 23> C -1.8785981289 2.4500133766 0.6917571642
| 24> C -3.0682868 3.0037114758 1.4461116457
| 25> H 4.7101540692 -0.2701271967 -2.4197069973
| 26> H 3.5626241677 1.0749095601 -2.4500729433
| 27> H 5.302246142 1.4010767517 -2.496756064
| 28> H 4.3055774844 1.827914693 -0.2303334279
| 29> H 5.5471415628 0.5390993953 -0.1758513444
| 30> H 0.6847035145 0.2693903645 2.4199062102
| 31> H 0.8806968495 -1.4523942393 2.8421736372
| 32> H 2.4951881899 -0.0854804175 4.1346281161
| 33> H 3.3814987054 -1.0719828202 2.9549544537
| 34> H 3.1049084135 0.6501743692 2.6435439919
| 35> H -0.2769441012 -2.016277318 -0.7033176412
| 36> H -0.36198805 -2.0465271497 -2.5024868331
| 37> H -4.5499624745 -1.626736597 0.5439349376
| 38> H -5.4970019425 -0.3455217313 -0.2690913579
| 39> H -5.0783935001 -2.1893307578 -1.8525022099
| 40> H -4.133742387 -0.7790383944 -2.3650232289
| 41> H -3.3422590025 -2.1236095901 -1.5249902714
| 42> H -0.9676132279 3.0153309483 0.900584641
| 43> H -2.0542846925 2.4417963873 -0.3873599383
| 44> H -3.962769516 2.431989472 1.2142611879
| 45> H -2.8846605918 2.9542393593 2.5158544497
| 46> H -3.2167749594 4.0387205986 1.154990965
| 47> *
| 48>
| 49>                          ****END OF INPUT****

CARTESIAN COORDINATES (ANGSTROEM)
---------------------------------
  C      4.537271    0.749949   -2.086132
  C      4.571753    0.822383   -0.573304
  O      3.666395   -0.118118    0.027359
  P      2.087548    0.034205   -0.081668
  S      1.480463    1.894583    0.087887
  O      1.560289   -0.974699    1.020267
  C      1.369966   -0.585510    2.394163
  C      2.677781   -0.252908    3.077779
  S      1.655437   -1.086637   -1.813477
  C     -0.110950   -1.453467   -1.626127
  S     -1.185954    0.010225   -1.619812
  P     -2.047496   -0.175638    0.329578
  S     -1.681115   -1.832726    1.298704
  O     -3.588668    0.138618    0.086636
  C     -4.545923   -0.879724   -0.255557
  C     -4.254783   -1.532703   -1.590994
  O     -1.579267    1.099882    1.129025
  C     -1.878598    2.450013    0.691757
  C     -3.068287    3.003711    1.446112
  H      4.710154   -0.270127   -2.419707
  H      3.562624    1.074910   -2.450073
  H      5.302246    1.401077   -2.496756
  H      4.305577    1.827915   -0.230333
  H      5.547142    0.539099   -0.175851
  H      0.684704    0.269390    2.419906
  H      0.880697   -1.452394    2.842174
  H      2.495188   -0.085480    4.134628
  H      3.381499   -1.071983    2.954954
  H      3.104908    0.650174    2.643544
  H     -0.276944   -2.016277   -0.703318
  H     -0.361988   -2.046527   -2.502487
  H     -4.549962   -1.626737    0.543935
  H     -5.497002   -0.345522   -0.269091
  H     -5.078394   -2.189331   -1.852502
  H     -4.133742   -0.779038   -2.365023
  H     -3.342259   -2.123610   -1.524990
  H     -0.967613    3.015331    0.900585
  H     -2.054285    2.441796   -0.387360
  H     -3.962770    2.431989    1.214261
  H     -2.884661    2.954239    2.515854
  H     -3.216775    4.038721    1.154991

 Total Charge           Charge          ....    0
 Multiplicity           Mult            ....    1
 Number of Electrons    NEL             ....  202
 Basis Dimension        Dim             ....  334

ORBITAL ENERGIES
----------------

  NO   OCC          E(Eh)            E(eV)
   0   2.0000     -88.040896     -2395.7146
   1   2.0000     -88.038511     -2395.6497
   2   2.0000     -87.991071     -2394.3588
   3   2.0000     -87.981391     -2394.0954
   4   2.0000     -76.427343     -2079.6937
   5   2.0000     -76.421411     -2079.5323
   6   2.0000     -18.794740      -511.4309
   7   2.0000     -18.789450      -511.2869
   8   2.0000     -18.788585      -511.2634
   9   2.0000     -18.783076      -511.1135
  10   2.0000      -9.956114      -270.9196
  11   2.0000      -9.953828      -270.8574
  12   2.0000      -9.950691      -270.7721
  13   2.0000      -9.949550      -270.7410
  14   2.0000      -9.936829      -270.3949
  15   2.0000      -9.886829      -269.0343
  16   2.0000      -9.883367      -268.9401
  17   2.0000      -9.883216      -268.9360
  18   2.0000      -9.874651      -268.7029
  19   2.0000      -7.685616      -209.1362
  20   2.0000      -7.684153      -209.0964
  21   2.0000      -7.636014      -207.7865
  22   2.0000      -7.626264      -207.5212
  23   2.0000      -6.424979      -174.8326
  24   2.0000      -6.419045      -174.6711
  25   2.0000      -5.713501      -155.4723
  26   2.0000      -5.712262      -155.4386
  27   2.0000      -5.710267      -155.3843
  28   2.0000      -5.708494      -155.3360
  29   2.0000      -5.702482      -155.1724
  30   2.0000      -5.700952      -155.1308
  31   2.0000      -5.664979      -154.1519
  32   2.0000      -5.656554      -153.9227
  33   2.0000      -5.656140      -153.9114
  34   2.0000      -5.654987      -153.8800
  35   2.0000      -5.646880      -153.6594
  36   2.0000      -5.646632      -153.6527
  37   2.0000      -4.647703      -126.4704
  38   2.0000      -4.646497      -126.4376
  39   2.0000      -4.645537      -126.4115
  40   2.0000      -4.641609      -126.3046
  41   2.0000      -4.640843      -126.2838
  42   2.0000      -4.639490      -126.2469
  43   2.0000      -0.988805       -26.9068
  44   2.0000      -0.981288       -26.7022
  45   2.0000      -0.944472       -25.7004
  46   2.0000      -0.940705       -25.5979
  47   2.0000      -0.758879       -20.6501
  48   2.0000      -0.718920       -19.5628
  49   2.0000      -0.705261       -19.1911
  50   2.0000      -0.690865       -18.7994
  51   2.0000      -0.682925       -18.5833
  52   2.0000      -0.671106       -18.2617
  53   2.0000      -0.650460       -17.6999
  54   2.0000      -0.638232       -17.3672
  55   2.0000      -0.600345       -16.3362
  56   2.0000      -0.590508       -16.0685
  57   2.0000      -0.572880       -15.5888
  58   2.0000      -0.566555       -15.4167
  59   2.0000      -0.559996       -15.2383
  60   2.0000      -0.501623       -13.6499
  61   2.0000      -0.485553       -13.2126
  62   2.0000      -0.474286       -12.9060
  63   2.0000      -0.466318       -12.6892
  64   2.0000      -0.450719       -12.2647
  65   2.0000      -0.446207       -12.1419
  66   2.0000      -0.440223       -11.9791
  67   2.0000      -0.433568       -11.7980
  68   2.0000      -0.426027       -11.5928
  69   2.0000      -0.416891       -11.3442
  70   2.0000      -0.411448       -11.1961
  71   2.0000      -0.395211       -10.7542
  72   2.0000      -0.387630       -10.5480
  73   2.0000      -0.384313       -10.4577
  74   2.0000      -0.380544       -10.3551
  75   2.0000      -0.372830       -10.1452
  76   2.0000      -0.367590       -10.0026
  77   2.0000      -0.355361        -9.6699
  78   2.0000      -0.353975        -9.6322
  79   2.0000      -0.351147        -9.5552
  80   2.0000      -0.345366        -9.3979
  81   2.0000      -0.343362        -9.3434
  82   2.0000      -0.340939        -9.2774
  83   2.0000      -0.335595        -9.1320
  84   2.0000      -0.327711        -8.9175
  85   2.0000      -0.314157        -8.5486
  86   2.0000      -0.307921        -8.3790
  87   2.0000      -0.299341        -8.1455
  88   2.0000      -0.293721        -7.9925
  89   2.0000      -0.291563        -7.9338
  90   2.0000      -0.275636        -7.5004
  91   2.0000      -0.269931        -7.3452
  92   2.0000      -0.266082        -7.2405
  93   2.0000      -0.262026        -7.1301
  94   2.0000      -0.257850        -7.0164
  95   2.0000      -0.237543        -6.4639
  96   2.0000      -0.219707        -5.9785
  97   2.0000      -0.208598        -5.6762
  98   2.0000      -0.206076        -5.6076
  99   2.0000      -0.195778        -5.3274
 100   2.0000      -0.192402        -5.2355
 101   0.0000      -0.041707        -1.1349
 102   0.0000      -0.032926        -0.8960
 103   0.0000      -0.015469        -0.4209
 104   0.0000       0.000791         0.0215
 105   0.0000       0.013665         0.3718

MULLIKEN ATOMIC CHARGES
-----------------------
   0 C :   -0.324711
   1 C :   -0.003319
   2 O :   -0.371228
   3 P :    0.619154
   4 S :   -0.337108
   5 O :   -0.366242
   6 C :   -0.017620
   7 C :   -0.298477
   8 S :   -0.093661
   9 C :   -0.350749
  10 S :   -0.095217
  11 P :    0.602206
  12 S :   -0.305152
  13 O :   -0.383256
  14 C :    0.003993
  15 C :   -0.316642
  16 O :   -0.347770
  17 C :   -0.018560
  18 C :   -0.280764
  19 H :    0.121536
  20 H :    0.130390
  21 H :    0.114678
  22 H :    0.110107
  23 H :    0.105278
  24 H :    0.119414
  25 H :    0.111123
  26 H :    0.109289
  27 H :    0.114175
  28 H :    0.116212
  29 H :    0.207152
  30 H :    0.180743
  31 H :    0.112455
  32 H :    0.105011
  33 H :    0.113673
  34 H :    0.120975
  35 H :    0.121486
  36 H :    0.122833
  37 H :    0.103716
  38 H :    0.117807
  39 H :    0.118046
  40 H :    0.109022
Sum of atomic charges:    0.0000000

LOEWDIN ATOMIC CHARGES
----------------------
   0 C :   -0.371561
   1 C :   -0.121643
   2 O :   -0.241706
   3 P :    0.568364
   4 S :   -0.318834
   5 O :   -0.235488
   6 C :   -0.125271
   7 C :   -0.365990
   8 S :    0.086434
   9 C :   -0.482105
  10 S :    0.075492
  11 P :    0.574468
  12 S :   -0.285324
  13 O :   -0.248890
  14 C :   -0.115205
  15 C :   -0.371298
  16 O :   -0.228549
  17 C :   -0.115501
  18 C :   -0.358483
  19 H :    0.125215
  20 H :    0.122323
  21 H :    0.132108
  22 H :    0.109021
  23 H :    0.118818
  24 H :    0.110798
  25 H :    0.116542
  26 H :    0.129320
  27 H :    0.125152
  28 H :    0.119465
  29 H :    0.124221
  30 H :    0.136570
  31 H :    0.112759
  32 H :    0.118630
  33 H :    0.131044
  34 H :    0.124358
  35 H :    0.119436
  36 H :    0.116890
  37 H :    0.106072
  38 H :    0.124480
  39 H :    0.128296
  40 H :    0.129571

  Mayer bond orders larger than 0.100000
B(  0-C ,  1-C ) :   1.1656 B(  0-C , 19-H ) :   0.9436 B(  0-C , 20-H ) :   0.9330
B(  0-C , 21-H ) :   0.9382 B(  1-C ,  2-O ) :   0.9103 B(  1-C , 22-H ) :   0.9125
B(  1-C , 23-H ) :   0.9327 B(  2-O ,  3-P ) :   1.0969 B(  3-P ,  4-S ) :   1.6114
B(  3-P ,  5-O ) :   1.1359 B(  3-P ,  8-S ) :   0.9659 B(  4-S ,  8-S ) :   0.1109
B(  5-O ,  6-C ) :   0.8927 B(  6-C ,  7-C ) :   1.1583 B(  6-C , 24-H ) :   0.9152
B(  6-C , 25-H ) :   0.9281 B(  7-C , 26-H ) :   0.9396 B(  7-C , 27-H ) :   0.9448
B(  7-C , 28-H ) :   0.9363 B(  8-S ,  9-C ) :   0.9988 B(  9-C , 10-S ) :   1.0052
B(  9-C , 29-H ) :   0.8473 B(  9-C , 30-H ) :   0.9107 B( 10-S , 11-P ) :   0.9574
B( 10-S , 12-S ) :   0.1177 B( 11-P , 12-S ) :   1.6144 B( 11-P , 13-O ) :   1.0733
B( 11-P , 16-O ) :   1.1444 B( 12-S , 29-H ) :   0.1104 B( 13-O , 14-C ) :   0.9105
B( 14-C , 15-C ) :   1.1667 B( 14-C , 31-H ) :   0.9201 B( 14-C , 32-H ) :   0.9342
B( 15-C , 33-H ) :   0.9363 B( 15-C , 34-H ) :   0.9410 B( 15-C , 35-H ) :   0.9380
B( 16-O , 17-C ) :   0.8841 B( 17-C , 18-C ) :   1.1630 B( 17-C , 36-H ) :   0.9218
B( 17-C , 37-H ) :   0.9191 B( 18-C , 38-H ) :   0.9422 B( 18-C , 39-H ) :   0.9470
B( 18-C , 40-H ) :   0.9401

Dispersion correction           -0.067875380
FINAL SINGLE POINT ENERGY     -2929.518884214133

DIPOLE MOMENT
-------------

Method             : SCF
Type of density    : Electron Density
Multiplicity       :   1
Irrep              :   0
Energy             : -2929.6379234846517647 Eh
Relativity type    :
Basis              : AO
                                X                 Y                 Z
Electronic contribution:      1.812690300      -6.137651198      -3.927935087
Nuclear contribution   :     -2.248954747       6.385120881       3.574539577
                        -----------------------------------------
Total Dipole Moment    :     -0.436264447       0.247469683      -0.353395509
                        -----------------------------------------
Magnitude (a.u.)       :      0.613560346
Magnitude (Debye)      :      1.559546459

Rotational constants in cm-1:             0.012609             0.005358             0.005009
Rotational constants in MHz :           378.000743           160.635811           150.175700

                             ****ORCA TERMINATED NORMALLY****
TOTAL RUN TIME: 0 days 0 hours 0 minutes 20 seconds 903 msec
