                         Program Version 6.0.0  -   RELEASE  -
|  1> ! r2scan-3c def2/J RI DEFGRID2 scfconv6 printgap
|  2> %output
|  3>     printlevel normal
|  4> end
|  5> * xyz 0 1
|  6> C 4.82673381 -0.7965933906 -1.3036880621
|  7> C 4.450605527 -0.5283328734 0.1382132164
|  8> O 3.4752317519 0.521892857 0.2790250165
|  9> P 2.0365165296 0.5549862899 -0.4005356013
| 10> S 1.940259726 0.9499518213 -2.3131707812
| 11> O 1.335747826 1.6798539216 0.4496986339
| 12> C 1.3234183448 1.6901214127 1.8976920465
| 13> C 2.3216552631 2.6990783532 2.425954704
| 14> S 1.2419699509 -1.3266838679 0.2061689149
| 15> C 0.1459277565 -1.698506599 -1.1948604457
| 16> S -1.5516801349 -2.0333538687 -0.6794556708
| 17> P -2.0423962419 -0.084461077 0.0188966888
| 18> S -1.4468287909 1.3952003605 -1.1176867857
| 19> O -1.5190757681 0.0215145452 1.4999237152
| 20> C -1.9474932504 -0.9159813172 2.5317336717
| 21> C -0.7658386139 -1.2390127375 3.4215761093
| 22> O -3.6115288322 -0.1945290384 0.2351839218
| 23> C -4.5226708608 -0.2455324589 -0.8823651506
| 24> C -5.9121377782 0.0573546495 -0.3599960117
| 25> H 5.6254105569 -1.5305288975 -1.3361644158
| 26> H 3.9687392277 -1.1777542781 -1.8548002333
| 27> H 5.1582328571 0.1198378226 -1.7859384144
| 28> H 5.3048081892 -0.1591910702 0.7086295483
| 29> H 4.0515354617 -1.4309441384 0.6090191883
| 30> H 0.2981124626 1.9586555334 2.1622079863
| 31> H 1.5446401319 0.6826791582 2.2614892244
| 32> H 3.3289718333 2.4197597965 2.1284197871
| 33> H 2.0998339286 3.6844089071 2.0251065236
| 34> H 2.2589386303 2.7281135842 3.5091985678
| 35> H 0.4997468907 -2.608238386 -1.6733904007
| 36> H 0.1715432515 -0.8513833909 -1.8870522104
| 37> H -2.7490800368 -0.4239310741 3.0840775122
| 38> H -2.3378499988 -1.8155130359 2.0482170712
| 39> H -0.3790166457 -0.3326714491 3.8781803663
| 40> H -1.0921151375 -1.9209742951 4.200221103
| 41> H 0.0243318269 -1.7113798513 2.8430181796
| 42> H -4.2011575422 0.4897488325 -1.6273413455
| 43> H -4.4679075155 -1.2460335385 -1.3195221147
| 44> H -6.6192022244 0.0077525875 -1.1814062939
| 45> H -6.1888628773 -0.6684851019 0.3988404557
| 46> H -5.938195266 1.0520783705 0.0758804558
| 47> *
| 48>
| 49>                          ****END OF INPUT****

CARTESIAN COORDINATES (ANGSTROEM)
---------------------------------
  C      4.826734   -0.796593   -1.303688
  C      4.450606   -0.528333    0.138213
  O      3.475232    0.521893    0.279025
  P      2.036517    0.554986   -0.400536
  S      1.940260    0.949952   -2.313171
  O      1.335748    1.679854    0.449699
  C      1.323418    1.690121    1.897692
  C      2.321655    2.699078    2.425955
  S      1.241970   -1.326684    0.206169
  C      0.145928   -1.698507   -1.194860
  S     -1.551680   -2.033354   -0.679456
  P     -2.042396   -0.084461    0.018897
  S     -1.446829    1.395200   -1.117687
  O     -1.519076    0.021515    1.499924
  C     -1.947493   -0.915981    2.531734
  C     -0.765839   -1.239013    3.421576
  O     -3.611529   -0.194529    0.235184
  C     -4.522671   -0.245532   -0.882365
  C     -5.912138    0.057355   -0.359996
  H      5.625411   -1.530529   -1.336164
  H      3.968739   -1.177754   -1.854800
  H      5.158233    0.119838   -1.785938
  H      5.304808   -0.159191    0.708630
  H      4.051535   -1.430944    0.609019
  H      0.298112    1.958656    2.162208
  H      1.544640    0.682679    2.261489
  H      3.328972    2.419760    2.128420
  H      2.099834    3.684409    2.025107
  H      2.258939    2.728114    3.509199
  H      0.499747   -2.608238   -1.673390
  H      0.171543   -0.851383   -1.887052
  H     -2.749080   -0.423931    3.084078
  H     -2.337850   -1.815513    2.048217
  H     -0.379017   -0.332671    3.878180
  H     -1.092115   -1.920974    4.200221
  H      0.024332   -1.711380    2.843018
  H     -4.201158    0.489749   -1.627341
  H     -4.467908   -1.246034   -1.319522
  H     -6.619202    0.007753   -1.181406
  H     -6.188863   -0.668485    0.398840
  H     -5.938195    1.052078    0.075880

 Total Charge           Charge          ....    0
 Multiplicity           Mult            ....    1
 Number of Electrons    NEL             ....  202
 Basis Dimension        Dim             ....  539

ORBITAL ENERGIES
----------------

  NO   OCC          E(Eh)            E(eV)
   0   2.0000     -88.575729     -2410.2681
   1   2.0000     -88.573137     -2410.1976
   2   2.0000     -88.511045     -2408.5080
   3   2.0000     -88.508931     -2408.4505
   4   2.0000     -76.909448     -2092.8125
   5   2.0000     -76.908101     -2092.7758
   6   2.0000     -18.992988      -516.8255
   7   2.0000     -18.991727      -516.7912
   8   2.0000     -18.989295      -516.7250
   9   2.0000     -18.979845      -516.4678
  10   2.0000     -10.105167      -274.9756
  11   2.0000     -10.104441      -274.9558
  12   2.0000     -10.100490      -274.8483
  13   2.0000     -10.098764      -274.8013
  14   2.0000     -10.093969      -274.6709
  15   2.0000     -10.036604      -273.1099
  16   2.0000     -10.033566      -273.0272
  17   2.0000     -10.025555      -272.8092
  18   2.0000     -10.024054      -272.7684
  19   2.0000      -7.870188      -214.1587
  20   2.0000      -7.867821      -214.0943
  21   2.0000      -7.805462      -212.3974
  22   2.0000      -7.803761      -212.3511
  23   2.0000      -6.588027      -179.2693
  24   2.0000      -6.586187      -179.2193
  25   2.0000      -5.817005      -158.2888
  26   2.0000      -5.814537      -158.2216
  27   2.0000      -5.813786      -158.2012
  28   2.0000      -5.811512      -158.1393
  29   2.0000      -5.807598      -158.0328
  30   2.0000      -5.805188      -157.9672
  31   2.0000      -5.753292      -156.5550
  32   2.0000      -5.751671      -156.5109
  33   2.0000      -5.745632      -156.3466
  34   2.0000      -5.745467      -156.3421
  35   2.0000      -5.744100      -156.3049
  36   2.0000      -5.743436      -156.2868
  37   2.0000      -4.733867      -128.8151
  38   2.0000      -4.733121      -128.7948
  39   2.0000      -4.731887      -128.7612
  40   2.0000      -4.731446      -128.7492
  41   2.0000      -4.731241      -128.7436
  42   2.0000      -4.729484      -128.6958
  43   2.0000      -1.051749       -28.6195
  44   2.0000      -1.045320       -28.4446
  45   2.0000      -1.010011       -27.4838
  46   2.0000      -1.002264       -27.2730
  47   2.0000      -0.798740       -21.7348
  48   2.0000      -0.759087       -20.6558
  49   2.0000      -0.749833       -20.4040
  50   2.0000      -0.737858       -20.0781
  51   2.0000      -0.730542       -19.8791
  52   2.0000      -0.709323       -19.3017
  53   2.0000      -0.680521       -18.5179
  54   2.0000      -0.663088       -18.0435
  55   2.0000      -0.618207       -16.8223
  56   2.0000      -0.613483       -16.6937
  57   2.0000      -0.607709       -16.5366
  58   2.0000      -0.601286       -16.3618
  59   2.0000      -0.598563       -16.2877
  60   2.0000      -0.537519       -14.6266
  61   2.0000      -0.521964       -14.2034
  62   2.0000      -0.501802       -13.6547
  63   2.0000      -0.488354       -13.2888
  64   2.0000      -0.469015       -12.7626
  65   2.0000      -0.467190       -12.7129
  66   2.0000      -0.455935       -12.4066
  67   2.0000      -0.454017       -12.3544
  68   2.0000      -0.448422       -12.2022
  69   2.0000      -0.434206       -11.8153
  70   2.0000      -0.423780       -11.5316
  71   2.0000      -0.420977       -11.4554
  72   2.0000      -0.408783       -11.1236
  73   2.0000      -0.398224       -10.8362
  74   2.0000      -0.393368       -10.7041
  75   2.0000      -0.383077       -10.4241
  76   2.0000      -0.375215       -10.2101
  77   2.0000      -0.369981       -10.0677
  78   2.0000      -0.369245       -10.0477
  79   2.0000      -0.366317        -9.9680
  80   2.0000      -0.363677        -9.8962
  81   2.0000      -0.356909        -9.7120
  82   2.0000      -0.355290        -9.6679
  83   2.0000      -0.350312        -9.5325
  84   2.0000      -0.347806        -9.4643
  85   2.0000      -0.329355        -8.9622
  86   2.0000      -0.327023        -8.8987
  87   2.0000      -0.319092        -8.6829
  88   2.0000      -0.315524        -8.5859
  89   2.0000      -0.307355        -8.3635
  90   2.0000      -0.298187        -8.1141
  91   2.0000      -0.290225        -7.8974
  92   2.0000      -0.285271        -7.7626
  93   2.0000      -0.273887        -7.4528
  94   2.0000      -0.270125        -7.3505
  95   2.0000      -0.248152        -6.7526
  96   2.0000      -0.232892        -6.3373
  97   2.0000      -0.221274        -6.0212
  98   2.0000      -0.210716        -5.7339
  99   2.0000      -0.200820        -5.4646
 100   2.0000      -0.192281        -5.2322
 101   0.0000      -0.041490        -1.1290
 102   0.0000      -0.031769        -0.8645
 103   0.0000      -0.006496        -0.1768
 104   0.0000       0.014754         0.4015
 105   0.0000       0.018775         0.5109

MULLIKEN ATOMIC CHARGES
-----------------------
   0 C :   -0.430402
   1 C :   -0.156703
   2 O :   -0.288417
   3 P :    0.653693
   4 S :   -0.412110
   5 O :   -0.254943
   6 C :   -0.101140
   7 C :   -0.491026
   8 S :   -0.208709
   9 C :   -0.218670
  10 S :   -0.179973
  11 P :    0.642156
  12 S :   -0.386689
  13 O :   -0.257311
  14 C :   -0.099025
  15 C :   -0.471099
  16 O :   -0.292149
  17 C :   -0.157527
  18 C :   -0.439563
  19 H :    0.143693
  20 H :    0.167513
  21 H :    0.163192
  22 H :    0.146924
  23 H :    0.152174
  24 H :    0.176426
  25 H :    0.146100
  26 H :    0.164540
  27 H :    0.161389
  28 H :    0.142326
  29 H :    0.193199
  30 H :    0.225617
  31 H :    0.156379
  32 H :    0.155141
  33 H :    0.154388
  34 H :    0.147308
  35 H :    0.174563
  36 H :    0.173923
  37 H :    0.148205
  38 H :    0.147426
  39 H :    0.149895
  40 H :    0.159290
Sum of atomic charges:    0.0000000

LOEWDIN ATOMIC CHARGES
----------------------
   0 C :   -0.407339
   1 C :    0.020425
   2 O :   -0.673776
   3 P :    0.376189
   4 S :   -0.093804
   5 O :   -0.652951
   6 C :    0.018526
   7 C :   -0.392260
   8 S :    0.122008
   9 C :   -0.418226
  10 S :    0.118262
  11 P :    0.364992
  12 S :   -0.050745
  13 O :   -0.657814
  14 C :    0.023058
  15 C :   -0.397272
  16 O :   -0.673893
  17 C :    0.020225
  18 C :   -0.385752
  19 H :    0.156638
  20 H :    0.165950
  21 H :    0.165647
  22 H :    0.179511
  23 H :    0.171604
  24 H :    0.188064
  25 H :    0.172715
  26 H :    0.164773
  27 H :    0.163292
  28 H :    0.156781
  29 H :    0.179322
  30 H :    0.204128
  31 H :    0.176449
  32 H :    0.177029
  33 H :    0.158961
  34 H :    0.159506
  35 H :    0.165824
  36 H :    0.182355
  37 H :    0.170927
  38 H :    0.160372
  39 H :    0.158228
  40 H :    0.162069

  Mayer bond orders larger than 0.100000
B(  0-C ,  1-C ) :   0.9460 B(  0-C , 19-H ) :   0.9629 B(  0-C , 20-H ) :   0.9557
B(  0-C , 21-H ) :   0.9654 B(  1-C ,  2-O ) :   0.8124 B(  1-C , 22-H ) :   0.9603
B(  1-C , 23-H ) :   0.9595 B(  2-O ,  3-P ) :   1.0343 B(  3-P ,  4-S ) :   1.8659
B(  3-P ,  5-O ) :   1.1571 B(  3-P ,  8-S ) :   0.9841 B(  5-O ,  6-C ) :   0.7223
B(  6-C ,  7-C ) :   0.9358 B(  6-C , 24-H ) :   0.9542 B(  6-C , 25-H ) :   0.9651
B(  7-C , 26-H ) :   0.9725 B(  7-C , 27-H ) :   0.9736 B(  7-C , 28-H ) :   0.9668
B(  8-S ,  9-C ) :   0.8996 B(  9-C , 10-S ) :   0.9242 B(  9-C , 29-H ) :   0.9156
B(  9-C , 30-H ) :   0.9037 B( 10-S , 11-P ) :   0.9711 B( 11-P , 12-S ) :   1.9043
B( 11-P , 13-O ) :   1.1040 B( 11-P , 16-O ) :   1.0586 B( 13-O , 14-C ) :   0.7543
B( 14-C , 15-C ) :   0.9467 B( 14-C , 31-H ) :   0.9503 B( 14-C , 32-H ) :   0.9599
B( 15-C , 33-H ) :   0.9715 B( 15-C , 34-H ) :   0.9626 B( 15-C , 35-H ) :   0.9664
B( 16-O , 17-C ) :   0.7870 B( 17-C , 18-C ) :   0.9566 B( 17-C , 36-H ) :   0.9507
B( 17-C , 37-H ) :   0.9418 B( 18-C , 38-H ) :   0.9639 B( 18-C , 39-H ) :   0.9718
B( 18-C , 40-H ) :   0.9712

Dispersion correction           -0.021952187
FINAL SINGLE POINT ENERGY     -2932.454725622913

DIPOLE MOMENT
-------------

Method             : SCF
Type of density    : Electron Density
Multiplicity       :   1
Irrep              :   0
Energy             : -2932.4792953297019267 Eh
Relativity type    :
Basis              : AO
                                X                 Y                 Z
Electronic contribution:     -0.616222252       1.499713052     -14.867135385
Nuclear contribution   :      0.334311303      -2.925948765      16.689810195
                        -----------------------------------------
Total Dipole Moment    :     -0.281910949      -1.426235713       1.822674810
                        -----------------------------------------
Magnitude (a.u.)       :      2.331472829
Magnitude (Debye)      :      5.926132975

Rotational constants in cm-1:             0.012704             0.005154             0.004861
Rotational constants in MHz :           380.867460           154.527923           145.738297

                             ****ORCA TERMINATED NORMALLY****
TOTAL RUN TIME: 0 days 0 hours 1 minutes 21 seconds 987 msec
