                         Program Version 6.0.0  -   RELEASE  -
|  1> ! r2scan-3c def2/J RI DEFGRID2 scfconv6 printgap
|  2> %output
|  3>     printlevel normal
|  4> end
|  5> %cpcm
|  6>     smd true
|  7>     smdsolvent "water"
|  8> end
|  9> * xyz 0 1
| 10> C 4.82673381 -0.7965933906 -1.3036880621
| 11> C 4.450605527 -0.5283328734 0.1382132164
| 12> O 3.4752317519 0.521892857 0.2790250165
| 13> P 2.0365165296 0.5549862899 -0.4005356013
| 14> S 1.940259726 0.9499518213 -2.3131707812
| 15> O 1.335747826 1.6798539216 0.4496986339
| 16> C 1.3234183448 1.6901214127 1.8976920465
| 17> C 2.3216552631 2.6990783532 2.425954704
| 18> S 1.2419699509 -1.3266838679 0.2061689149
| 19> C 0.1459277565 -1.698506599 -1.1948604457
| 20> S -1.5516801349 -2.0333538687 -0.6794556708
| 21> P -2.0423962419 -0.084461077 0.0188966888
| 22> S -1.4468287909 1.3952003605 -1.1176867857
| 23> O -1.5190757681 0.0215145452 1.4999237152
| 24> C -1.9474932504 -0.9159813172 2.5317336717
| 25> C -0.7658386139 -1.2390127375 3.4215761093
| 26> O -3.6115288322 -0.1945290384 0.2351839218
| 27> C -4.5226708608 -0.2455324589 -0.8823651506
| 28> C -5.9121377782 0.0573546495 -0.3599960117
| 29> H 5.6254105569 -1.5305288975 -1.3361644158
| 30> H 3.9687392277 -1.1777542781 -1.8548002333
| 31> H 5.1582328571 0.1198378226 -1.7859384144
| 32> H 5.3048081892 -0.1591910702 0.7086295483
| 33> H 4.0515354617 -1.4309441384 0.6090191883
| 34> H 0.2981124626 1.9586555334 2.1622079863
| 35> H 1.5446401319 0.6826791582 2.2614892244
| 36> H 3.3289718333 2.4197597965 2.1284197871
| 37> H 2.0998339286 3.6844089071 2.0251065236
| 38> H 2.2589386303 2.7281135842 3.5091985678
| 39> H 0.4997468907 -2.608238386 -1.6733904007
| 40> H 0.1715432515 -0.8513833909 -1.8870522104
| 41> H -2.7490800368 -0.4239310741 3.0840775122
| 42> H -2.3378499988 -1.8155130359 2.0482170712
| 43> H -0.3790166457 -0.3326714491 3.8781803663
| 44> H -1.0921151375 -1.9209742951 4.200221103
| 45> H 0.0243318269 -1.7113798513 2.8430181796
| 46> H -4.2011575422 0.4897488325 -1.6273413455
| 47> H -4.4679075155 -1.2460335385 -1.3195221147
| 48> H -6.6192022244 0.0077525875 -1.1814062939
| 49> H -6.1888628773 -0.6684851019 0.3988404557
| 50> H -5.938195266 1.0520783705 0.0758804558
| 51> *
| 52>
| 53>                          ****END OF INPUT****

CARTESIAN COORDINATES (ANGSTROEM)
---------------------------------
  C      4.826734   -0.796593   -1.303688
  C      4.450606   -0.528333    0.138213
  O      3.475232    0.521893    0.279025
  P      2.036517    0.554986   -0.400536
  S      1.940260    0.949952   -2.313171
  O      1.335748    1.679854    0.449699
  C      1.323418    1.690121    1.897692
  C      2.321655    2.699078    2.425955
  S      1.241970   -1.326684    0.206169
  C      0.145928   -1.698507   -1.194860
  S     -1.551680   -2.033354   -0.679456
  P     -2.042396   -0.084461    0.018897
  S     -1.446829    1.395200   -1.117687
  O     -1.519076    0.021515    1.499924
  C     -1.947493   -0.915981    2.531734
  C     -0.765839   -1.239013    3.421576
  O     -3.611529   -0.194529    0.235184
  C     -4.522671   -0.245532   -0.882365
  C     -5.912138    0.057355   -0.359996
  H      5.625411   -1.530529   -1.336164
  H      3.968739   -1.177754   -1.854800
  H      5.158233    0.119838   -1.785938
  H      5.304808   -0.159191    0.708630
  H      4.051535   -1.430944    0.609019
  H      0.298112    1.958656    2.162208
  H      1.544640    0.682679    2.261489
  H      3.328972    2.419760    2.128420
  H      2.099834    3.684409    2.025107
  H      2.258939    2.728114    3.509199
  H      0.499747   -2.608238   -1.673390
  H      0.171543   -0.851383   -1.887052
  H     -2.749080   -0.423931    3.084078
  H     -2.337850   -1.815513    2.048217
  H     -0.379017   -0.332671    3.878180
  H     -1.092115   -1.920974    4.200221
  H      0.024332   -1.711380    2.843018
  H     -4.201158    0.489749   -1.627341
  H     -4.467908   -1.246034   -1.319522
  H     -6.619202    0.007753   -1.181406
  H     -6.188863   -0.668485    0.398840
  H     -5.938195    1.052078    0.075880

 Total Charge           Charge          ....    0
 Multiplicity           Mult            ....    1
 Number of Electrons    NEL             ....  202
 Basis Dimension        Dim             ....  539

ORBITAL ENERGIES
----------------

  NO   OCC          E(Eh)            E(eV)
   0   2.0000     -88.579560     -2410.3724
   1   2.0000     -88.576759     -2410.2962
   2   2.0000     -88.523159     -2408.8376
   3   2.0000     -88.522373     -2408.8162
   4   2.0000     -76.917537     -2093.0326
   5   2.0000     -76.916824     -2093.0132
   6   2.0000     -18.994642      -516.8705
   7   2.0000     -18.994344      -516.8624
   8   2.0000     -18.992722      -516.8182
   9   2.0000     -18.988319      -516.6984
  10   2.0000     -10.103473      -274.9295
  11   2.0000     -10.092563      -274.6326
  12   2.0000     -10.090695      -274.5818
  13   2.0000     -10.090475      -274.5758
  14   2.0000     -10.089968      -274.5620
  15   2.0000     -10.019589      -272.6469
  16   2.0000     -10.019021      -272.6314
  17   2.0000     -10.017778      -272.5976
  18   2.0000     -10.016900      -272.5737
  19   2.0000      -7.873826      -214.2577
  20   2.0000      -7.871177      -214.1856
  21   2.0000      -7.818249      -212.7454
  22   2.0000      -7.817822      -212.7338
  23   2.0000      -6.595640      -179.4765
  24   2.0000      -6.595392      -179.4697
  25   2.0000      -5.820669      -158.3885
  26   2.0000      -5.817960      -158.3147
  27   2.0000      -5.817459      -158.3011
  28   2.0000      -5.814923      -158.2321
  29   2.0000      -5.811220      -158.1313
  30   2.0000      -5.808466      -158.0564
  31   2.0000      -5.765916      -156.8986
  32   2.0000      -5.765566      -156.8890
  33   2.0000      -5.758381      -156.6935
  34   2.0000      -5.758317      -156.6918
  35   2.0000      -5.758202      -156.6886
  36   2.0000      -5.757497      -156.6695
  37   2.0000      -4.741291      -129.0171
  38   2.0000      -4.741179      -129.0140
  39   2.0000      -4.740818      -129.0042
  40   2.0000      -4.740445      -128.9941
  41   2.0000      -4.739115      -128.9579
  42   2.0000      -4.738774      -128.9486
  43   2.0000      -1.053751       -28.6740
  44   2.0000      -1.050820       -28.5943
  45   2.0000      -1.011197       -27.5161
  46   2.0000      -1.007576       -27.4175
  47   2.0000      -0.800526       -21.7834
  48   2.0000      -0.754910       -20.5421
  49   2.0000      -0.746722       -20.3193
  50   2.0000      -0.726694       -19.7743
  51   2.0000      -0.724770       -19.7220
  52   2.0000      -0.709790       -19.3144
  53   2.0000      -0.686448       -18.6792
  54   2.0000      -0.670402       -18.2426
  55   2.0000      -0.619799       -16.8656
  56   2.0000      -0.610443       -16.6110
  57   2.0000      -0.600308       -16.3352
  58   2.0000      -0.597033       -16.2461
  59   2.0000      -0.596380       -16.2283
  60   2.0000      -0.534594       -14.5470
  61   2.0000      -0.520446       -14.1621
  62   2.0000      -0.497242       -13.5306
  63   2.0000      -0.486845       -13.2477
  64   2.0000      -0.468059       -12.7365
  65   2.0000      -0.465890       -12.6775
  66   2.0000      -0.452119       -12.3028
  67   2.0000      -0.448165       -12.1952
  68   2.0000      -0.446052       -12.1377
  69   2.0000      -0.431727       -11.7479
  70   2.0000      -0.421541       -11.4707
  71   2.0000      -0.417879       -11.3711
  72   2.0000      -0.403916       -10.9911
  73   2.0000      -0.395752       -10.7690
  74   2.0000      -0.386147       -10.5076
  75   2.0000      -0.379724       -10.3328
  76   2.0000      -0.372977       -10.1492
  77   2.0000      -0.369330       -10.0500
  78   2.0000      -0.362889        -9.8747
  79   2.0000      -0.358199        -9.7471
  80   2.0000      -0.354977        -9.6594
  81   2.0000      -0.350515        -9.5380
  82   2.0000      -0.349044        -9.4980
  83   2.0000      -0.347332        -9.4514
  84   2.0000      -0.343971        -9.3599
  85   2.0000      -0.328425        -8.9369
  86   2.0000      -0.322464        -8.7747
  87   2.0000      -0.315397        -8.5824
  88   2.0000      -0.312141        -8.4938
  89   2.0000      -0.305469        -8.3122
  90   2.0000      -0.299218        -8.1421
  91   2.0000      -0.290061        -7.8930
  92   2.0000      -0.284466        -7.7407
  93   2.0000      -0.276005        -7.5105
  94   2.0000      -0.273368        -7.4387
  95   2.0000      -0.251591        -6.8461
  96   2.0000      -0.239681        -6.5221
  97   2.0000      -0.235084        -6.3970
  98   2.0000      -0.224450        -6.1076
  99   2.0000      -0.213044        -5.7972
 100   2.0000      -0.206788        -5.6270
 101   0.0000      -0.045309        -1.2329
 102   0.0000      -0.038409        -1.0452
 103   0.0000      -0.010927        -0.2973
 104   0.0000       0.008854         0.2409
 105   0.0000       0.013224         0.3598

MULLIKEN ATOMIC CHARGES
-----------------------
   0 C :   -0.468548
   1 C :   -0.155048
   2 O :   -0.309585
   3 P :    0.672613
   4 S :   -0.484957
   5 O :   -0.287688
   6 C :   -0.093905
   7 C :   -0.535018
   8 S :   -0.191290
   9 C :   -0.217193
  10 S :   -0.177455
  11 P :    0.666295
  12 S :   -0.463872
  13 O :   -0.282936
  14 C :   -0.096848
  15 C :   -0.501674
  16 O :   -0.312577
  17 C :   -0.148714
  18 C :   -0.480330
  19 H :    0.170809
  20 H :    0.164511
  21 H :    0.167366
  22 H :    0.174766
  23 H :    0.170310
  24 H :    0.183382
  25 H :    0.173336
  26 H :    0.169578
  27 H :    0.168307
  28 H :    0.170838
  29 H :    0.234662
  30 H :    0.215540
  31 H :    0.178817
  32 H :    0.168274
  33 H :    0.172153
  34 H :    0.170781
  35 H :    0.171974
  36 H :    0.173137
  37 H :    0.168729
  38 H :    0.169487
  39 H :    0.165751
  40 H :    0.166222
Sum of atomic charges:   -0.0000000

LOEWDIN ATOMIC CHARGES
----------------------
   0 C :   -0.411009
   1 C :    0.028067
   2 O :   -0.680541
   3 P :    0.378481
   4 S :   -0.147688
   5 O :   -0.679929
   6 C :    0.023558
   7 C :   -0.394622
   8 S :    0.140699
   9 C :   -0.413442
  10 S :    0.128331
  11 P :    0.369604
  12 S :   -0.107664
  13 O :   -0.671213
  14 C :    0.030374
  15 C :   -0.397591
  16 O :   -0.682263
  17 C :    0.024184
  18 C :   -0.388894
  19 H :    0.167061
  20 H :    0.161751
  21 H :    0.163390
  22 H :    0.191419
  23 H :    0.179069
  24 H :    0.191137
  25 H :    0.182919
  26 H :    0.164945
  27 H :    0.163810
  28 H :    0.168475
  29 H :    0.195571
  30 H :    0.200080
  31 H :    0.186007
  32 H :    0.182110
  33 H :    0.164852
  34 H :    0.168762
  35 H :    0.164085
  36 H :    0.181541
  37 H :    0.179306
  38 H :    0.168977
  39 H :    0.163209
  40 H :    0.163084

  Mayer bond orders larger than 0.100000
B(  0-C ,  1-C ) :   0.9256 B(  0-C , 19-H ) :   0.9568 B(  0-C , 20-H ) :   0.9581
B(  0-C , 21-H ) :   0.9677 B(  1-C ,  2-O ) :   0.8017 B(  1-C , 22-H ) :   0.9512
B(  1-C , 23-H ) :   0.9555 B(  2-O ,  3-P ) :   1.0519 B(  3-P ,  4-S ) :   1.8187
B(  3-P ,  5-O ) :   1.1606 B(  3-P ,  8-S ) :   1.0129 B(  5-O ,  6-C ) :   0.7105
B(  6-C ,  7-C ) :   0.9320 B(  6-C , 24-H ) :   0.9470 B(  6-C , 25-H ) :   0.9514
B(  7-C , 26-H ) :   0.9709 B(  7-C , 27-H ) :   0.9728 B(  7-C , 28-H ) :   0.9596
B(  8-S ,  9-C ) :   0.8902 B(  9-C , 10-S ) :   0.9147 B(  9-C , 29-H ) :   0.8997
B(  9-C , 30-H ) :   0.9084 B( 10-S , 11-P ) :   0.9985 B( 11-P , 12-S ) :   1.8507
B( 11-P , 13-O ) :   1.1186 B( 11-P , 16-O ) :   1.0689 B( 13-O , 14-C ) :   0.7398
B( 14-C , 15-C ) :   0.9443 B( 14-C , 31-H ) :   0.9391 B( 14-C , 32-H ) :   0.9527
B( 15-C , 33-H ) :   0.9666 B( 15-C , 34-H ) :   0.9570 B( 15-C , 35-H ) :   0.9656
B( 16-O , 17-C ) :   0.7786 B( 17-C , 18-C ) :   0.9547 B( 17-C , 36-H ) :   0.9483
B( 17-C , 37-H ) :   0.9326 B( 18-C , 38-H ) :   0.9581 B( 18-C , 39-H ) :   0.9684
B( 18-C , 40-H ) :   0.9692

Dispersion correction           -0.021952187
FINAL SINGLE POINT ENERGY     -2932.467599135070

DIPOLE MOMENT
-------------

Method             : SCF
Type of density    : Electron Density
Multiplicity       :   1
Irrep              :   0
Energy             : -2932.4921688418589838 Eh
Relativity type    :
Basis              : AO
                                X                 Y                 Z
Electronic contribution:     -0.649133253       0.470242156     -14.018511179
Nuclear contribution   :      0.334311303      -2.925948765      16.689810195
                        -----------------------------------------
Total Dipole Moment    :     -0.314821950      -2.455706609       2.671299016
                        -----------------------------------------
Magnitude (a.u.)       :      3.642176031
Magnitude (Debye)      :      9.257675751

Rotational constants in cm-1:             0.012704             0.005154             0.004861
Rotational constants in MHz :           380.867460           154.527923           145.738297

                             ****ORCA TERMINATED NORMALLY****
TOTAL RUN TIME: 0 days 0 hours 2 minutes 2 seconds 816 msec
