                         Program Version 6.0.1  -  RELEASE   -
|  1> ! r2scan-3c def2/J RI DEFGRID2 scfconv6 printgap
|  2> %output
|  3>     printlevel normal
|  4> end
|  5> * xyz 0 1
|  6> C 5.3161838682 -0.9174088528 -1.9105094656
|  7> C 4.5328580656 -1.4855548628 -0.7432832456
|  8> O 3.1294273094 -1.3784589362 -1.0484649127
|  9> C 2.2817054622 -1.9994840203 -0.2473845061
| 10> O 2.6140579078 -2.7075337618 0.6761047091
| 11> C 0.8401248798 -1.7825524044 -0.6714440281
| 12> C 0.5831432358 -0.3101943379 -0.9705037503
| 13> H 1.201363084 0.0034005006 -1.8190394056
| 14> C 0.9758399376 0.5667150467 0.205022648
| 15> O 1.8981285967 0.2862823119 0.9368623824
| 16> O 0.2615332519 1.6702955222 0.2673062767
| 17> C 0.5615605559 2.6505620314 1.2825332314
| 18> C 0.6217459593 4.0219200428 0.6362017188
| 19> S -1.1243950153 -0.00261143 -1.5172244463
| 20> P -2.1352716424 0.192726384 0.3425029429
| 21> S -1.3176669716 -0.6177181777 1.9336227082
| 22> O -2.5007128395 1.7119558017 0.5598633093
| 23> C -3.1593812801 2.4977281574 -0.4556095775
| 24> O -3.5788028776 -0.3946973665 -0.0242012741
| 25> C -3.7777640697 -1.7910968878 -0.2686466786
| 26> H 6.3773897311 -0.9960975194 -1.6994864179
| 27> H 5.0882667464 -1.4710703491 -2.8163778351
| 28> H 5.0576849883 0.1264466798 -2.0599399999
| 29> H 4.7154772091 -0.9309345269 0.1828636452
| 30> H 4.7678174028 -2.5396323539 -0.5648179815
| 31> H 0.2020700869 -2.1376212703 0.1403762693
| 32> H 0.6496306956 -2.3743404423 -1.5680444796
| 33> H -0.2429451196 2.5882047256 2.0210844177
| 34> H 1.5073649834 2.3726372959 1.7559740503
| 35> H 1.4231820348 4.0599991961 -0.0964429834
| 36> H -0.3204303371 4.2416867996 0.1432674746
| 37> H 0.8060878379 4.7652732609 1.4045708033
| 38> H -4.1376908609 2.0755874636 -0.6753717618
| 39> H -2.5494182081 2.5209766792 -1.358420874
| 40> H -3.256424105 3.4911454892 -0.0255348656
| 41> H -3.3205766514 -2.3813737803 0.5271038463
| 42> H -3.3468441281 -2.0635482503 -1.2318283729
| 43> H -4.8550089289 -1.9363551272 -0.2755877717
| 44> *
| 45>
| 46>                          ****END OF INPUT****

CARTESIAN COORDINATES (ANGSTROEM)
---------------------------------
  C      5.316184   -0.917409   -1.910509
  C      4.532858   -1.485555   -0.743283
  O      3.129427   -1.378459   -1.048465
  C      2.281705   -1.999484   -0.247385
  O      2.614058   -2.707534    0.676105
  C      0.840125   -1.782552   -0.671444
  C      0.583143   -0.310194   -0.970504
  H      1.201363    0.003401   -1.819039
  C      0.975840    0.566715    0.205023
  O      1.898129    0.286282    0.936862
  O      0.261533    1.670296    0.267306
  C      0.561561    2.650562    1.282533
  C      0.621746    4.021920    0.636202
  S     -1.124395   -0.002611   -1.517224
  P     -2.135272    0.192726    0.342503
  S     -1.317667   -0.617718    1.933623
  O     -2.500713    1.711956    0.559863
  C     -3.159381    2.497728   -0.455610
  O     -3.578803   -0.394697   -0.024201
  C     -3.777764   -1.791097   -0.268647
  H      6.377390   -0.996098   -1.699486
  H      5.088267   -1.471070   -2.816378
  H      5.057685    0.126447   -2.059940
  H      4.715477   -0.930935    0.182864
  H      4.767817   -2.539632   -0.564818
  H      0.202070   -2.137621    0.140376
  H      0.649631   -2.374340   -1.568044
  H     -0.242945    2.588205    2.021084
  H      1.507365    2.372637    1.755974
  H      1.423182    4.059999   -0.096443
  H     -0.320430    4.241687    0.143267
  H      0.806088    4.765273    1.404571
  H     -4.137691    2.075587   -0.675372
  H     -2.549418    2.520977   -1.358421
  H     -3.256424    3.491145   -0.025535
  H     -3.320577   -2.381374    0.527104
  H     -3.346844   -2.063548   -1.231828
  H     -4.855009   -1.936355   -0.275588

 Total Charge           Charge          ....    0
 Multiplicity           Mult            ....    1
 Number of Electrons    NEL             ....  174
 Basis Dimension        Dim             ....  510

ORBITAL ENERGIES
----------------

  NO   OCC          E(Eh)            E(eV)
   0   2.0000     -88.579816     -2410.3793
   1   2.0000     -88.521956     -2408.8049
   2   2.0000     -76.918640     -2093.0626
   3   2.0000     -19.006045      -517.1808
   4   2.0000     -18.999520      -517.0032
   5   2.0000     -18.995879      -516.9041
   6   2.0000     -18.989903      -516.7415
   7   2.0000     -18.938746      -515.3495
   8   2.0000     -18.916070      -514.7324
   9   2.0000     -10.168144      -276.6893
  10   2.0000     -10.146398      -276.0975
  11   2.0000     -10.103149      -274.9207
  12   2.0000     -10.101321      -274.8709
  13   2.0000     -10.095372      -274.7090
  14   2.0000     -10.092537      -274.6319
  15   2.0000     -10.084952      -274.4255
  16   2.0000     -10.049312      -273.4557
  17   2.0000     -10.036219      -273.0994
  18   2.0000     -10.028801      -272.8976
  19   2.0000      -7.874254      -214.2693
  20   2.0000      -7.816380      -212.6945
  21   2.0000      -6.596779      -179.5075
  22   2.0000      -5.821223      -158.4035
  23   2.0000      -5.817958      -158.3147
  24   2.0000      -5.811397      -158.1361
  25   2.0000      -5.764346      -156.8558
  26   2.0000      -5.756495      -156.6422
  27   2.0000      -5.756302      -156.6369
  28   2.0000      -4.742527      -129.0507
  29   2.0000      -4.741873      -129.0329
  30   2.0000      -4.740213      -128.9878
  31   2.0000      -1.084759       -29.5178
  32   2.0000      -1.065498       -28.9937
  33   2.0000      -1.056010       -28.7355
  34   2.0000      -1.013899       -27.5896
  35   2.0000      -0.989588       -26.9281
  36   2.0000      -0.966136       -26.2899
  37   2.0000      -0.813124       -22.1262
  38   2.0000      -0.754017       -20.5178
  39   2.0000      -0.745378       -20.2828
  40   2.0000      -0.733513       -19.9599
  41   2.0000      -0.698018       -18.9940
  42   2.0000      -0.681018       -18.5314
  43   2.0000      -0.662846       -18.0369
  44   2.0000      -0.650735       -17.7074
  45   2.0000      -0.617029       -16.7902
  46   2.0000      -0.597508       -16.2590
  47   2.0000      -0.546284       -14.8651
  48   2.0000      -0.535736       -14.5781
  49   2.0000      -0.530426       -14.4336
  50   2.0000      -0.507601       -13.8125
  51   2.0000      -0.499765       -13.5993
  52   2.0000      -0.471888       -12.8407
  53   2.0000      -0.460458       -12.5297
  54   2.0000      -0.459503       -12.5037
  55   2.0000      -0.455925       -12.4063
  56   2.0000      -0.451229       -12.2786
  57   2.0000      -0.440909       -11.9977
  58   2.0000      -0.436212       -11.8699
  59   2.0000      -0.425107       -11.5678
  60   2.0000      -0.424259       -11.5447
  61   2.0000      -0.423194       -11.5157
  62   2.0000      -0.407611       -11.0917
  63   2.0000      -0.399434       -10.8692
  64   2.0000      -0.384569       -10.4647
  65   2.0000      -0.377267       -10.2660
  66   2.0000      -0.374891       -10.2013
  67   2.0000      -0.367467        -9.9993
  68   2.0000      -0.363236        -9.8841
  69   2.0000      -0.355398        -9.6709
  70   2.0000      -0.351957        -9.5772
  71   2.0000      -0.343688        -9.3522
  72   2.0000      -0.335754        -9.1363
  73   2.0000      -0.328206        -8.9309
  74   2.0000      -0.324660        -8.8345
  75   2.0000      -0.317704        -8.6452
  76   2.0000      -0.315538        -8.5862
  77   2.0000      -0.310958        -8.4616
  78   2.0000      -0.293436        -7.9848
  79   2.0000      -0.283584        -7.7167
  80   2.0000      -0.278287        -7.5726
  81   2.0000      -0.262456        -7.1418
  82   2.0000      -0.257454        -7.0057
  83   2.0000      -0.237512        -6.4630
  84   2.0000      -0.224038        -6.0964
  85   2.0000      -0.219153        -5.9634
  86   2.0000      -0.215373        -5.8606
  87   0.0000      -0.045137        -1.2282
  88   0.0000      -0.030900        -0.8408
  89   0.0000      -0.001987        -0.0541
  90   0.0000       0.003780         0.1029
  91   0.0000       0.009670         0.2631

MULLIKEN ATOMIC CHARGES
-----------------------
   0 C :   -0.453388
   1 C :   -0.147849
   2 O :   -0.129311
   3 C :    0.334775
   4 O :   -0.379485
   5 C :   -0.480197
   6 C :    0.050363
   7 H :    0.203098
   8 C :    0.267644
   9 O :   -0.380735
  10 O :   -0.133611
  11 C :   -0.164639
  12 C :   -0.461443
  13 S :   -0.188633
  14 P :    0.740804
  15 S :   -0.408069
  16 O :   -0.299977
  17 C :   -0.300012
  18 O :   -0.356797
  19 C :   -0.296179
  20 H :    0.147805
  21 H :    0.151350
  22 H :    0.150683
  23 H :    0.165267
  24 H :    0.164264
  25 H :    0.216587
  26 H :    0.184065
  27 H :    0.172599
  28 H :    0.186699
  29 H :    0.151553
  30 H :    0.151376
  31 H :    0.153087
  32 H :    0.170398
  33 H :    0.172947
  34 H :    0.157101
  35 H :    0.176437
  36 H :    0.158233
  37 H :    0.153191
Sum of atomic charges:    0.0000000

LOEWDIN ATOMIC CHARGES
----------------------
   0 C :   -0.388280
   1 C :    0.036303
   2 O :   -0.605354
   3 C :    0.354066
   4 O :   -0.404692
   5 C :   -0.212429
   6 C :   -0.198818
   7 H :    0.212301
   8 C :    0.348840
   9 O :   -0.406635
  10 O :   -0.628118
  11 C :    0.034619
  12 C :   -0.383133
  13 S :    0.195467
  14 P :    0.401005
  15 S :   -0.047810
  16 O :   -0.651306
  17 C :   -0.054199
  18 O :   -0.684622
  19 C :   -0.059037
  20 H :    0.159724
  21 H :    0.158090
  22 H :    0.157577
  23 H :    0.182982
  24 H :    0.183741
  25 H :    0.200562
  26 H :    0.184015
  27 H :    0.187897
  28 H :    0.197363
  29 H :    0.157950
  30 H :    0.156923
  31 H :    0.161028
  32 H :    0.175463
  33 H :    0.174318
  34 H :    0.179863
  35 H :    0.177280
  36 H :    0.169060
  37 H :    0.177996

  Mayer bond orders larger than 0.100000
B(  0-C ,  1-C ) :   0.9391 B(  0-C , 20-H ) :   0.9684 B(  0-C , 21-H ) :   0.9749
B(  0-C , 22-H ) :   0.9733 B(  1-C ,  2-O ) :   0.7865 B(  1-C , 23-H ) :   0.9490
B(  1-C , 24-H ) :   0.9570 B(  2-O ,  3-C ) :   1.1007 B(  2-O ,  6-C ) :   0.1236
B(  3-C ,  4-O ) :   1.8867 B(  3-C ,  5-C ) :   0.8753 B(  5-C ,  6-C ) :   0.8759
B(  5-C , 25-H ) :   0.9893 B(  5-C , 26-H ) :   0.9526 B(  6-C ,  7-H ) :   0.8819
B(  6-C ,  8-C ) :   0.9890 B(  6-C , 13-S ) :   0.8320 B(  8-C ,  9-O ) :   1.7873
B(  8-C , 10-O ) :   1.1117 B( 10-O , 11-C ) :   0.7286 B( 11-C , 12-C ) :   0.9299
B( 11-C , 27-H ) :   0.9423 B( 11-C , 28-H ) :   0.9588 B( 12-C , 29-H ) :   0.9735
B( 12-C , 30-H ) :   0.9775 B( 12-C , 31-H ) :   0.9703 B( 13-S , 14-P ) :   1.0177
B( 14-P , 15-S ) :   1.8074 B( 14-P , 16-O ) :   1.1427 B( 14-P , 18-O ) :   1.0203
B( 16-O , 17-C ) :   0.7922 B( 17-C , 32-H ) :   0.9596 B( 17-C , 33-H ) :   0.9556
B( 17-C , 34-H ) :   0.9653 B( 18-O , 19-C ) :   0.8317 B( 19-C , 35-H ) :   0.9589
B( 19-C , 36-H ) :   0.9559 B( 19-C , 37-H ) :   0.9672

Dispersion correction           -0.017753764
FINAL SINGLE POINT ENERGY     -1981.451275962420

DIPOLE MOMENT
-------------

Method             : SCF
Type of density    : Electron Density
Multiplicity       :   1
Irrep              :   0
Energy             : -1981.4709339892551725 Eh
Relativity type    :
Basis              : AO
                                X                 Y                 Z
Electronic contribution:    -11.855318582      -7.232686876       5.997621492
Nuclear contribution   :     11.168697576       8.666033110      -7.817885641
                        -----------------------------------------
Total Dipole Moment    :     -0.686621006       1.433346234      -1.820264150
                        -----------------------------------------
Magnitude (a.u.)       :      2.416462581
Magnitude (Debye)      :      6.142159755

Rotational constants in cm-1:             0.015055             0.006601             0.005595
Rotational constants in MHz :           451.340114           197.899510           167.720761

                             ****ORCA TERMINATED NORMALLY****
TOTAL RUN TIME: 0 days 0 hours 1 minutes 34 seconds 629 msec
