                         Program Version 6.0.1  -  RELEASE   -
|  1> ! r2scan-3c def2/J RI DEFGRID2 scfconv6 printgap
|  2> %output
|  3>     printlevel normal
|  4> end
|  5> %cpcm
|  6>     smd true
|  7>     smdsolvent "water"
|  8> end
|  9> * xyz 0 1
| 10> C 5.3161838682 -0.9174088528 -1.9105094656
| 11> C 4.5328580656 -1.4855548628 -0.7432832456
| 12> O 3.1294273094 -1.3784589362 -1.0484649127
| 13> C 2.2817054622 -1.9994840203 -0.2473845061
| 14> O 2.6140579078 -2.7075337618 0.6761047091
| 15> C 0.8401248798 -1.7825524044 -0.6714440281
| 16> C 0.5831432358 -0.3101943379 -0.9705037503
| 17> H 1.201363084 0.0034005006 -1.8190394056
| 18> C 0.9758399376 0.5667150467 0.205022648
| 19> O 1.8981285967 0.2862823119 0.9368623824
| 20> O 0.2615332519 1.6702955222 0.2673062767
| 21> C 0.5615605559 2.6505620314 1.2825332314
| 22> C 0.6217459593 4.0219200428 0.6362017188
| 23> S -1.1243950153 -0.00261143 -1.5172244463
| 24> P -2.1352716424 0.192726384 0.3425029429
| 25> S -1.3176669716 -0.6177181777 1.9336227082
| 26> O -2.5007128395 1.7119558017 0.5598633093
| 27> C -3.1593812801 2.4977281574 -0.4556095775
| 28> O -3.5788028776 -0.3946973665 -0.0242012741
| 29> C -3.7777640697 -1.7910968878 -0.2686466786
| 30> H 6.3773897311 -0.9960975194 -1.6994864179
| 31> H 5.0882667464 -1.4710703491 -2.8163778351
| 32> H 5.0576849883 0.1264466798 -2.0599399999
| 33> H 4.7154772091 -0.9309345269 0.1828636452
| 34> H 4.7678174028 -2.5396323539 -0.5648179815
| 35> H 0.2020700869 -2.1376212703 0.1403762693
| 36> H 0.6496306956 -2.3743404423 -1.5680444796
| 37> H -0.2429451196 2.5882047256 2.0210844177
| 38> H 1.5073649834 2.3726372959 1.7559740503
| 39> H 1.4231820348 4.0599991961 -0.0964429834
| 40> H -0.3204303371 4.2416867996 0.1432674746
| 41> H 0.8060878379 4.7652732609 1.4045708033
| 42> H -4.1376908609 2.0755874636 -0.6753717618
| 43> H -2.5494182081 2.5209766792 -1.358420874
| 44> H -3.256424105 3.4911454892 -0.0255348656
| 45> H -3.3205766514 -2.3813737803 0.5271038463
| 46> H -3.3468441281 -2.0635482503 -1.2318283729
| 47> H -4.8550089289 -1.9363551272 -0.2755877717
| 48> *
| 49>
| 50>                          ****END OF INPUT****

CARTESIAN COORDINATES (ANGSTROEM)
---------------------------------
  C      5.316184   -0.917409   -1.910509
  C      4.532858   -1.485555   -0.743283
  O      3.129427   -1.378459   -1.048465
  C      2.281705   -1.999484   -0.247385
  O      2.614058   -2.707534    0.676105
  C      0.840125   -1.782552   -0.671444
  C      0.583143   -0.310194   -0.970504
  H      1.201363    0.003401   -1.819039
  C      0.975840    0.566715    0.205023
  O      1.898129    0.286282    0.936862
  O      0.261533    1.670296    0.267306
  C      0.561561    2.650562    1.282533
  C      0.621746    4.021920    0.636202
  S     -1.124395   -0.002611   -1.517224
  P     -2.135272    0.192726    0.342503
  S     -1.317667   -0.617718    1.933623
  O     -2.500713    1.711956    0.559863
  C     -3.159381    2.497728   -0.455610
  O     -3.578803   -0.394697   -0.024201
  C     -3.777764   -1.791097   -0.268647
  H      6.377390   -0.996098   -1.699486
  H      5.088267   -1.471070   -2.816378
  H      5.057685    0.126447   -2.059940
  H      4.715477   -0.930935    0.182864
  H      4.767817   -2.539632   -0.564818
  H      0.202070   -2.137621    0.140376
  H      0.649631   -2.374340   -1.568044
  H     -0.242945    2.588205    2.021084
  H      1.507365    2.372637    1.755974
  H      1.423182    4.059999   -0.096443
  H     -0.320430    4.241687    0.143267
  H      0.806088    4.765273    1.404571
  H     -4.137691    2.075587   -0.675372
  H     -2.549418    2.520977   -1.358421
  H     -3.256424    3.491145   -0.025535
  H     -3.320577   -2.381374    0.527104
  H     -3.346844   -2.063548   -1.231828
  H     -4.855009   -1.936355   -0.275588

 Total Charge           Charge          ....    0
 Multiplicity           Mult            ....    1
 Number of Electrons    NEL             ....  174
 Basis Dimension        Dim             ....  510

ORBITAL ENERGIES
----------------

  NO   OCC          E(Eh)            E(eV)
   0   2.0000     -88.581623     -2410.4285
   1   2.0000     -88.532106     -2409.0811
   2   2.0000     -76.923320     -2093.1900
   3   2.0000     -19.011897      -517.3400
   4   2.0000     -19.003582      -517.1138
   5   2.0000     -18.998873      -516.9856
   6   2.0000     -18.995994      -516.9073
   7   2.0000     -18.954477      -515.7776
   8   2.0000     -18.944690      -515.5112
   9   2.0000     -10.180283      -277.0196
  10   2.0000     -10.168554      -276.7004
  11   2.0000     -10.101726      -274.8819
  12   2.0000     -10.086855      -274.4773
  13   2.0000     -10.085411      -274.4380
  14   2.0000     -10.085124      -274.4302
  15   2.0000     -10.082466      -274.3578
  16   2.0000     -10.053152      -273.5602
  17   2.0000     -10.020461      -272.6706
  18   2.0000     -10.019242      -272.6374
  19   2.0000      -7.875922      -214.3147
  20   2.0000      -7.826997      -212.9834
  21   2.0000      -6.601515      -179.6364
  22   2.0000      -5.822982      -158.4514
  23   2.0000      -5.819691      -158.3618
  24   2.0000      -5.812927      -158.1778
  25   2.0000      -5.774798      -157.1402
  26   2.0000      -5.767193      -156.9333
  27   2.0000      -5.766911      -156.9256
  28   2.0000      -4.747184      -129.1774
  29   2.0000      -4.746560      -129.1605
  30   2.0000      -4.745128      -129.1215
  31   2.0000      -1.092905       -29.7395
  32   2.0000      -1.082277       -29.4503
  33   2.0000      -1.055490       -28.7213
  34   2.0000      -1.012667       -27.5561
  35   2.0000      -1.003313       -27.3015
  36   2.0000      -0.991986       -26.9933
  37   2.0000      -0.815609       -22.1939
  38   2.0000      -0.753686       -20.5088
  39   2.0000      -0.741325       -20.1725
  40   2.0000      -0.731281       -19.8992
  41   2.0000      -0.697680       -18.9848
  42   2.0000      -0.671644       -18.2764
  43   2.0000      -0.662297       -18.0220
  44   2.0000      -0.650251       -17.6942
  45   2.0000      -0.615734       -16.7550
  46   2.0000      -0.596199       -16.2234
  47   2.0000      -0.543359       -14.7856
  48   2.0000      -0.536188       -14.5904
  49   2.0000      -0.534547       -14.5458
  50   2.0000      -0.509854       -13.8738
  51   2.0000      -0.494139       -13.4462
  52   2.0000      -0.478135       -13.0107
  53   2.0000      -0.469053       -12.7636
  54   2.0000      -0.462610       -12.5883
  55   2.0000      -0.459744       -12.5103
  56   2.0000      -0.449735       -12.2379
  57   2.0000      -0.447440       -12.1755
  58   2.0000      -0.439060       -11.9474
  59   2.0000      -0.428926       -11.6717
  60   2.0000      -0.426590       -11.6081
  61   2.0000      -0.411609       -11.2005
  62   2.0000      -0.407264       -11.0822
  63   2.0000      -0.401304       -10.9200
  64   2.0000      -0.381174       -10.3723
  65   2.0000      -0.376057       -10.2330
  66   2.0000      -0.370158       -10.0725
  67   2.0000      -0.366114        -9.9625
  68   2.0000      -0.362491        -9.8639
  69   2.0000      -0.356504        -9.7010
  70   2.0000      -0.350301        -9.5322
  71   2.0000      -0.339954        -9.2506
  72   2.0000      -0.338221        -9.2035
  73   2.0000      -0.327787        -8.9195
  74   2.0000      -0.322426        -8.7737
  75   2.0000      -0.318609        -8.6698
  76   2.0000      -0.317933        -8.6514
  77   2.0000      -0.313903        -8.5417
  78   2.0000      -0.291290        -7.9264
  79   2.0000      -0.285667        -7.7734
  80   2.0000      -0.282900        -7.6981
  81   2.0000      -0.277571        -7.5531
  82   2.0000      -0.267966        -7.2917
  83   2.0000      -0.255617        -6.9557
  84   2.0000      -0.240904        -6.5553
  85   2.0000      -0.230939        -6.2842
  86   2.0000      -0.226139        -6.1536
  87   0.0000      -0.050561        -1.3758
  88   0.0000      -0.039233        -1.0676
  89   0.0000      -0.018489        -0.5031
  90   0.0000       0.000782         0.0213
  91   0.0000       0.006565         0.1786

MULLIKEN ATOMIC CHARGES
-----------------------
   0 C :   -0.494373
   1 C :   -0.144918
   2 O :   -0.145757
   3 C :    0.364868
   4 O :   -0.474775
   5 C :   -0.495542
   6 C :    0.065905
   7 H :    0.247670
   8 C :    0.283884
   9 O :   -0.450736
  10 O :   -0.143026
  11 C :   -0.153535
  12 C :   -0.503056
  13 S :   -0.177966
  14 P :    0.776185
  15 S :   -0.484501
  16 O :   -0.335662
  17 C :   -0.302243
  18 O :   -0.382751
  19 C :   -0.306119
  20 H :    0.169843
  21 H :    0.166390
  22 H :    0.165590
  23 H :    0.175853
  24 H :    0.173548
  25 H :    0.214484
  26 H :    0.225235
  27 H :    0.181322
  28 H :    0.186209
  29 H :    0.167068
  30 H :    0.170102
  31 H :    0.173801
  32 H :    0.185780
  33 H :    0.182485
  34 H :    0.185131
  35 H :    0.177312
  36 H :    0.175654
  37 H :    0.180643
Sum of atomic charges:    0.0000000

LOEWDIN ATOMIC CHARGES
----------------------
   0 C :   -0.388638
   1 C :    0.038922
   2 O :   -0.599566
   3 C :    0.359963
   4 O :   -0.476101
   5 C :   -0.208710
   6 C :   -0.193623
   7 H :    0.229695
   8 C :    0.355331
   9 O :   -0.459312
  10 O :   -0.625720
  11 C :    0.038798
  12 C :   -0.384374
  13 S :    0.217257
  14 P :    0.406828
  15 S :   -0.102544
  16 O :   -0.667722
  17 C :   -0.044081
  18 O :   -0.692549
  19 C :   -0.053831
  20 H :    0.168705
  21 H :    0.163161
  22 H :    0.162684
  23 H :    0.185472
  24 H :    0.187311
  25 H :    0.197464
  26 H :    0.203039
  27 H :    0.190236
  28 H :    0.197559
  29 H :    0.162858
  30 H :    0.163419
  31 H :    0.169388
  32 H :    0.182371
  33 H :    0.180156
  34 H :    0.192240
  35 H :    0.177788
  36 H :    0.176599
  37 H :    0.189527

  Mayer bond orders larger than 0.100000
B(  0-C ,  1-C ) :   0.9472 B(  0-C , 20-H ) :   0.9614 B(  0-C , 21-H ) :   0.9721
B(  0-C , 22-H ) :   0.9686 B(  1-C ,  2-O ) :   0.7720 B(  1-C , 23-H ) :   0.9385
B(  1-C , 24-H ) :   0.9507 B(  2-O ,  3-C ) :   1.1249 B(  2-O ,  6-C ) :   0.1066
B(  3-C ,  4-O ) :   1.8145 B(  3-C ,  5-C ) :   0.8896 B(  5-C ,  6-C ) :   0.8443
B(  5-C , 25-H ) :   0.9964 B(  5-C , 26-H ) :   0.9241 B(  6-C ,  7-H ) :   0.8743
B(  6-C ,  8-C ) :   0.9896 B(  6-C , 13-S ) :   0.8186 B(  8-C ,  9-O ) :   1.7361
B(  8-C , 10-O ) :   1.1348 B( 10-O , 11-C ) :   0.7191 B( 11-C , 12-C ) :   0.9316
B( 11-C , 27-H ) :   0.9367 B( 11-C , 28-H ) :   0.9526 B( 12-C , 29-H ) :   0.9704
B( 12-C , 30-H ) :   0.9710 B( 12-C , 31-H ) :   0.9632 B( 13-S , 14-P ) :   1.0354
B( 14-P , 15-S ) :   1.7568 B( 14-P , 16-O ) :   1.1547 B( 14-P , 18-O ) :   1.0324
B( 16-O , 17-C ) :   0.7846 B( 17-C , 32-H ) :   0.9513 B( 17-C , 33-H ) :   0.9472
B( 17-C , 34-H ) :   0.9539 B( 18-O , 19-C ) :   0.8240 B( 19-C , 35-H ) :   0.9552
B( 19-C , 36-H ) :   0.9494 B( 19-C , 37-H ) :   0.9572

Dispersion correction           -0.017753764
FINAL SINGLE POINT ENERGY     -1981.469253570578

DIPOLE MOMENT
-------------

Method             : SCF
Type of density    : Electron Density
Multiplicity       :   1
Irrep              :   0
Energy             : -1981.4889115974131073 Eh
Relativity type    :
Basis              : AO
                                X                 Y                 Z
Electronic contribution:    -12.168748743      -6.680382044       4.808387015
Nuclear contribution   :     11.168697576       8.666033110      -7.817885641
                        -----------------------------------------
Total Dipole Moment    :     -1.000051167       1.985651066      -3.009498626
                        -----------------------------------------
Magnitude (a.u.)       :      3.741656648
Magnitude (Debye)      :      9.510535385

Rotational constants in cm-1:             0.015055             0.006601             0.005595
Rotational constants in MHz :           451.340114           197.899510           167.720761

                             ****ORCA TERMINATED NORMALLY****
TOTAL RUN TIME: 0 days 0 hours 2 minutes 2 seconds 108 msec
