                         Program Version 6.0.0  -   RELEASE  -
|  1> ! r2scan-3c def2/J RI DEFGRID2 scfconv6 printgap
|  2> %output
|  3>     printlevel normal
|  4> end
|  5> * xyz 0 1
|  6> C 1.2782494674 -0.2530097025 0.0153137852
|  7> C -0.010584726 0.5597490526 -0.0333541233
|  8> O -1.173129153 -0.2401981941 0.057714085
|  9> H 2.1321425056 0.417452669 0.0252835349
| 10> H 1.2982271426 -0.8643207786 0.9140465235
| 11> H 1.3549787687 -0.9032280125 -0.8532560901
| 12> H -0.0425937345 1.1622312874 -0.9518624537
| 13> H -0.0641505208 1.2366831362 0.8226444891
| 14> H -1.1627408296 -0.891207008 -0.6580016598
| 15> *
| 16>
| 17>                          ****END OF INPUT****

CARTESIAN COORDINATES (ANGSTROEM)
---------------------------------
  C      1.278249   -0.253010    0.015314
  C     -0.010585    0.559749   -0.033354
  O     -1.173129   -0.240198    0.057714
  H      2.132143    0.417453    0.025284
  H      1.298227   -0.864321    0.914047
  H      1.354979   -0.903228   -0.853256
  H     -0.042594    1.162231   -0.951862
  H     -0.064151    1.236683    0.822644
  H     -1.162741   -0.891207   -0.658002

 Total Charge           Charge          ....    0
 Multiplicity           Mult            ....    1
 Number of Electrons    NEL             ....   26
 Basis Dimension        Dim             ....   92

ORBITAL ENERGIES
----------------

  NO   OCC          E(Eh)            E(eV)
   0   2.0000     -18.945242      -515.5262
   1   2.0000     -10.075601      -274.1710
   2   2.0000     -10.022746      -272.7328
   3   2.0000      -0.981892       -26.7186
   4   2.0000      -0.713759       -19.4224
   5   2.0000      -0.591718       -16.1015
   6   2.0000      -0.468124       -12.7383
   7   2.0000      -0.422475       -11.4961
   8   2.0000      -0.400101       -10.8873
   9   2.0000      -0.350238        -9.5305
  10   2.0000      -0.341550        -9.2940
  11   2.0000      -0.291853        -7.9417
  12   2.0000      -0.235578        -6.4104
  13   0.0000       0.066278         1.8035
  14   0.0000       0.114068         3.1039
  15   0.0000       0.130933         3.5629
  16   0.0000       0.146388         3.9834
  17   0.0000       0.168648         4.5892

MULLIKEN ATOMIC CHARGES
-----------------------
   0 C :   -0.441415
   1 C :   -0.114360
   2 O :   -0.422505
   3 H :    0.140989
   4 H :    0.156650
   5 H :    0.132807
   6 H :    0.123260
   7 H :    0.133878
   8 H :    0.290696
Sum of atomic charges:   -0.0000000

LOEWDIN ATOMIC CHARGES
----------------------
   0 C :   -0.416082
   1 C :   -0.008348
   2 O :   -0.623592
   3 H :    0.156343
   4 H :    0.157424
   5 H :    0.147775
   6 H :    0.150714
   7 H :    0.171867
   8 H :    0.263899

  Mayer bond orders larger than 0.100000
B(  0-C ,  1-C ) :   0.9321 B(  0-C ,  3-H ) :   0.9648 B(  0-C ,  4-H ) :   0.9726
B(  0-C ,  5-H ) :   0.9714 B(  1-C ,  2-O ) :   0.9212 B(  1-C ,  6-H ) :   0.9720
B(  1-C ,  7-H ) :   0.9715 B(  2-O ,  8-H ) :   0.8990

Dispersion correction           -0.001205532
FINAL SINGLE POINT ENERGY      -154.999679302390

DIPOLE MOMENT
-------------

Method             : SCF
Type of density    : Electron Density
Multiplicity       :   1
Irrep              :   0
Energy             :  -155.0041643537522873 Eh
Relativity type    :
Basis              : AO
                                X                 Y                 Z
Electronic contribution:     -2.791340704      -0.217797467       0.242015815
Nuclear contribution   :      3.281025575       0.144291852      -0.656936232
                        -----------------------------------------
Total Dipole Moment    :      0.489684871      -0.073505615      -0.414920417
                        -----------------------------------------
Magnitude (a.u.)       :      0.646028870
Magnitude (Debye)      :      1.642074890

Rotational constants in cm-1:             1.155576             0.307490             0.271654
Rotational constants in MHz :         34643.303013          9218.311248          8143.996498

                             ****ORCA TERMINATED NORMALLY****
TOTAL RUN TIME: 0 days 0 hours 0 minutes 12 seconds 729 msec
