                         Program Version 6.0.0  -   RELEASE  -
|  1> ! r2scan-3c def2/J RI DEFGRID2 scfconv6 printgap
|  2> %output
|  3>     printlevel normal
|  4> end
|  5> %cpcm
|  6>     smd true
|  7>     smdsolvent "water"
|  8> end
|  9> * xyz 0 1
| 10> C 1.2782494674 -0.2530097025 0.0153137852
| 11> C -0.010584726 0.5597490526 -0.0333541233
| 12> O -1.173129153 -0.2401981941 0.057714085
| 13> H 2.1321425056 0.417452669 0.0252835349
| 14> H 1.2982271426 -0.8643207786 0.9140465235
| 15> H 1.3549787687 -0.9032280125 -0.8532560901
| 16> H -0.0425937345 1.1622312874 -0.9518624537
| 17> H -0.0641505208 1.2366831362 0.8226444891
| 18> H -1.1627408296 -0.891207008 -0.6580016598
| 19> *
| 20>
| 21>                          ****END OF INPUT****

CARTESIAN COORDINATES (ANGSTROEM)
---------------------------------
  C      1.278249   -0.253010    0.015314
  C     -0.010585    0.559749   -0.033354
  O     -1.173129   -0.240198    0.057714
  H      2.132143    0.417453    0.025284
  H      1.298227   -0.864321    0.914047
  H      1.354979   -0.903228   -0.853256
  H     -0.042594    1.162231   -0.951862
  H     -0.064151    1.236683    0.822644
  H     -1.162741   -0.891207   -0.658002

 Total Charge           Charge          ....    0
 Multiplicity           Mult            ....    1
 Number of Electrons    NEL             ....   26
 Basis Dimension        Dim             ....   92

ORBITAL ENERGIES
----------------

  NO   OCC          E(Eh)            E(eV)
   0   2.0000     -18.949063      -515.6302
   1   2.0000     -10.069040      -273.9925
   2   2.0000     -10.011226      -272.4193
   3   2.0000      -0.984449       -26.7882
   4   2.0000      -0.705095       -19.1866
   5   2.0000      -0.585489       -15.9320
   6   2.0000      -0.464103       -12.6289
   7   2.0000      -0.416384       -11.3304
   8   2.0000      -0.395521       -10.7627
   9   2.0000      -0.342843        -9.3292
  10   2.0000      -0.334947        -9.1144
  11   2.0000      -0.291092        -7.9210
  12   2.0000      -0.240276        -6.5382
  13   0.0000       0.081616         2.2209
  14   0.0000       0.125783         3.4227
  15   0.0000       0.138889         3.7794
  16   0.0000       0.157190         4.2774
  17   0.0000       0.179179         4.8757

MULLIKEN ATOMIC CHARGES
-----------------------
   0 C :   -0.480137
   1 C :   -0.105692
   2 O :   -0.514446
   3 H :    0.157896
   4 H :    0.157089
   5 H :    0.157028
   6 H :    0.135209
   7 H :    0.145228
   8 H :    0.347825
Sum of atomic charges:   -0.0000000

LOEWDIN ATOMIC CHARGES
----------------------
   0 C :   -0.419498
   1 C :   -0.008344
   2 O :   -0.663057
   3 H :    0.162502
   4 H :    0.156790
   5 H :    0.155881
   6 H :    0.158174
   7 H :    0.174525
   8 H :    0.283026

  Mayer bond orders larger than 0.100000
B(  0-C ,  1-C ) :   0.9356 B(  0-C ,  3-H ) :   0.9609 B(  0-C ,  4-H ) :   0.9707
B(  0-C ,  5-H ) :   0.9677 B(  1-C ,  2-O ) :   0.9094 B(  1-C ,  6-H ) :   0.9652
B(  1-C ,  7-H ) :   0.9693 B(  2-O ,  8-H ) :   0.8711

Dispersion correction           -0.001205532
FINAL SINGLE POINT ENERGY      -155.006896326194

DIPOLE MOMENT
-------------

Method             : SCF
Type of density    : Electron Density
Multiplicity       :   1
Irrep              :   0
Energy             :  -155.0113813775562903 Eh
Relativity type    :
Basis              : AO
                                X                 Y                 Z
Electronic contribution:     -2.620766598      -0.242747640       0.060937731
Nuclear contribution   :      3.281025575       0.144291852      -0.656936232
                        -----------------------------------------
Total Dipole Moment    :      0.660258977      -0.098455788      -0.595998501
                        -----------------------------------------
Magnitude (a.u.)       :      0.894902046
Magnitude (Debye)      :      2.274660230

Rotational constants in cm-1:             1.155576             0.307490             0.271654
Rotational constants in MHz :         34643.303013          9218.311248          8143.996498

                             ****ORCA TERMINATED NORMALLY****
TOTAL RUN TIME: 0 days 0 hours 0 minutes 13 seconds 890 msec
