                         Program Version 6.0.0  -   RELEASE  -
|  1> ! r2scan-3c def2/J RI DEFGRID2 scfconv6 printgap
|  2> %output
|  3>     printlevel normal
|  4> end
|  5> * xyz 0 1
|  6> C -0.7338716693 -1.1930298368 0.2326289854
|  7> C 0.7239358564 -1.1639785463 -0.228068819
|  8> O 1.3827358934 0.0014230049 0.2342832373
|  9> C 0.721549288 1.1654696111 -0.2280868026
| 10> C -0.7363045769 1.1915084081 0.232648529
| 11> N -1.3949029947 -0.0014301777 -0.2775372956
| 12> H -0.7529885649 -1.240588284 1.3358178398
| 13> H -1.22897413 -2.0758831919 -0.172260431
| 14> H 1.2827667422 -2.0061501311 0.180616966
| 15> H 0.7569976617 -1.1906775102 -1.325867105
| 16> H 1.2786533646 2.0087796175 0.1805951097
| 17> H 0.7545719204 1.1922431735 -1.3258835469
| 18> H -0.7555290196 1.2390015857 1.3358426136
| 19> H -1.2332040566 2.0733539789 -0.1722367519
| 20> H -2.3726663568 -0.002431027 -0.0074270418
| 21> *
| 22>
| 23>                          ****END OF INPUT****

CARTESIAN COORDINATES (ANGSTROEM)
---------------------------------
  C     -0.733872   -1.193030    0.232629
  C      0.723936   -1.163979   -0.228069
  O      1.382736    0.001423    0.234283
  C      0.721549    1.165470   -0.228087
  C     -0.736305    1.191508    0.232649
  N     -1.394903   -0.001430   -0.277537
  H     -0.752989   -1.240588    1.335818
  H     -1.228974   -2.075883   -0.172260
  H      1.282767   -2.006150    0.180617
  H      0.756998   -1.190678   -1.325867
  H      1.278653    2.008780    0.180595
  H      0.754572    1.192243   -1.325884
  H     -0.755529    1.239002    1.335843
  H     -1.233204    2.073354   -0.172237
  H     -2.372666   -0.002431   -0.007427

 Total Charge           Charge          ....    0
 Multiplicity           Mult            ....    1
 Number of Electrons    NEL             ....   48
 Basis Dimension        Dim             ....  169

ORBITAL ENERGIES
----------------

  NO   OCC          E(Eh)            E(eV)
   0   2.0000     -18.948465      -515.6139
   1   2.0000     -14.147785      -384.9808
   2   2.0000     -10.071428      -274.0575
   3   2.0000     -10.071422      -274.0573
   4   2.0000     -10.053216      -273.5619
   5   2.0000     -10.053213      -273.5618
   6   2.0000      -0.999832       -27.2068
   7   2.0000      -0.873326       -23.7644
   8   2.0000      -0.733138       -19.9497
   9   2.0000      -0.646776       -17.5997
  10   2.0000      -0.614255       -16.7147
  11   2.0000      -0.531467       -14.4620
  12   2.0000      -0.490526       -13.3479
  13   2.0000      -0.438945       -11.9443
  14   2.0000      -0.430432       -11.7126
  15   2.0000      -0.416962       -11.3461
  16   2.0000      -0.396248       -10.7824
  17   2.0000      -0.381227       -10.3737
  18   2.0000      -0.359043        -9.7701
  19   2.0000      -0.322588        -8.7781
  20   2.0000      -0.319305        -8.6887
  21   2.0000      -0.272739        -7.4216
  22   2.0000      -0.221872        -6.0375
  23   2.0000      -0.196892        -5.3577
  24   0.0000       0.062612         1.7038
  25   0.0000       0.091211         2.4820
  26   0.0000       0.107655         2.9294
  27   0.0000       0.123641         3.3644
  28   0.0000       0.132519         3.6060

MULLIKEN ATOMIC CHARGES
-----------------------
   0 C :   -0.202815
   1 C :   -0.177752
   2 O :   -0.237836
   3 C :   -0.177735
   4 C :   -0.202827
   5 N :   -0.348585
   6 H :    0.135183
   7 H :    0.140707
   8 H :    0.140397
   9 H :    0.143302
  10 H :    0.140395
  11 H :    0.143303
  12 H :    0.135184
  13 H :    0.140706
  14 H :    0.228371
Sum of atomic charges:    0.0000000

LOEWDIN ATOMIC CHARGES
----------------------
   0 C :   -0.051755
   1 C :    0.034781
   2 O :   -0.751062
   3 C :    0.034783
   4 C :   -0.051752
   5 N :   -0.834353
   6 H :    0.160153
   7 H :    0.178213
   8 H :    0.178912
   9 H :    0.168388
  10 H :    0.178911
  11 H :    0.168389
  12 H :    0.160156
  13 H :    0.178213
  14 H :    0.248023

  Mayer bond orders larger than 0.100000
B(  0-C ,  1-C ) :   0.9262 B(  0-C ,  5-N ) :   0.9629 B(  0-C ,  6-H ) :   0.9679
B(  0-C ,  7-H ) :   0.9534 B(  1-C ,  2-O ) :   0.9308 B(  1-C ,  8-H ) :   0.9606
B(  1-C ,  9-H ) :   0.9712 B(  2-O ,  3-C ) :   0.9308 B(  3-C ,  4-C ) :   0.9262
B(  3-C , 10-H ) :   0.9606 B(  3-C , 11-H ) :   0.9712 B(  4-C ,  5-N ) :   0.9629
B(  4-C , 12-H ) :   0.9678 B(  4-C , 13-H ) :   0.9534 B(  5-N , 14-H ) :   0.9112

Dispersion correction           -0.003711215
FINAL SINGLE POINT ENERGY      -287.716470170592

DIPOLE MOMENT
-------------

Method             : SCF
Type of density    : Electron Density
Multiplicity       :   1
Irrep              :   0
Energy             :  -287.7262522748737297 Eh
Relativity type    :
Basis              : AO
                                X                 Y                 Z
Electronic contribution:      1.523191937       0.001594093       0.073824988
Nuclear contribution   :     -2.117133118      -0.002193111       0.029345948
                        -----------------------------------------
Total Dipole Moment    :     -0.593941180      -0.000599019       0.103170936
                        -----------------------------------------
Magnitude (a.u.)       :      0.602835572
Magnitude (Debye)      :      1.532286251

Rotational constants in cm-1:             0.166468             0.153978             0.090047
Rotational constants in MHz :          4990.570865          4616.131354          2699.550494

                             ****ORCA TERMINATED NORMALLY****
TOTAL RUN TIME: 0 days 0 hours 0 minutes 19 seconds 772 msec
