                         Program Version 6.0.0  -   RELEASE  -
|  1> ! r2scan-3c def2/J RI DEFGRID2 scfconv6 printgap
|  2> %output
|  3>     printlevel normal
|  4> end
|  5> %cpcm
|  6>     smd true
|  7>     smdsolvent "water"
|  8> end
|  9> * xyz 0 1
| 10> C -0.7338716693 -1.1930298368 0.2326289854
| 11> C 0.7239358564 -1.1639785463 -0.228068819
| 12> O 1.3827358934 0.0014230049 0.2342832373
| 13> C 0.721549288 1.1654696111 -0.2280868026
| 14> C -0.7363045769 1.1915084081 0.232648529
| 15> N -1.3949029947 -0.0014301777 -0.2775372956
| 16> H -0.7529885649 -1.240588284 1.3358178398
| 17> H -1.22897413 -2.0758831919 -0.172260431
| 18> H 1.2827667422 -2.0061501311 0.180616966
| 19> H 0.7569976617 -1.1906775102 -1.325867105
| 20> H 1.2786533646 2.0087796175 0.1805951097
| 21> H 0.7545719204 1.1922431735 -1.3258835469
| 22> H -0.7555290196 1.2390015857 1.3358426136
| 23> H -1.2332040566 2.0733539789 -0.1722367519
| 24> H -2.3726663568 -0.002431027 -0.0074270418
| 25> *
| 26>
| 27>                          ****END OF INPUT****

CARTESIAN COORDINATES (ANGSTROEM)
---------------------------------
  C     -0.733872   -1.193030    0.232629
  C      0.723936   -1.163979   -0.228069
  O      1.382736    0.001423    0.234283
  C      0.721549    1.165470   -0.228087
  C     -0.736305    1.191508    0.232649
  N     -1.394903   -0.001430   -0.277537
  H     -0.752989   -1.240588    1.335818
  H     -1.228974   -2.075883   -0.172260
  H      1.282767   -2.006150    0.180617
  H      0.756998   -1.190678   -1.325867
  H      1.278653    2.008780    0.180595
  H      0.754572    1.192243   -1.325884
  H     -0.755529    1.239002    1.335843
  H     -1.233204    2.073354   -0.172237
  H     -2.372666   -0.002431   -0.007427

 Total Charge           Charge          ....    0
 Multiplicity           Mult            ....    1
 Number of Electrons    NEL             ....   48
 Basis Dimension        Dim             ....  169

ORBITAL ENERGIES
----------------

  NO   OCC          E(Eh)            E(eV)
   0   2.0000     -18.957273      -515.8536
   1   2.0000     -14.141743      -384.8164
   2   2.0000     -10.068390      -273.9748
   3   2.0000     -10.068383      -273.9746
   4   2.0000     -10.045335      -273.3475
   5   2.0000     -10.045331      -273.3474
   6   2.0000      -1.006615       -27.3914
   7   2.0000      -0.867244       -23.5989
   8   2.0000      -0.729189       -19.8422
   9   2.0000      -0.641977       -17.4691
  10   2.0000      -0.610809       -16.6210
  11   2.0000      -0.527507       -14.3542
  12   2.0000      -0.485142       -13.2014
  13   2.0000      -0.437877       -11.9152
  14   2.0000      -0.425002       -11.5649
  15   2.0000      -0.411983       -11.2106
  16   2.0000      -0.394324       -10.7301
  17   2.0000      -0.381400       -10.3784
  18   2.0000      -0.352722        -9.5981
  19   2.0000      -0.316666        -8.6169
  20   2.0000      -0.312754        -8.5105
  21   2.0000      -0.277125        -7.5410
  22   2.0000      -0.227249        -6.1837
  23   2.0000      -0.195585        -5.3221
  24   0.0000       0.070467         1.9175
  25   0.0000       0.098449         2.6789
  26   0.0000       0.116386         3.1670
  27   0.0000       0.132794         3.6135
  28   0.0000       0.135402         3.6845

MULLIKEN ATOMIC CHARGES
-----------------------
   0 C :   -0.232143
   1 C :   -0.185308
   2 O :   -0.305706
   3 C :   -0.185285
   4 C :   -0.232168
   5 N :   -0.395905
   6 H :    0.147931
   7 H :    0.165244
   8 H :    0.160237
   9 H :    0.156606
  10 H :    0.160234
  11 H :    0.156609
  12 H :    0.147936
  13 H :    0.165245
  14 H :    0.276471
Sum of atomic charges:    0.0000000

LOEWDIN ATOMIC CHARGES
----------------------
   0 C :   -0.050088
   1 C :    0.032159
   2 O :   -0.793738
   3 C :    0.032162
   4 C :   -0.050085
   5 N :   -0.849650
   6 H :    0.164253
   7 H :    0.186691
   8 H :    0.185969
   9 H :    0.172850
  10 H :    0.185968
  11 H :    0.172852
  12 H :    0.164256
  13 H :    0.186691
  14 H :    0.259710

  Mayer bond orders larger than 0.100000
B(  0-C ,  1-C ) :   0.9115 B(  0-C ,  5-N ) :   0.9589 B(  0-C ,  6-H ) :   0.9718
B(  0-C ,  7-H ) :   0.9547 B(  1-C ,  2-O ) :   0.9132 B(  1-C ,  8-H ) :   0.9568
B(  1-C ,  9-H ) :   0.9676 B(  2-O ,  3-C ) :   0.9132 B(  3-C ,  4-C ) :   0.9115
B(  3-C , 10-H ) :   0.9568 B(  3-C , 11-H ) :   0.9676 B(  4-C ,  5-N ) :   0.9589
B(  4-C , 12-H ) :   0.9718 B(  4-C , 13-H ) :   0.9547 B(  5-N , 14-H ) :   0.8950

Dispersion correction           -0.003711215
FINAL SINGLE POINT ENERGY      -287.727752775859

DIPOLE MOMENT
-------------

Method             : SCF
Type of density    : Electron Density
Multiplicity       :   1
Irrep              :   0
Energy             :  -287.7375348801402311 Eh
Relativity type    :
Basis              : AO
                                X                 Y                 Z
Electronic contribution:      1.264107669       0.001331849       0.117450491
Nuclear contribution   :     -2.117133118      -0.002193111       0.029345948
                        -----------------------------------------
Total Dipole Moment    :     -0.853025449      -0.000861262       0.146796439
                        -----------------------------------------
Magnitude (a.u.)       :      0.865564760
Magnitude (Debye)      :      2.200090775

Rotational constants in cm-1:             0.166468             0.153978             0.090047
Rotational constants in MHz :          4990.570865          4616.131354          2699.550494

                             ****ORCA TERMINATED NORMALLY****
TOTAL RUN TIME: 0 days 0 hours 0 minutes 23 seconds 94 msec
