                         Program Version 6.0.1  -  RELEASE   -
|  1> ! pbe def2-sv(p) def2/J RI DEFGRID1 loosescf d4 GCP(DFT/SV(P)) printgap
|  2> %output
|  3>     printlevel normal
|  4> end
|  5> * xyz 0 1
|  6> C 1.134714944 -4.1018400574 -0.8500622034
|  7> C 2.4374474754 -3.474935532 -0.3796334729
|  8> O 2.221183995 -2.0964744826 -0.0232780065
|  9> C 2.4332397722 -1.1658996319 -0.9306574903
| 10> O 2.8646843253 -1.3634947182 -2.0439088131
| 11> C 2.0342811066 0.2023845004 -0.4080015672
| 12> C 0.8299323166 0.6942957921 -1.2145404552
| 13> H 1.1237421385 0.8489963195 -2.2565619035
| 14> C 0.2705816293 1.9787034108 -0.6349004248
| 15> O -0.8719061595 2.060376867 -0.2293225837
| 16> O 1.1482918344 2.9395212564 -0.6298202986
| 17> C 0.7904937112 4.1919366513 -0.0012477288
| 18> C 1.090353608 4.1395183225 1.4875740211
| 19> S -0.5171876696 -0.5262454144 -1.286010904
| 20> P -1.4010307205 -0.3078157825 0.655346299
| 21> S -0.4276293252 0.4089760592 2.1959985094
| 22> O -2.9081575516 0.1779169915 0.4413802156
| 23> C -3.4344358669 1.4928852281 0.6121248912
| 24> O -1.6845666515 -1.8441968514 0.9741241801
| 25> C -2.4853126573 -2.6873843053 0.1306961677
| 26> H 0.790742189 -3.6101098611 -1.7575872776
| 27> H 1.2922028372 -5.1558428895 -1.0521302276
| 28> H 0.3753959098 -3.9906616327 -0.080193795
| 29> H 3.2004709165 -3.5170465074 -1.161878786
| 30> H 2.799152299 -3.9466406026 0.5344694472
| 31> H 2.8571855682 0.9039848022 -0.5481495524
| 32> H 1.7865049526 0.1202628685 0.6516841381
| 33> H 1.4059315376 4.9338993698 -0.5092591459
| 34> H -0.270487622 4.3825276319 -0.1801970236
| 35> H 0.5232886119 3.3390829331 1.9606026534
| 36> H 2.1482061152 3.9580070179 1.6537136742
| 37> H 0.8133391138 5.0842178255 1.9430245139
| 38> H -3.3494166603 2.0467085249 -0.320623502
| 39> H -2.8950006343 2.017327415 1.4006384726
| 40> H -4.47748471 1.3548064549 0.8890528604
| 41> H -2.0671432327 -2.7147391028 -0.8760259985
| 42> H -3.508535193 -2.317989938 0.0986792021
| 43> H -2.4465558268 -3.6718357385 0.5904139157
| 44> *
| 45>
| 46>                          ****END OF INPUT****

CARTESIAN COORDINATES (ANGSTROEM)
---------------------------------
  C      1.134715   -4.101840   -0.850062
  C      2.437447   -3.474936   -0.379633
  O      2.221184   -2.096474   -0.023278
  C      2.433240   -1.165900   -0.930657
  O      2.864684   -1.363495   -2.043909
  C      2.034281    0.202385   -0.408002
  C      0.829932    0.694296   -1.214540
  H      1.123742    0.848996   -2.256562
  C      0.270582    1.978703   -0.634900
  O     -0.871906    2.060377   -0.229323
  O      1.148292    2.939521   -0.629820
  C      0.790494    4.191937   -0.001248
  C      1.090354    4.139518    1.487574
  S     -0.517188   -0.526245   -1.286011
  P     -1.401031   -0.307816    0.655346
  S     -0.427629    0.408976    2.195999
  O     -2.908158    0.177917    0.441380
  C     -3.434436    1.492885    0.612125
  O     -1.684567   -1.844197    0.974124
  C     -2.485313   -2.687384    0.130696
  H      0.790742   -3.610110   -1.757587
  H      1.292203   -5.155843   -1.052130
  H      0.375396   -3.990662   -0.080194
  H      3.200471   -3.517047   -1.161879
  H      2.799152   -3.946641    0.534469
  H      2.857186    0.903985   -0.548150
  H      1.786505    0.120263    0.651684
  H      1.405932    4.933899   -0.509259
  H     -0.270488    4.382528   -0.180197
  H      0.523289    3.339083    1.960603
  H      2.148206    3.958007    1.653714
  H      0.813339    5.084218    1.943025
  H     -3.349417    2.046709   -0.320624
  H     -2.895001    2.017327    1.400638
  H     -4.477485    1.354806    0.889053
  H     -2.067143   -2.714739   -0.876026
  H     -3.508535   -2.317990    0.098679
  H     -2.446556   -3.671836    0.590414

 Total Charge           Charge          ....    0
 Multiplicity           Mult            ....    1
 Number of Electrons    NEL             ....  174
 Basis Dimension        Dim             ....  316

ORBITAL ENERGIES
----------------

  NO   OCC          E(Eh)            E(eV)
   0   2.0000     -88.036354     -2395.5910
   1   2.0000     -87.975387     -2393.9320
   2   2.0000     -76.423381     -2079.5859
   3   2.0000     -18.825795      -512.2759
   4   2.0000     -18.797380      -511.5027
   5   2.0000     -18.785876      -511.1897
   6   2.0000     -18.778772      -510.9964
   7   2.0000     -18.761621      -510.5297
   8   2.0000     -18.733683      -509.7694
   9   2.0000     -10.031405      -272.9684
  10   2.0000     -10.005874      -272.2737
  11   2.0000      -9.960534      -271.0399
  12   2.0000      -9.954455      -270.8745
  13   2.0000      -9.942553      -270.5506
  14   2.0000      -9.942080      -270.5377
  15   2.0000      -9.936869      -270.3959
  16   2.0000      -9.903605      -269.4908
  17   2.0000      -9.889964      -269.1196
  18   2.0000      -9.882071      -268.9048
  19   2.0000      -7.680981      -209.0101
  20   2.0000      -7.620659      -207.3687
  21   2.0000      -6.419111      -174.6729
  22   2.0000      -5.709056      -155.3513
  23   2.0000      -5.705640      -155.2584
  24   2.0000      -5.697617      -155.0400
  25   2.0000      -5.649980      -153.7438
  26   2.0000      -5.641386      -153.5099
  27   2.0000      -5.640197      -153.4776
  28   2.0000      -4.642010      -126.3155
  29   2.0000      -4.641001      -126.2881
  30   2.0000      -4.639610      -126.2502
  31   2.0000      -1.035708       -28.1830
  32   2.0000      -1.005358       -27.3572
  33   2.0000      -0.976335       -26.5674
  34   2.0000      -0.941501       -25.6195
  35   2.0000      -0.930602       -25.3230
  36   2.0000      -0.911609       -24.8061
  37   2.0000      -0.767561       -20.8864
  38   2.0000      -0.715982       -19.4829
  39   2.0000      -0.705127       -19.1875
  40   2.0000      -0.690224       -18.7819
  41   2.0000      -0.653120       -17.7723
  42   2.0000      -0.632619       -17.2144
  43   2.0000      -0.628056       -17.0903
  44   2.0000      -0.612758       -16.6740
  45   2.0000      -0.593631       -16.1535
  46   2.0000      -0.565431       -15.3862
  47   2.0000      -0.514055       -13.9881
  48   2.0000      -0.507439       -13.8081
  49   2.0000      -0.494820       -13.4647
  50   2.0000      -0.489706       -13.3256
  51   2.0000      -0.471223       -12.8226
  52   2.0000      -0.460806       -12.5392
  53   2.0000      -0.449542       -12.2327
  54   2.0000      -0.434564       -11.8251
  55   2.0000      -0.431925       -11.7533
  56   2.0000      -0.423538       -11.5250
  57   2.0000      -0.420887       -11.4529
  58   2.0000      -0.418318       -11.3830
  59   2.0000      -0.409120       -11.1327
  60   2.0000      -0.401614       -10.9285
  61   2.0000      -0.393987       -10.7209
  62   2.0000      -0.390989       -10.6393
  63   2.0000      -0.384790       -10.4707
  64   2.0000      -0.381179       -10.3724
  65   2.0000      -0.368185       -10.0188
  66   2.0000      -0.357889        -9.7387
  67   2.0000      -0.353570        -9.6211
  68   2.0000      -0.347533        -9.4569
  69   2.0000      -0.337014        -9.1706
  70   2.0000      -0.336175        -9.1478
  71   2.0000      -0.330603        -8.9962
  72   2.0000      -0.323571        -8.8048
  73   2.0000      -0.309152        -8.4125
  74   2.0000      -0.306190        -8.3319
  75   2.0000      -0.296923        -8.0797
  76   2.0000      -0.292668        -7.9639
  77   2.0000      -0.287361        -7.8195
  78   2.0000      -0.282093        -7.6762
  79   2.0000      -0.263981        -7.1833
  80   2.0000      -0.255801        -6.9607
  81   2.0000      -0.253623        -6.9014
  82   2.0000      -0.248243        -6.7550
  83   2.0000      -0.220945        -6.0122
  84   2.0000      -0.213944        -5.8217
  85   2.0000      -0.194465        -5.2917
  86   2.0000      -0.188396        -5.1265
  87   0.0000      -0.048513        -1.3201
  88   0.0000      -0.040856        -1.1117
  89   0.0000      -0.012999        -0.3537
  90   0.0000      -0.004936        -0.1343
  91   0.0000       0.029349         0.7986

MULLIKEN ATOMIC CHARGES
-----------------------
   0 C :   -0.314158
   1 C :   -0.015106
   2 O :   -0.214113
   3 C :    0.122142
   4 O :   -0.206863
   5 C :   -0.074477
   6 C :   -0.316610
   7 H :    0.157369
   8 C :    0.225637
   9 O :   -0.191967
  10 O :   -0.217325
  11 C :   -0.012290
  12 C :   -0.315856
  13 S :   -0.111530
  14 P :    0.641099
  15 S :   -0.320705
  16 O :   -0.398337
  17 C :   -0.079931
  18 O :   -0.372817
  19 C :   -0.117096
  20 H :    0.124428
  21 H :    0.108141
  22 H :    0.127414
  23 H :    0.108720
  24 H :    0.104639
  25 H :    0.116498
  26 H :    0.121001
  27 H :    0.109777
  28 H :    0.111392
  29 H :    0.146221
  30 H :    0.116869
  31 H :    0.114428
  32 H :    0.115908
  33 H :    0.115095
  34 H :    0.115962
  35 H :    0.124418
  36 H :    0.122823
  37 H :    0.129201
Sum of atomic charges:   -0.0000000

LOEWDIN ATOMIC CHARGES
----------------------
   0 C :   -0.357493
   1 C :   -0.110120
   2 O :   -0.047872
   3 C :    0.021991
   4 O :   -0.173688
   5 C :   -0.257019
   6 C :   -0.255412
   7 H :    0.154114
   8 C :    0.025635
   9 O :   -0.156993
  10 O :   -0.033833
  11 C :   -0.105288
  12 C :   -0.359297
  13 S :    0.099120
  14 P :    0.589638
  15 S :   -0.312959
  16 O :   -0.253004
  17 C :   -0.206396
  18 O :   -0.253721
  19 C :   -0.215587
  20 H :    0.126709
  21 H :    0.127654
  22 H :    0.126968
  23 H :    0.119155
  24 H :    0.118724
  25 H :    0.143467
  26 H :    0.130176
  27 H :    0.121217
  28 H :    0.121256
  29 H :    0.131963
  30 H :    0.126918
  31 H :    0.132166
  32 H :    0.112895
  33 H :    0.111142
  34 H :    0.115770
  35 H :    0.105247
  36 H :    0.113644
  37 H :    0.123113

  Mayer bond orders larger than 0.100000
B(  0-C ,  1-C ) :   1.1779 B(  0-C , 20-H ) :   0.9437 B(  0-C , 21-H ) :   0.9425
B(  0-C , 22-H ) :   0.9417 B(  1-C ,  2-O ) :   0.9159 B(  1-C , 23-H ) :   0.9096
B(  1-C , 24-H ) :   0.9363 B(  2-O ,  3-C ) :   1.2466 B(  3-C ,  4-O ) :   2.0475
B(  3-C ,  5-C ) :   1.0063 B(  5-C ,  6-C ) :   1.0572 B(  5-C , 25-H ) :   0.8740
B(  5-C , 26-H ) :   0.8737 B(  6-C ,  7-H ) :   0.8575 B(  6-C ,  8-C ) :   0.9178
B(  6-C , 13-S ) :   1.0473 B(  8-C ,  9-O ) :   1.9419 B(  8-C , 10-O ) :   1.2856
B( 10-O , 11-C ) :   0.8943 B( 11-C , 12-C ) :   1.1781 B( 11-C , 27-H ) :   0.9361
B( 11-C , 28-H ) :   0.9144 B( 12-C , 29-H ) :   0.9299 B( 12-C , 30-H ) :   0.9481
B( 12-C , 31-H ) :   0.9410 B( 13-S , 14-P ) :   0.9154 B( 13-S , 15-S ) :   0.1110
B( 14-P , 15-S ) :   1.5850 B( 14-P , 16-O ) :   1.0890 B( 14-P , 18-O ) :   1.0992
B( 16-O , 17-C ) :   0.9279 B( 17-C , 32-H ) :   0.9528 B( 17-C , 33-H ) :   0.9416
B( 17-C , 34-H ) :   0.9537 B( 18-O , 19-C ) :   0.9294 B( 19-C , 35-H ) :   0.9353
B( 19-C , 36-H ) :   0.9460 B( 19-C , 37-H ) :   0.9578

Dispersion correction           -0.053702161
FINAL SINGLE POINT ENERGY     -1979.012876923876

DIPOLE MOMENT
-------------

Method             : SCF
Type of density    : Electron Density
Multiplicity       :   1
Irrep              :   0
Energy             : -1979.1427227813983336 Eh
Relativity type    :
Basis              : AO
                                X                 Y                 Z
Electronic contribution:     -1.835190580       0.288441880      -0.666666477
Nuclear contribution   :      1.385838301       0.337497742       0.284825306
                        -----------------------------------------
Total Dipole Moment    :     -0.449352278       0.625939621      -0.381841171
                        -----------------------------------------
Magnitude (a.u.)       :      0.859953813
Magnitude (Debye)      :      2.185828881

Rotational constants in cm-1:             0.012102             0.008766             0.006194
Rotational constants in MHz :           362.815375           262.807207           185.682628

                             ****ORCA TERMINATED NORMALLY****
TOTAL RUN TIME: 0 days 0 hours 0 minutes 36 seconds 983 msec
