                         Program Version 6.0.0  -   RELEASE  -
|  1> ! pbe def2-sv(p) def2/J RI DEFGRID1 loosescf d4 GCP(DFT/SV(P)) printgap
|  2> %output
|  3>     printlevel normal
|  4> end
|  5> * xyz 0 1
|  6> C -2.5873180681 0.5776040429 -0.0007506354
|  7> C -1.2286467239 -0.0621186701 -2.10182e-05
|  8> C -1.1360466907 -1.4487554992 8.41341e-05
|  9> C 0.0922835874 -2.082644531 0.00045182
| 10> C 1.2508843794 -1.3330883304 0.000201682
| 11> C 1.1739979607 0.0541596618 -7.13713e-05
| 12> C -0.0634584254 0.7070796388 0.0003661019
| 13> C -0.0912908175 2.2127241386 0.0009473085
| 14> O 2.3577069679 0.7359417014 -0.000758546
| 15> H -2.7217406661 1.2002771229 -0.8836374841
| 16> H -3.3595700106 -0.1866736539 -0.0023936395
| 17> H -2.7237657617 1.1983136971 0.8832297934
| 18> H -2.0402584466 -2.03930209 -8.77381e-05
| 19> H 0.1489897401 -3.1604983714 0.0007152122
| 20> H 2.2258877766 -1.7947502381 0.0001101836
| 21> H 0.4007473407 2.6050975598 -0.8896827347
| 22> H -1.1081919756 2.5857722861 0.0087511796
| 23> H 0.4139809485 2.6045660021 0.8843302434
| 24> H 2.1975218672 1.6910119132 -0.0036896804
| 25> *
| 26>
| 27>                          ****END OF INPUT****

CARTESIAN COORDINATES (ANGSTROEM)
---------------------------------
  C     -2.587318    0.577604   -0.000751
  C     -1.228647   -0.062119   -0.000021
  C     -1.136047   -1.448755    0.000084
  C      0.092284   -2.082645    0.000452
  C      1.250884   -1.333088    0.000202
  C      1.173998    0.054160   -0.000071
  C     -0.063458    0.707080    0.000366
  C     -0.091291    2.212724    0.000947
  O      2.357707    0.735942   -0.000759
  H     -2.721741    1.200277   -0.883637
  H     -3.359570   -0.186674   -0.002394
  H     -2.723766    1.198314    0.883230
  H     -2.040258   -2.039302   -0.000088
  H      0.148990   -3.160498    0.000715
  H      2.225888   -1.794750    0.000110
  H      0.400747    2.605098   -0.889683
  H     -1.108192    2.585772    0.008751
  H      0.413981    2.604566    0.884330
  H      2.197522    1.691012   -0.003690

 Total Charge           Charge          ....    0
 Multiplicity           Mult            ....    1
 Number of Electrons    NEL             ....   66
 Basis Dimension        Dim             ....  146

ORBITAL ENERGIES
----------------

  NO   OCC          E(Eh)            E(eV)
   0   2.0000     -18.776885      -510.9450
   1   2.0000      -9.942714      -270.5550
   2   2.0000      -9.897982      -269.3378
   3   2.0000      -9.896164      -269.2883
   4   2.0000      -9.895216      -269.2625
   5   2.0000      -9.883634      -268.9474
   6   2.0000      -9.883562      -268.9454
   7   2.0000      -9.876912      -268.7645
   8   2.0000      -9.876386      -268.7501
   9   2.0000      -0.957448       -26.0535
  10   2.0000      -0.771903       -21.0046
  11   2.0000      -0.702191       -19.1076
  12   2.0000      -0.679077       -18.4786
  13   2.0000      -0.630018       -17.1437
  14   2.0000      -0.604161       -16.4401
  15   2.0000      -0.543301       -14.7840
  16   2.0000      -0.515339       -14.0231
  17   2.0000      -0.482987       -13.1427
  18   2.0000      -0.440803       -11.9949
  19   2.0000      -0.413071       -11.2402
  20   2.0000      -0.399091       -10.8598
  21   2.0000      -0.371051       -10.0968
  22   2.0000      -0.369942       -10.0666
  23   2.0000      -0.358681        -9.7602
  24   2.0000      -0.355729        -9.6799
  25   2.0000      -0.353406        -9.6167
  26   2.0000      -0.342958        -9.3324
  27   2.0000      -0.320672        -8.7259
  28   2.0000      -0.303665        -8.2631
  29   2.0000      -0.284631        -7.7452
  30   2.0000      -0.284113        -7.7311
  31   2.0000      -0.211253        -5.7485
  32   2.0000      -0.187459        -5.1010
  33   0.0000      -0.026447        -0.7197
  34   0.0000      -0.011335        -0.3085
  35   0.0000       0.018670         0.5080
  36   0.0000       0.054335         1.4785
  37   0.0000       0.064748         1.7619

MULLIKEN ATOMIC CHARGES
-----------------------
   0 C :   -0.242648
   1 C :   -0.017382
   2 C :   -0.134700
   3 C :   -0.037205
   4 C :   -0.128491
   5 C :    0.141255
   6 C :   -0.050556
   7 C :   -0.299024
   8 O :   -0.336944
   9 H :    0.116783
  10 H :    0.101877
  11 H :    0.116997
  12 H :    0.027006
  13 H :    0.047293
  14 H :    0.038566
  15 H :    0.119294
  16 H :    0.109912
  17 H :    0.119008
  18 H :    0.308960
Sum of atomic charges:    0.0000000

LOEWDIN ATOMIC CHARGES
----------------------
   0 C :   -0.324443
   1 C :   -0.044133
   2 C :   -0.151486
   3 C :   -0.119643
   4 C :   -0.153501
   5 C :    0.028276
   6 C :   -0.094862
   7 C :   -0.339034
   8 O :   -0.237218
   9 H :    0.129456
  10 H :    0.125929
  11 H :    0.129490
  12 H :    0.117981
  13 H :    0.122995
  14 H :    0.128396
  15 H :    0.127818
  16 H :    0.133522
  17 H :    0.127625
  18 H :    0.292831

  Mayer bond orders larger than 0.100000
B(  0-C ,  1-C ) :   1.1143 B(  0-C ,  9-H ) :   0.9273 B(  0-C , 10-H ) :   0.9371
B(  0-C , 11-H ) :   0.9271 B(  1-C ,  2-C ) :   1.3903 B(  1-C ,  6-C ) :   1.4273
B(  2-C ,  3-C ) :   1.3422 B(  2-C , 12-H ) :   0.9594 B(  3-C ,  4-C ) :   1.3574
B(  3-C , 13-H ) :   0.9661 B(  4-C ,  5-C ) :   1.3699 B(  4-C , 14-H ) :   0.9650
B(  5-C ,  6-C ) :   1.3072 B(  5-C ,  8-O ) :   1.2220 B(  6-C ,  7-C ) :   1.1075
B(  7-C , 15-H ) :   0.9292 B(  7-C , 16-H ) :   0.9159 B(  7-C , 17-H ) :   0.9291
B(  8-O , 18-H ) :   0.8310

Dispersion correction           -0.019523975
FINAL SINGLE POINT ENERGY      -385.238355864365

DIPOLE MOMENT
-------------

Method             : SCF
Type of density    : Electron Density
Multiplicity       :   1
Irrep              :   0
Energy             :  -385.2975679293916187 Eh
Relativity type    :
Basis              : AO
                                X                 Y                 Z
Electronic contribution:      5.796543011      -3.714998769       0.000384246
Nuclear contribution   :     -6.125448984       4.423878099      -0.002220314
                        -----------------------------------------
Total Dipole Moment    :     -0.328905973       0.708879329      -0.001836068
                        -----------------------------------------
Magnitude (a.u.)       :      0.781468114
Magnitude (Debye)      :      1.986334090

Rotational constants in cm-1:             0.075594             0.059394             0.033681
Rotational constants in MHz :          2266.260923          1780.598922          1009.733817

                             ****ORCA TERMINATED NORMALLY****
TOTAL RUN TIME: 0 days 0 hours 0 minutes 8 seconds 209 msec
