                         Program Version 6.0.0  -   RELEASE  -
|  1> ! pbe def2-sv(p) def2/J RI DEFGRID1 loosescf d4 GCP(DFT/SV(P)) printgap
|  2> %output
|  3>     printlevel normal
|  4> end
|  5> * xyz 0 1
|  6> C 4.7006794882 -1.0153897436 -1.3279128299
|  7> C 4.3872748607 -0.6286411066 0.1019724801
|  8> O 3.445996786 0.4570902187 0.1977417644
|  9> P 1.9878900064 0.4847319394 -0.4396115413
| 10> S 1.8413360058 0.7598993116 -2.3700451837
| 11> O 1.3426477095 1.6828196714 0.3532379885
| 12> C 1.3804390021 1.7947279091 1.796135637
| 13> C 2.4254055532 2.8056476411 2.2199916384
| 14> S 1.1653233531 -1.331749243 0.308685944
| 15> C 0.0066062827 -1.7506259801 -1.0284714979
| 16> S -1.6850366228 -1.9926011272 -0.4456733972
| 17> P -2.0954824099 0.0156342141 0.1228442289
| 18> S -1.5023815042 1.4150268285 -1.1118072089
| 19> O -1.4771603645 0.1727466916 1.5673958307
| 20> C -1.9062569453 -0.6752057865 2.6716081843
| 21> C -0.7196797055 -0.9379251557 3.5748856338
| 22> O -3.6521393468 -0.0060801575 0.4461809546
| 23> C -4.6628480666 0.2310922517 -0.5498192101
| 24> C -4.6884668175 -0.846124621 -1.6144280711
| 25> H 3.812523842 -1.4131475485 -1.8161343807
| 26> H 5.0362882021 -0.1476972961 -1.890879132
| 27> H 5.4787736126 -1.7718154425 -1.3332400119
| 28> H 5.272185701 -0.2429586893 0.6114187998
| 29> H 3.9827215945 -1.4813237593 0.6541557258
| 30> H 0.3731529947 2.1137592322 2.0733503541
| 31> H 1.5836016922 0.8086300859 2.2231799817
| 32> H 2.3992117944 2.9130710686 3.299804793
| 33> H 3.413618664 2.4737028354 1.9125362716
| 34> H 2.2202516727 3.7669309975 1.7566462094
| 35> H 0.313570726 -2.7007839216 -1.458333947
| 36> H 0.0407295248 -0.950758732 -1.774382849
| 37> H -2.7006500742 -0.137795807 3.1915445172
| 38> H -2.3073125743 -1.6066218334 2.2621912093
| 39> H -0.3214067917 -0.0019170609 3.9555181861
| 40> H -1.0448128893 -1.5536298323 4.4073277466
| 41> H 0.0609443906 -1.4614445952 3.028427018
| 42> H -5.5897517741 0.2526660907 0.0251121049
| 43> H -4.4789309882 1.2115541486 -0.9995661859
| 44> H -4.7505112445 -1.8306289514 -1.1575501602
| 45> H -5.5479195288 -0.6915088816 -2.2588381535
| 46> H -3.7836851014 -0.7935814254 -2.2185018737
| 47> *
| 48>
| 49>                          ****END OF INPUT****

CARTESIAN COORDINATES (ANGSTROEM)
---------------------------------
  C      4.700679   -1.015390   -1.327913
  C      4.387275   -0.628641    0.101972
  O      3.445997    0.457090    0.197742
  P      1.987890    0.484732   -0.439612
  S      1.841336    0.759899   -2.370045
  O      1.342648    1.682820    0.353238
  C      1.380439    1.794728    1.796136
  C      2.425406    2.805648    2.219992
  S      1.165323   -1.331749    0.308686
  C      0.006606   -1.750626   -1.028471
  S     -1.685037   -1.992601   -0.445673
  P     -2.095482    0.015634    0.122844
  S     -1.502382    1.415027   -1.111807
  O     -1.477160    0.172747    1.567396
  C     -1.906257   -0.675206    2.671608
  C     -0.719680   -0.937925    3.574886
  O     -3.652139   -0.006080    0.446181
  C     -4.662848    0.231092   -0.549819
  C     -4.688467   -0.846125   -1.614428
  H      3.812524   -1.413148   -1.816134
  H      5.036288   -0.147697   -1.890879
  H      5.478774   -1.771815   -1.333240
  H      5.272186   -0.242959    0.611419
  H      3.982722   -1.481324    0.654156
  H      0.373153    2.113759    2.073350
  H      1.583602    0.808630    2.223180
  H      2.399212    2.913071    3.299805
  H      3.413619    2.473703    1.912536
  H      2.220252    3.766931    1.756646
  H      0.313571   -2.700784   -1.458334
  H      0.040730   -0.950759   -1.774383
  H     -2.700650   -0.137796    3.191545
  H     -2.307313   -1.606622    2.262191
  H     -0.321407   -0.001917    3.955518
  H     -1.044813   -1.553630    4.407328
  H      0.060944   -1.461445    3.028427
  H     -5.589752    0.252666    0.025112
  H     -4.478931    1.211554   -0.999566
  H     -4.750511   -1.830629   -1.157550
  H     -5.547920   -0.691509   -2.258838
  H     -3.783685   -0.793581   -2.218502

 Total Charge           Charge          ....    0
 Multiplicity           Mult            ....    1
 Number of Electrons    NEL             ....  202
 Basis Dimension        Dim             ....  334

ORBITAL ENERGIES
----------------

  NO   OCC          E(Eh)            E(eV)
   0   2.0000     -88.043746     -2395.7921
   1   2.0000     -88.041835     -2395.7401
   2   2.0000     -87.980160     -2394.0619
   3   2.0000     -87.976037     -2393.9497
   4   2.0000     -76.422728     -2079.5681
   5   2.0000     -76.420856     -2079.5172
   6   2.0000     -18.792438      -511.3682
   7   2.0000     -18.791068      -511.3310
   8   2.0000     -18.790547      -511.3168
   9   2.0000     -18.780432      -511.0415
  10   2.0000      -9.956428      -270.9282
  11   2.0000      -9.955166      -270.8938
  12   2.0000      -9.953681      -270.8534
  13   2.0000      -9.953206      -270.8405
  14   2.0000      -9.946448      -270.6566
  15   2.0000      -9.889931      -269.1187
  16   2.0000      -9.884013      -268.9577
  17   2.0000      -9.880418      -268.8599
  18   2.0000      -9.880172      -268.8531
  19   2.0000      -7.688739      -209.2212
  20   2.0000      -7.686411      -209.1579
  21   2.0000      -7.625044      -207.4880
  22   2.0000      -7.621315      -207.3865
  23   2.0000      -6.420268      -174.7044
  24   2.0000      -6.417944      -174.6411
  25   2.0000      -5.716556      -155.5554
  26   2.0000      -5.714166      -155.4904
  27   2.0000      -5.713084      -155.4609
  28   2.0000      -5.710786      -155.3984
  29   2.0000      -5.705948      -155.2667
  30   2.0000      -5.703685      -155.2052
  31   2.0000      -5.654124      -153.8565
  32   2.0000      -5.650508      -153.7582
  33   2.0000      -5.645481      -153.6214
  34   2.0000      -5.645261      -153.6154
  35   2.0000      -5.641884      -153.5235
  36   2.0000      -5.641190      -153.5046
  37   2.0000      -4.643144      -126.3464
  38   2.0000      -4.641991      -126.3150
  39   2.0000      -4.640689      -126.2796
  40   2.0000      -4.640453      -126.2731
  41   2.0000      -4.639949      -126.2594
  42   2.0000      -4.638099      -126.2091
  43   2.0000      -0.987681       -26.8762
  44   2.0000      -0.982947       -26.7473
  45   2.0000      -0.943530       -25.6748
  46   2.0000      -0.937422       -25.5085
  47   2.0000      -0.761430       -20.7196
  48   2.0000      -0.718492       -19.5512
  49   2.0000      -0.709687       -19.3116
  50   2.0000      -0.690104       -18.7787
  51   2.0000      -0.686632       -18.6842
  52   2.0000      -0.675943       -18.3933
  53   2.0000      -0.647608       -17.6223
  54   2.0000      -0.632588       -17.2136
  55   2.0000      -0.593728       -16.1562
  56   2.0000      -0.584684       -15.9101
  57   2.0000      -0.573483       -15.6053
  58   2.0000      -0.567669       -15.4471
  59   2.0000      -0.564027       -15.3480
  60   2.0000      -0.507556       -13.8113
  61   2.0000      -0.497142       -13.5279
  62   2.0000      -0.473140       -12.8748
  63   2.0000      -0.469103       -12.7649
  64   2.0000      -0.450684       -12.2637
  65   2.0000      -0.449225       -12.2240
  66   2.0000      -0.438729       -11.9384
  67   2.0000      -0.435641       -11.8544
  68   2.0000      -0.430384       -11.7113
  69   2.0000      -0.419432       -11.4133
  70   2.0000      -0.408844       -11.1252
  71   2.0000      -0.404249       -11.0002
  72   2.0000      -0.391851       -10.6628
  73   2.0000      -0.381130       -10.3711
  74   2.0000      -0.378621       -10.3028
  75   2.0000      -0.364470        -9.9177
  76   2.0000      -0.361873        -9.8471
  77   2.0000      -0.355299        -9.6682
  78   2.0000      -0.354378        -9.6431
  79   2.0000      -0.350330        -9.5330
  80   2.0000      -0.346361        -9.4250
  81   2.0000      -0.343271        -9.3409
  82   2.0000      -0.339470        -9.2375
  83   2.0000      -0.334817        -9.1108
  84   2.0000      -0.334598        -9.1049
  85   2.0000      -0.315501        -8.5852
  86   2.0000      -0.313425        -8.5287
  87   2.0000      -0.303755        -8.2656
  88   2.0000      -0.293227        -7.9791
  89   2.0000      -0.292756        -7.9663
  90   2.0000      -0.282335        -7.6827
  91   2.0000      -0.273208        -7.4344
  92   2.0000      -0.267968        -7.2918
  93   2.0000      -0.260802        -7.0968
  94   2.0000      -0.256789        -6.9876
  95   2.0000      -0.234974        -6.3940
  96   2.0000      -0.220557        -6.0017
  97   2.0000      -0.209201        -5.6926
  98   2.0000      -0.198790        -5.4094
  99   2.0000      -0.188992        -5.1427
 100   2.0000      -0.180651        -4.9158
 101   0.0000      -0.038954        -1.0600
 102   0.0000      -0.030762        -0.8371
 103   0.0000      -0.009609        -0.2615
 104   0.0000       0.008969         0.2441
 105   0.0000       0.020360         0.5540

MULLIKEN ATOMIC CHARGES
-----------------------
   0 C :   -0.305189
   1 C :   -0.006496
   2 O :   -0.382924
   3 P :    0.600622
   4 S :   -0.287390
   5 O :   -0.337058
   6 C :   -0.021451
   7 C :   -0.281339
   8 S :   -0.133507
   9 C :   -0.343666
  10 S :   -0.106264
  11 P :    0.578013
  12 S :   -0.269265
  13 O :   -0.357620
  14 C :   -0.010992
  15 C :   -0.292247
  16 O :   -0.384746
  17 C :    0.003051
  18 C :   -0.322583
  19 H :    0.120865
  20 H :    0.126080
  21 H :    0.108030
  22 H :    0.105259
  23 H :    0.107498
  24 H :    0.117840
  25 H :    0.096230
  26 H :    0.103287
  27 H :    0.116107
  28 H :    0.121773
  29 H :    0.180349
  30 H :    0.208072
  31 H :    0.109227
  32 H :    0.102760
  33 H :    0.117744
  34 H :    0.109544
  35 H :    0.130485
  36 H :    0.103385
  37 H :    0.112363
  38 H :    0.116343
  39 H :    0.114815
  40 H :    0.132992
Sum of atomic charges:    0.0000000

LOEWDIN ATOMIC CHARGES
----------------------
   0 C :   -0.368775
   1 C :   -0.117431
   2 O :   -0.247213
   3 P :    0.567730
   4 S :   -0.290438
   5 O :   -0.222785
   6 C :   -0.115390
   7 C :   -0.357714
   8 S :    0.058924
   9 C :   -0.480791
  10 S :    0.072360
  11 P :    0.558383
  12 S :   -0.279962
  13 O :   -0.239357
  14 C :   -0.114506
  15 C :   -0.355927
  16 O :   -0.251457
  17 C :   -0.116062
  18 C :   -0.371978
  19 H :    0.119921
  20 H :    0.130413
  21 H :    0.128378
  22 H :    0.118954
  23 H :    0.104733
  24 H :    0.119880
  25 H :    0.100380
  26 H :    0.126251
  27 H :    0.124806
  28 H :    0.129879
  29 H :    0.136069
  30 H :    0.126106
  31 H :    0.116958
  32 H :    0.103539
  33 H :    0.125093
  34 H :    0.129871
  35 H :    0.121826
  36 H :    0.117994
  37 H :    0.113444
  38 H :    0.122310
  39 H :    0.131998
  40 H :    0.123586

  Mayer bond orders larger than 0.100000
B(  0-C ,  1-C ) :   1.1671 B(  0-C , 19-H ) :   0.9331 B(  0-C , 20-H ) :   0.9440
B(  0-C , 21-H ) :   0.9350 B(  1-C ,  2-O ) :   0.9161 B(  1-C , 22-H ) :   0.9331
B(  1-C , 23-H ) :   0.9235 B(  2-O ,  3-P ) :   1.0685 B(  3-P ,  4-S ) :   1.6467
B(  3-P ,  5-O ) :   1.1452 B(  3-P ,  8-S ) :   0.9380 B(  4-S ,  8-S ) :   0.1149
B(  5-O ,  6-C ) :   0.8955 B(  6-C ,  7-C ) :   1.1584 B(  6-C , 24-H ) :   0.9267
B(  6-C , 25-H ) :   0.9133 B(  7-C , 26-H ) :   0.9411 B(  7-C , 27-H ) :   0.9431
B(  7-C , 28-H ) :   0.9468 B(  8-S ,  9-C ) :   0.9931 B(  9-C , 10-S ) :   1.0019
B(  9-C , 29-H ) :   0.9114 B(  9-C , 30-H ) :   0.8426 B( 10-S , 11-P ) :   0.9357
B( 10-S , 12-S ) :   0.1080 B( 11-P , 12-S ) :   1.6822 B( 11-P , 13-O ) :   1.1166
B( 11-P , 16-O ) :   1.0783 B( 13-O , 14-C ) :   0.8870 B( 14-C , 15-C ) :   1.1662
B( 14-C , 31-H ) :   0.9338 B( 14-C , 32-H ) :   0.9096 B( 15-C , 33-H ) :   0.9453
B( 15-C , 34-H ) :   0.9387 B( 15-C , 35-H ) :   0.9373 B( 16-O , 17-C ) :   0.9071
B( 17-C , 18-C ) :   1.1665 B( 17-C , 36-H ) :   0.9344 B( 17-C , 37-H ) :   0.9178
B( 18-C , 38-H ) :   0.9435 B( 18-C , 39-H ) :   0.9371 B( 18-C , 40-H ) :   0.9339

Dispersion correction           -0.067766584
FINAL SINGLE POINT ENERGY     -2929.515462181762

DIPOLE MOMENT
-------------

Method             : SCF
Type of density    : Electron Density
Multiplicity       :   1
Irrep              :   0
Energy             : -2929.6339347952393837 Eh
Relativity type    :
Basis              : AO
                                X                 Y                 Z
Electronic contribution:     -3.571016603       2.258709587     -12.313555474
Nuclear contribution   :      3.344829115      -3.424294634      14.023431815
                        -----------------------------------------
Total Dipole Moment    :     -0.226187488      -1.165585047       1.709876341
                        -----------------------------------------
Magnitude (a.u.)       :      2.081688349
Magnitude (Debye)      :      5.291231283

Rotational constants in cm-1:             0.012271             0.005492             0.005082
Rotational constants in MHz :           367.885756           164.656987           152.352952

                             ****ORCA TERMINATED NORMALLY****
TOTAL RUN TIME: 0 days 0 hours 0 minutes 21 seconds 719 msec
