                         Program Version 6.0.0  -   RELEASE  -
|  1> ! pbe def2-sv(p) def2/J RI DEFGRID1 loosescf d4 GCP(DFT/SV(P)) printgap
|  2> %output
|  3>     printlevel normal
|  4> end
|  5> * xyz 0 1
|  6> C 3.2984651106 -1.673963427 2.5076684533
|  7> C 1.920221573 -1.688982193 1.8789187134
|  8> O 1.6716811174 -0.4832222759 1.1285992358
|  9> P 2.3937769785 -0.2089481508 -0.2747386673
| 10> S 2.9533105606 -1.7949351056 -1.2661433287
| 11> O 3.6205751399 0.746597072 0.0268558113
| 12> C 3.5555709626 1.9059925773 0.8923061627
| 13> C 3.3196099324 3.172265703 0.0940885103
| 14> S 0.9357836109 1.0179012122 -1.1988239134
| 15> C -0.0564257686 -0.341868755 -1.8679950036
| 16> S -0.9582993273 -1.2561535938 -0.6021653043
| 17> P -2.3511443445 0.3098681584 -0.1613357755
| 18> S -2.9224728486 1.3882143659 -1.6888655199
| 19> O -1.6709817989 1.2414464874 0.911491884
| 20> C -1.2141821313 0.7769495566 2.203515032
| 21> C -2.2100258722 1.1520849087 3.2813828008
| 22> O -3.4514569085 -0.4411641291 0.7034747631
| 23> C -4.1189089172 -1.659794181 0.3243119207
| 24> C -4.7736162472 -1.5717873679 -1.037870661
| 25> H 4.0571260937 -1.632458756 1.7262276094
| 26> H 3.4123781093 -0.8107476583 3.1582042696
| 27> H 3.4397426746 -2.5813885761 3.0861378349
| 28> H 1.1305405348 -1.7047332584 2.6310935505
| 29> H 1.8103647619 -2.5452390556 1.2064872646
| 30> H 2.7686715372 1.752386197 1.6343951561
| 31> H 4.530477464 1.9263956365 1.382637476
| 32> H 4.0737939987 3.268704007 -0.6820282126
| 33> H 2.3377027198 3.1550995065 -0.3754122778
| 34> H 3.3791154511 4.0278916656 0.7595764995
| 35> H 0.5994389186 -1.0539715119 -2.369510577
| 36> H -0.768191176 0.1083267544 -2.5612787545
| 37> H -1.0633546851 -0.3052918491 2.1592016186
| 38> H -0.2538705499 1.2742864071 2.3537919988
| 39> H -3.1611860791 0.6585487394 3.1000942823
| 40> H -1.8233639938 0.8463264732 4.2484831669
| 41> H -2.3691305017 2.226775577 3.2802585745
| 42> H -3.386289622 -2.471324528 0.3490099514
| 43> H -4.8595432112 -1.8028369419 1.1131475676
| 44> H -5.3341119795 -2.4813567569 -1.2283337946
| 45> H -5.4453584752 -0.7177890251 -1.0821055703
| 46> H -4.0172146736 -1.4525666637 -1.8123640164
| 47> *
| 48>
| 49>                          ****END OF INPUT****

CARTESIAN COORDINATES (ANGSTROEM)
---------------------------------
  C      3.298465   -1.673963    2.507668
  C      1.920222   -1.688982    1.878919
  O      1.671681   -0.483222    1.128599
  P      2.393777   -0.208948   -0.274739
  S      2.953311   -1.794935   -1.266143
  O      3.620575    0.746597    0.026856
  C      3.555571    1.905993    0.892306
  C      3.319610    3.172266    0.094089
  S      0.935784    1.017901   -1.198824
  C     -0.056426   -0.341869   -1.867995
  S     -0.958299   -1.256154   -0.602165
  P     -2.351144    0.309868   -0.161336
  S     -2.922473    1.388214   -1.688866
  O     -1.670982    1.241446    0.911492
  C     -1.214182    0.776950    2.203515
  C     -2.210026    1.152085    3.281383
  O     -3.451457   -0.441164    0.703475
  C     -4.118909   -1.659794    0.324312
  C     -4.773616   -1.571787   -1.037871
  H      4.057126   -1.632459    1.726228
  H      3.412378   -0.810748    3.158204
  H      3.439743   -2.581389    3.086138
  H      1.130541   -1.704733    2.631094
  H      1.810365   -2.545239    1.206487
  H      2.768672    1.752386    1.634395
  H      4.530477    1.926396    1.382637
  H      4.073794    3.268704   -0.682028
  H      2.337703    3.155100   -0.375412
  H      3.379115    4.027892    0.759576
  H      0.599439   -1.053972   -2.369511
  H     -0.768191    0.108327   -2.561279
  H     -1.063355   -0.305292    2.159202
  H     -0.253871    1.274286    2.353792
  H     -3.161186    0.658549    3.100094
  H     -1.823364    0.846326    4.248483
  H     -2.369131    2.226776    3.280259
  H     -3.386290   -2.471325    0.349010
  H     -4.859543   -1.802837    1.113148
  H     -5.334112   -2.481357   -1.228334
  H     -5.445358   -0.717789   -1.082106
  H     -4.017215   -1.452567   -1.812364

 Total Charge           Charge          ....    0
 Multiplicity           Mult            ....    1
 Number of Electrons    NEL             ....  202
 Basis Dimension        Dim             ....  334

ORBITAL ENERGIES
----------------

  NO   OCC          E(Eh)            E(eV)
   0   2.0000     -88.042983     -2395.7714
   1   2.0000     -88.041230     -2395.7237
   2   2.0000     -87.988480     -2394.2883
   3   2.0000     -87.983221     -2394.1452
   4   2.0000     -76.427765     -2079.7052
   5   2.0000     -76.427030     -2079.6852
   6   2.0000     -18.798792      -511.5411
   7   2.0000     -18.798304      -511.5279
   8   2.0000     -18.794923      -511.4359
   9   2.0000     -18.789521      -511.2889
  10   2.0000      -9.963397      -271.1178
  11   2.0000      -9.962122      -271.0831
  12   2.0000      -9.955385      -270.8998
  13   2.0000      -9.954873      -270.8859
  14   2.0000      -9.951526      -270.7948
  15   2.0000      -9.892221      -269.1810
  16   2.0000      -9.890049      -269.1219
  17   2.0000      -9.887634      -269.0562
  18   2.0000      -9.884993      -268.9843
  19   2.0000      -7.687714      -209.1933
  20   2.0000      -7.686328      -209.1556
  21   2.0000      -7.633747      -207.7248
  22   2.0000      -7.628574      -207.5840
  23   2.0000      -6.425689      -174.8519
  24   2.0000      -6.424211      -174.8117
  25   2.0000      -5.715341      -155.5223
  26   2.0000      -5.714141      -155.4897
  27   2.0000      -5.712283      -155.4391
  28   2.0000      -5.711059      -155.4058
  29   2.0000      -5.704951      -155.2396
  30   2.0000      -5.703135      -155.1902
  31   2.0000      -5.662748      -154.0912
  32   2.0000      -5.657638      -153.9522
  33   2.0000      -5.654345      -153.8626
  34   2.0000      -5.653782      -153.8472
  35   2.0000      -5.649111      -153.7201
  36   2.0000      -5.648615      -153.7066
  37   2.0000      -4.648690      -126.4973
  38   2.0000      -4.647146      -126.4553
  39   2.0000      -4.647008      -126.4515
  40   2.0000      -4.646179      -126.4290
  41   2.0000      -4.646163      -126.4285
  42   2.0000      -4.644194      -126.3749
  43   2.0000      -0.990937       -26.9648
  44   2.0000      -0.989288       -26.9199
  45   2.0000      -0.948517       -25.8105
  46   2.0000      -0.946714       -25.7614
  47   2.0000      -0.765145       -20.8207
  48   2.0000      -0.724335       -19.7101
  49   2.0000      -0.713705       -19.4209
  50   2.0000      -0.696426       -18.9507
  51   2.0000      -0.693346       -18.8669
  52   2.0000      -0.677136       -18.4258
  53   2.0000      -0.652274       -17.7493
  54   2.0000      -0.639465       -17.4007
  55   2.0000      -0.596907       -16.2427
  56   2.0000      -0.591066       -16.0837
  57   2.0000      -0.583762       -15.8850
  58   2.0000      -0.575861       -15.6700
  59   2.0000      -0.564050       -15.3486
  60   2.0000      -0.508197       -13.8287
  61   2.0000      -0.500185       -13.6107
  62   2.0000      -0.482652       -13.1336
  63   2.0000      -0.476432       -12.9644
  64   2.0000      -0.461312       -12.5529
  65   2.0000      -0.451952       -12.2982
  66   2.0000      -0.444156       -12.0861
  67   2.0000      -0.437815       -11.9135
  68   2.0000      -0.434418       -11.8211
  69   2.0000      -0.415778       -11.3139
  70   2.0000      -0.411652       -11.2016
  71   2.0000      -0.404052       -10.9948
  72   2.0000      -0.399212       -10.8631
  73   2.0000      -0.386421       -10.5151
  74   2.0000      -0.378146       -10.2899
  75   2.0000      -0.377430       -10.2704
  76   2.0000      -0.366209        -9.9650
  77   2.0000      -0.360754        -9.8166
  78   2.0000      -0.357541        -9.7292
  79   2.0000      -0.356844        -9.7102
  80   2.0000      -0.351735        -9.5712
  81   2.0000      -0.349285        -9.5045
  82   2.0000      -0.347890        -9.4666
  83   2.0000      -0.341240        -9.2856
  84   2.0000      -0.340374        -9.2620
  85   2.0000      -0.325954        -8.8697
  86   2.0000      -0.318468        -8.6660
  87   2.0000      -0.305928        -8.3247
  88   2.0000      -0.299658        -8.1541
  89   2.0000      -0.290757        -7.9119
  90   2.0000      -0.284969        -7.7544
  91   2.0000      -0.280001        -7.6192
  92   2.0000      -0.274672        -7.4742
  93   2.0000      -0.273480        -7.4418
  94   2.0000      -0.258591        -7.0366
  95   2.0000      -0.233027        -6.3410
  96   2.0000      -0.218505        -5.9458
  97   2.0000      -0.211982        -5.7683
  98   2.0000      -0.203308        -5.5323
  99   2.0000      -0.200197        -5.4476
 100   2.0000      -0.198059        -5.3895
 101   0.0000      -0.044436        -1.2092
 102   0.0000      -0.023648        -0.6435
 103   0.0000      -0.006819        -0.1855
 104   0.0000       0.001423         0.0387
 105   0.0000       0.006714         0.1827

MULLIKEN ATOMIC CHARGES
-----------------------
   0 C :   -0.310640
   1 C :   -0.011009
   2 O :   -0.383886
   3 P :    0.621547
   4 S :   -0.314130
   5 O :   -0.366372
   6 C :   -0.034807
   7 C :   -0.302286
   8 S :   -0.085401
   9 C :   -0.359756
  10 S :   -0.105302
  11 P :    0.594733
  12 S :   -0.308298
  13 O :   -0.344796
  14 C :   -0.021423
  15 C :   -0.282443
  16 O :   -0.381506
  17 C :   -0.011013
  18 C :   -0.309389
  19 H :    0.131917
  20 H :    0.109500
  21 H :    0.114359
  22 H :    0.101437
  23 H :    0.114879
  24 H :    0.113783
  25 H :    0.112210
  26 H :    0.126315
  27 H :    0.140904
  28 H :    0.113436
  29 H :    0.193550
  30 H :    0.196094
  31 H :    0.103700
  32 H :    0.111221
  33 H :    0.118698
  34 H :    0.105073
  35 H :    0.119572
  36 H :    0.113480
  37 H :    0.108700
  38 H :    0.112174
  39 H :    0.127917
  40 H :    0.127259
Sum of atomic charges:    0.0000000

LOEWDIN ATOMIC CHARGES
----------------------
   0 C :   -0.365481
   1 C :   -0.122118
   2 O :   -0.252702
   3 P :    0.572309
   4 S :   -0.306887
   5 O :   -0.241426
   6 C :   -0.117191
   7 C :   -0.360971
   8 S :    0.092246
   9 C :   -0.486728
  10 S :    0.065005
  11 P :    0.569032
  12 S :   -0.304669
  13 O :   -0.229410
  14 C :   -0.115419
  15 C :   -0.358146
  16 O :   -0.245653
  17 C :   -0.114995
  18 C :   -0.368922
  19 H :    0.126541
  20 H :    0.121345
  21 H :    0.131974
  22 H :    0.112647
  23 H :    0.110466
  24 H :    0.108752
  25 H :    0.121959
  26 H :    0.132146
  27 H :    0.121836
  28 H :    0.132211
  29 H :    0.129609
  30 H :    0.129347
  31 H :    0.102410
  32 H :    0.116139
  33 H :    0.125986
  34 H :    0.126976
  35 H :    0.128848
  36 H :    0.108311
  37 H :    0.120737
  38 H :    0.130637
  39 H :    0.131008
  40 H :    0.122239

  Mayer bond orders larger than 0.100000
B(  0-C ,  1-C ) :   1.1623 B(  0-C , 19-H ) :   0.9340 B(  0-C , 20-H ) :   0.9469
B(  0-C , 21-H ) :   0.9397 B(  1-C ,  2-O ) :   0.9060 B(  1-C , 22-H ) :   0.9290
B(  1-C , 23-H ) :   0.9119 B(  2-O ,  3-P ) :   1.0595 B(  3-P ,  4-S ) :   1.6310
B(  3-P ,  5-O ) :   1.1254 B(  3-P ,  8-S ) :   0.9677 B(  4-S ,  8-S ) :   0.1038
B(  5-O ,  6-C ) :   0.9001 B(  6-C ,  7-C ) :   1.1699 B(  6-C , 24-H ) :   0.9137
B(  6-C , 25-H ) :   0.9334 B(  7-C , 26-H ) :   0.9457 B(  7-C , 27-H ) :   0.9324
B(  7-C , 28-H ) :   0.9379 B(  8-S ,  9-C ) :   1.0066 B(  9-C , 10-S ) :   1.0082
B(  9-C , 29-H ) :   0.8725 B(  9-C , 30-H ) :   0.8698 B( 10-S , 11-P ) :   0.9381
B( 10-S , 12-S ) :   0.1103 B( 11-P , 12-S ) :   1.6480 B( 11-P , 13-O ) :   1.1408
B( 11-P , 16-O ) :   1.0783 B( 13-O , 14-C ) :   0.8949 B( 14-C , 15-C ) :   1.1567
B( 14-C , 31-H ) :   0.9102 B( 14-C , 32-H ) :   0.9323 B( 15-C , 33-H ) :   0.9431
B( 15-C , 34-H ) :   0.9412 B( 15-C , 35-H ) :   0.9466 B( 16-O , 17-C ) :   0.9111
B( 17-C , 18-C ) :   1.1678 B( 17-C , 36-H ) :   0.9260 B( 17-C , 37-H ) :   0.9330
B( 18-C , 38-H ) :   0.9347 B( 18-C , 39-H ) :   0.9430 B( 18-C , 40-H ) :   0.9320

Dispersion correction           -0.065754374
FINAL SINGLE POINT ENERGY     -2929.518047769769

DIPOLE MOMENT
-------------

Method             : SCF
Type of density    : Electron Density
Multiplicity       :   1
Irrep              :   0
Energy             : -2929.6383080985165179 Eh
Relativity type    :
Basis              : AO
                                X                 Y                 Z
Electronic contribution:      0.870258164       0.023402956     -19.155287770
Nuclear contribution   :     -0.919822630      -0.351239448      21.281026670
                        -----------------------------------------
Total Dipole Moment    :     -0.049564466      -0.327836493       2.125738900
                        -----------------------------------------
Magnitude (a.u.)       :      2.151441208
Magnitude (Debye)      :      5.468528960

Rotational constants in cm-1:             0.011885             0.004952             0.004911
Rotational constants in MHz :           356.296617           148.471603           147.238998

                             ****ORCA TERMINATED NORMALLY****
TOTAL RUN TIME: 0 days 0 hours 0 minutes 21 seconds 507 msec
