                         Program Version 6.0.0  -   RELEASE  -
|  1> ! pbe def2-sv(p) def2/J RI DEFGRID1 loosescf d4 GCP(DFT/SV(P)) printgap
|  2> %output
|  3>     printlevel normal
|  4> end
|  5> * xyz 0 1
|  6> C 0.9347501153 1.413880829 3.1769284992
|  7> C 2.0827371317 1.2192450857 2.2074777644
|  8> O 2.1160211396 -0.1799585325 1.826031985
|  9> P 2.6042925671 -0.6826831606 0.4158425333
| 10> S 2.4882101188 -2.6340742921 0.3461110303
| 11> O 4.0338588242 0.0049580275 0.3164615261
| 12> C 4.7880875624 0.1966328846 -0.8956945001
| 13> C 4.9894089111 -1.0884743145 -1.6706398085
| 14> S 1.468351498 0.3648613651 -1.0560977285
| 15> C 0.056198075 -0.7589909999 -1.036575667
| 16> S -0.9642393052 -0.5906342098 0.4539985822
| 17> P -2.6368198811 0.476205747 -0.3451778398
| 18> S -2.7274898433 0.5530340596 -2.3064818002
| 19> O -2.735309504 1.8535987459 0.4197163945
| 20> C -2.2698004435 3.0913391811 -0.1509701673
| 21> C -0.763950117 3.2243304874 -0.0505235376
| 22> O -3.8613019501 -0.2115436537 0.3835473635
| 23> C -4.2430919657 -1.5633092215 0.0592582706
| 24> C -5.5916925551 -1.827084874 0.6975172934
| 25> H -0.0097049531 1.1576233673 2.7021215865
| 26> H 1.0673698095 0.7702840178 4.0417056229
| 27> H 0.910817804 2.4498470826 3.5002138223
| 28> H 3.0433299957 1.4519318824 2.6703797604
| 29> H 1.9580152593 1.8284199082 1.306862373
| 30> H 4.2672533449 0.9392897442 -1.5063571777
| 31> H 5.737558462 0.6038082079 -0.5438427395
| 32> H 5.632839028 -0.898854457 -2.5237073794
| 33> H 5.4439022923 -1.846742589 -1.0372779635
| 34> H 4.0322893406 -1.4682796236 -2.025647739
| 35> H 0.4303248053 -1.7832666031 -1.0588380988
| 36> H -0.5533529832 -0.5327129205 -1.9147549314
| 37> H -2.5953264401 3.142857641 -1.1951112821
| 38> H -2.780857447 3.8576095637 0.4335568412
| 39> H -0.4669742528 4.2080203914 -0.3996460263
| 40> H -0.444530824 3.0969345307 0.9803017849
| 41> H -0.2786117204 2.4725122952 -0.6723460555
| 42> H -4.2899841371 -1.6633088627 -1.0307645522
| 43> H -3.4787963605 -2.2440161106 0.44714284
| 44> H -5.8978913294 -2.8445603111 0.4777963772
| 45> H -5.5231001379 -1.6943150237 1.7731556861
| 46> H -6.3307423874 -1.1350357107 0.3043390027
| 47> *
| 48>
| 49>                          ****END OF INPUT****

CARTESIAN COORDINATES (ANGSTROEM)
---------------------------------
  C      0.934750    1.413881    3.176928
  C      2.082737    1.219245    2.207478
  O      2.116021   -0.179959    1.826032
  P      2.604293   -0.682683    0.415843
  S      2.488210   -2.634074    0.346111
  O      4.033859    0.004958    0.316462
  C      4.788088    0.196633   -0.895695
  C      4.989409   -1.088474   -1.670640
  S      1.468351    0.364861   -1.056098
  C      0.056198   -0.758991   -1.036576
  S     -0.964239   -0.590634    0.453999
  P     -2.636820    0.476206   -0.345178
  S     -2.727490    0.553034   -2.306482
  O     -2.735310    1.853599    0.419716
  C     -2.269800    3.091339   -0.150970
  C     -0.763950    3.224330   -0.050524
  O     -3.861302   -0.211544    0.383547
  C     -4.243092   -1.563309    0.059258
  C     -5.591693   -1.827085    0.697517
  H     -0.009705    1.157623    2.702122
  H      1.067370    0.770284    4.041706
  H      0.910818    2.449847    3.500214
  H      3.043330    1.451932    2.670380
  H      1.958015    1.828420    1.306862
  H      4.267253    0.939290   -1.506357
  H      5.737558    0.603808   -0.543843
  H      5.632839   -0.898854   -2.523707
  H      5.443902   -1.846743   -1.037278
  H      4.032289   -1.468280   -2.025648
  H      0.430325   -1.783267   -1.058838
  H     -0.553353   -0.532713   -1.914755
  H     -2.595326    3.142858   -1.195111
  H     -2.780857    3.857610    0.433557
  H     -0.466974    4.208020   -0.399646
  H     -0.444531    3.096935    0.980302
  H     -0.278612    2.472512   -0.672346
  H     -4.289984   -1.663309   -1.030765
  H     -3.478796   -2.244016    0.447143
  H     -5.897891   -2.844560    0.477796
  H     -5.523100   -1.694315    1.773156
  H     -6.330742   -1.135036    0.304339

 Total Charge           Charge          ....    0
 Multiplicity           Mult            ....    1
 Number of Electrons    NEL             ....  202
 Basis Dimension        Dim             ....  334

ORBITAL ENERGIES
----------------

  NO   OCC          E(Eh)            E(eV)
   0   2.0000     -88.048124     -2395.9112
   1   2.0000     -88.045348     -2395.8357
   2   2.0000     -87.996003     -2394.4930
   3   2.0000     -87.984512     -2394.1803
   4   2.0000     -76.430118     -2079.7692
   5   2.0000     -76.427599     -2079.7007
   6   2.0000     -18.797638      -511.5097
   7   2.0000     -18.794925      -511.4359
   8   2.0000     -18.793715      -511.4030
   9   2.0000     -18.791826      -511.3516
  10   2.0000      -9.961731      -271.0725
  11   2.0000      -9.956315      -270.9251
  12   2.0000      -9.955293      -270.8973
  13   2.0000      -9.953427      -270.8465
  14   2.0000      -9.951810      -270.8025
  15   2.0000      -9.887863      -269.0624
  16   2.0000      -9.887804      -269.0608
  17   2.0000      -9.885852      -269.0077
  18   2.0000      -9.885196      -268.9899
  19   2.0000      -7.692491      -209.3233
  20   2.0000      -7.689904      -209.2529
  21   2.0000      -7.640823      -207.9174
  22   2.0000      -7.629839      -207.6185
  23   2.0000      -6.427853      -174.9108
  24   2.0000      -6.424978      -174.8325
  25   2.0000      -5.720041      -155.6502
  26   2.0000      -5.717690      -155.5863
  27   2.0000      -5.716968      -155.5666
  28   2.0000      -5.714331      -155.4949
  29   2.0000      -5.709939      -155.3753
  30   2.0000      -5.707131      -155.2989
  31   2.0000      -5.669512      -154.2753
  32   2.0000      -5.661393      -154.0543
  33   2.0000      -5.661289      -154.0515
  34   2.0000      -5.658928      -153.9872
  35   2.0000      -5.650368      -153.7543
  36   2.0000      -5.649874      -153.7409
  37   2.0000      -4.650019      -126.5334
  38   2.0000      -4.649777      -126.5269
  39   2.0000      -4.648415      -126.4898
  40   2.0000      -4.647817      -126.4735
  41   2.0000      -4.647014      -126.4517
  42   2.0000      -4.644960      -126.3958
  43   2.0000      -0.993258       -27.0279
  44   2.0000      -0.990652       -26.9570
  45   2.0000      -0.949216       -25.8295
  46   2.0000      -0.946576       -25.7577
  47   2.0000      -0.764585       -20.8054
  48   2.0000      -0.725148       -19.7323
  49   2.0000      -0.715797       -19.4778
  50   2.0000      -0.692061       -18.8319
  51   2.0000      -0.687958       -18.7203
  52   2.0000      -0.680261       -18.5108
  53   2.0000      -0.652529       -17.7562
  54   2.0000      -0.640879       -17.4392
  55   2.0000      -0.603752       -16.4289
  56   2.0000      -0.591333       -16.0910
  57   2.0000      -0.573050       -15.5935
  58   2.0000      -0.567452       -15.4411
  59   2.0000      -0.563417       -15.3314
  60   2.0000      -0.511500       -13.9186
  61   2.0000      -0.504861       -13.7380
  62   2.0000      -0.476536       -12.9672
  63   2.0000      -0.475683       -12.9440
  64   2.0000      -0.464275       -12.6336
  65   2.0000      -0.447291       -12.1714
  66   2.0000      -0.442638       -12.0448
  67   2.0000      -0.436782       -11.8854
  68   2.0000      -0.433577       -11.7982
  69   2.0000      -0.424215       -11.5435
  70   2.0000      -0.417133       -11.3508
  71   2.0000      -0.399879       -10.8813
  72   2.0000      -0.395152       -10.7526
  73   2.0000      -0.387817       -10.5530
  74   2.0000      -0.385318       -10.4850
  75   2.0000      -0.376634       -10.2487
  76   2.0000      -0.361304        -9.8316
  77   2.0000      -0.357417        -9.7258
  78   2.0000      -0.355120        -9.6633
  79   2.0000      -0.352272        -9.5858
  80   2.0000      -0.349793        -9.5184
  81   2.0000      -0.346665        -9.4332
  82   2.0000      -0.343675        -9.3519
  83   2.0000      -0.341572        -9.2946
  84   2.0000      -0.336389        -9.1536
  85   2.0000      -0.322526        -8.7764
  86   2.0000      -0.314017        -8.5448
  87   2.0000      -0.306324        -8.3355
  88   2.0000      -0.299874        -8.1600
  89   2.0000      -0.296817        -8.0768
  90   2.0000      -0.295810        -8.0494
  91   2.0000      -0.278635        -7.5820
  92   2.0000      -0.272424        -7.4130
  93   2.0000      -0.266780        -7.2594
  94   2.0000      -0.257569        -7.0088
  95   2.0000      -0.236806        -6.4438
  96   2.0000      -0.226528        -6.1641
  97   2.0000      -0.215966        -5.8767
  98   2.0000      -0.210972        -5.7408
  99   2.0000      -0.202675        -5.5151
 100   2.0000      -0.199259        -5.4221
 101   0.0000      -0.045829        -1.2471
 102   0.0000      -0.033820        -0.9203
 103   0.0000      -0.012760        -0.3472
 104   0.0000       0.000444         0.0121
 105   0.0000       0.008264         0.2249

MULLIKEN ATOMIC CHARGES
-----------------------
   0 C :   -0.293132
   1 C :   -0.014012
   2 O :   -0.351495
   3 P :    0.593042
   4 S :   -0.302320
   5 O :   -0.382438
   6 C :   -0.010577
   7 C :   -0.309835
   8 S :   -0.116351
   9 C :   -0.363765
  10 S :   -0.083486
  11 P :    0.597014
  12 S :   -0.330036
  13 O :   -0.354341
  14 C :   -0.000425
  15 C :   -0.338300
  16 O :   -0.359812
  17 C :   -0.013870
  18 C :   -0.277750
  19 H :    0.135756
  20 H :    0.121424
  21 H :    0.107473
  22 H :    0.107922
  23 H :    0.102034
  24 H :    0.112568
  25 H :    0.109984
  26 H :    0.112348
  27 H :    0.128396
  28 H :    0.126565
  29 H :    0.196618
  30 H :    0.193365
  31 H :    0.115276
  32 H :    0.107548
  33 H :    0.110858
  34 H :    0.126504
  35 H :    0.133810
  36 H :    0.104531
  37 H :    0.106748
  38 H :    0.112980
  39 H :    0.118719
  40 H :    0.120464
Sum of atomic charges:    0.0000000

LOEWDIN ATOMIC CHARGES
----------------------
   0 C :   -0.356727
   1 C :   -0.114776
   2 O :   -0.233791
   3 P :    0.564104
   4 S :   -0.301390
   5 O :   -0.247479
   6 C :   -0.114079
   7 C :   -0.368726
   8 S :    0.075821
   9 C :   -0.491670
  10 S :    0.087412
  11 P :    0.567906
  12 S :   -0.309572
  13 O :   -0.233312
  14 C :   -0.116088
  15 C :   -0.369906
  16 O :   -0.237612
  17 C :   -0.121999
  18 C :   -0.349296
  19 H :    0.123099
  20 H :    0.130581
  21 H :    0.127438
  22 H :    0.116377
  23 H :    0.101554
  24 H :    0.108086
  25 H :    0.121686
  26 H :    0.130644
  27 H :    0.131297
  28 H :    0.122015
  29 H :    0.128034
  30 H :    0.124270
  31 H :    0.110629
  32 H :    0.120083
  33 H :    0.131076
  34 H :    0.125606
  35 H :    0.112666
  36 H :    0.109074
  37 H :    0.108420
  38 H :    0.131368
  39 H :    0.128243
  40 H :    0.128933

  Mayer bond orders larger than 0.100000
B(  0-C ,  1-C ) :   1.1700 B(  0-C , 19-H ) :   0.9333 B(  0-C , 20-H ) :   0.9456
B(  0-C , 21-H ) :   0.9381 B(  1-C ,  2-O ) :   0.8854 B(  1-C , 22-H ) :   0.9319
B(  1-C , 23-H ) :   0.9095 B(  2-O ,  3-P ) :   1.1416 B(  3-P ,  4-S ) :   1.6521
B(  3-P ,  5-O ) :   1.0885 B(  3-P ,  8-S ) :   0.9364 B(  4-S ,  8-S ) :   0.1082
B(  5-O ,  6-C ) :   0.9130 B(  6-C ,  7-C ) :   1.1668 B(  6-C , 24-H ) :   0.9269
B(  6-C , 25-H ) :   0.9333 B(  7-C , 26-H ) :   0.9349 B(  7-C , 27-H ) :   0.9431
B(  7-C , 28-H ) :   0.9326 B(  8-S ,  9-C ) :   1.0047 B(  9-C , 10-S ) :   1.0091
B(  9-C , 29-H ) :   0.8649 B(  9-C , 30-H ) :   0.8504 B( 10-S , 11-P ) :   0.9489
B( 10-S , 12-S ) :   0.1229 B( 11-P , 12-S ) :   1.5950 B( 11-P , 13-O ) :   1.1368
B( 11-P , 16-O ) :   1.1329 B( 12-S , 30-H ) :   0.1162 B( 13-O , 14-C ) :   0.9104
B( 14-C , 15-C ) :   1.1603 B( 14-C , 31-H ) :   0.9131 B( 14-C , 32-H ) :   0.9328
B( 15-C , 33-H ) :   0.9369 B( 15-C , 34-H ) :   0.9375 B( 15-C , 35-H ) :   0.9283
B( 16-O , 17-C ) :   0.9061 B( 17-C , 18-C ) :   1.1619 B( 17-C , 36-H ) :   0.9146
B( 17-C , 37-H ) :   0.9221 B( 18-C , 38-H ) :   0.9419 B( 18-C , 39-H ) :   0.9506
B( 18-C , 40-H ) :   0.9512

Dispersion correction           -0.063090139
FINAL SINGLE POINT ENERGY     -2929.523257182621

DIPOLE MOMENT
-------------

Method             : SCF
Type of density    : Electron Density
Multiplicity       :   1
Irrep              :   0
Energy             : -2929.6439944090216159 Eh
Relativity type    :
Basis              : AO
                                X                 Y                 Z
Electronic contribution:      0.394613235      -8.237580185      -4.297348688
Nuclear contribution   :     -0.103590707       9.530914843       4.491543093
                        -----------------------------------------
Total Dipole Moment    :      0.291022528       1.293334658       0.194194405
                        -----------------------------------------
Magnitude (a.u.)       :      1.339820927
Magnitude (Debye)      :      3.405554153

Rotational constants in cm-1:             0.012378             0.004350             0.004152
Rotational constants in MHz :           371.089826           130.420909           124.487383

                             ****ORCA TERMINATED NORMALLY****
TOTAL RUN TIME: 0 days 0 hours 0 minutes 20 seconds 642 msec
