                         Program Version 6.0.0  -   RELEASE  -
|  1> ! pbe def2-sv(p) def2/J RI DEFGRID1 loosescf d4 GCP(DFT/SV(P)) printgap
|  2> %output
|  3>     printlevel normal
|  4> end
|  5> * xyz 0 1
|  6> C 4.1720569345 -1.4421685087 -2.2262291884
|  7> C 4.6290091062 -1.2925836637 -0.7899018023
|  8> O 3.5268594493 -1.2075706234 0.1328517923
|  9> P 2.5177678888 0.0210082052 0.1451704781
| 10> S 3.3112934027 1.7813838015 -0.1463344796
| 11> O 1.8505436434 -0.0911658866 1.5698071656
| 12> C 1.2580637953 -1.3019613827 2.0967807462
| 13> C 2.2500853524 -2.0637909457 2.95121522
| 14> S 0.9974584324 -0.5659534535 -1.2407441341
| 15> C 0.3047516285 1.0855309589 -1.4714415268
| 16> S -0.5737587452 1.6861036694 -0.0043333036
| 17> P -2.2018514915 0.3337006568 -0.1328778495
| 18> S -2.7699213764 -0.0697180775 -1.9705728071
| 19> O -3.3253212868 0.9757675916 0.786436188
| 20> C -4.2431900137 1.9750366455 0.2989256973
| 21> C -5.5439875363 1.8348669232 1.0642903272
| 22> O -1.6762985983 -0.8491560859 0.7770601362
| 23> C -2.5382770886 -1.8007675197 1.4470385272
| 24> C -3.3874957443 -2.5930645829 0.4759751533
| 25> H 3.4645290897 -2.2626514297 -2.3169083147
| 26> H 3.6907653145 -0.5251116632 -2.5624533531
| 27> H 5.0336960472 -1.6370283209 -2.8566182951
| 28> H 5.2430607165 -0.3945044246 -0.6735971728
| 29> H 5.1834509744 -2.1689678847 -0.451243373
| 30> H 0.409820053 -0.9490610969 2.687094599
| 31> H 0.8978240367 -1.9110809905 1.262467066
| 32> H 2.6345466609 -1.4182912781 3.7361580798
| 33> H 1.7509716241 -2.916874963 3.4002476915
| 34> H 3.0812054272 -2.412223561 2.3444185007
| 35> H -0.3889712339 1.0230768052 -2.310192717
| 36> H 1.1091560552 1.7954397079 -1.6649202255
| 37> H -3.7868901531 2.9543688575 0.4610624641
| 38> H -4.3923444561 1.8197376626 -0.7750896524
| 39> H -6.2330094094 2.6057760479 0.7354108972
| 40> H -5.9861141535 0.8595959582 0.8801084378
| 41> H -5.3625073149 1.9462591213 2.1294056745
| 42> H -1.8374778805 -2.4449656405 1.9807920043
| 43> H -3.1607570843 -1.254532866 2.1585676771
| 44> H -4.0839968242 -1.9342545672 -0.0407083862
| 45> H -2.759403346 -3.0775323224 -0.2680639718
| 46> H -3.9487011251 -3.3465198799 1.0197499215
| 47> *
| 48>
| 49>                          ****END OF INPUT****

CARTESIAN COORDINATES (ANGSTROEM)
---------------------------------
  C      4.172057   -1.442169   -2.226229
  C      4.629009   -1.292584   -0.789902
  O      3.526859   -1.207571    0.132852
  P      2.517768    0.021008    0.145170
  S      3.311293    1.781384   -0.146334
  O      1.850544   -0.091166    1.569807
  C      1.258064   -1.301961    2.096781
  C      2.250085   -2.063791    2.951215
  S      0.997458   -0.565953   -1.240744
  C      0.304752    1.085531   -1.471442
  S     -0.573759    1.686104   -0.004333
  P     -2.201851    0.333701   -0.132878
  S     -2.769921   -0.069718   -1.970573
  O     -3.325321    0.975768    0.786436
  C     -4.243190    1.975037    0.298926
  C     -5.543988    1.834867    1.064290
  O     -1.676299   -0.849156    0.777060
  C     -2.538277   -1.800768    1.447039
  C     -3.387496   -2.593065    0.475975
  H      3.464529   -2.262651   -2.316908
  H      3.690765   -0.525112   -2.562453
  H      5.033696   -1.637028   -2.856618
  H      5.243061   -0.394504   -0.673597
  H      5.183451   -2.168968   -0.451243
  H      0.409820   -0.949061    2.687095
  H      0.897824   -1.911081    1.262467
  H      2.634547   -1.418291    3.736158
  H      1.750972   -2.916875    3.400248
  H      3.081205   -2.412224    2.344419
  H     -0.388971    1.023077   -2.310193
  H      1.109156    1.795440   -1.664920
  H     -3.786890    2.954369    0.461062
  H     -4.392344    1.819738   -0.775090
  H     -6.233009    2.605776    0.735411
  H     -5.986114    0.859596    0.880108
  H     -5.362507    1.946259    2.129406
  H     -1.837478   -2.444966    1.980792
  H     -3.160757   -1.254533    2.158568
  H     -4.083997   -1.934255   -0.040708
  H     -2.759403   -3.077532   -0.268064
  H     -3.948701   -3.346520    1.019750

 Total Charge           Charge          ....    0
 Multiplicity           Mult            ....    1
 Number of Electrons    NEL             ....  202
 Basis Dimension        Dim             ....  334

ORBITAL ENERGIES
----------------

  NO   OCC          E(Eh)            E(eV)
   0   2.0000     -88.037351     -2395.6181
   1   2.0000     -88.037299     -2395.6167
   2   2.0000     -87.988270     -2394.2826
   3   2.0000     -87.983463     -2394.1517
   4   2.0000     -76.428709     -2079.7309
   5   2.0000     -76.423649     -2079.5932
   6   2.0000     -18.800175      -511.5788
   7   2.0000     -18.794733      -511.4307
   8   2.0000     -18.794345      -511.4201
   9   2.0000     -18.786918      -511.2180
  10   2.0000      -9.961314      -271.0611
  11   2.0000      -9.956527      -270.9309
  12   2.0000      -9.953380      -270.8452
  13   2.0000      -9.951080      -270.7826
  14   2.0000      -9.947222      -270.6777
  15   2.0000      -9.892786      -269.1964
  16   2.0000      -9.887704      -269.0581
  17   2.0000      -9.883960      -268.9562
  18   2.0000      -9.883044      -268.9313
  19   2.0000      -7.682642      -209.0553
  20   2.0000      -7.682124      -209.0412
  21   2.0000      -7.633294      -207.7125
  22   2.0000      -7.628823      -207.5908
  23   2.0000      -6.426276      -174.8679
  24   2.0000      -6.421148      -174.7283
  25   2.0000      -5.710502      -155.3907
  26   2.0000      -5.709852      -155.3730
  27   2.0000      -5.707316      -155.3040
  28   2.0000      -5.706781      -155.2894
  29   2.0000      -5.699450      -155.0899
  30   2.0000      -5.699137      -155.0814
  31   2.0000      -5.662067      -154.0727
  32   2.0000      -5.657749      -153.9552
  33   2.0000      -5.654017      -153.8536
  34   2.0000      -5.653505      -153.8397
  35   2.0000      -5.649314      -153.7256
  36   2.0000      -5.649045      -153.7183
  37   2.0000      -4.649278      -126.5133
  38   2.0000      -4.647804      -126.4732
  39   2.0000      -4.646544      -126.4389
  40   2.0000      -4.644085      -126.3720
  41   2.0000      -4.642783      -126.3365
  42   2.0000      -4.641410      -126.2992
  43   2.0000      -0.992836       -27.0164
  44   2.0000      -0.986359       -26.8402
  45   2.0000      -0.949196       -25.8289
  46   2.0000      -0.943320       -25.6691
  47   2.0000      -0.761553       -20.7229
  48   2.0000      -0.722758       -19.6672
  49   2.0000      -0.709824       -19.3153
  50   2.0000      -0.695083       -18.9142
  51   2.0000      -0.689128       -18.7521
  52   2.0000      -0.673653       -18.3310
  53   2.0000      -0.650154       -17.6916
  54   2.0000      -0.636289       -17.3143
  55   2.0000      -0.598598       -16.2887
  56   2.0000      -0.591746       -16.1022
  57   2.0000      -0.577809       -15.7230
  58   2.0000      -0.573171       -15.5968
  59   2.0000      -0.558298       -15.1921
  60   2.0000      -0.510076       -13.8799
  61   2.0000      -0.496378       -13.5071
  62   2.0000      -0.478836       -13.0298
  63   2.0000      -0.472936       -12.8692
  64   2.0000      -0.459472       -12.5029
  65   2.0000      -0.447560       -12.1787
  66   2.0000      -0.443418       -12.0660
  67   2.0000      -0.436918       -11.8891
  68   2.0000      -0.426741       -11.6122
  69   2.0000      -0.416717       -11.3394
  70   2.0000      -0.414145       -11.2695
  71   2.0000      -0.401483       -10.9249
  72   2.0000      -0.391117       -10.6428
  73   2.0000      -0.381537       -10.3821
  74   2.0000      -0.375759       -10.2249
  75   2.0000      -0.374055       -10.1786
  76   2.0000      -0.367038        -9.9876
  77   2.0000      -0.360517        -9.8102
  78   2.0000      -0.357186        -9.7195
  79   2.0000      -0.351936        -9.5767
  80   2.0000      -0.350132        -9.5276
  81   2.0000      -0.346828        -9.4377
  82   2.0000      -0.342788        -9.3277
  83   2.0000      -0.342371        -9.3164
  84   2.0000      -0.338127        -9.2009
  85   2.0000      -0.323284        -8.7970
  86   2.0000      -0.311709        -8.4820
  87   2.0000      -0.304336        -8.2814
  88   2.0000      -0.295105        -8.0302
  89   2.0000      -0.293923        -7.9981
  90   2.0000      -0.290294        -7.8993
  91   2.0000      -0.279626        -7.6090
  92   2.0000      -0.267996        -7.2926
  93   2.0000      -0.263301        -7.1648
  94   2.0000      -0.258140        -7.0243
  95   2.0000      -0.233414        -6.3515
  96   2.0000      -0.214613        -5.8399
  97   2.0000      -0.212389        -5.7794
  98   2.0000      -0.202379        -5.5070
  99   2.0000      -0.198445        -5.4000
 100   2.0000      -0.197475        -5.3736
 101   0.0000      -0.042997        -1.1700
 102   0.0000      -0.021891        -0.5957
 103   0.0000      -0.000124        -0.0034
 104   0.0000       0.001830         0.0498
 105   0.0000       0.013945         0.3795

MULLIKEN ATOMIC CHARGES
-----------------------
   0 C :   -0.315668
   1 C :   -0.000787
   2 O :   -0.383882
   3 P :    0.604326
   4 S :   -0.317152
   5 O :   -0.348470
   6 C :   -0.020915
   7 C :   -0.285541
   8 S :   -0.085558
   9 C :   -0.378356
  10 S :   -0.069634
  11 P :    0.627287
  12 S :   -0.335023
  13 O :   -0.387789
  14 C :   -0.009991
  15 C :   -0.286608
  16 O :   -0.364364
  17 C :   -0.007354
  18 C :   -0.311739
  19 H :    0.117738
  20 H :    0.128528
  21 H :    0.113242
  22 H :    0.113892
  23 H :    0.103740
  24 H :    0.111996
  25 H :    0.108825
  26 H :    0.118379
  27 H :    0.103996
  28 H :    0.120720
  29 H :    0.195771
  30 H :    0.192905
  31 H :    0.107322
  32 H :    0.109845
  33 H :    0.115092
  34 H :    0.117265
  35 H :    0.117384
  36 H :    0.103428
  37 H :    0.111346
  38 H :    0.128885
  39 H :    0.126804
  40 H :    0.110115
Sum of atomic charges:    0.0000000

LOEWDIN ATOMIC CHARGES
----------------------
   0 C :   -0.370679
   1 C :   -0.116353
   2 O :   -0.248693
   3 P :    0.573207
   4 S :   -0.310704
   5 O :   -0.231138
   6 C :   -0.115394
   7 C :   -0.360384
   8 S :    0.079724
   9 C :   -0.489527
  10 S :    0.085878
  11 P :    0.571210
  12 S :   -0.316715
  13 O :   -0.249181
  14 C :   -0.119798
  15 C :   -0.351440
  16 O :   -0.240327
  17 C :   -0.109529
  18 C :   -0.367051
  19 H :    0.123511
  20 H :    0.121875
  21 H :    0.131213
  22 H :    0.113423
  23 H :    0.117782
  24 H :    0.118798
  25 H :    0.104059
  26 H :    0.128289
  27 H :    0.126618
  28 H :    0.125393
  29 H :    0.127640
  30 H :    0.127849
  31 H :    0.114898
  32 H :    0.108365
  33 H :    0.132546
  34 H :    0.126441
  35 H :    0.126628
  36 H :    0.115862
  37 H :    0.113597
  38 H :    0.121459
  39 H :    0.131344
  40 H :    0.129305

  Mayer bond orders larger than 0.100000
B(  0-C ,  1-C ) :   1.1665 B(  0-C , 19-H ) :   0.9436 B(  0-C , 20-H ) :   0.9347
B(  0-C , 21-H ) :   0.9368 B(  1-C ,  2-O ) :   0.9056 B(  1-C , 22-H ) :   0.9186
B(  1-C , 23-H ) :   0.9341 B(  2-O ,  3-P ) :   1.0803 B(  3-P ,  4-S ) :   1.6319
B(  3-P ,  5-O ) :   1.1439 B(  3-P ,  8-S ) :   0.9469 B(  4-S ,  8-S ) :   0.1093
B(  5-O ,  6-C ) :   0.8960 B(  6-C ,  7-C ) :   1.1551 B(  6-C , 24-H ) :   0.9325
B(  6-C , 25-H ) :   0.9121 B(  7-C , 26-H ) :   0.9461 B(  7-C , 27-H ) :   0.9408
B(  7-C , 28-H ) :   0.9412 B(  8-S ,  9-C ) :   1.0078 B(  9-C , 10-S ) :   1.0050
B(  9-C , 29-H ) :   0.8722 B(  9-C , 30-H ) :   0.8727 B( 10-S , 11-P ) :   0.9666
B( 10-S , 12-S ) :   0.1185 B( 11-P , 12-S ) :   1.6134 B( 11-P , 13-O ) :   1.0896
B( 11-P , 16-O ) :   1.1186 B( 13-O , 14-C ) :   0.9001 B( 14-C , 15-C ) :   1.1607
B( 14-C , 31-H ) :   0.9316 B( 14-C , 32-H ) :   0.9038 B( 15-C , 33-H ) :   0.9416
B( 15-C , 34-H ) :   0.9511 B( 15-C , 35-H ) :   0.9506 B( 16-O , 17-C ) :   0.9053
B( 17-C , 18-C ) :   1.1694 B( 17-C , 36-H ) :   0.9305 B( 17-C , 37-H ) :   0.9296
B( 18-C , 38-H ) :   0.9338 B( 18-C , 39-H ) :   0.9445 B( 18-C , 40-H ) :   0.9352

Dispersion correction           -0.064434547
FINAL SINGLE POINT ENERGY     -2929.520415770935

DIPOLE MOMENT
-------------

Method             : SCF
Type of density    : Electron Density
Multiplicity       :   1
Irrep              :   0
Energy             : -2929.6410753520176513 Eh
Relativity type    :
Basis              : AO
                                X                 Y                 Z
Electronic contribution:      8.367716713      13.909231992      -7.618248416
Nuclear contribution   :     -9.162061548     -15.098042688       8.461628814
                        -----------------------------------------
Total Dipole Moment    :     -0.794344835      -1.188810695       0.843380398
                        -----------------------------------------
Magnitude (a.u.)       :      1.659983458
Magnitude (Debye)      :      4.219342634

Rotational constants in cm-1:             0.013392             0.004568             0.004304
Rotational constants in MHz :           401.496276           136.956574           129.029146

                             ****ORCA TERMINATED NORMALLY****
TOTAL RUN TIME: 0 days 0 hours 0 minutes 20 seconds 922 msec
