                         Program Version 6.0.0  -   RELEASE  -
|  1> ! pbe def2-sv(p) def2/J RI DEFGRID1 loosescf d4 GCP(DFT/SV(P)) printgap
|  2> %output
|  3>     printlevel normal
|  4> end
|  5> * xyz 0 1
|  6> C 4.8516948178 -0.9722915454 -2.256215974
|  7> C 4.6374218923 -0.1823380691 -0.9810817957
|  8> O 3.4895500808 0.6933621627 -1.1108562396
|  9> P 2.0683243903 0.3615999842 -0.4895260664
| 10> S 0.8558562588 1.8421908652 -0.8803337467
| 11> O 2.3020722444 0.0413224075 1.0607255981
| 12> C 2.4557347301 1.1022132897 2.0249486117
| 13> C 2.3935425534 0.4852493629 3.4057655421
| 14> S 1.6307531208 -1.5871801784 -1.140059445
| 15> C 0.0362083704 -1.8339286594 -0.3200452795
| 16> S -1.3334597152 -0.985745231 -1.1720539313
| 17> P -2.2360444367 -0.0729415742 0.5313303983
| 18> S -1.0491852935 0.35884228 2.0216765483
| 19> O -3.3296556915 -1.0829411877 1.0477952448
| 20> C -4.3751077691 -1.647328297 0.2156268559
| 21> C -4.0897071827 -3.1102953625 -0.0602040671
| 22> O -3.1517158213 1.0547739658 -0.1084892285
| 23> C -2.709845668 2.2415543933 -0.7905304254
| 24> C -2.359815679 3.3425214052 0.1894209774
| 25> H 4.9403482399 -0.2948346915 -3.1009033845
| 26> H 5.7640411561 -1.5529114844 -2.1636871784
| 27> H 4.0157553291 -1.6459705381 -2.4322271491
| 28> H 5.4740715037 0.4920909726 -0.7895665824
| 29> H 4.4891077868 -0.8433010385 -0.1233940403
| 30> H 3.4141876265 1.5969912726 1.8426799011
| 31> H 1.6470407132 1.8253670658 1.8784649753
| 32> H 2.5687841647 1.2576741954 4.1469674237
| 33> H 1.4089677679 0.0536077344 3.5677166281
| 34> H 3.1465098617 -0.2912012077 3.50295986
| 35> H 0.0911037777 -1.4624229377 0.7065017768
| 36> H -0.1434104902 -2.9053558321 -0.3492624706
| 37> H -5.2893485842 -1.5231077236 0.7978789218
| 38> H -4.448471126 -1.0726936672 -0.7096742493
| 39> H -3.9253106805 -3.6383430172 0.8749053178
| 40> H -4.9416322482 -3.5458291907 -0.5725660653
| 41> H -3.2081625418 -3.2153276205 -0.6876497615
| 42> H -1.8514274799 2.0039583785 -1.4239978872
| 43> H -3.5627285851 2.5191523362 -1.4127841647
| 44> H -2.1215635668 4.2462193855 -0.3616513264
| 45> H -3.1937078785 3.5308249049 0.8603181817
| 46> H -1.4895117093 3.0567599417 0.7767090644
| 47> *
| 48>
| 49>                          ****END OF INPUT****

CARTESIAN COORDINATES (ANGSTROEM)
---------------------------------
  C      4.851695   -0.972292   -2.256216
  C      4.637422   -0.182338   -0.981082
  O      3.489550    0.693362   -1.110856
  P      2.068324    0.361600   -0.489526
  S      0.855856    1.842191   -0.880334
  O      2.302072    0.041322    1.060726
  C      2.455735    1.102213    2.024949
  C      2.393543    0.485249    3.405766
  S      1.630753   -1.587180   -1.140059
  C      0.036208   -1.833929   -0.320045
  S     -1.333460   -0.985745   -1.172054
  P     -2.236044   -0.072942    0.531330
  S     -1.049185    0.358842    2.021677
  O     -3.329656   -1.082941    1.047795
  C     -4.375108   -1.647328    0.215627
  C     -4.089707   -3.110295   -0.060204
  O     -3.151716    1.054774   -0.108489
  C     -2.709846    2.241554   -0.790530
  C     -2.359816    3.342521    0.189421
  H      4.940348   -0.294835   -3.100903
  H      5.764041   -1.552911   -2.163687
  H      4.015755   -1.645971   -2.432227
  H      5.474072    0.492091   -0.789567
  H      4.489108   -0.843301   -0.123394
  H      3.414188    1.596991    1.842680
  H      1.647041    1.825367    1.878465
  H      2.568784    1.257674    4.146967
  H      1.408968    0.053608    3.567717
  H      3.146510   -0.291201    3.502960
  H      0.091104   -1.462423    0.706502
  H     -0.143410   -2.905356   -0.349262
  H     -5.289349   -1.523108    0.797879
  H     -4.448471   -1.072694   -0.709674
  H     -3.925311   -3.638343    0.874905
  H     -4.941632   -3.545829   -0.572566
  H     -3.208163   -3.215328   -0.687650
  H     -1.851427    2.003958   -1.423998
  H     -3.562729    2.519152   -1.412784
  H     -2.121564    4.246219   -0.361651
  H     -3.193708    3.530825    0.860318
  H     -1.489512    3.056760    0.776709

 Total Charge           Charge          ....    0
 Multiplicity           Mult            ....    1
 Number of Electrons    NEL             ....  202
 Basis Dimension        Dim             ....  334

ORBITAL ENERGIES
----------------

  NO   OCC          E(Eh)            E(eV)
   0   2.0000     -88.045313     -2395.8348
   1   2.0000     -88.039704     -2395.6821
   2   2.0000     -87.981605     -2394.1012
   3   2.0000     -87.976218     -2393.9546
   4   2.0000     -76.423759     -2079.5962
   5   2.0000     -76.420908     -2079.5186
   6   2.0000     -18.791898      -511.3535
   7   2.0000     -18.791805      -511.3510
   8   2.0000     -18.785365      -511.1758
   9   2.0000     -18.784330      -511.1476
  10   2.0000      -9.958300      -270.9791
  11   2.0000      -9.956362      -270.9264
  12   2.0000      -9.953984      -270.8617
  13   2.0000      -9.947311      -270.6801
  14   2.0000      -9.943019      -270.5633
  15   2.0000      -9.890149      -269.1246
  16   2.0000      -9.885883      -269.0086
  17   2.0000      -9.878256      -268.8010
  18   2.0000      -9.872408      -268.6419
  19   2.0000      -7.690846      -209.2786
  20   2.0000      -7.684510      -209.1062
  21   2.0000      -7.626743      -207.5342
  22   2.0000      -7.621512      -207.3919
  23   2.0000      -6.421102      -174.7271
  24   2.0000      -6.418988      -174.6695
  25   2.0000      -5.718714      -155.6141
  26   2.0000      -5.715312      -155.5215
  27   2.0000      -5.712335      -155.4405
  28   2.0000      -5.709136      -155.3535
  29   2.0000      -5.707761      -155.3161
  30   2.0000      -5.701463      -155.1447
  31   2.0000      -5.655688      -153.8991
  32   2.0000      -5.650529      -153.7587
  33   2.0000      -5.647511      -153.6766
  34   2.0000      -5.646607      -153.6520
  35   2.0000      -5.642088      -153.5290
  36   2.0000      -5.641494      -153.5129
  37   2.0000      -4.643878      -126.3663
  38   2.0000      -4.642953      -126.3412
  39   2.0000      -4.642018      -126.3157
  40   2.0000      -4.641357      -126.2977
  41   2.0000      -4.640573      -126.2764
  42   2.0000      -4.639167      -126.2382
  43   2.0000      -0.984854       -26.7992
  44   2.0000      -0.981919       -26.7194
  45   2.0000      -0.940120       -25.5820
  46   2.0000      -0.940079       -25.5808
  47   2.0000      -0.762530       -20.7495
  48   2.0000      -0.721003       -19.6195
  49   2.0000      -0.710694       -19.3390
  50   2.0000      -0.690683       -18.7944
  51   2.0000      -0.684690       -18.6314
  52   2.0000      -0.672548       -18.3010
  53   2.0000      -0.648233       -17.6393
  54   2.0000      -0.633588       -17.2408
  55   2.0000      -0.587323       -15.9819
  56   2.0000      -0.579577       -15.7711
  57   2.0000      -0.573882       -15.6161
  58   2.0000      -0.572678       -15.5834
  59   2.0000      -0.557668       -15.1749
  60   2.0000      -0.508159       -13.8277
  61   2.0000      -0.500685       -13.6243
  62   2.0000      -0.478164       -13.0115
  63   2.0000      -0.472972       -12.8702
  64   2.0000      -0.450282       -12.2528
  65   2.0000      -0.444842       -12.1048
  66   2.0000      -0.440313       -11.9815
  67   2.0000      -0.437690       -11.9101
  68   2.0000      -0.427510       -11.6331
  69   2.0000      -0.416860       -11.3433
  70   2.0000      -0.406859       -11.0712
  71   2.0000      -0.396409       -10.7868
  72   2.0000      -0.387091       -10.5333
  73   2.0000      -0.382968       -10.4211
  74   2.0000      -0.379564       -10.3285
  75   2.0000      -0.362177        -9.8553
  76   2.0000      -0.360137        -9.7998
  77   2.0000      -0.357185        -9.7195
  78   2.0000      -0.353848        -9.6287
  79   2.0000      -0.353385        -9.6161
  80   2.0000      -0.347128        -9.4458
  81   2.0000      -0.341653        -9.2968
  82   2.0000      -0.339553        -9.2397
  83   2.0000      -0.331513        -9.0209
  84   2.0000      -0.324944        -8.8422
  85   2.0000      -0.315064        -8.5733
  86   2.0000      -0.312592        -8.5061
  87   2.0000      -0.303432        -8.2568
  88   2.0000      -0.293542        -7.9877
  89   2.0000      -0.288988        -7.8638
  90   2.0000      -0.276083        -7.5126
  91   2.0000      -0.274813        -7.4780
  92   2.0000      -0.271025        -7.3750
  93   2.0000      -0.261979        -7.1288
  94   2.0000      -0.259784        -7.0691
  95   2.0000      -0.241704        -6.5771
  96   2.0000      -0.222041        -6.0420
  97   2.0000      -0.202873        -5.5205
  98   2.0000      -0.200609        -5.4588
  99   2.0000      -0.189209        -5.1486
 100   2.0000      -0.182751        -4.9729
 101   0.0000      -0.039873        -1.0850
 102   0.0000      -0.031296        -0.8516
 103   0.0000      -0.012478        -0.3395
 104   0.0000       0.006511         0.1772
 105   0.0000       0.019229         0.5232

MULLIKEN ATOMIC CHARGES
-----------------------
   0 C :   -0.295312
   1 C :   -0.031225
   2 O :   -0.368227
   3 P :    0.624623
   4 S :   -0.316792
   5 O :   -0.389365
   6 C :   -0.016390
   7 C :   -0.283816
   8 S :   -0.107661
   9 C :   -0.342823
  10 S :   -0.098744
  11 P :    0.614068
  12 S :   -0.310389
  13 O :   -0.359175
  14 C :   -0.005884
  15 C :   -0.290666
  16 O :   -0.379733
  17 C :   -0.019406
  18 C :   -0.304928
  19 H :    0.124514
  20 H :    0.111896
  21 H :    0.131503
  22 H :    0.111031
  23 H :    0.109982
  24 H :    0.093799
  25 H :    0.121875
  26 H :    0.107647
  27 H :    0.133305
  28 H :    0.106857
  29 H :    0.199058
  30 H :    0.181621
  31 H :    0.110355
  32 H :    0.102457
  33 H :    0.118607
  34 H :    0.108621
  35 H :    0.116161
  36 H :    0.132057
  37 H :    0.100161
  38 H :    0.107958
  39 H :    0.110648
  40 H :    0.141730
Sum of atomic charges:   -0.0000000

LOEWDIN ATOMIC CHARGES
----------------------
   0 C :   -0.359939
   1 C :   -0.120743
   2 O :   -0.243747
   3 P :    0.565958
   4 S :   -0.304343
   5 O :   -0.255617
   6 C :   -0.122734
   7 C :   -0.352770
   8 S :    0.085884
   9 C :   -0.477243
  10 S :    0.067236
  11 P :    0.568828
  12 S :   -0.290398
  13 O :   -0.241369
  14 C :   -0.113015
  15 C :   -0.360884
  16 O :   -0.240332
  17 C :   -0.116467
  18 C :   -0.364787
  19 H :    0.131214
  20 H :    0.131161
  21 H :    0.119432
  22 H :    0.121144
  23 H :    0.109567
  24 H :    0.105768
  25 H :    0.110715
  26 H :    0.129412
  27 H :    0.126288
  28 H :    0.122486
  29 H :    0.124439
  30 H :    0.134993
  31 H :    0.121618
  32 H :    0.107934
  33 H :    0.128229
  34 H :    0.129162
  35 H :    0.118255
  36 H :    0.109247
  37 H :    0.115937
  38 H :    0.129869
  39 H :    0.124224
  40 H :    0.125385

  Mayer bond orders larger than 0.100000
B(  0-C ,  1-C ) :   1.1679 B(  0-C , 19-H ) :   0.9456 B(  0-C , 20-H ) :   0.9387
B(  0-C , 21-H ) :   0.9369 B(  1-C ,  2-O ) :   0.8999 B(  1-C , 22-H ) :   0.9328
B(  1-C , 23-H ) :   0.9152 B(  2-O ,  3-P ) :   1.1174 B(  3-P ,  4-S ) :   1.6734
B(  3-P ,  5-O ) :   1.0719 B(  3-P ,  8-S ) :   0.9664 B(  4-S ,  8-S ) :   0.1111
B(  5-O ,  6-C ) :   0.8937 B(  6-C ,  7-C ) :   1.1637 B(  6-C , 24-H ) :   0.9305
B(  6-C , 25-H ) :   0.9084 B(  7-C , 26-H ) :   0.9415 B(  7-C , 27-H ) :   0.9436
B(  7-C , 28-H ) :   0.9498 B(  8-S ,  9-C ) :   1.0033 B(  9-C , 10-S ) :   0.9949
B(  9-C , 29-H ) :   0.8486 B(  9-C , 30-H ) :   0.9115 B( 10-S , 11-P ) :   0.9442
B( 10-S , 12-S ) :   0.1145 B( 11-P , 12-S ) :   1.6316 B( 11-P , 13-O ) :   1.1303
B( 11-P , 16-O ) :   1.1094 B( 12-S , 29-H ) :   0.1050 B( 13-O , 14-C ) :   0.8939
B( 14-C , 15-C ) :   1.1635 B( 14-C , 31-H ) :   0.9351 B( 14-C , 32-H ) :   0.9181
B( 15-C , 33-H ) :   0.9466 B( 15-C , 34-H ) :   0.9402 B( 15-C , 35-H ) :   0.9377
B( 16-O , 17-C ) :   0.8983 B( 17-C , 18-C ) :   1.1739 B( 17-C , 36-H ) :   0.9107
B( 17-C , 37-H ) :   0.9346 B( 18-C , 38-H ) :   0.9387 B( 18-C , 39-H ) :   0.9465
B( 18-C , 40-H ) :   0.9304

Dispersion correction           -0.065561796
FINAL SINGLE POINT ENERGY     -2929.514588847737

DIPOLE MOMENT
-------------

Method             : SCF
Type of density    : Electron Density
Multiplicity       :   1
Irrep              :   0
Energy             : -2929.6336023211224528 Eh
Relativity type    :
Basis              : AO
                                X                 Y                 Z
Electronic contribution:     -2.479681319       0.767892937      -4.774026013
Nuclear contribution   :      2.749107523      -1.558247096       4.538954347
                        -----------------------------------------
Total Dipole Moment    :      0.269426204      -0.790354159      -0.235071666
                        -----------------------------------------
Magnitude (a.u.)       :      0.867472688
Magnitude (Debye)      :      2.204940344

Rotational constants in cm-1:             0.011835             0.005165             0.004727
Rotational constants in MHz :           354.814940           154.831030           141.700353

                             ****ORCA TERMINATED NORMALLY****
TOTAL RUN TIME: 0 days 0 hours 0 minutes 21 seconds 394 msec
