                         Program Version 6.0.0  -   RELEASE  -
|  1> ! wb97x-v def2-tzvp def2/J RIJCOSX DEFGRID2 scfconv7 GCP(DFT/TZ) printgap
|  2> %output
|  3>     printlevel normal
|  4> end
|  5> * xyz 0 1
|  6> C 0.1767685001238528 0.37619401873604186 -0.5596457802338889
|  7> H 0.20255594874363828 0.35636467494714147 -1.6502221159264874
|  8> C 1.2389203497593586 -0.5864546745564173 -0.015295616084704993
|  9> F 2.4605311324545984 -0.207626443521271 -0.4371565906158478
| 10> F 1.25874662619156 -0.6318118791967162 1.3258120148626806
| 11> F 1.0150134801515316 -1.8306477353658897 -0.4755042440876668
| 12> Cl 0.5240113055371677 2.0336739537790622 -0.002448415826028254
| 13> Br -1.6031330238308794 -0.2201076062848147 -0.00757693812184613
| 14> *
| 15>
| 16>                          ****END OF INPUT****

CARTESIAN COORDINATES (ANGSTROEM)
---------------------------------
  C      0.176769    0.376194   -0.559646
  H      0.202556    0.356365   -1.650222
  C      1.238920   -0.586455   -0.015296
  F      2.460531   -0.207626   -0.437157
  F      1.258747   -0.631812    1.325812
  F      1.015013   -1.830648   -0.475504
  Cl     0.524011    2.033674   -0.002448
  Br    -1.603133   -0.220108   -0.007577

 Total Charge           Charge          ....    0
 Multiplicity           Mult            ....    1
 Number of Electrons    NEL             ....   92
 Basis Dimension        Dim             ....  246

ORBITAL ENERGIES
----------------

  NO   OCC          E(Eh)            E(eV)
   0   2.0000    -494.752254    -13462.8933
   1   2.0000    -107.175069     -2916.3819
   2   2.0000     -66.921591     -1821.0291
   3   2.0000     -60.978496     -1659.3092
   4   2.0000     -60.976767     -1659.2622
   5   2.0000     -60.976734     -1659.2613
   6   2.0000     -27.620213      -751.5842
   7   2.0000     -27.619348      -751.5607
   8   2.0000     -27.617931      -751.5221
   9   2.0000     -12.330766      -335.5372
  10   2.0000     -12.208297      -332.2046
  11   2.0000     -11.328225      -308.2567
  12   2.0000     -10.673366      -290.4371
  13   2.0000      -9.119809      -248.1626
  14   2.0000      -9.116757      -248.0796
  15   2.0000      -9.116696      -248.0779
  16   2.0000      -8.453702      -230.0369
  17   2.0000      -8.445925      -229.8253
  18   2.0000      -8.445805      -229.8220
  19   2.0000      -4.438993      -120.7911
  20   2.0000      -4.435878      -120.7064
  21   2.0000      -4.435788      -120.7039
  22   2.0000      -4.427319      -120.4735
  23   2.0000      -4.427303      -120.4730
  24   2.0000      -2.083928       -56.7066
  25   2.0000      -2.034626       -55.3650
  26   2.0000      -2.033578       -55.3365
  27   2.0000      -1.465627       -39.8817
  28   2.0000      -1.404755       -38.2253
  29   2.0000      -1.361748       -37.0550
  30   2.0000      -1.280523       -34.8448
  31   2.0000      -1.279408       -34.8144
  32   2.0000      -1.259107       -34.2620
  33   2.0000      -1.184253       -32.2252
  34   2.0000      -1.183905       -32.2157
  35   2.0000      -1.171202       -31.8700
  36   2.0000      -1.170503       -31.8510
  37   2.0000      -1.168687       -31.8016
  38   2.0000      -1.166634       -31.7457
  39   2.0000      -0.992431       -27.0054
  40   2.0000      -0.950084       -25.8531
  41   2.0000      -0.910940       -24.7879
  42   2.0000      -0.819342       -22.2954
  43   2.0000      -0.810365       -22.0512
  44   2.0000      -0.759086       -20.6558
  45   2.0000      -0.754720       -20.5370
  46   0.0000      -0.368187       -10.0189
  47   0.0000      -0.330359        -8.9895
  48   0.0000      -0.291595        -7.9347
  49   0.0000      -0.230180        -6.2635
  50   0.0000      -0.196348        -5.3429

MULLIKEN ATOMIC CHARGES
-----------------------
   0 C :   -0.068184
   1 H :    0.167965
   2 C :    0.414602
   3 F :   -0.146368
   4 F :   -0.142109
   5 F :   -0.146060
   6 Cl:   -0.053084
   7 Br:   -0.026761
Sum of atomic charges:   -0.0000000

LOEWDIN ATOMIC CHARGES
----------------------
   0 C :   -0.678577
   1 H :    0.140638
   2 C :   -0.734624
   3 F :    0.199721
   4 F :    0.208674
   5 F :    0.202640
   6 Cl:    0.357354
   7 Br:    0.304173

  Mayer bond orders larger than 0.100000
B(  0-C ,  1-H ) :   0.9420 B(  0-C ,  2-C ) :   0.9833 B(  0-C ,  6-Cl) :   1.1180
B(  0-C ,  7-Br) :   1.0878 B(  2-C ,  3-F ) :   1.1602 B(  2-C ,  4-F ) :   1.1764
B(  2-C ,  5-F ) :   1.1596

FINAL SINGLE POINT ENERGY     -3410.436840589648

DIPOLE MOMENT
-------------

Method             : SCF
Type of density    : Electron Density
Multiplicity       :   1
Irrep              :   0
Energy             : -3410.4584071550484623 Eh
Relativity type    :
Basis              : AO
                                X                 Y                 Z
Electronic contribution:    -10.040743361      -2.082330207       1.454529279
Nuclear contribution   :      9.836076207       2.224729535      -1.946570851
                        -----------------------------------------
Total Dipole Moment    :     -0.204667154       0.142399327      -0.492041572
                        -----------------------------------------
Magnitude (a.u.)       :      0.551607760
Magnitude (Debye)      :      1.402075502

Rotational constants in cm-1:             0.061010             0.037760             0.026881
Rotational constants in MHz :          1829.021145          1132.015236           805.875745

                             ****ORCA TERMINATED NORMALLY****
TOTAL RUN TIME: 0 days 0 hours 1 minutes 25 seconds 369 msec
