                         Program Version 6.0.0  -   RELEASE  -
|  1> ! wb97x-v def2-tzvp def2/J RIJCOSX DEFGRID2 scfconv7 GCP(DFT/TZ) printgap
|  2> %output
|  3>     printlevel normal
|  4> end
|  5> %cpcm
|  6>     smd true
|  7>     smdsolvent "water"
|  8> end
|  9> * xyz 0 1
| 10> C 0.1767685001238528 0.37619401873604186 -0.5596457802338889
| 11> H 0.20255594874363828 0.35636467494714147 -1.6502221159264874
| 12> C 1.2389203497593586 -0.5864546745564173 -0.015295616084704993
| 13> F 2.4605311324545984 -0.207626443521271 -0.4371565906158478
| 14> F 1.25874662619156 -0.6318118791967162 1.3258120148626806
| 15> F 1.0150134801515316 -1.8306477353658897 -0.4755042440876668
| 16> Cl 0.5240113055371677 2.0336739537790622 -0.002448415826028254
| 17> Br -1.6031330238308794 -0.2201076062848147 -0.00757693812184613
| 18> *
| 19>
| 20>                          ****END OF INPUT****

CARTESIAN COORDINATES (ANGSTROEM)
---------------------------------
  C      0.176769    0.376194   -0.559646
  H      0.202556    0.356365   -1.650222
  C      1.238920   -0.586455   -0.015296
  F      2.460531   -0.207626   -0.437157
  F      1.258747   -0.631812    1.325812
  F      1.015013   -1.830648   -0.475504
  Cl     0.524011    2.033674   -0.002448
  Br    -1.603133   -0.220108   -0.007577

 Total Charge           Charge          ....    0
 Multiplicity           Mult            ....    1
 Number of Electrons    NEL             ....   92
 Basis Dimension        Dim             ....  246

ORBITAL ENERGIES
----------------

  NO   OCC          E(Eh)            E(eV)
   0   2.0000    -494.747332    -13462.7593
   1   2.0000    -107.170143     -2916.2479
   2   2.0000     -66.916698     -1820.8959
   3   2.0000     -60.973584     -1659.1756
   4   2.0000     -60.971890     -1659.1295
   5   2.0000     -60.971854     -1659.1285
   6   2.0000     -27.618308      -751.5324
   7   2.0000     -27.617733      -751.5167
   8   2.0000     -27.616834      -751.4923
   9   2.0000     -12.327807      -335.4567
  10   2.0000     -12.198314      -331.9330
  11   2.0000     -11.323348      -308.1240
  12   2.0000     -10.668493      -290.3045
  13   2.0000      -9.114918      -248.0295
  14   2.0000      -9.111918      -247.9479
  15   2.0000      -9.111844      -247.9459
  16   2.0000      -8.448747      -229.9021
  17   2.0000      -8.441141      -229.6951
  18   2.0000      -8.440995      -229.6912
  19   2.0000      -4.434016      -120.6557
  20   2.0000      -4.430978      -120.5730
  21   2.0000      -4.430865      -120.5700
  22   2.0000      -4.422566      -120.3441
  23   2.0000      -4.422551      -120.3437
  24   2.0000      -2.082416       -56.6654
  25   2.0000      -2.033579       -55.3365
  26   2.0000      -2.031871       -55.2900
  27   2.0000      -1.460075       -39.7307
  28   2.0000      -1.402243       -38.1570
  29   2.0000      -1.357001       -36.9259
  30   2.0000      -1.280025       -34.8313
  31   2.0000      -1.277612       -34.7656
  32   2.0000      -1.254840       -34.1459
  33   2.0000      -1.183161       -32.1954
  34   2.0000      -1.182742       -32.1841
  35   2.0000      -1.169598       -31.8264
  36   2.0000      -1.169573       -31.8257
  37   2.0000      -1.165590       -31.7173
  38   2.0000      -1.163620       -31.6637
  39   2.0000      -0.984810       -26.7980
  40   2.0000      -0.941296       -25.6140
  41   2.0000      -0.904189       -24.6042
  42   2.0000      -0.814834       -22.1728
  43   2.0000      -0.805039       -21.9062
  44   2.0000      -0.754707       -20.5366
  45   2.0000      -0.749740       -20.4015
  46   0.0000      -0.361951        -9.8492
  47   0.0000      -0.324211        -8.8222
  48   0.0000      -0.289368        -7.8741
  49   0.0000      -0.224661        -6.1133
  50   0.0000      -0.191605        -5.2138

MULLIKEN ATOMIC CHARGES
-----------------------
   0 C :   -0.073285
   1 H :    0.226015
   2 C :    0.422299
   3 F :   -0.153878
   4 F :   -0.152548
   5 F :   -0.153290
   6 Cl:   -0.070717
   7 Br:   -0.044596
Sum of atomic charges:   -0.0000000

LOEWDIN ATOMIC CHARGES
----------------------
   0 C :   -0.667706
   1 H :    0.158280
   2 C :   -0.729544
   3 F :    0.196726
   4 F :    0.201286
   5 F :    0.199780
   6 Cl:    0.347889
   7 Br:    0.293288

  Mayer bond orders larger than 0.100000
B(  0-C ,  1-H ) :   0.9252 B(  0-C ,  2-C ) :   0.9866 B(  0-C ,  6-Cl) :   1.0943
B(  0-C ,  7-Br) :   1.0698 B(  2-C ,  3-F ) :   1.1570 B(  2-C ,  4-F ) :   1.1642
B(  2-C ,  5-F ) :   1.1559

FINAL SINGLE POINT ENERGY     -3410.437503065194

DIPOLE MOMENT
-------------

Method             : SCF
Type of density    : Electron Density
Multiplicity       :   1
Irrep              :   0
Energy             : -3410.4590696305940583 Eh
Relativity type    :
Basis              : AO
                                X                 Y                 Z
Electronic contribution:    -10.024849522      -2.077005596       1.240715163
Nuclear contribution   :      9.836076207       2.224729535      -1.946570851
                        -----------------------------------------
Total Dipole Moment    :     -0.188773316       0.147723939      -0.705855688
                        -----------------------------------------
Magnitude (a.u.)       :      0.745446161
Magnitude (Debye)      :      1.894773562

Rotational constants in cm-1:             0.061010             0.037760             0.026881
Rotational constants in MHz :          1829.021145          1132.015236           805.875745

                             ****ORCA TERMINATED NORMALLY****
TOTAL RUN TIME: 0 days 0 hours 1 minutes 28 seconds 518 msec
