                         Program Version 6.0.0  -   RELEASE  -
|  1> ! pbe def2-sv(p) def2/J RI DEFGRID1 loosescf d4 GCP(DFT/SV(P)) printgap
|  2> %output
|  3>     printlevel normal
|  4> end
|  5> * xyz 0 1
|  6> C 4.5399500175 -0.9870725214 -2.3491355437
|  7> C 3.8342091695 -1.9779563535 -1.4477310363
|  8> O 3.416977082 -1.3961308669 -0.1977150074
|  9> P 2.5052966595 -0.1039668057 -0.0401243873
| 10> S 3.3057273377 1.6600320917 -0.3086412176
| 11> O 2.031399625 -0.2418234346 1.4549463709
| 12> C 1.4420827075 -1.4502374165 1.9984169333
| 13> C 0.5430160404 -1.0553252269 3.1515386575
| 14> S 0.8322405191 -0.5535565093 -1.2915539929
| 15> C 0.1312936756 1.1082766289 -1.2510556839
| 16> S -0.5978959493 1.5269937037 0.3556978944
| 17> P -2.3351168142 0.3561452355 0.1131736099
| 18> S -3.1970700305 0.3883546455 -1.6527995065
| 19> O -3.2858694162 0.7601118856 1.3226280371
| 20> C -4.263701671 1.8094177001 1.2190195851
| 21> C -3.6201905434 3.1747188064 1.0889894972
| 22> O -1.7994057724 -1.0536432083 0.5923470048
| 23> C -2.5329263118 -2.2757947614 0.3367680702
| 24> C -1.542435974 -3.3916645774 0.0742449489
| 25> H 5.3747345418 -0.5261481256 -1.8265157339
| 26> H 4.9067938906 -1.5002504228 -3.2321717208
| 27> H 3.8519337998 -0.2003924149 -2.655481649
| 28> H 4.5009333559 -2.7863658173 -1.1426988269
| 29> H 2.9507646097 -2.3899385848 -1.9431241308
| 30> H 0.8782369312 -1.9516111872 1.2065393943
| 31> H 2.2608441647 -2.0933257554 2.3262997332
| 32> H 1.1044096482 -0.4721005943 3.8758026385
| 33> H -0.2904159099 -0.4559558515 2.7922328167
| 34> H 0.1589608567 -1.9512795957 3.6287911344
| 35> H -0.6391404358 1.151784585 -2.0215389357
| 36> H 0.924388307 1.8347199656 -1.4337975747
| 37> H -4.9023661769 1.6015290363 0.3545624915
| 38> H -4.8420359076 1.7211062925 2.139557319
| 39> H -4.3879352667 3.9407160087 1.1290726265
| 40> H -2.9065598149 3.3354284055 1.8933843804
| 41> H -3.0959196128 3.2504568151 0.1368814119
| 42> H -3.145287396 -2.4786049849 1.2176346222
| 43> H -3.1848345324 -2.1171435096 -0.5291052528
| 44> H -0.920444896 -3.5574808644 0.9490850421
| 45> H -2.0891035375 -4.3013354535 -0.152461947
| 46> H -0.9097483543 -3.1352878929 -0.7722482335
| 47> *
| 48>
| 49>                          ****END OF INPUT****

CARTESIAN COORDINATES (ANGSTROEM)
---------------------------------
  C      4.539950   -0.987073   -2.349136
  C      3.834209   -1.977956   -1.447731
  O      3.416977   -1.396131   -0.197715
  P      2.505297   -0.103967   -0.040124
  S      3.305727    1.660032   -0.308641
  O      2.031400   -0.241823    1.454946
  C      1.442083   -1.450237    1.998417
  C      0.543016   -1.055325    3.151539
  S      0.832241   -0.553557   -1.291554
  C      0.131294    1.108277   -1.251056
  S     -0.597896    1.526994    0.355698
  P     -2.335117    0.356145    0.113174
  S     -3.197070    0.388355   -1.652800
  O     -3.285869    0.760112    1.322628
  C     -4.263702    1.809418    1.219020
  C     -3.620191    3.174719    1.088989
  O     -1.799406   -1.053643    0.592347
  C     -2.532926   -2.275795    0.336768
  C     -1.542436   -3.391665    0.074245
  H      5.374735   -0.526148   -1.826516
  H      4.906794   -1.500250   -3.232172
  H      3.851934   -0.200392   -2.655482
  H      4.500933   -2.786366   -1.142699
  H      2.950765   -2.389939   -1.943124
  H      0.878237   -1.951611    1.206539
  H      2.260844   -2.093326    2.326300
  H      1.104410   -0.472101    3.875803
  H     -0.290416   -0.455956    2.792233
  H      0.158961   -1.951280    3.628791
  H     -0.639140    1.151785   -2.021539
  H      0.924388    1.834720   -1.433798
  H     -4.902366    1.601529    0.354562
  H     -4.842036    1.721106    2.139557
  H     -4.387935    3.940716    1.129073
  H     -2.906560    3.335428    1.893384
  H     -3.095920    3.250457    0.136881
  H     -3.145287   -2.478605    1.217635
  H     -3.184835   -2.117144   -0.529105
  H     -0.920445   -3.557481    0.949085
  H     -2.089104   -4.301335   -0.152462
  H     -0.909748   -3.135288   -0.772248

 Total Charge           Charge          ....    0
 Multiplicity           Mult            ....    1
 Number of Electrons    NEL             ....  202
 Basis Dimension        Dim             ....  334

ORBITAL ENERGIES
----------------

  NO   OCC          E(Eh)            E(eV)
   0   2.0000     -88.045618     -2395.8431
   1   2.0000     -88.043886     -2395.7960
   2   2.0000     -87.992291     -2394.3920
   3   2.0000     -87.982243     -2394.1186
   4   2.0000     -76.430048     -2079.7673
   5   2.0000     -76.425441     -2079.6420
   6   2.0000     -18.797545      -511.5072
   7   2.0000     -18.796181      -511.4701
   8   2.0000     -18.795761      -511.4587
   9   2.0000     -18.787783      -511.2416
  10   2.0000      -9.960379      -271.0357
  11   2.0000      -9.956243      -270.9232
  12   2.0000      -9.955261      -270.8964
  13   2.0000      -9.953312      -270.8434
  14   2.0000      -9.950238      -270.7597
  15   2.0000      -9.891747      -269.1681
  16   2.0000      -9.885888      -269.0087
  17   2.0000      -9.883815      -268.9523
  18   2.0000      -9.880968      -268.8748
  19   2.0000      -7.690740      -209.2757
  20   2.0000      -7.688643      -209.2186
  21   2.0000      -7.637183      -207.8183
  22   2.0000      -7.627601      -207.5576
  23   2.0000      -6.427845      -174.9106
  24   2.0000      -6.422686      -174.7702
  25   2.0000      -5.718582      -155.6105
  26   2.0000      -5.716261      -155.5474
  27   2.0000      -5.715396      -155.5238
  28   2.0000      -5.713168      -155.4632
  29   2.0000      -5.707558      -155.3106
  30   2.0000      -5.705909      -155.2657
  31   2.0000      -5.665912      -154.1773
  32   2.0000      -5.657849      -153.9579
  33   2.0000      -5.657502      -153.9485
  34   2.0000      -5.656652      -153.9253
  35   2.0000      -5.648150      -153.6940
  36   2.0000      -5.647647      -153.6803
  37   2.0000      -4.650389      -126.5435
  38   2.0000      -4.649530      -126.5201
  39   2.0000      -4.648323      -126.4873
  40   2.0000      -4.645554      -126.4120
  41   2.0000      -4.644708      -126.3889
  42   2.0000      -4.642692      -126.3341
  43   2.0000      -0.991386       -26.9770
  44   2.0000      -0.988129       -26.8884
  45   2.0000      -0.950003       -25.8509
  46   2.0000      -0.943510       -25.6742
  47   2.0000      -0.767336       -20.8803
  48   2.0000      -0.724516       -19.7151
  49   2.0000      -0.712632       -19.3917
  50   2.0000      -0.690672       -18.7941
  51   2.0000      -0.689541       -18.7634
  52   2.0000      -0.678375       -18.4595
  53   2.0000      -0.650908       -17.7121
  54   2.0000      -0.639342       -17.3974
  55   2.0000      -0.602429       -16.3929
  56   2.0000      -0.589298       -16.0356
  57   2.0000      -0.576769       -15.6947
  58   2.0000      -0.568685       -15.4747
  59   2.0000      -0.561294       -15.2736
  60   2.0000      -0.510545       -13.8926
  61   2.0000      -0.503092       -13.6898
  62   2.0000      -0.477164       -12.9843
  63   2.0000      -0.474493       -12.9116
  64   2.0000      -0.462794       -12.5933
  65   2.0000      -0.446321       -12.1450
  66   2.0000      -0.443469       -12.0674
  67   2.0000      -0.434678       -11.8282
  68   2.0000      -0.431649       -11.7458
  69   2.0000      -0.419789       -11.4230
  70   2.0000      -0.415453       -11.3050
  71   2.0000      -0.399484       -10.8705
  72   2.0000      -0.394265       -10.7285
  73   2.0000      -0.388539       -10.5727
  74   2.0000      -0.383555       -10.4371
  75   2.0000      -0.377878       -10.2826
  76   2.0000      -0.361899        -9.8478
  77   2.0000      -0.359202        -9.7744
  78   2.0000      -0.354380        -9.6432
  79   2.0000      -0.350307        -9.5323
  80   2.0000      -0.347654        -9.4602
  81   2.0000      -0.345004        -9.3880
  82   2.0000      -0.343887        -9.3576
  83   2.0000      -0.340682        -9.2704
  84   2.0000      -0.337082        -9.1725
  85   2.0000      -0.320623        -8.7246
  86   2.0000      -0.315274        -8.5790
  87   2.0000      -0.299983        -8.1629
  88   2.0000      -0.297777        -8.1029
  89   2.0000      -0.294034        -8.0011
  90   2.0000      -0.290640        -7.9087
  91   2.0000      -0.281329        -7.6554
  92   2.0000      -0.274472        -7.4688
  93   2.0000      -0.267648        -7.2831
  94   2.0000      -0.258275        -7.0280
  95   2.0000      -0.237193        -6.4543
  96   2.0000      -0.222129        -6.0444
  97   2.0000      -0.213236        -5.8024
  98   2.0000      -0.206492        -5.6189
  99   2.0000      -0.200644        -5.4598
 100   2.0000      -0.197337        -5.3698
 101   0.0000      -0.045735        -1.2445
 102   0.0000      -0.026139        -0.7113
 103   0.0000      -0.008804        -0.2396
 104   0.0000      -0.002281        -0.0621
 105   0.0000       0.011297         0.3074

MULLIKEN ATOMIC CHARGES
-----------------------
   0 C :   -0.308482
   1 C :   -0.010559
   2 O :   -0.383201
   3 P :    0.596997
   4 S :   -0.308389
   5 O :   -0.349771
   6 C :   -0.022288
   7 C :   -0.284739
   8 S :   -0.105413
   9 C :   -0.376177
  10 S :   -0.050213
  11 P :    0.610993
  12 S :   -0.334671
  13 O :   -0.378060
  14 C :   -0.004439
  15 C :   -0.319644
  16 O :   -0.364080
  17 C :   -0.013048
  18 C :   -0.293499
  19 H :    0.127619
  20 H :    0.111378
  21 H :    0.126302
  22 H :    0.108935
  23 H :    0.111598
  24 H :    0.113374
  25 H :    0.103774
  26 H :    0.117789
  27 H :    0.126758
  28 H :    0.101688
  29 H :    0.192428
  30 H :    0.197465
  31 H :    0.112397
  32 H :    0.106160
  33 H :    0.115190
  34 H :    0.120845
  35 H :    0.129023
  36 H :    0.105037
  37 H :    0.108364
  38 H :    0.122841
  39 H :    0.113020
  40 H :    0.126696
Sum of atomic charges:    0.0000000

LOEWDIN ATOMIC CHARGES
----------------------
   0 C :   -0.368464
   1 C :   -0.114198
   2 O :   -0.247403
   3 P :    0.567294
   4 S :   -0.305783
   5 O :   -0.231769
   6 C :   -0.116268
   7 C :   -0.353373
   8 S :    0.069466
   9 C :   -0.489104
  10 S :    0.111548
  11 P :    0.571552
  12 S :   -0.324298
  13 O :   -0.246379
  14 C :   -0.119113
  15 C :   -0.369390
  16 O :   -0.240090
  17 C :   -0.117091
  18 C :   -0.354606
  19 H :    0.131074
  20 H :    0.130139
  21 H :    0.122047
  22 H :    0.121077
  23 H :    0.107367
  24 H :    0.103959
  25 H :    0.113728
  26 H :    0.128533
  27 H :    0.122432
  28 H :    0.125606
  29 H :    0.128488
  30 H :    0.129584
  31 H :    0.111112
  32 H :    0.119175
  33 H :    0.132256
  34 H :    0.125787
  35 H :    0.122202
  36 H :    0.114778
  37 H :    0.107844
  38 H :    0.122738
  39 H :    0.131246
  40 H :    0.126296

  Mayer bond orders larger than 0.100000
B(  0-C ,  1-C ) :   1.1665 B(  0-C , 19-H ) :   0.9435 B(  0-C , 20-H ) :   0.9350
B(  0-C , 21-H ) :   0.9324 B(  1-C ,  2-O ) :   0.9140 B(  1-C , 22-H ) :   0.9335
B(  1-C , 23-H ) :   0.9263 B(  2-O ,  3-P ) :   1.0861 B(  3-P ,  4-S ) :   1.6465
B(  3-P ,  5-O ) :   1.1454 B(  3-P ,  8-S ) :   0.9376 B(  4-S ,  8-S ) :   0.1091
B(  5-O ,  6-C ) :   0.8843 B(  6-C ,  7-C ) :   1.1687 B(  6-C , 24-H ) :   0.9022
B(  6-C , 25-H ) :   0.9322 B(  7-C , 26-H ) :   0.9476 B(  7-C , 27-H ) :   0.9392
B(  7-C , 28-H ) :   0.9407 B(  8-S ,  9-C ) :   1.0081 B(  9-C , 10-S ) :   1.0035
B(  9-C , 29-H ) :   0.8702 B(  9-C , 30-H ) :   0.8665 B( 10-S , 11-P ) :   0.9751
B( 10-S , 12-S ) :   0.1077 B( 11-P , 12-S ) :   1.5947 B( 11-P , 13-O ) :   1.1075
B( 11-P , 16-O ) :   1.1163 B( 13-O , 14-C ) :   0.9076 B( 14-C , 15-C ) :   1.1645
B( 14-C , 31-H ) :   0.9161 B( 14-C , 32-H ) :   0.9335 B( 15-C , 33-H ) :   0.9378
B( 15-C , 34-H ) :   0.9449 B( 15-C , 35-H ) :   0.9350 B( 16-O , 17-C ) :   0.8974
B( 17-C , 18-C ) :   1.1689 B( 17-C , 36-H ) :   0.9324 B( 17-C , 37-H ) :   0.9029
B( 18-C , 38-H ) :   0.9398 B( 18-C , 39-H ) :   0.9389 B( 18-C , 40-H ) :   0.9440

Dispersion correction           -0.065799152
FINAL SINGLE POINT ENERGY     -2929.523142006182

DIPOLE MOMENT
-------------

Method             : SCF
Type of density    : Electron Density
Multiplicity       :   1
Irrep              :   0
Energy             : -2929.6426384340734330 Eh
Relativity type    :
Basis              : AO
                                X                 Y                 Z
Electronic contribution:      3.620138063      11.117304106      -5.195410889
Nuclear contribution   :     -4.286244853     -12.614077524       5.638976685
                        -----------------------------------------
Total Dipole Moment    :     -0.666106789      -1.496773419       0.443565796
                        -----------------------------------------
Magnitude (a.u.)       :      1.697285933
Magnitude (Debye)      :      4.314157989

Rotational constants in cm-1:             0.012499             0.004972             0.004699
Rotational constants in MHz :           374.716378           149.054644           140.885702

                             ****ORCA TERMINATED NORMALLY****
TOTAL RUN TIME: 0 days 0 hours 0 minutes 21 seconds 261 msec
