                         Program Version 6.0.0  -   RELEASE  -
|  1> ! pbe def2-sv(p) def2/J RI DEFGRID1 loosescf d4 GCP(DFT/SV(P)) printgap
|  2> %output
|  3>     printlevel normal
|  4> end
|  5> * xyz 0 1
|  6> C 2.7087145569 -0.9665586777 3.0725297081
|  7> C 1.843008525 0.2091560149 2.6725830934
|  8> O 1.3052360689 0.068409264 1.3385700132
|  9> P 2.1691587564 -0.1352200026 0.0307620461
| 10> S 2.8240134989 -1.9401427651 -0.3858558765
| 11> O 3.2761303702 0.9921312753 0.1964748322
| 12> C 4.4004383715 1.1015612354 -0.7026862052
| 13> C 5.6271679915 0.4440196765 -0.1012882195
| 14> S 0.8648184503 0.660760759 -1.4384640829
| 15> C 0.0065672772 -0.8860312755 -1.8293651619
| 16> S -0.889585824 -1.5674470471 -0.4085934562
| 17> P -2.213860372 0.0651443631 -0.1530403184
| 18> S -2.8298503288 0.9193129142 -1.8103834941
| 19> O -1.4354947782 0.9946773161 0.8606899215
| 20> C -1.5632097643 2.4299552525 0.8413515968
| 21> C -2.8902651498 2.8638573368 1.4267926352
| 22> O -3.3191351685 -0.5400077437 0.8132276865
| 23> C -4.2604427275 -1.5475668232 0.3904875182
| 24> C -5.5314513579 -0.9177922238 -0.1463231921
| 25> H 2.154506476 -1.8969595634 2.9693759287
| 26> H 3.5888333545 -1.0177528462 2.4325956334
| 27> H 3.0253082316 -0.8481299959 4.1041143703
| 28> H 2.406720713 1.1437692434 2.7148719856
| 29> H 0.9497350375 0.2811560568 3.2958517601
| 30> H 4.1433166585 0.6436185228 -1.6612066243
| 31> H 4.5455036352 2.1747155137 -0.8375463712
| 32> H 5.4601494035 -0.6250831506 0.012238887
| 33> H 6.4744554299 0.5996071944 -0.7611305158
| 34> H 5.8457198857 0.8749756285 0.8717535059
| 35> H 0.7308259054 -1.6427918519 -2.1300132331
| 36> H -0.6930873923 -0.6571259536 -2.6327610673
| 37> H -0.717306536 2.7805480523 1.4341652461
| 38> H -1.4591705586 2.7786538159 -0.1917527372
| 39> H -3.0090326787 2.4600213774 2.428581161
| 40> H -2.9341817361 3.9477355724 1.4621844157
| 41> H -3.7016929521 2.4946211897 0.8005041266
| 42> H -3.7894301004 -2.1882577709 -0.3608885361
| 43> H -4.4560755929 -2.1307760177 1.2923467884
| 44> H -5.3157404729 -0.3292948687 -1.0352956986
| 45> H -6.2366761957 -1.7014472229 -0.4036130718
| 46> H -5.9731115428 -0.2691191261 0.6049868126
| 47> *
| 48>
| 49>                          ****END OF INPUT****

CARTESIAN COORDINATES (ANGSTROEM)
---------------------------------
  C      2.708715   -0.966559    3.072530
  C      1.843009    0.209156    2.672583
  O      1.305236    0.068409    1.338570
  P      2.169159   -0.135220    0.030762
  S      2.824013   -1.940143   -0.385856
  O      3.276130    0.992131    0.196475
  C      4.400438    1.101561   -0.702686
  C      5.627168    0.444020   -0.101288
  S      0.864818    0.660761   -1.438464
  C      0.006567   -0.886031   -1.829365
  S     -0.889586   -1.567447   -0.408593
  P     -2.213860    0.065144   -0.153040
  S     -2.829850    0.919313   -1.810383
  O     -1.435495    0.994677    0.860690
  C     -1.563210    2.429955    0.841352
  C     -2.890265    2.863857    1.426793
  O     -3.319135   -0.540008    0.813228
  C     -4.260443   -1.547567    0.390488
  C     -5.531451   -0.917792   -0.146323
  H      2.154506   -1.896960    2.969376
  H      3.588833   -1.017753    2.432596
  H      3.025308   -0.848130    4.104114
  H      2.406721    1.143769    2.714872
  H      0.949735    0.281156    3.295852
  H      4.143317    0.643619   -1.661207
  H      4.545504    2.174716   -0.837546
  H      5.460149   -0.625083    0.012239
  H      6.474455    0.599607   -0.761131
  H      5.845720    0.874976    0.871754
  H      0.730826   -1.642792   -2.130013
  H     -0.693087   -0.657126   -2.632761
  H     -0.717307    2.780548    1.434165
  H     -1.459171    2.778654   -0.191753
  H     -3.009033    2.460021    2.428581
  H     -2.934182    3.947736    1.462184
  H     -3.701693    2.494621    0.800504
  H     -3.789430   -2.188258   -0.360889
  H     -4.456076   -2.130776    1.292347
  H     -5.315740   -0.329295   -1.035296
  H     -6.236676   -1.701447   -0.403613
  H     -5.973112   -0.269119    0.604987

 Total Charge           Charge          ....    0
 Multiplicity           Mult            ....    1
 Number of Electrons    NEL             ....  202
 Basis Dimension        Dim             ....  334

ORBITAL ENERGIES
----------------

  NO   OCC          E(Eh)            E(eV)
   0   2.0000     -88.038560     -2395.6510
   1   2.0000     -88.037563     -2395.6239
   2   2.0000     -87.985933     -2394.2190
   3   2.0000     -87.985344     -2394.2029
   4   2.0000     -76.426870     -2079.6808
   5   2.0000     -76.423905     -2079.6002
   6   2.0000     -18.798355      -511.5292
   7   2.0000     -18.792156      -511.3606
   8   2.0000     -18.786343      -511.2024
   9   2.0000     -18.784916      -511.1635
  10   2.0000      -9.957690      -270.9625
  11   2.0000      -9.954914      -270.8870
  12   2.0000      -9.953763      -270.8557
  13   2.0000      -9.949732      -270.7460
  14   2.0000      -9.946506      -270.6582
  15   2.0000      -9.885326      -268.9934
  16   2.0000      -9.883455      -268.9425
  17   2.0000      -9.880409      -268.8596
  18   2.0000      -9.880062      -268.8501
  19   2.0000      -7.683591      -209.0812
  20   2.0000      -7.682672      -209.0561
  21   2.0000      -7.630881      -207.6468
  22   2.0000      -7.630449      -207.6351
  23   2.0000      -6.424086      -174.8083
  24   2.0000      -6.421341      -174.7336
  25   2.0000      -5.711463      -155.4168
  26   2.0000      -5.710499      -155.3906
  27   2.0000      -5.708205      -155.3281
  28   2.0000      -5.707246      -155.3021
  29   2.0000      -5.700478      -155.1179
  30   2.0000      -5.699605      -155.0941
  31   2.0000      -5.659600      -154.0055
  32   2.0000      -5.659247      -153.9959
  33   2.0000      -5.651470      -153.7843
  34   2.0000      -5.651275      -153.7790
  35   2.0000      -5.651089      -153.7739
  36   2.0000      -5.650721      -153.7639
  37   2.0000      -4.647160      -126.4557
  38   2.0000      -4.645595      -126.4131
  39   2.0000      -4.644406      -126.3807
  40   2.0000      -4.643711      -126.3618
  41   2.0000      -4.643178      -126.3473
  42   2.0000      -4.641938      -126.3135
  43   2.0000      -0.988827       -26.9074
  44   2.0000      -0.984516       -26.7901
  45   2.0000      -0.944604       -25.7040
  46   2.0000      -0.942529       -25.6475
  47   2.0000      -0.762440       -20.7470
  48   2.0000      -0.719960       -19.5911
  49   2.0000      -0.706634       -19.2285
  50   2.0000      -0.689845       -18.7716
  51   2.0000      -0.683338       -18.5946
  52   2.0000      -0.671267       -18.2661
  53   2.0000      -0.650674       -17.7057
  54   2.0000      -0.637100       -17.3364
  55   2.0000      -0.595846       -16.2138
  56   2.0000      -0.591609       -16.0985
  57   2.0000      -0.577337       -15.7101
  58   2.0000      -0.567311       -15.4373
  59   2.0000      -0.559892       -15.2354
  60   2.0000      -0.505308       -13.7501
  61   2.0000      -0.495412       -13.4808
  62   2.0000      -0.473724       -12.8907
  63   2.0000      -0.472770       -12.8647
  64   2.0000      -0.453419       -12.3382
  65   2.0000      -0.442108       -12.0304
  66   2.0000      -0.437275       -11.8988
  67   2.0000      -0.435782       -11.8582
  68   2.0000      -0.425081       -11.5670
  69   2.0000      -0.412891       -11.2353
  70   2.0000      -0.402244       -10.9456
  71   2.0000      -0.399627       -10.8744
  72   2.0000      -0.392494       -10.6803
  73   2.0000      -0.386333       -10.5127
  74   2.0000      -0.385802       -10.4982
  75   2.0000      -0.372230       -10.1289
  76   2.0000      -0.366113        -9.9624
  77   2.0000      -0.353434        -9.6174
  78   2.0000      -0.351450        -9.5634
  79   2.0000      -0.349526        -9.5111
  80   2.0000      -0.345211        -9.3937
  81   2.0000      -0.342566        -9.3217
  82   2.0000      -0.338750        -9.2178
  83   2.0000      -0.335877        -9.1397
  84   2.0000      -0.333454        -9.0737
  85   2.0000      -0.326118        -8.8741
  86   2.0000      -0.307733        -8.3738
  87   2.0000      -0.301069        -8.1925
  88   2.0000      -0.296019        -8.0551
  89   2.0000      -0.291113        -7.9216
  90   2.0000      -0.281252        -7.6533
  91   2.0000      -0.276834        -7.5330
  92   2.0000      -0.269365        -7.3298
  93   2.0000      -0.262126        -7.1328
  94   2.0000      -0.257246        -7.0000
  95   2.0000      -0.232713        -6.3324
  96   2.0000      -0.215558        -5.8656
  97   2.0000      -0.210715        -5.7338
  98   2.0000      -0.203153        -5.5281
  99   2.0000      -0.197277        -5.3682
 100   2.0000      -0.194671        -5.2973
 101   0.0000      -0.043179        -1.1750
 102   0.0000      -0.021756        -0.5920
 103   0.0000      -0.000310        -0.0084
 104   0.0000       0.003819         0.1039
 105   0.0000       0.016698         0.4544

MULLIKEN ATOMIC CHARGES
-----------------------
   0 C :   -0.319696
   1 C :    0.001543
   2 O :   -0.355987
   3 P :    0.627302
   4 S :   -0.335984
   5 O :   -0.386445
   6 C :   -0.006389
   7 C :   -0.295905
   8 S :   -0.082228
   9 C :   -0.364432
  10 S :   -0.073363
  11 P :    0.611451
  12 S :   -0.341439
  13 O :   -0.349840
  14 C :   -0.004257
  15 C :   -0.300465
  16 O :   -0.369141
  17 C :   -0.011687
  18 C :   -0.294840
  19 H :    0.129023
  20 H :    0.129095
  21 H :    0.109012
  22 H :    0.105489
  23 H :    0.109034
  24 H :    0.105436
  25 H :    0.107832
  26 H :    0.131688
  27 H :    0.110606
  28 H :    0.111276
  29 H :    0.192080
  30 H :    0.191664
  31 H :    0.099484
  32 H :    0.114092
  33 H :    0.112725
  34 H :    0.109298
  35 H :    0.122092
  36 H :    0.103659
  37 H :    0.107701
  38 H :    0.130402
  39 H :    0.107312
  40 H :    0.112802
Sum of atomic charges:    0.0000000

LOEWDIN ATOMIC CHARGES
----------------------
   0 C :   -0.367601
   1 C :   -0.107850
   2 O :   -0.234618
   3 P :    0.571276
   4 S :   -0.321553
   5 O :   -0.250883
   6 C :   -0.114662
   7 C :   -0.362527
   8 S :    0.083703
   9 C :   -0.482758
  10 S :    0.090080
  11 P :    0.570687
  12 S :   -0.323545
  13 O :   -0.229292
  14 C :   -0.118461
  15 C :   -0.363731
  16 O :   -0.244980
  17 C :   -0.116186
  18 C :   -0.364169
  19 H :    0.131901
  20 H :    0.121579
  21 H :    0.128705
  22 H :    0.111131
  23 H :    0.121473
  24 H :    0.110736
  25 H :    0.118817
  26 H :    0.125685
  27 H :    0.130386
  28 H :    0.123766
  29 H :    0.129107
  30 H :    0.129811
  31 H :    0.115455
  32 H :    0.108775
  33 H :    0.124531
  34 H :    0.128981
  35 H :    0.122379
  36 H :    0.106721
  37 H :    0.119069
  38 H :    0.124364
  39 H :    0.128653
  40 H :    0.125046

  Mayer bond orders larger than 0.100000
B(  0-C ,  1-C ) :   1.1673 B(  0-C , 19-H ) :   0.9438 B(  0-C , 20-H ) :   0.9352
B(  0-C , 21-H ) :   0.9353 B(  1-C ,  2-O ) :   0.9090 B(  1-C , 22-H ) :   0.9305
B(  1-C , 23-H ) :   0.9330 B(  2-O ,  3-P ) :   1.1342 B(  3-P ,  4-S ) :   1.6053
B(  3-P ,  5-O ) :   1.0866 B(  3-P ,  8-S ) :   0.9507 B(  4-S ,  8-S ) :   0.1175
B(  5-O ,  6-C ) :   0.8987 B(  6-C ,  7-C ) :   1.1693 B(  6-C , 24-H ) :   0.9136
B(  6-C , 25-H ) :   0.9351 B(  7-C , 26-H ) :   0.9324 B(  7-C , 27-H ) :   0.9395
B(  7-C , 28-H ) :   0.9468 B(  8-S ,  9-C ) :   1.0036 B(  9-C , 10-S ) :   1.0086
B(  9-C , 29-H ) :   0.8807 B(  9-C , 30-H ) :   0.8822 B( 10-S , 11-P ) :   0.9606
B( 10-S , 12-S ) :   0.1101 B( 11-P , 12-S ) :   1.5849 B( 11-P , 13-O ) :   1.1383
B( 11-P , 16-O ) :   1.1176 B( 13-O , 14-C ) :   0.9046 B( 14-C , 15-C ) :   1.1626
B( 14-C , 31-H ) :   0.9334 B( 14-C , 32-H ) :   0.9123 B( 15-C , 33-H ) :   0.9468
B( 15-C , 34-H ) :   0.9403 B( 15-C , 35-H ) :   0.9360 B( 16-O , 17-C ) :   0.9061
B( 17-C , 18-C ) :   1.1666 B( 17-C , 36-H ) :   0.9151 B( 17-C , 37-H ) :   0.9362
B( 18-C , 38-H ) :   0.9314 B( 18-C , 39-H ) :   0.9393 B( 18-C , 40-H ) :   0.9473

Dispersion correction           -0.065874094
FINAL SINGLE POINT ENERGY     -2929.522469726856

DIPOLE MOMENT
-------------

Method             : SCF
Type of density    : Electron Density
Multiplicity       :   1
Irrep              :   0
Energy             : -2929.6405943344357183 Eh
Relativity type    :
Basis              : AO
                                X                 Y                 Z
Electronic contribution:     -0.694667073      -5.962356386     -12.769482383
Nuclear contribution   :      1.013555289       6.588607931      13.792281719
                        -----------------------------------------
Total Dipole Moment    :      0.318888217       0.626251545       1.022799336
                        -----------------------------------------
Magnitude (a.u.)       :      1.240967032
Magnitude (Debye)      :      3.154287520

Rotational constants in cm-1:             0.014269             0.004629             0.004539
Rotational constants in MHz :           427.764660           138.779082           136.061038

                             ****ORCA TERMINATED NORMALLY****
TOTAL RUN TIME: 0 days 0 hours 0 minutes 21 seconds 357 msec
