                         Program Version 6.0.0  -   RELEASE  -
|  1> ! pbe def2-sv(p) def2/J RI DEFGRID1 loosescf d4 GCP(DFT/SV(P)) printgap
|  2> %output
|  3>     printlevel normal
|  4> end
|  5> * xyz 0 1
|  6> C 4.4745519903 0.2062841317 -2.3079394279
|  7> C 3.0930294687 -0.3833268471 -2.497251305
|  8> O 2.5782863867 -0.9363953448 -1.2671405679
|  9> P 2.1198424466 -0.021801893 -0.059594821
| 10> S 1.4152076793 1.7414051673 -0.5671880713
| 11> O 3.4309358511 0.0758271379 0.8383064287
| 12> C 3.5701303336 1.0461334554 1.886726677
| 13> C 2.6385587435 0.7601506933 3.0473737291
| 14> S 0.9951423458 -1.4735196348 0.9900913604
| 15> C -0.1265582431 -2.0393415068 -0.330043854
| 16> S -0.9839258599 -0.715205222 -1.2161776799
| 17> P -2.173977371 0.0260363562 0.4022307299
| 18> S -1.2787280279 1.011817847 1.8390388938
| 19> O -2.9138185075 -1.2506115308 0.9631378192
| 20> C -4.1444377093 -1.8192139672 0.4477585715
| 21> C -3.9962723737 -2.3844412293 -0.9492543196
| 22> O -3.3339970649 0.826241112 -0.3291253862
| 23> C -3.2210348512 2.2199011756 -0.6627987071
| 24> C -2.2539992024 2.451499347 -1.8053829862
| 25> H 5.139245521 -0.5289938326 -1.8622224251
| 26> H 4.8689613799 0.5174537448 -3.2700746693
| 27> H 4.4187299509 1.0731007599 -1.6507399281
| 28> H 3.1041142813 -1.2325810948 -3.1813919869
| 29> H 2.3919536661 0.3778084102 -2.8544615204
| 30> H 4.6176167776 0.9689353921 2.1811154577
| 31> H 3.3694629733 2.0398294535 1.4717123219
| 32> H 2.8440805268 1.451720468 3.8579875215
| 33> H 1.5999741078 0.8884422088 2.7372317308
| 34> H 2.7721459316 -0.2604383148 3.3980836532
| 35> H -0.8487313301 -2.6850664491 0.1661219933
| 36> H 0.4441452479 -2.5837146162 -1.0787376688
| 37> H -4.3773444668 -2.5980216755 1.175790833
| 38> H -4.9127759394 -1.0449262461 0.4733050238
| 39> H -3.7637061506 -1.5914244781 -1.6560844245
| 40> H -3.2064097398 -3.1303174773 -0.9833034117
| 41> H -4.9339820558 -2.8496877333 -1.2374074776
| 42> H -4.2388966202 2.505809418 -0.9323267021
| 43> H -2.9018135199 2.7679600094 0.2295785806
| 44> H -2.5047082696 1.8161756988 -2.650971251
| 45> H -2.298928981 3.4921690025 -2.1095130238
| 46> H -1.234901654 2.2298389302 -1.4885438793
| 47> *
| 48>
| 49>                          ****END OF INPUT****

CARTESIAN COORDINATES (ANGSTROEM)
---------------------------------
  C      4.474552    0.206284   -2.307939
  C      3.093029   -0.383327   -2.497251
  O      2.578286   -0.936395   -1.267141
  P      2.119842   -0.021802   -0.059595
  S      1.415208    1.741405   -0.567188
  O      3.430936    0.075827    0.838306
  C      3.570130    1.046133    1.886727
  C      2.638559    0.760151    3.047374
  S      0.995142   -1.473520    0.990091
  C     -0.126558   -2.039342   -0.330044
  S     -0.983926   -0.715205   -1.216178
  P     -2.173977    0.026036    0.402231
  S     -1.278728    1.011818    1.839039
  O     -2.913819   -1.250612    0.963138
  C     -4.144438   -1.819214    0.447759
  C     -3.996272   -2.384441   -0.949254
  O     -3.333997    0.826241   -0.329125
  C     -3.221035    2.219901   -0.662799
  C     -2.253999    2.451499   -1.805383
  H      5.139246   -0.528994   -1.862222
  H      4.868961    0.517454   -3.270075
  H      4.418730    1.073101   -1.650740
  H      3.104114   -1.232581   -3.181392
  H      2.391954    0.377808   -2.854462
  H      4.617617    0.968935    2.181115
  H      3.369463    2.039829    1.471712
  H      2.844081    1.451720    3.857988
  H      1.599974    0.888442    2.737232
  H      2.772146   -0.260438    3.398084
  H     -0.848731   -2.685066    0.166122
  H      0.444145   -2.583715   -1.078738
  H     -4.377344   -2.598022    1.175791
  H     -4.912776   -1.044926    0.473305
  H     -3.763706   -1.591424   -1.656084
  H     -3.206410   -3.130317   -0.983303
  H     -4.933982   -2.849688   -1.237407
  H     -4.238897    2.505809   -0.932327
  H     -2.901814    2.767960    0.229579
  H     -2.504708    1.816176   -2.650971
  H     -2.298929    3.492169   -2.109513
  H     -1.234902    2.229839   -1.488544

 Total Charge           Charge          ....    0
 Multiplicity           Mult            ....    1
 Number of Electrons    NEL             ....  202
 Basis Dimension        Dim             ....  334

ORBITAL ENERGIES
----------------

  NO   OCC          E(Eh)            E(eV)
   0   2.0000     -88.038164     -2395.6402
   1   2.0000     -88.032708     -2395.4918
   2   2.0000     -87.977931     -2394.0012
   3   2.0000     -87.973804     -2393.8889
   4   2.0000     -76.422913     -2079.5732
   5   2.0000     -76.419842     -2079.4896
   6   2.0000     -18.794438      -511.4226
   7   2.0000     -18.790654      -511.3197
   8   2.0000     -18.787991      -511.2472
   9   2.0000     -18.785114      -511.1690
  10   2.0000      -9.958335      -270.9801
  11   2.0000      -9.956765      -270.9374
  12   2.0000      -9.950351      -270.7628
  13   2.0000      -9.948223      -270.7049
  14   2.0000      -9.943838      -270.5856
  15   2.0000      -9.889839      -269.1162
  16   2.0000      -9.880599      -268.8648
  17   2.0000      -9.878652      -268.8118
  18   2.0000      -9.874191      -268.6904
  19   2.0000      -7.682601      -209.0542
  20   2.0000      -7.677979      -208.9284
  21   2.0000      -7.622536      -207.4198
  22   2.0000      -7.618733      -207.3163
  23   2.0000      -6.420046      -174.6983
  24   2.0000      -6.417206      -174.6210
  25   2.0000      -5.710481      -155.3901
  26   2.0000      -5.707309      -155.3038
  27   2.0000      -5.706136      -155.2719
  28   2.0000      -5.702590      -155.1754
  29   2.0000      -5.699428      -155.0893
  30   2.0000      -5.694504      -154.9553
  31   2.0000      -5.651343      -153.7809
  32   2.0000      -5.647809      -153.6847
  33   2.0000      -5.643134      -153.5575
  34   2.0000      -5.642864      -153.5501
  35   2.0000      -5.639513      -153.4590
  36   2.0000      -5.638581      -153.4336
  37   2.0000      -4.643415      -126.3537
  38   2.0000      -4.641650      -126.3057
  39   2.0000      -4.639935      -126.2590
  40   2.0000      -4.639863      -126.2571
  41   2.0000      -4.639045      -126.2348
  42   2.0000      -4.637538      -126.1938
  43   2.0000      -0.987951       -26.8835
  44   2.0000      -0.981297       -26.7024
  45   2.0000      -0.944892       -25.7118
  46   2.0000      -0.941959       -25.6320
  47   2.0000      -0.758847       -20.6493
  48   2.0000      -0.716593       -19.4995
  49   2.0000      -0.705572       -19.1996
  50   2.0000      -0.689689       -18.7674
  51   2.0000      -0.680710       -18.5230
  52   2.0000      -0.667468       -18.1627
  53   2.0000      -0.648348       -17.6424
  54   2.0000      -0.631361       -17.1802
  55   2.0000      -0.594290       -16.1715
  56   2.0000      -0.587339       -15.9823
  57   2.0000      -0.580138       -15.7864
  58   2.0000      -0.567392       -15.4395
  59   2.0000      -0.557652       -15.1745
  60   2.0000      -0.495345       -13.4790
  61   2.0000      -0.488331       -13.2882
  62   2.0000      -0.471695       -12.8355
  63   2.0000      -0.468782       -12.7562
  64   2.0000      -0.459133       -12.4936
  65   2.0000      -0.446625       -12.1533
  66   2.0000      -0.434801       -11.8315
  67   2.0000      -0.431653       -11.7459
  68   2.0000      -0.425414       -11.5761
  69   2.0000      -0.411721       -11.2035
  70   2.0000      -0.410231       -11.1630
  71   2.0000      -0.398151       -10.8342
  72   2.0000      -0.389455       -10.5976
  73   2.0000      -0.384574       -10.4648
  74   2.0000      -0.375341       -10.2136
  75   2.0000      -0.370767       -10.0891
  76   2.0000      -0.363249        -9.8845
  77   2.0000      -0.358101        -9.7444
  78   2.0000      -0.353227        -9.6118
  79   2.0000      -0.349956        -9.5228
  80   2.0000      -0.346457        -9.4276
  81   2.0000      -0.342406        -9.3173
  82   2.0000      -0.339448        -9.2368
  83   2.0000      -0.334625        -9.1056
  84   2.0000      -0.326717        -8.8904
  85   2.0000      -0.319584        -8.6963
  86   2.0000      -0.306930        -8.3520
  87   2.0000      -0.297669        -8.1000
  88   2.0000      -0.290909        -7.9160
  89   2.0000      -0.288555        -7.8520
  90   2.0000      -0.277990        -7.5645
  91   2.0000      -0.271700        -7.3933
  92   2.0000      -0.268300        -7.3008
  93   2.0000      -0.255501        -6.9525
  94   2.0000      -0.255148        -6.9429
  95   2.0000      -0.243280        -6.6200
  96   2.0000      -0.216794        -5.8993
  97   2.0000      -0.204107        -5.5540
  98   2.0000      -0.186165        -5.0658
  99   2.0000      -0.182215        -4.9583
 100   2.0000      -0.177494        -4.8298
 101   0.0000      -0.047974        -1.3054
 102   0.0000      -0.022759        -0.6193
 103   0.0000      -0.009116        -0.2481
 104   0.0000      -0.002566        -0.0698
 105   0.0000       0.023053         0.6273

MULLIKEN ATOMIC CHARGES
-----------------------
   0 C :   -0.303844
   1 C :   -0.004225
   2 O :   -0.374903
   3 P :    0.618442
   4 S :   -0.309722
   5 O :   -0.372007
   6 C :   -0.002587
   7 C :   -0.342388
   8 S :   -0.083572
   9 C :   -0.337712
  10 S :   -0.110757
  11 P :    0.614178
  12 S :   -0.286057
  13 O :   -0.374777
  14 C :    0.007795
  15 C :   -0.318683
  16 O :   -0.385507
  17 C :    0.001003
  18 C :   -0.347509
  19 H :    0.116669
  20 H :    0.109988
  21 H :    0.122964
  22 H :    0.099652
  23 H :    0.110651
  24 H :    0.101565
  25 H :    0.109171
  26 H :    0.112022
  27 H :    0.157137
  28 H :    0.117860
  29 H :    0.182943
  30 H :    0.186949
  31 H :    0.109777
  32 H :    0.110993
  33 H :    0.130606
  34 H :    0.115930
  35 H :    0.112516
  36 H :    0.101235
  37 H :    0.114130
  38 H :    0.112500
  39 H :    0.113689
  40 H :    0.163886
Sum of atomic charges:    0.0000000

LOEWDIN ATOMIC CHARGES
----------------------
   0 C :   -0.363927
   1 C :   -0.119545
   2 O :   -0.244652
   3 P :    0.571075
   4 S :   -0.304103
   5 O :   -0.244564
   6 C :   -0.122185
   7 C :   -0.373782
   8 S :    0.090376
   9 C :   -0.475294
  10 S :    0.076764
  11 P :    0.569881
  12 S :   -0.296083
  13 O :   -0.244971
  14 C :   -0.107499
  15 C :   -0.368420
  16 O :   -0.246054
  17 C :   -0.117882
  18 C :   -0.375486
  19 H :    0.126576
  20 H :    0.129361
  21 H :    0.123613
  22 H :    0.115731
  23 H :    0.109965
  24 H :    0.116770
  25 H :    0.108575
  26 H :    0.131387
  27 H :    0.125631
  28 H :    0.123793
  29 H :    0.128736
  30 H :    0.134320
  31 H :    0.121560
  32 H :    0.116335
  33 H :    0.121553
  34 H :    0.123190
  35 H :    0.130969
  36 H :    0.116475
  37 H :    0.113055
  38 H :    0.121988
  39 H :    0.132767
  40 H :    0.123999

  Mayer bond orders larger than 0.100000
B(  0-C ,  1-C ) :   1.1658 B(  0-C , 19-H ) :   0.9463 B(  0-C , 20-H ) :   0.9393
B(  0-C , 21-H ) :   0.9365 B(  1-C ,  2-O ) :   0.9055 B(  1-C , 22-H ) :   0.9343
B(  1-C , 23-H ) :   0.9128 B(  2-O ,  3-P ) :   1.1094 B(  3-P ,  4-S ) :   1.6075
B(  3-P ,  5-O ) :   1.1026 B(  3-P ,  8-S ) :   0.9664 B(  4-S ,  8-S ) :   0.1157
B(  5-O ,  6-C ) :   0.9094 B(  6-C ,  7-C ) :   1.1645 B(  6-C , 24-H ) :   0.9327
B(  6-C , 25-H ) :   0.9121 B(  7-C , 26-H ) :   0.9379 B(  7-C , 27-H ) :   0.9243
B(  7-C , 28-H ) :   0.9436 B(  8-S ,  9-C ) :   0.9953 B(  9-C , 10-S ) :   1.0073
B(  9-C , 29-H ) :   0.8984 B(  9-C , 30-H ) :   0.9059 B( 10-S , 11-P ) :   0.9327
B( 10-S , 12-S ) :   0.1153 B( 11-P , 12-S ) :   1.6998 B( 11-P , 13-O ) :   1.1048
B( 11-P , 16-O ) :   1.0735 B( 13-O , 14-C ) :   0.8968 B( 14-C , 15-C ) :   1.1696
B( 14-C , 31-H ) :   0.9360 B( 14-C , 32-H ) :   0.9270 B( 15-C , 33-H ) :   0.9363
B( 15-C , 34-H ) :   0.9453 B( 15-C , 35-H ) :   0.9353 B( 16-O , 17-C ) :   0.9019
B( 17-C , 18-C ) :   1.1658 B( 17-C , 36-H ) :   0.9334 B( 17-C , 37-H ) :   0.9119
B( 18-C , 38-H ) :   0.9445 B( 18-C , 39-H ) :   0.9373 B( 18-C , 40-H ) :   0.9177

Dispersion correction           -0.068342656
FINAL SINGLE POINT ENERGY     -2929.510276157580

DIPOLE MOMENT
-------------

Method             : SCF
Type of density    : Electron Density
Multiplicity       :   1
Irrep              :   0
Energy             : -2929.6269239162338636 Eh
Relativity type    :
Basis              : AO
                                X                 Y                 Z
Electronic contribution:     -0.832081522      -2.196690257       8.025670658
Nuclear contribution   :      0.367261876       1.484503922      -9.025402407
                        -----------------------------------------
Total Dipole Moment    :     -0.464819646      -0.712186335      -0.999731749
                        -----------------------------------------
Magnitude (a.u.)       :      1.312528190
Magnitude (Debye)      :      3.336181528

Rotational constants in cm-1:             0.012366             0.005304             0.005191
Rotational constants in MHz :           370.734209           159.014818           155.620567

                             ****ORCA TERMINATED NORMALLY****
TOTAL RUN TIME: 0 days 0 hours 0 minutes 21 seconds 827 msec
