                         Program Version 6.0.0  -   RELEASE  -
|  1> ! pbe def2-sv(p) def2/J RI DEFGRID1 loosescf d4 GCP(DFT/SV(P)) printgap
|  2> %output
|  3>     printlevel normal
|  4> end
|  5> * xyz 0 1
|  6> C 2.6279599561 2.2221585452 1.4125408917
|  7> C 1.2745039656 1.663670473 1.799477992
|  8> O 1.232266776 0.217228765 1.8251120818
|  9> P 1.6570447964 -0.7464489696 0.6336589253
| 10> S 0.9484366657 -2.5459437267 0.9422728967
| 11> O 3.2568054347 -0.6941914469 0.5581274744
| 12> C 4.0665338429 -1.3055427206 1.5808573366
| 13> C 4.6029359361 -2.6420071171 1.1063577733
| 14> S 1.3206102071 0.2196381246 -1.2063981637
| 15> C 0.2749612092 -1.0231856537 -2.006693803
| 16> S -1.3773699641 -0.4160233418 -2.4680208311
| 17> P -2.0686862248 0.4426470098 -0.6628452671
| 18> S -4.0115112369 0.6428349118 -0.5605179302
| 19> O -1.2604904603 1.7984085757 -0.4301500459
| 20> C -1.6661350913 3.0436970253 -1.0262914255
| 21> C -1.3021835807 3.1092171283 -2.4962410942
| 22> O -1.3643153964 -0.4811466657 0.4277818612
| 23> C -2.0948050049 -0.9229362875 1.5925515159
| 24> C -2.1502055976 0.1573057944 2.6505317432
| 25> H 3.3988108788 1.8528094558 2.0846758502
| 26> H 2.880627697 1.9392308619 0.3917388329
| 27> H 2.5898149142 3.3053234318 1.4778744743
| 28> H 0.4993248846 2.0072455825 1.1109834337
| 29> H 1.0085124911 1.9408994388 2.8215920775
| 30> H 4.8785047203 -0.5981138155 1.7612969878
| 31> H 3.4725280212 -1.4232751844 2.4932630538
| 32> H 5.2688502003 -3.0507054127 1.8596476909
| 33> H 3.7836481632 -3.3383247171 0.94084943
| 34> H 5.1462712926 -2.5122217685 0.1748094641
| 35> H 0.1784065274 -1.8837110205 -1.3393555375
| 36> H 0.7357724209 -1.3066893805 -2.9499778032
| 37> H -2.7456403836 3.1594146469 -0.8839385694
| 38> H -1.1330083396 3.8002577689 -0.4484627312
| 39> H -0.25014629 2.8698755216 -2.6324270015
| 40> H -1.900772642 2.3996449595 -3.0654567513
| 41> H -1.4956160092 4.1105062424 -2.8673063154
| 42> H -3.1031111504 -1.211899685 1.2809890244
| 43> H -1.5474789332 -1.8030742833 1.9349959658
| 44> H -2.6591856311 1.0345256587 2.2532175869
| 45> H -2.7006867072 -0.2150131793 3.508667769
| 46> H -1.1451211124 0.4319086209 2.9571617503
| 47> *
| 48>
| 49>                          ****END OF INPUT****

CARTESIAN COORDINATES (ANGSTROEM)
---------------------------------
  C      2.627960    2.222159    1.412541
  C      1.274504    1.663670    1.799478
  O      1.232267    0.217229    1.825112
  P      1.657045   -0.746449    0.633659
  S      0.948437   -2.545944    0.942273
  O      3.256805   -0.694191    0.558127
  C      4.066534   -1.305543    1.580857
  C      4.602936   -2.642007    1.106358
  S      1.320610    0.219638   -1.206398
  C      0.274961   -1.023186   -2.006694
  S     -1.377370   -0.416023   -2.468021
  P     -2.068686    0.442647   -0.662845
  S     -4.011511    0.642835   -0.560518
  O     -1.260490    1.798409   -0.430150
  C     -1.666135    3.043697   -1.026291
  C     -1.302184    3.109217   -2.496241
  O     -1.364315   -0.481147    0.427782
  C     -2.094805   -0.922936    1.592552
  C     -2.150206    0.157306    2.650532
  H      3.398811    1.852809    2.084676
  H      2.880628    1.939231    0.391739
  H      2.589815    3.305323    1.477874
  H      0.499325    2.007246    1.110983
  H      1.008512    1.940899    2.821592
  H      4.878505   -0.598114    1.761297
  H      3.472528   -1.423275    2.493263
  H      5.268850   -3.050705    1.859648
  H      3.783648   -3.338325    0.940849
  H      5.146271   -2.512222    0.174809
  H      0.178407   -1.883711   -1.339356
  H      0.735772   -1.306689   -2.949978
  H     -2.745640    3.159415   -0.883939
  H     -1.133008    3.800258   -0.448463
  H     -0.250146    2.869876   -2.632427
  H     -1.900773    2.399645   -3.065457
  H     -1.495616    4.110506   -2.867306
  H     -3.103111   -1.211900    1.280989
  H     -1.547479   -1.803074    1.934996
  H     -2.659186    1.034526    2.253218
  H     -2.700687   -0.215013    3.508668
  H     -1.145121    0.431909    2.957162

 Total Charge           Charge          ....    0
 Multiplicity           Mult            ....    1
 Number of Electrons    NEL             ....  202
 Basis Dimension        Dim             ....  334

ORBITAL ENERGIES
----------------

  NO   OCC          E(Eh)            E(eV)
   0   2.0000     -88.049576     -2395.9508
   1   2.0000     -88.042381     -2395.7550
   2   2.0000     -87.989100     -2394.3051
   3   2.0000     -87.988552     -2394.2902
   4   2.0000     -76.429774     -2079.7599
   5   2.0000     -76.426536     -2079.6718
   6   2.0000     -18.797018      -511.4929
   7   2.0000     -18.792613      -511.3730
   8   2.0000     -18.790481      -511.3150
   9   2.0000     -18.789137      -511.2784
  10   2.0000      -9.958440      -270.9829
  11   2.0000      -9.958003      -270.9710
  12   2.0000      -9.954777      -270.8833
  13   2.0000      -9.953994      -270.8619
  14   2.0000      -9.939551      -270.4689
  15   2.0000      -9.896036      -269.2848
  16   2.0000      -9.885265      -268.9917
  17   2.0000      -9.881171      -268.8803
  18   2.0000      -9.875402      -268.7233
  19   2.0000      -7.694587      -209.3803
  20   2.0000      -7.687703      -209.1930
  21   2.0000      -7.634127      -207.7352
  22   2.0000      -7.633727      -207.7243
  23   2.0000      -6.427400      -174.8985
  24   2.0000      -6.424336      -174.8151
  25   2.0000      -5.722540      -155.7182
  26   2.0000      -5.719242      -155.6285
  27   2.0000      -5.716063      -155.5420
  28   2.0000      -5.711850      -155.4273
  29   2.0000      -5.711232      -155.4105
  30   2.0000      -5.704530      -155.2282
  31   2.0000      -5.663216      -154.1039
  32   2.0000      -5.662668      -154.0890
  33   2.0000      -5.655258      -153.8874
  34   2.0000      -5.654512      -153.8671
  35   2.0000      -5.653689      -153.8447
  36   2.0000      -5.653498      -153.8395
  37   2.0000      -4.650271      -126.5403
  38   2.0000      -4.649001      -126.5058
  39   2.0000      -4.647811      -126.4734
  40   2.0000      -4.646647      -126.4417
  41   2.0000      -4.646305      -126.4324
  42   2.0000      -4.644800      -126.3914
  43   2.0000      -0.986793       -26.8520
  44   2.0000      -0.984365       -26.7859
  45   2.0000      -0.945231       -25.7211
  46   2.0000      -0.943679       -25.6788
  47   2.0000      -0.765676       -20.8351
  48   2.0000      -0.723545       -19.6887
  49   2.0000      -0.709113       -19.2960
  50   2.0000      -0.695810       -18.9340
  51   2.0000      -0.683679       -18.6038
  52   2.0000      -0.675204       -18.3732
  53   2.0000      -0.655182       -17.8284
  54   2.0000      -0.641361       -17.4523
  55   2.0000      -0.600753       -16.3473
  56   2.0000      -0.593501       -16.1500
  57   2.0000      -0.582113       -15.8401
  58   2.0000      -0.565186       -15.3795
  59   2.0000      -0.560950       -15.2642
  60   2.0000      -0.503505       -13.7011
  61   2.0000      -0.492371       -13.3981
  62   2.0000      -0.478392       -13.0177
  63   2.0000      -0.471998       -12.8437
  64   2.0000      -0.460360       -12.5270
  65   2.0000      -0.450711       -12.2645
  66   2.0000      -0.439540       -11.9605
  67   2.0000      -0.435688       -11.8557
  68   2.0000      -0.426899       -11.6165
  69   2.0000      -0.416886       -11.3440
  70   2.0000      -0.414130       -11.2691
  71   2.0000      -0.403144       -10.9701
  72   2.0000      -0.396985       -10.8025
  73   2.0000      -0.385559       -10.4916
  74   2.0000      -0.383185       -10.4270
  75   2.0000      -0.371373       -10.1056
  76   2.0000      -0.366723        -9.9790
  77   2.0000      -0.361462        -9.8359
  78   2.0000      -0.358573        -9.7573
  79   2.0000      -0.354187        -9.6379
  80   2.0000      -0.350590        -9.5400
  81   2.0000      -0.345982        -9.4146
  82   2.0000      -0.339916        -9.2496
  83   2.0000      -0.337359        -9.1800
  84   2.0000      -0.327766        -8.9190
  85   2.0000      -0.321078        -8.7370
  86   2.0000      -0.316255        -8.6057
  87   2.0000      -0.308952        -8.4070
  88   2.0000      -0.296550        -8.0695
  89   2.0000      -0.286325        -7.7913
  90   2.0000      -0.281348        -7.6559
  91   2.0000      -0.277458        -7.5500
  92   2.0000      -0.271977        -7.4009
  93   2.0000      -0.265716        -7.2305
  94   2.0000      -0.262191        -7.1346
  95   2.0000      -0.230699        -6.2776
  96   2.0000      -0.221893        -6.0380
  97   2.0000      -0.213423        -5.8075
  98   2.0000      -0.209169        -5.6918
  99   2.0000      -0.199526        -5.4294
 100   2.0000      -0.198278        -5.3954
 101   0.0000      -0.046867        -1.2753
 102   0.0000      -0.033893        -0.9223
 103   0.0000      -0.023627        -0.6429
 104   0.0000       0.002028         0.0552
 105   0.0000       0.016648         0.4530

MULLIKEN ATOMIC CHARGES
-----------------------
   0 C :   -0.312310
   1 C :   -0.052096
   2 O :   -0.380077
   3 P :    0.633709
   4 S :   -0.306168
   5 O :   -0.379391
   6 C :   -0.023084
   7 C :   -0.279863
   8 S :   -0.105682
   9 C :   -0.330986
  10 S :   -0.093882
  11 P :    0.626393
  12 S :   -0.316778
  13 O :   -0.366863
  14 C :   -0.006719
  15 C :   -0.309098
  16 O :   -0.382675
  17 C :   -0.010713
  18 C :   -0.315204
  19 H :    0.118977
  20 H :    0.133191
  21 H :    0.115312
  22 H :    0.147112
  23 H :    0.111669
  24 H :    0.103957
  25 H :    0.105045
  26 H :    0.105810
  27 H :    0.126697
  28 H :    0.112262
  29 H :    0.202687
  30 H :    0.183173
  31 H :    0.111729
  32 H :    0.099715
  33 H :    0.115103
  34 H :    0.127626
  35 H :    0.111842
  36 H :    0.112412
  37 H :    0.116679
  38 H :    0.112409
  39 H :    0.108696
  40 H :    0.129384
Sum of atomic charges:   -0.0000000

LOEWDIN ATOMIC CHARGES
----------------------
   0 C :   -0.366178
   1 C :   -0.124879
   2 O :   -0.242585
   3 P :    0.583112
   4 S :   -0.285023
   5 O :   -0.258490
   6 C :   -0.119921
   7 C :   -0.360290
   8 S :    0.096835
   9 C :   -0.477351
  10 S :    0.084356
  11 P :    0.570021
  12 S :   -0.310479
  13 O :   -0.241096
  14 C :   -0.121216
  15 C :   -0.367350
  16 O :   -0.245409
  17 C :   -0.124507
  18 C :   -0.365615
  19 H :    0.125815
  20 H :    0.119802
  21 H :    0.132992
  22 H :    0.117604
  23 H :    0.120495
  24 H :    0.114521
  25 H :    0.109044
  26 H :    0.127888
  27 H :    0.125172
  28 H :    0.125803
  29 H :    0.125575
  30 H :    0.139457
  31 H :    0.109434
  32 H :    0.113952
  33 H :    0.122790
  34 H :    0.121266
  35 H :    0.129944
  36 H :    0.108432
  37 H :    0.112821
  38 H :    0.118314
  39 H :    0.130204
  40 H :    0.124741

  Mayer bond orders larger than 0.100000
B(  0-C ,  1-C ) :   1.1661 B(  0-C , 19-H ) :   0.9425 B(  0-C , 20-H ) :   0.9348
B(  0-C , 21-H ) :   0.9356 B(  1-C ,  2-O ) :   0.8955 B(  1-C , 22-H ) :   0.9020
B(  1-C , 23-H ) :   0.9289 B(  2-O ,  3-P ) :   1.1045 B(  3-P ,  4-S ) :   1.5999
B(  3-P ,  5-O ) :   1.0838 B(  3-P ,  8-S ) :   0.9626 B(  4-S ,  8-S ) :   0.1101
B(  4-S , 29-H ) :   0.1114 B(  5-O ,  6-C ) :   0.9025 B(  6-C ,  7-C ) :   1.1696
B(  6-C , 24-H ) :   0.9314 B(  6-C , 25-H ) :   0.9136 B(  7-C , 26-H ) :   0.9403
B(  7-C , 27-H ) :   0.9343 B(  7-C , 28-H ) :   0.9472 B(  8-S ,  9-C ) :   1.0134
B(  9-C , 10-S ) :   0.9811 B(  9-C , 29-H ) :   0.8509 B(  9-C , 30-H ) :   0.9098
B( 10-S , 11-P ) :   0.9822 B( 11-P , 12-S ) :   1.6384 B( 11-P , 13-O ) :   1.0615
B( 11-P , 16-O ) :   1.1041 B( 13-O , 14-C ) :   0.9110 B( 14-C , 15-C ) :   1.1660
B( 14-C , 31-H ) :   0.9120 B( 14-C , 32-H ) :   0.9321 B( 15-C , 33-H ) :   0.9448
B( 15-C , 34-H ) :   0.9380 B( 15-C , 35-H ) :   0.9387 B( 16-O , 17-C ) :   0.8855
B( 17-C , 18-C ) :   1.1668 B( 17-C , 36-H ) :   0.9137 B( 17-C , 37-H ) :   0.9106
B( 18-C , 38-H ) :   0.9377 B( 18-C , 39-H ) :   0.9391 B( 18-C , 40-H ) :   0.9367

Dispersion correction           -0.069341533
FINAL SINGLE POINT ENERGY     -2929.515245184464

DIPOLE MOMENT
-------------

Method             : SCF
Type of density    : Electron Density
Multiplicity       :   1
Irrep              :   0
Energy             : -2929.6357539754544632 Eh
Relativity type    :
Basis              : AO
                                X                 Y                 Z
Electronic contribution:    -13.146090233      -9.961173261     -11.692690517
Nuclear contribution   :     14.708694981      11.141725157      12.226081691
                        -----------------------------------------
Total Dipole Moment    :      1.562604748       1.180551897       0.533391174
                        -----------------------------------------
Magnitude (a.u.)       :      2.029764155
Magnitude (Debye)      :      5.159250470

Rotational constants in cm-1:             0.012653             0.005575             0.005411
Rotational constants in MHz :           379.322058           167.143620           162.228727

                             ****ORCA TERMINATED NORMALLY****
TOTAL RUN TIME: 0 days 0 hours 0 minutes 22 seconds 682 msec
