                         Program Version 6.0.0  -   RELEASE  -
|  1> ! pbe def2-sv(p) def2/J RI DEFGRID1 loosescf d4 GCP(DFT/SV(P)) printgap
|  2> %output
|  3>     printlevel normal
|  4> end
|  5> * xyz 0 1
|  6> C 1.5629807001 -1.2089847916 -2.5997457732
|  7> C 2.8610318739 -0.4605886302 -2.3819955681
|  8> O 2.8357171599 0.3735640632 -1.1977799407
|  9> P 2.7389803425 -0.1146365371 0.2986754236
| 10> S 3.4075788651 1.3149683166 1.4592247501
| 11> O 3.51576072 -1.4969759733 0.2476028952
| 12> C 3.4398271768 -2.5263711125 1.2528360402
| 13> C 3.7830979113 -2.0199689761 2.63748761
| 14> S 0.7225791531 -0.6766821138 0.7119188384
| 15> C 0.1406743454 1.0236597186 1.0023771485
| 16> S -1.5572843285 1.034771943 1.594659468
| 17> P -2.4229365669 0.3610208514 -0.2176559719
| 18> S -1.5692370502 0.9779933064 -1.8778624903
| 19> O -3.9702013153 0.6655791931 -0.0391975918
| 20> C -4.5415256343 1.9207919789 0.3718876514
| 21> C -4.0444316728 3.0923158373 -0.4499418197
| 22> O -2.4024995598 -1.2080041063 -0.0193423414
| 23> C -2.3457489892 -2.1377455596 -1.1187001404
| 24> C -3.676750941 -2.2103791598 -1.8368733161
| 25> H 1.6089114229 -1.7238097648 -3.554281465
| 26> H 1.4054518623 -1.9402824514 -1.8093186906
| 27> H 0.7248559875 -0.5143054897 -2.6147596234
| 28> H 3.0460828728 0.25584967 -3.1838323338
| 29> H 3.7026123137 -1.1498057596 -2.2941827598
| 30> H 2.4303823859 -2.9465093202 1.234477244
| 31> H 4.1599363477 -3.2713112943 0.9095697748
| 32> H 3.0415009485 -1.2936500168 2.9670930437
| 33> H 3.7964985431 -2.8527314786 3.3332298443
| 34> H 4.7569811603 -1.536178042 2.6345368736
| 35> H 0.1966986715 1.5771925844 0.0622229122
| 36> H 0.7637244011 1.4880886903 1.7668584221
| 37> H -5.6144595565 1.7688577063 0.2411059507
| 38> H -4.3132901489 2.0665527418 1.4313842927
| 39> H -4.2080720539 2.9109101082 -1.5098496702
| 40> H -4.5749955982 3.9916398112 -0.1541340881
| 41> H -2.9778410129 3.2422386339 -0.2848863236
| 42> H -1.5517928469 -1.8244637217 -1.8041026243
| 43> H -2.0789349816 -3.0848688011 -0.6491993651
| 44> H -3.6245310384 -2.9539456025 -2.6257424905
| 45> H -4.4666319097 -2.4735943302 -1.1387925584
| 46> H -3.9073098839 -1.239713733 -2.2754019383
| 47> *
| 48>
| 49>                          ****END OF INPUT****

CARTESIAN COORDINATES (ANGSTROEM)
---------------------------------
  C      1.562981   -1.208985   -2.599746
  C      2.861032   -0.460589   -2.381996
  O      2.835717    0.373564   -1.197780
  P      2.738980   -0.114637    0.298675
  S      3.407579    1.314968    1.459225
  O      3.515761   -1.496976    0.247603
  C      3.439827   -2.526371    1.252836
  C      3.783098   -2.019969    2.637488
  S      0.722579   -0.676682    0.711919
  C      0.140674    1.023660    1.002377
  S     -1.557284    1.034772    1.594659
  P     -2.422937    0.361021   -0.217656
  S     -1.569237    0.977993   -1.877862
  O     -3.970201    0.665579   -0.039198
  C     -4.541526    1.920792    0.371888
  C     -4.044432    3.092316   -0.449942
  O     -2.402500   -1.208004   -0.019342
  C     -2.345749   -2.137746   -1.118700
  C     -3.676751   -2.210379   -1.836873
  H      1.608911   -1.723810   -3.554281
  H      1.405452   -1.940282   -1.809319
  H      0.724856   -0.514305   -2.614760
  H      3.046083    0.255850   -3.183832
  H      3.702612   -1.149806   -2.294183
  H      2.430382   -2.946509    1.234477
  H      4.159936   -3.271311    0.909570
  H      3.041501   -1.293650    2.967093
  H      3.796499   -2.852731    3.333230
  H      4.756981   -1.536178    2.634537
  H      0.196699    1.577193    0.062223
  H      0.763724    1.488089    1.766858
  H     -5.614460    1.768858    0.241106
  H     -4.313290    2.066553    1.431384
  H     -4.208072    2.910910   -1.509850
  H     -4.574996    3.991640   -0.154134
  H     -2.977841    3.242239   -0.284886
  H     -1.551793   -1.824464   -1.804103
  H     -2.078935   -3.084869   -0.649199
  H     -3.624531   -2.953946   -2.625742
  H     -4.466632   -2.473594   -1.138793
  H     -3.907310   -1.239714   -2.275402

 Total Charge           Charge          ....    0
 Multiplicity           Mult            ....    1
 Number of Electrons    NEL             ....  202
 Basis Dimension        Dim             ....  334

ORBITAL ENERGIES
----------------

  NO   OCC          E(Eh)            E(eV)
   0   2.0000     -88.050684     -2395.9809
   1   2.0000     -88.039121     -2395.6663
   2   2.0000     -87.991747     -2394.3772
   3   2.0000     -87.977470     -2393.9887
   4   2.0000     -76.431241     -2079.7998
   5   2.0000     -76.424618     -2079.6196
   6   2.0000     -18.798001      -511.5196
   7   2.0000     -18.797009      -511.4926
   8   2.0000     -18.790898      -511.3263
   9   2.0000     -18.786326      -511.2019
  10   2.0000      -9.962465      -271.0925
  11   2.0000      -9.961590      -271.0686
  12   2.0000      -9.952497      -270.8212
  13   2.0000      -9.951210      -270.7862
  14   2.0000      -9.951176      -270.7853
  15   2.0000      -9.886783      -269.0330
  16   2.0000      -9.885033      -268.9854
  17   2.0000      -9.883547      -268.9450
  18   2.0000      -9.880138      -268.8522
  19   2.0000      -7.695887      -209.4157
  20   2.0000      -7.683736      -209.0851
  21   2.0000      -7.636285      -207.7939
  22   2.0000      -7.622875      -207.4290
  23   2.0000      -6.428585      -174.9307
  24   2.0000      -6.421575      -174.7399
  25   2.0000      -5.723617      -155.7475
  26   2.0000      -5.720530      -155.6635
  27   2.0000      -5.712884      -155.4555
  28   2.0000      -5.711466      -155.4169
  29   2.0000      -5.708480      -155.3356
  30   2.0000      -5.700747      -155.1252
  31   2.0000      -5.665054      -154.1540
  32   2.0000      -5.657115      -153.9379
  33   2.0000      -5.656424      -153.9191
  34   2.0000      -5.651943      -153.7972
  35   2.0000      -5.643481      -153.5669
  36   2.0000      -5.642846      -153.5496
  37   2.0000      -4.651050      -126.5615
  38   2.0000      -4.650500      -126.5465
  39   2.0000      -4.649032      -126.5066
  40   2.0000      -4.644738      -126.3897
  41   2.0000      -4.643427      -126.3541
  42   2.0000      -4.641491      -126.3014
  43   2.0000      -0.990383       -26.9497
  44   2.0000      -0.988344       -26.8942
  45   2.0000      -0.948980       -25.8230
  46   2.0000      -0.942988       -25.6600
  47   2.0000      -0.765899       -20.8412
  48   2.0000      -0.722774       -19.6677
  49   2.0000      -0.711372       -19.3574
  50   2.0000      -0.691331       -18.8121
  51   2.0000      -0.690068       -18.7777
  52   2.0000      -0.678275       -18.4568
  53   2.0000      -0.654426       -17.8078
  54   2.0000      -0.635101       -17.2820
  55   2.0000      -0.600963       -16.3530
  56   2.0000      -0.590179       -16.0596
  57   2.0000      -0.579319       -15.7641
  58   2.0000      -0.576959       -15.6999
  59   2.0000      -0.560629       -15.2555
  60   2.0000      -0.500877       -13.6295
  61   2.0000      -0.494662       -13.4604
  62   2.0000      -0.474175       -12.9030
  63   2.0000      -0.470432       -12.8011
  64   2.0000      -0.455919       -12.4062
  65   2.0000      -0.452322       -12.3083
  66   2.0000      -0.439219       -11.9518
  67   2.0000      -0.433223       -11.7886
  68   2.0000      -0.429667       -11.6918
  69   2.0000      -0.426545       -11.6069
  70   2.0000      -0.417017       -11.3476
  71   2.0000      -0.410522       -11.1709
  72   2.0000      -0.394554       -10.7364
  73   2.0000      -0.391775       -10.6607
  74   2.0000      -0.384150       -10.4532
  75   2.0000      -0.376357       -10.2412
  76   2.0000      -0.354043        -9.6340
  77   2.0000      -0.352747        -9.5987
  78   2.0000      -0.351353        -9.5608
  79   2.0000      -0.349556        -9.5119
  80   2.0000      -0.348805        -9.4915
  81   2.0000      -0.346302        -9.4234
  82   2.0000      -0.342575        -9.3220
  83   2.0000      -0.337581        -9.1861
  84   2.0000      -0.336392        -9.1537
  85   2.0000      -0.321867        -8.7584
  86   2.0000      -0.318563        -8.6685
  87   2.0000      -0.300673        -8.1817
  88   2.0000      -0.298027        -8.1097
  89   2.0000      -0.291045        -7.9197
  90   2.0000      -0.288135        -7.8406
  91   2.0000      -0.278913        -7.5896
  92   2.0000      -0.276000        -7.5103
  93   2.0000      -0.266738        -7.2583
  94   2.0000      -0.255218        -6.9448
  95   2.0000      -0.231885        -6.3099
  96   2.0000      -0.222519        -6.0550
  97   2.0000      -0.210125        -5.7178
  98   2.0000      -0.205304        -5.5866
  99   2.0000      -0.198234        -5.3942
 100   2.0000      -0.190241        -5.1767
 101   0.0000      -0.045162        -1.2289
 102   0.0000      -0.033393        -0.9087
 103   0.0000      -0.012076        -0.3286
 104   0.0000       0.003196         0.0870
 105   0.0000       0.013415         0.3650

MULLIKEN ATOMIC CHARGES
-----------------------
   0 C :   -0.348409
   1 C :    0.013177
   2 O :   -0.359172
   3 P :    0.615786
   4 S :   -0.320720
   5 O :   -0.383846
   6 C :   -0.011176
   7 C :   -0.309383
   8 S :   -0.121794
   9 C :   -0.354011
  10 S :   -0.080811
  11 P :    0.606799
  12 S :   -0.323129
  13 O :   -0.371705
  14 C :   -0.011074
  15 C :   -0.313276
  16 O :   -0.357025
  17 C :   -0.016637
  18 C :   -0.301401
  19 H :    0.106821
  20 H :    0.114765
  21 H :    0.153580
  22 H :    0.109250
  23 H :    0.105794
  24 H :    0.113765
  25 H :    0.109112
  26 H :    0.129095
  27 H :    0.111348
  28 H :    0.127503
  29 H :    0.198404
  30 H :    0.191827
  31 H :    0.111514
  32 H :    0.115896
  33 H :    0.127405
  34 H :    0.113963
  35 H :    0.127961
  36 H :    0.125693
  37 H :    0.104171
  38 H :    0.110643
  39 H :    0.116522
  40 H :    0.122776
Sum of atomic charges:    0.0000000

LOEWDIN ATOMIC CHARGES
----------------------
   0 C :   -0.376856
   1 C :   -0.107385
   2 O :   -0.237369
   3 P :    0.571122
   4 S :   -0.311494
   5 O :   -0.244308
   6 C :   -0.113321
   7 C :   -0.369146
   8 S :    0.057177
   9 C :   -0.483206
  10 S :    0.094473
  11 P :    0.572702
  12 S :   -0.303002
  13 O :   -0.242765
  14 C :   -0.112816
  15 C :   -0.369748
  16 O :   -0.237605
  17 C :   -0.118920
  18 C :   -0.362590
  19 H :    0.128286
  20 H :    0.112862
  21 H :    0.123552
  22 H :    0.122635
  23 H :    0.112299
  24 H :    0.108574
  25 H :    0.121010
  26 H :    0.123095
  27 H :    0.130331
  28 H :    0.131118
  29 H :    0.123899
  30 H :    0.129655
  31 H :    0.122749
  32 H :    0.110971
  33 H :    0.130097
  34 H :    0.131312
  35 H :    0.122033
  36 H :    0.112255
  37 H :    0.118617
  38 H :    0.129764
  39 H :    0.126407
  40 H :    0.123537

  Mayer bond orders larger than 0.100000
B(  0-C ,  1-C ) :   1.1700 B(  0-C , 19-H ) :   0.9347 B(  0-C , 20-H ) :   0.9403
B(  0-C , 21-H ) :   0.9195 B(  1-C ,  2-O ) :   0.9001 B(  1-C , 22-H ) :   0.9339
B(  1-C , 23-H ) :   0.9281 B(  2-O ,  3-P ) :   1.1375 B(  3-P ,  4-S ) :   1.6381
B(  3-P ,  5-O ) :   1.0818 B(  3-P ,  8-S ) :   0.9402 B(  4-S ,  8-S ) :   0.1136
B(  5-O ,  6-C ) :   0.9094 B(  6-C ,  7-C ) :   1.1679 B(  6-C , 24-H ) :   0.9263
B(  6-C , 25-H ) :   0.9335 B(  7-C , 26-H ) :   0.9312 B(  7-C , 27-H ) :   0.9346
B(  7-C , 28-H ) :   0.9431 B(  8-S ,  9-C ) :   0.9794 B(  9-C , 10-S ) :   1.0169
B(  9-C , 29-H ) :   0.8693 B(  9-C , 30-H ) :   0.8730 B( 10-S , 11-P ) :   0.9457
B( 10-S , 12-S ) :   0.1128 B( 11-P , 12-S ) :   1.5894 B( 11-P , 13-O ) :   1.1172
B( 11-P , 16-O ) :   1.1314 B( 13-O , 14-C ) :   0.9117 B( 14-C , 15-C ) :   1.1640
B( 14-C , 31-H ) :   0.9341 B( 14-C , 32-H ) :   0.9285 B( 15-C , 33-H ) :   0.9424
B( 15-C , 34-H ) :   0.9349 B( 15-C , 35-H ) :   0.9335 B( 16-O , 17-C ) :   0.9004
B( 17-C , 18-C ) :   1.1632 B( 17-C , 36-H ) :   0.9101 B( 17-C , 37-H ) :   0.9341
B( 18-C , 38-H ) :   0.9401 B( 18-C , 39-H ) :   0.9466 B( 18-C , 40-H ) :   0.9368

Dispersion correction           -0.064569632
FINAL SINGLE POINT ENERGY     -2929.513490081253

DIPOLE MOMENT
-------------

Method             : SCF
Type of density    : Electron Density
Multiplicity       :   1
Irrep              :   0
Energy             : -2929.6336335027467612 Eh
Relativity type    :
Basis              : AO
                                X                 Y                 Z
Electronic contribution:      6.525522911       9.743905998       8.536578144
Nuclear contribution   :     -7.520874107     -11.114135895      -8.883871285
                        -----------------------------------------
Total Dipole Moment    :     -0.995351196      -1.370229898      -0.347293141
                        -----------------------------------------
Magnitude (a.u.)       :      1.728833856
Magnitude (Debye)      :      4.394346438

Rotational constants in cm-1:             0.012727             0.004583             0.004264
Rotational constants in MHz :           381.543329           137.405654           127.824383

                             ****ORCA TERMINATED NORMALLY****
TOTAL RUN TIME: 0 days 0 hours 0 minutes 20 seconds 656 msec
