                         Program Version 6.0.0  -   RELEASE  -
|  1> ! pbe def2-sv(p) def2/J RI DEFGRID1 loosescf d4 GCP(DFT/SV(P)) printgap
|  2> %output
|  3>     printlevel normal
|  4> end
|  5> * xyz 0 1
|  6> C 5.1937134098 -1.1133563689 -0.5679542802
|  7> C 4.5524838273 -0.2574067632 -1.6375396493
|  8> O 3.5311074133 0.6347482262 -1.1213209221
|  9> P 2.3239623997 0.2496499613 -0.192946686
| 10> S 0.9380571886 1.6380429981 -0.2495558832
| 11> O 3.0298347286 0.0380157168 1.2164341977
| 12> C 2.28724082 -0.2486380365 2.4177344012
| 13> C 2.1003404974 1.0146903194 3.2358883292
| 14> S 1.7281350687 -1.7172072552 -0.77097371
| 15> C -0.0273800442 -1.4740234939 -1.0957677489
| 16> S -0.988668274 -1.1891875783 0.4252480048
| 17> P -2.3174422039 0.3432289815 -0.2384458285
| 18> S -2.1517967923 0.7974433235 -2.1375760604
| 19> O -2.171069746 1.6241924466 0.6587672164
| 20> C -2.6127480424 1.756941895 2.0329441339
| 21> C -1.9165096642 0.7869134003 2.9630994205
| 22> O -3.7338606854 -0.1988631641 0.2545852447
| 23> C -4.3001390249 -1.470391672 -0.1078948429
| 24> C -4.9160189771 -1.449225163 -1.4929959998
| 25> H 5.5720289266 -0.4899463511 0.2376364964
| 26> H 4.4680220291 -1.8165793262 -0.163313419
| 27> H 6.0146901496 -1.6701702173 -1.0092446171
| 28> H 4.0941875419 -0.8787909845 -2.4107846783
| 29> H 5.2698938447 0.4284660641 -2.0906779302
| 30> H 1.3228226797 -0.6960590827 2.1558415549
| 31> H 2.8917865522 -0.9823723009 2.9540730421
| 32> H 1.5272293495 1.7460227601 2.6685510896
| 33> H 1.574061904 0.7762619061 4.1547088806
| 34> H 3.0669663436 1.4484179195 3.4758976466
| 35> H -0.3672874335 -2.3966872779 -1.5599704395
| 36> H -0.1823852308 -0.6183191947 -1.7584925729
| 37> H -2.3609564676 2.7918050649 2.270408664
| 38> H -3.6956191964 1.6203556455 2.0554817791
| 39> H -2.2063397309 1.0064239077 3.9857820485
| 40> H -2.1969034529 -0.2381679111 2.7254291434
| 41> H -0.83870608 0.8876325972 2.8660947887
| 42> H -3.5227886616 -2.2368481931 -0.0344149709
| 43> H -5.0585331291 -1.6453127161 0.6580110131
| 44> H -4.1540921013 -1.2602524536 -2.2462505116
| 45> H -5.3836924353 -2.4083066949 -1.6910432721
| 46> H -5.6640579017 -0.663580602 -1.5586062525
| 47> *
| 48>
| 49>                          ****END OF INPUT****

CARTESIAN COORDINATES (ANGSTROEM)
---------------------------------
  C      5.193713   -1.113356   -0.567954
  C      4.552484   -0.257407   -1.637540
  O      3.531107    0.634748   -1.121321
  P      2.323962    0.249650   -0.192947
  S      0.938057    1.638043   -0.249556
  O      3.029835    0.038016    1.216434
  C      2.287241   -0.248638    2.417734
  C      2.100340    1.014690    3.235888
  S      1.728135   -1.717207   -0.770974
  C     -0.027380   -1.474023   -1.095768
  S     -0.988668   -1.189188    0.425248
  P     -2.317442    0.343229   -0.238446
  S     -2.151797    0.797443   -2.137576
  O     -2.171070    1.624192    0.658767
  C     -2.612748    1.756942    2.032944
  C     -1.916510    0.786913    2.963099
  O     -3.733861   -0.198863    0.254585
  C     -4.300139   -1.470392   -0.107895
  C     -4.916019   -1.449225   -1.492996
  H      5.572029   -0.489946    0.237636
  H      4.468022   -1.816579   -0.163313
  H      6.014690   -1.670170   -1.009245
  H      4.094188   -0.878791   -2.410785
  H      5.269894    0.428466   -2.090678
  H      1.322823   -0.696059    2.155842
  H      2.891787   -0.982372    2.954073
  H      1.527229    1.746023    2.668551
  H      1.574062    0.776262    4.154709
  H      3.066966    1.448418    3.475898
  H     -0.367287   -2.396687   -1.559970
  H     -0.182385   -0.618319   -1.758493
  H     -2.360956    2.791805    2.270409
  H     -3.695619    1.620356    2.055482
  H     -2.206340    1.006424    3.985782
  H     -2.196903   -0.238168    2.725429
  H     -0.838706    0.887633    2.866095
  H     -3.522789   -2.236848   -0.034415
  H     -5.058533   -1.645313    0.658011
  H     -4.154092   -1.260252   -2.246251
  H     -5.383692   -2.408307   -1.691043
  H     -5.664058   -0.663581   -1.558606

 Total Charge           Charge          ....    0
 Multiplicity           Mult            ....    1
 Number of Electrons    NEL             ....  202
 Basis Dimension        Dim             ....  334

ORBITAL ENERGIES
----------------

  NO   OCC          E(Eh)            E(eV)
   0   2.0000     -88.045457     -2395.8387
   1   2.0000     -88.041446     -2395.7295
   2   2.0000     -87.978169     -2394.0077
   3   2.0000     -87.976857     -2393.9720
   4   2.0000     -76.423742     -2079.5957
   5   2.0000     -76.421941     -2079.5467
   6   2.0000     -18.790495      -511.3154
   7   2.0000     -18.789053      -511.2761
   8   2.0000     -18.787538      -511.2349
   9   2.0000     -18.786251      -511.1999
  10   2.0000      -9.957946      -270.9695
  11   2.0000      -9.955115      -270.8924
  12   2.0000      -9.953505      -270.8486
  13   2.0000      -9.951978      -270.8071
  14   2.0000      -9.951924      -270.8056
  15   2.0000      -9.890876      -269.1444
  16   2.0000      -9.890678      -269.1390
  17   2.0000      -9.881221      -268.8817
  18   2.0000      -9.879070      -268.8232
  19   2.0000      -7.690269      -209.2629
  20   2.0000      -7.685460      -209.1320
  21   2.0000      -7.623355      -207.4420
  22   2.0000      -7.621585      -207.3939
  23   2.0000      -6.420531      -174.7115
  24   2.0000      -6.419281      -174.6775
  25   2.0000      -5.718151      -155.5988
  26   2.0000      -5.714482      -155.4990
  27   2.0000      -5.713309      -155.4670
  28   2.0000      -5.710011      -155.3773
  29   2.0000      -5.707599      -155.3117
  30   2.0000      -5.702590      -155.1753
  31   2.0000      -5.652443      -153.8108
  32   2.0000      -5.650790      -153.7658
  33   2.0000      -5.643757      -153.5744
  34   2.0000      -5.643496      -153.5673
  35   2.0000      -5.642064      -153.5284
  36   2.0000      -5.641653      -153.5172
  37   2.0000      -4.643421      -126.3539
  38   2.0000      -4.642336      -126.3244
  39   2.0000      -4.641945      -126.3137
  40   2.0000      -4.641232      -126.2943
  41   2.0000      -4.640774      -126.2819
  42   2.0000      -4.639496      -126.2471
  43   2.0000      -0.985768       -26.8241
  44   2.0000      -0.983855       -26.7720
  45   2.0000      -0.942144       -25.6370
  46   2.0000      -0.940334       -25.5878
  47   2.0000      -0.759971       -20.6799
  48   2.0000      -0.719074       -19.5670
  49   2.0000      -0.711991       -19.3742
  50   2.0000      -0.691613       -18.8197
  51   2.0000      -0.689251       -18.7555
  52   2.0000      -0.676069       -18.3968
  53   2.0000      -0.648018       -17.6335
  54   2.0000      -0.632180       -17.2025
  55   2.0000      -0.592089       -16.1116
  56   2.0000      -0.589090       -16.0300
  57   2.0000      -0.578019       -15.7287
  58   2.0000      -0.570921       -15.5356
  59   2.0000      -0.565424       -15.3860
  60   2.0000      -0.501526       -13.6472
  61   2.0000      -0.494068       -13.4443
  62   2.0000      -0.475288       -12.9333
  63   2.0000      -0.472056       -12.8453
  64   2.0000      -0.451282       -12.2800
  65   2.0000      -0.448063       -12.1924
  66   2.0000      -0.438439       -11.9305
  67   2.0000      -0.437840       -11.9142
  68   2.0000      -0.428961       -11.6726
  69   2.0000      -0.424765       -11.5584
  70   2.0000      -0.402512       -10.9529
  71   2.0000      -0.399553       -10.8724
  72   2.0000      -0.398483       -10.8433
  73   2.0000      -0.394646       -10.7389
  74   2.0000      -0.386548       -10.5185
  75   2.0000      -0.363521        -9.8919
  76   2.0000      -0.359574        -9.7845
  77   2.0000      -0.355814        -9.6822
  78   2.0000      -0.353692        -9.6244
  79   2.0000      -0.353327        -9.6145
  80   2.0000      -0.350163        -9.5284
  81   2.0000      -0.347056        -9.4439
  82   2.0000      -0.342285        -9.3141
  83   2.0000      -0.334396        -9.0994
  84   2.0000      -0.328568        -8.9408
  85   2.0000      -0.317181        -8.6309
  86   2.0000      -0.312604        -8.5064
  87   2.0000      -0.295721        -8.0470
  88   2.0000      -0.291621        -7.9354
  89   2.0000      -0.290210        -7.8970
  90   2.0000      -0.287509        -7.8235
  91   2.0000      -0.276045        -7.5116
  92   2.0000      -0.273649        -7.4464
  93   2.0000      -0.260892        -7.0992
  94   2.0000      -0.255348        -6.9484
  95   2.0000      -0.237241        -6.4557
  96   2.0000      -0.222365        -6.0509
  97   2.0000      -0.205779        -5.5995
  98   2.0000      -0.194821        -5.3014
  99   2.0000      -0.187466        -5.1012
 100   2.0000      -0.181562        -4.9405
 101   0.0000      -0.042499        -1.1564
 102   0.0000      -0.032996        -0.8979
 103   0.0000      -0.009744        -0.2652
 104   0.0000       0.007448         0.2027
 105   0.0000       0.011037         0.3003

MULLIKEN ATOMIC CHARGES
-----------------------
   0 C :   -0.319005
   1 C :   -0.002247
   2 O :   -0.355083
   3 P :    0.583514
   4 S :   -0.287583
   5 O :   -0.373145
   6 C :   -0.028266
   7 C :   -0.292307
   8 S :   -0.140969
   9 C :   -0.312445
  10 S :   -0.136077
  11 P :    0.630762
  12 S :   -0.294150
  13 O :   -0.352316
  14 C :    0.010890
  15 C :   -0.357323
  16 O :   -0.383648
  17 C :   -0.008726
  18 C :   -0.298102
  19 H :    0.127580
  20 H :    0.125791
  21 H :    0.116371
  22 H :    0.113363
  23 H :    0.114060
  24 H :    0.117927
  25 H :    0.101626
  26 H :    0.138319
  27 H :    0.105546
  28 H :    0.113061
  29 H :    0.174263
  30 H :    0.207295
  31 H :    0.112677
  32 H :    0.110788
  33 H :    0.114744
  34 H :    0.123415
  35 H :    0.150144
  36 H :    0.099268
  37 H :    0.101877
  38 H :    0.126668
  39 H :    0.105262
  40 H :    0.116177
Sum of atomic charges:    0.0000000

LOEWDIN ATOMIC CHARGES
----------------------
   0 C :   -0.368236
   1 C :   -0.111922
   2 O :   -0.233272
   3 P :    0.559506
   4 S :   -0.291886
   5 O :   -0.247281
   6 C :   -0.118973
   7 C :   -0.363853
   8 S :    0.061377
   9 C :   -0.481219
  10 S :    0.066892
  11 P :    0.572193
  12 S :   -0.287697
  13 O :   -0.225655
  14 C :   -0.105709
  15 C :   -0.372601
  16 O :   -0.249283
  17 C :   -0.119817
  18 C :   -0.366902
  19 H :    0.131028
  20 H :    0.117281
  21 H :    0.132773
  22 H :    0.112454
  23 H :    0.124607
  24 H :    0.101146
  25 H :    0.116176
  26 H :    0.125498
  27 H :    0.126052
  28 H :    0.126098
  29 H :    0.133532
  30 H :    0.125518
  31 H :    0.124598
  32 H :    0.114556
  33 H :    0.132458
  34 H :    0.115586
  35 H :    0.131609
  36 H :    0.099965
  37 H :    0.116548
  38 H :    0.121840
  39 H :    0.127416
  40 H :    0.127598

  Mayer bond orders larger than 0.100000
B(  0-C ,  1-C ) :   1.1681 B(  0-C , 19-H ) :   0.9410 B(  0-C , 20-H ) :   0.9377
B(  0-C , 21-H ) :   0.9341 B(  1-C ,  2-O ) :   0.9010 B(  1-C , 22-H ) :   0.9249
B(  1-C , 23-H ) :   0.9344 B(  2-O ,  3-P ) :   1.1502 B(  3-P ,  4-S ) :   1.6602
B(  3-P ,  5-O ) :   1.0823 B(  3-P ,  8-S ) :   0.9264 B(  4-S ,  8-S ) :   0.1132
B(  5-O ,  6-C ) :   0.9046 B(  6-C ,  7-C ) :   1.1741 B(  6-C , 24-H ) :   0.9028
B(  6-C , 25-H ) :   0.9348 B(  7-C , 26-H ) :   0.9221 B(  7-C , 27-H ) :   0.9371
B(  7-C , 28-H ) :   0.9433 B(  8-S ,  9-C ) :   1.0042 B(  9-C , 10-S ) :   0.9873
B(  9-C , 29-H ) :   0.9094 B(  9-C , 30-H ) :   0.8445 B( 10-S , 11-P ) :   0.9284
B( 10-S , 12-S ) :   0.1193 B( 11-P , 12-S ) :   1.6465 B( 11-P , 13-O ) :   1.1414
B( 11-P , 16-O ) :   1.0640 B( 12-S , 30-H ) :   0.1085 B( 13-O , 14-C ) :   0.9009
B( 14-C , 15-C ) :   1.1699 B( 14-C , 31-H ) :   0.9324 B( 14-C , 32-H ) :   0.9278
B( 15-C , 33-H ) :   0.9343 B( 15-C , 34-H ) :   0.9335 B( 15-C , 35-H ) :   0.9266
B( 16-O , 17-C ) :   0.9175 B( 17-C , 18-C ) :   1.1642 B( 17-C , 36-H ) :   0.9119
B( 17-C , 37-H ) :   0.9356 B( 18-C , 38-H ) :   0.9300 B( 18-C , 39-H ) :   0.9382
B( 18-C , 40-H ) :   0.9473

Dispersion correction           -0.066462526
FINAL SINGLE POINT ENERGY     -2929.510954647916

DIPOLE MOMENT
-------------

Method             : SCF
Type of density    : Electron Density
Multiplicity       :   1
Irrep              :   0
Energy             : -2929.6296814012534924 Eh
Relativity type    :
Basis              : AO
                                X                 Y                 Z
Electronic contribution:      0.061403256       5.837246085     -13.815879658
Nuclear contribution   :      0.177415209      -7.329944283      15.194830687
                        -----------------------------------------
Total Dipole Moment    :      0.238818465      -1.492698198       1.378951029
                        -----------------------------------------
Magnitude (a.u.)       :      2.046139808
Magnitude (Debye)      :      5.200874071

Rotational constants in cm-1:             0.013220             0.005048             0.004476
Rotational constants in MHz :           396.335771           151.340744           134.184994

                             ****ORCA TERMINATED NORMALLY****
TOTAL RUN TIME: 0 days 0 hours 0 minutes 21 seconds 46 msec
