                         Program Version 6.0.0  -   RELEASE  -
|  1> ! r2scan-3c def2/J RI DEFGRID2 scfconv6 printgap
|  2> %output
|  3>     printlevel normal
|  4> end
|  5> * xyz 0 1
|  6> C -2.5851761308 0.5999232177 -0.0006900436
|  7> C -1.2343707398 -0.0544491605 0.0001838428
|  8> C -1.1492929906 -1.4431541737 0.0001105224
|  9> C 0.074677382 -2.0824494842 0.0001888095
| 10> C 1.2413324302 -1.3398999257 -1.41517e-05
| 11> C 1.1707864832 0.0452983266 7.3953e-05
| 12> C -0.0652830228 0.7031383358 0.0009239596
| 13> C -0.0485377745 2.2031713803 0.0003135401
| 14> O 2.2949806305 0.8205067861 -0.0005410882
| 15> H -2.7140914787 1.217444922 0.8865961165
| 16> H -2.7058072147 1.2325694182 -0.8782415971
| 17> H -3.3678537229 -0.1537995905 -0.0104552292
| 18> H -2.0567294616 -2.0287855442 -0.0003429966
| 19> H 0.1251129818 -3.1608356701 -0.0002120785
| 20> H 2.2029653797 -1.8332525947 -0.0006108324
| 21> H 0.5225455416 2.5610961758 0.8560265914
| 22> H 0.4582416093 2.5622809462 -0.8948168262
| 23> H -1.0458758539 2.6241728004 0.0369298947
| 24> H 3.0855241348 0.2616710659 0.0007216653
| 25> *
| 26>
| 27>                          ****END OF INPUT****

CARTESIAN COORDINATES (ANGSTROEM)
---------------------------------
  C     -2.585176    0.599923   -0.000690
  C     -1.234371   -0.054449    0.000184
  C     -1.149293   -1.443154    0.000111
  C      0.074677   -2.082449    0.000189
  C      1.241332   -1.339900   -0.000014
  C      1.170786    0.045298    0.000074
  C     -0.065283    0.703138    0.000924
  C     -0.048538    2.203171    0.000314
  O      2.294981    0.820507   -0.000541
  H     -2.714091    1.217445    0.886596
  H     -2.705807    1.232569   -0.878242
  H     -3.367854   -0.153800   -0.010455
  H     -2.056729   -2.028786   -0.000343
  H      0.125113   -3.160836   -0.000212
  H      2.202965   -1.833253   -0.000611
  H      0.522546    2.561096    0.856027
  H      0.458242    2.562281   -0.894817
  H     -1.045876    2.624173    0.036930
  H      3.085524    0.261671    0.000722

 Total Charge           Charge          ....    0
 Multiplicity           Mult            ....    1
 Number of Electrons    NEL             ....   66
 Basis Dimension        Dim             ....  226

ORBITAL ENERGIES
----------------

  NO   OCC          E(Eh)            E(eV)
   0   2.0000     -18.983506      -516.5675
   1   2.0000     -10.088953      -274.5344
   2   2.0000     -10.038044      -273.1491
   3   2.0000     -10.033245      -273.0185
   4   2.0000     -10.028416      -272.8871
   5   2.0000     -10.027287      -272.8563
   6   2.0000     -10.024813      -272.7890
   7   2.0000     -10.019967      -272.6572
   8   2.0000     -10.018499      -272.6172
   9   2.0000      -1.026371       -27.9290
  10   2.0000      -0.823137       -22.3987
  11   2.0000      -0.745427       -20.2841
  12   2.0000      -0.724312       -19.7095
  13   2.0000      -0.662145       -18.0179
  14   2.0000      -0.640055       -17.4168
  15   2.0000      -0.580265       -15.7898
  16   2.0000      -0.548434       -14.9236
  17   2.0000      -0.492923       -13.4131
  18   2.0000      -0.455621       -12.3981
  19   2.0000      -0.447943       -12.1892
  20   2.0000      -0.406229       -11.0540
  21   2.0000      -0.394629       -10.7384
  22   2.0000      -0.378251       -10.2927
  23   2.0000      -0.372261       -10.1297
  24   2.0000      -0.365292        -9.9401
  25   2.0000      -0.356724        -9.7069
  26   2.0000      -0.353832        -9.6283
  27   2.0000      -0.339930        -9.2500
  28   2.0000      -0.313619        -8.5340
  29   2.0000      -0.300661        -8.1814
  30   2.0000      -0.296343        -8.0639
  31   2.0000      -0.217773        -5.9259
  32   2.0000      -0.198074        -5.3899
  33   0.0000      -0.022843        -0.6216
  34   0.0000      -0.009458        -0.2574
  35   0.0000       0.056181         1.5287
  36   0.0000       0.084936         2.3112
  37   0.0000       0.094873         2.5816

MULLIKEN ATOMIC CHARGES
-----------------------
   0 C :   -0.586280
   1 C :    0.227014
   2 C :   -0.284583
   3 C :   -0.129608
   4 C :   -0.368997
   5 C :    0.445202
   6 C :   -0.045808
   7 C :   -0.557764
   8 O :   -0.409696
   9 H :    0.168541
  10 H :    0.168381
  11 H :    0.150439
  12 H :    0.144216
  13 H :    0.144383
  14 H :    0.133350
  15 H :    0.169355
  16 H :    0.170702
  17 H :    0.152332
  18 H :    0.308821
Sum of atomic charges:   -0.0000000

LOEWDIN ATOMIC CHARGES
----------------------
   0 C :   -0.391960
   1 C :   -0.086349
   2 C :   -0.189437
   3 C :   -0.158349
   4 C :   -0.178727
   5 C :    0.189524
   6 C :   -0.074403
   7 C :   -0.372608
   8 O :   -0.509791
   9 H :    0.163694
  10 H :    0.163703
  11 H :    0.159599
  12 H :    0.165969
  13 H :    0.166971
  14 H :    0.166734
  15 H :    0.171962
  16 H :    0.171342
  17 H :    0.158339
  18 H :    0.283787

  Mayer bond orders larger than 0.100000
B(  0-C ,  1-C ) :   0.7591 B(  0-C ,  9-H ) :   0.9813 B(  0-C , 10-H ) :   0.9808
B(  0-C , 11-H ) :   0.9886 B(  1-C ,  2-C ) :   1.3641 B(  1-C ,  6-C ) :   1.4698
B(  2-C ,  3-C ) :   1.4628 B(  2-C , 12-H ) :   0.9224 B(  3-C ,  4-C ) :   1.3960
B(  3-C , 13-H ) :   0.9406 B(  4-C ,  5-C ) :   1.2809 B(  4-C , 14-H ) :   0.9525
B(  5-C ,  6-C ) :   1.4911 B(  5-C ,  8-O ) :   0.9009 B(  6-C ,  7-C ) :   0.8183
B(  7-C , 15-H ) :   0.9827 B(  7-C , 16-H ) :   0.9816 B(  7-C , 17-H ) :   0.9763
B(  8-O , 18-H ) :   0.8838

Dispersion correction           -0.006323650
FINAL SINGLE POINT ENERGY      -386.004547888195

DIPOLE MOMENT
-------------

Method             : SCF
Type of density    : Electron Density
Multiplicity       :   1
Irrep              :   0
Energy             :  -386.0056262113462822 Eh
Relativity type    :
Basis              : AO
                                X                 Y                 Z
Electronic contribution:      5.336597617      -3.233909820       0.003441958
Nuclear contribution   :     -5.122133609       3.091756902      -0.004140926
                        -----------------------------------------
Total Dipole Moment    :      0.214464008      -0.142152918      -0.000698969
                        -----------------------------------------
Magnitude (a.u.)       :      0.257298953
Magnitude (Debye)      :      0.654001964

Rotational constants in cm-1:             0.075972             0.059418             0.033758
Rotational constants in MHz :          2277.582274          1781.298900          1012.028372

                             ****ORCA TERMINATED NORMALLY****
TOTAL RUN TIME: 0 days 0 hours 0 minutes 23 seconds 779 msec
