                         Program Version 6.0.0  -   RELEASE  -
|  1> ! r2scan-3c def2/J RI DEFGRID2 scfconv6 printgap
|  2> %output
|  3>     printlevel normal
|  4> end
|  5> %cpcm
|  6>     smd true
|  7>     smdsolvent "water"
|  8> end
|  9> * xyz 0 1
| 10> C -2.5851761308 0.5999232177 -0.0006900436
| 11> C -1.2343707398 -0.0544491605 0.0001838428
| 12> C -1.1492929906 -1.4431541737 0.0001105224
| 13> C 0.074677382 -2.0824494842 0.0001888095
| 14> C 1.2413324302 -1.3398999257 -1.41517e-05
| 15> C 1.1707864832 0.0452983266 7.3953e-05
| 16> C -0.0652830228 0.7031383358 0.0009239596
| 17> C -0.0485377745 2.2031713803 0.0003135401
| 18> O 2.2949806305 0.8205067861 -0.0005410882
| 19> H -2.7140914787 1.217444922 0.8865961165
| 20> H -2.7058072147 1.2325694182 -0.8782415971
| 21> H -3.3678537229 -0.1537995905 -0.0104552292
| 22> H -2.0567294616 -2.0287855442 -0.0003429966
| 23> H 0.1251129818 -3.1608356701 -0.0002120785
| 24> H 2.2029653797 -1.8332525947 -0.0006108324
| 25> H 0.5225455416 2.5610961758 0.8560265914
| 26> H 0.4582416093 2.5622809462 -0.8948168262
| 27> H -1.0458758539 2.6241728004 0.0369298947
| 28> H 3.0855241348 0.2616710659 0.0007216653
| 29> *
| 30>
| 31>                          ****END OF INPUT****

CARTESIAN COORDINATES (ANGSTROEM)
---------------------------------
  C     -2.585176    0.599923   -0.000690
  C     -1.234371   -0.054449    0.000184
  C     -1.149293   -1.443154    0.000111
  C      0.074677   -2.082449    0.000189
  C      1.241332   -1.339900   -0.000014
  C      1.170786    0.045298    0.000074
  C     -0.065283    0.703138    0.000924
  C     -0.048538    2.203171    0.000314
  O      2.294981    0.820507   -0.000541
  H     -2.714091    1.217445    0.886596
  H     -2.705807    1.232569   -0.878242
  H     -3.367854   -0.153800   -0.010455
  H     -2.056729   -2.028786   -0.000343
  H      0.125113   -3.160836   -0.000212
  H      2.202965   -1.833253   -0.000611
  H      0.522546    2.561096    0.856027
  H      0.458242    2.562281   -0.894817
  H     -1.045876    2.624173    0.036930
  H      3.085524    0.261671    0.000722

 Total Charge           Charge          ....    0
 Multiplicity           Mult            ....    1
 Number of Electrons    NEL             ....   66
 Basis Dimension        Dim             ....  226

ORBITAL ENERGIES
----------------

  NO   OCC          E(Eh)            E(eV)
   0   2.0000     -18.980807      -516.4940
   1   2.0000     -10.090052      -274.5643
   2   2.0000     -10.039202      -273.1806
   3   2.0000     -10.034950      -273.0649
   4   2.0000     -10.028278      -272.8833
   5   2.0000     -10.025089      -272.7965
   6   2.0000     -10.019008      -272.6311
   7   2.0000     -10.017292      -272.5844
   8   2.0000     -10.017046      -272.5777
   9   2.0000      -1.023682       -27.8558
  10   2.0000      -0.824882       -22.4462
  11   2.0000      -0.744946       -20.2710
  12   2.0000      -0.723517       -19.6879
  13   2.0000      -0.660068       -17.9614
  14   2.0000      -0.637880       -17.3576
  15   2.0000      -0.577120       -15.7042
  16   2.0000      -0.547174       -14.8894
  17   2.0000      -0.489336       -13.3155
  18   2.0000      -0.455139       -12.3850
  19   2.0000      -0.444729       -12.1017
  20   2.0000      -0.406340       -11.0571
  21   2.0000      -0.390705       -10.6316
  22   2.0000      -0.373901       -10.1744
  23   2.0000      -0.369290       -10.0489
  24   2.0000      -0.363576        -9.8934
  25   2.0000      -0.353863        -9.6291
  26   2.0000      -0.353627        -9.6227
  27   2.0000      -0.335853        -9.1390
  28   2.0000      -0.311594        -8.4789
  29   2.0000      -0.304033        -8.2732
  30   2.0000      -0.294367        -8.0101
  31   2.0000      -0.220507        -6.0003
  32   2.0000      -0.201885        -5.4936
  33   0.0000      -0.025077        -0.6824
  34   0.0000      -0.012896        -0.3509
  35   0.0000       0.074704         2.0328
  36   0.0000       0.093166         2.5352
  37   0.0000       0.107199         2.9170

MULLIKEN ATOMIC CHARGES
-----------------------
   0 C :   -0.595236
   1 C :    0.171063
   2 C :   -0.315261
   3 C :   -0.164313
   4 C :   -0.362826
   5 C :    0.376487
   6 C :   -0.040149
   7 C :   -0.590707
   8 O :   -0.449777
   9 H :    0.184227
  10 H :    0.183770
  11 H :    0.169613
  12 H :    0.174328
  13 H :    0.175953
  14 H :    0.179451
  15 H :    0.179495
  16 H :    0.182452
  17 H :    0.174214
  18 H :    0.367216
Sum of atomic charges:    0.0000000

LOEWDIN ATOMIC CHARGES
----------------------
   0 C :   -0.396346
   1 C :   -0.095618
   2 C :   -0.206683
   3 C :   -0.174950
   4 C :   -0.179969
   5 C :    0.178654
   6 C :   -0.084180
   7 C :   -0.378455
   8 O :   -0.524061
   9 H :    0.170173
  10 H :    0.170056
  11 H :    0.165251
  12 H :    0.175898
  13 H :    0.177166
  14 H :    0.184268
  15 H :    0.173632
  16 H :    0.173562
  17 H :    0.166644
  18 H :    0.304957

  Mayer bond orders larger than 0.100000
B(  0-C ,  1-C ) :   0.7933 B(  0-C ,  9-H ) :   0.9718 B(  0-C , 10-H ) :   0.9714
B(  0-C , 11-H ) :   0.9833 B(  1-C ,  2-C ) :   1.3403 B(  1-C ,  6-C ) :   1.4213
B(  2-C ,  3-C ) :   1.4050 B(  2-C , 12-H ) :   0.9441 B(  3-C ,  4-C ) :   1.3421
B(  3-C , 13-H ) :   0.9594 B(  4-C ,  5-C ) :   1.2878 B(  4-C , 14-H ) :   0.9679
B(  5-C ,  6-C ) :   1.4429 B(  5-C ,  8-O ) :   0.9215 B(  6-C ,  7-C ) :   0.8165
B(  7-C , 15-H ) :   0.9807 B(  7-C , 16-H ) :   0.9793 B(  7-C , 17-H ) :   0.9695
B(  8-O , 18-H ) :   0.8533

Dispersion correction           -0.006323650
FINAL SINGLE POINT ENERGY      -386.012644406112

DIPOLE MOMENT
-------------

Method             : SCF
Type of density    : Electron Density
Multiplicity       :   1
Irrep              :   0
Energy             :  -386.0137227292626108 Eh
Relativity type    :
Basis              : AO
                                X                 Y                 Z
Electronic contribution:      5.419965562      -3.307717000       0.003364077
Nuclear contribution   :     -5.122133609       3.091756902      -0.004140926
                        -----------------------------------------
Total Dipole Moment    :      0.297831952      -0.215960098      -0.000776849
                        -----------------------------------------
Magnitude (a.u.)       :      0.367890255
Magnitude (Debye)      :      0.935102713

Rotational constants in cm-1:             0.075972             0.059418             0.033758
Rotational constants in MHz :          2277.582274          1781.298900          1012.028372

                             ****ORCA TERMINATED NORMALLY****
TOTAL RUN TIME: 0 days 0 hours 0 minutes 28 seconds 48 msec
