                         Program Version 6.0.0  -   RELEASE  -
|  1> ! pbe def2-sv(p) def2/J RI DEFGRID1 loosescf d4 GCP(DFT/SV(P)) printgap
|  2> %output
|  3>     printlevel normal
|  4> end
|  5> * xyz 0 1
|  6> C 2.7936981262 2.6470429511 -0.400564611
|  7> C 2.358484615 1.5144420809 -1.3087439058
|  8> O 1.4890577907 0.5851022753 -0.6285061874
|  9> P 1.963399769 -0.5322503847 0.3872130758
| 10> S 2.6543681668 0.0290825658 2.1394243583
| 11> O 3.0036431307 -1.3484988534 -0.4926286881
| 12> C 3.9280610336 -2.2846541125 0.0911353303
| 13> C 3.2260368367 -3.5259548351 0.6014545145
| 14> S 0.2088304488 -1.7008158768 0.4365456164
| 15> C -0.6106877234 -0.7763272997 1.7625077486
| 16> S -0.9756234358 0.9456433613 1.3187295524
| 17> P -2.0919688533 0.6283658921 -0.458030705
| 18> S -1.256229999 0.3071955914 -2.2072118414
| 19> O -3.0520702004 1.9003815798 -0.4746841991
| 20> C -2.6950378969 3.1120376189 -1.1586989596
| 21> C -1.4808485596 3.76992514 -0.5349583427
| 22> O -3.068628081 -0.4988866381 0.0645205615
| 23> C -3.6459270274 -1.5283700881 -0.7699566504
| 24> C -3.3191959293 -2.8877483712 -0.1844076346
| 25> H 3.4207030319 2.269493545 0.4048351994
| 26> H 3.3564906139 3.3723124255 -0.9794873948
| 27> H 1.9257952925 3.1329902947 0.0393148513
| 28> H 3.2172072001 0.9661215469 -1.7028074055
| 29> H 1.7437146439 1.8736443647 -2.1374824483
| 30> H 4.61741644 -2.5144183504 -0.722298234
| 31> H 4.4611649635 -1.7812393786 0.9041802188
| 32> H 2.5906738897 -3.2714619472 1.4488338207
| 33> H 2.6084862649 -3.9588728853 -0.1815692237
| 34> H 3.966498678 -4.251895161 0.9213896252
| 35> H 0.0486117531 -0.7236023103 2.6297614282
| 36> H -1.5334738589 -1.301575322 1.9947291878
| 37> H -2.5039135462 2.8709304416 -2.2097259846
| 38> H -3.5848011739 3.7369550461 -1.0748647332
| 39> H -1.2769506437 4.7114060498 -1.0346788439
| 40> H -1.6474620091 3.9472941297 0.5249151842
| 41> H -0.6165013472 3.1136831049 -0.6456584473
| 42> H -4.7215443585 -1.343551207 -0.7815749727
| 43> H -3.2462883581 -1.428884985 -1.7847877526
| 44> H -3.7803813554 -3.6560405806 -0.7962677952
| 45> H -2.2415711414 -3.0419826284 -0.1707162911
| 46> H -3.701166072 -2.9610698868 0.8299052051
| 47> *
| 48>
| 49>                          ****END OF INPUT****

CARTESIAN COORDINATES (ANGSTROEM)
---------------------------------
  C      2.793698    2.647043   -0.400565
  C      2.358485    1.514442   -1.308744
  O      1.489058    0.585102   -0.628506
  P      1.963400   -0.532250    0.387213
  S      2.654368    0.029083    2.139424
  O      3.003643   -1.348499   -0.492629
  C      3.928061   -2.284654    0.091135
  C      3.226037   -3.525955    0.601455
  S      0.208830   -1.700816    0.436546
  C     -0.610688   -0.776327    1.762508
  S     -0.975623    0.945643    1.318730
  P     -2.091969    0.628366   -0.458031
  S     -1.256230    0.307196   -2.207212
  O     -3.052070    1.900382   -0.474684
  C     -2.695038    3.112038   -1.158699
  C     -1.480849    3.769925   -0.534958
  O     -3.068628   -0.498887    0.064521
  C     -3.645927   -1.528370   -0.769957
  C     -3.319196   -2.887748   -0.184408
  H      3.420703    2.269494    0.404835
  H      3.356491    3.372312   -0.979487
  H      1.925795    3.132990    0.039315
  H      3.217207    0.966122   -1.702807
  H      1.743715    1.873644   -2.137482
  H      4.617416   -2.514418   -0.722298
  H      4.461165   -1.781239    0.904180
  H      2.590674   -3.271462    1.448834
  H      2.608486   -3.958873   -0.181569
  H      3.966499   -4.251895    0.921390
  H      0.048612   -0.723602    2.629761
  H     -1.533474   -1.301575    1.994729
  H     -2.503914    2.870930   -2.209726
  H     -3.584801    3.736955   -1.074865
  H     -1.276951    4.711406   -1.034679
  H     -1.647462    3.947294    0.524915
  H     -0.616501    3.113683   -0.645658
  H     -4.721544   -1.343551   -0.781575
  H     -3.246288   -1.428885   -1.784788
  H     -3.780381   -3.656041   -0.796268
  H     -2.241571   -3.041983   -0.170716
  H     -3.701166   -2.961070    0.829905

 Total Charge           Charge          ....    0
 Multiplicity           Mult            ....    1
 Number of Electrons    NEL             ....  202
 Basis Dimension        Dim             ....  334

ORBITAL ENERGIES
----------------

  NO   OCC          E(Eh)            E(eV)
   0   2.0000     -88.042512     -2395.7585
   1   2.0000     -88.036856     -2395.6046
   2   2.0000     -87.985994     -2394.2206
   3   2.0000     -87.980639     -2394.0749
   4   2.0000     -76.426027     -2079.6579
   5   2.0000     -76.422683     -2079.5669
   6   2.0000     -18.795900      -511.4624
   7   2.0000     -18.791605      -511.3456
   8   2.0000     -18.784893      -511.1629
   9   2.0000     -18.782596      -511.1004
  10   2.0000      -9.955372      -270.8995
  11   2.0000      -9.952965      -270.8339
  12   2.0000      -9.951253      -270.7874
  13   2.0000      -9.948669      -270.7171
  14   2.0000      -9.947701      -270.6907
  15   2.0000      -9.887725      -269.0587
  16   2.0000      -9.884809      -268.9793
  17   2.0000      -9.884769      -268.9782
  18   2.0000      -9.876756      -268.7602
  19   2.0000      -7.687372      -209.1840
  20   2.0000      -7.681958      -209.0367
  21   2.0000      -7.630960      -207.6490
  22   2.0000      -7.625609      -207.5034
  23   2.0000      -6.423387      -174.7892
  24   2.0000      -6.420027      -174.6978
  25   2.0000      -5.715255      -155.5200
  26   2.0000      -5.712049      -155.4328
  27   2.0000      -5.710147      -155.3810
  28   2.0000      -5.706510      -155.2820
  29   2.0000      -5.704143      -155.2176
  30   2.0000      -5.698552      -155.0655
  31   2.0000      -5.659748      -154.0096
  32   2.0000      -5.654444      -153.8653
  33   2.0000      -5.651770      -153.7925
  34   2.0000      -5.651082      -153.7738
  35   2.0000      -5.646408      -153.6466
  36   2.0000      -5.645672      -153.6266
  37   2.0000      -4.646266      -126.4313
  38   2.0000      -4.644901      -126.3942
  39   2.0000      -4.643838      -126.3652
  40   2.0000      -4.642733      -126.3352
  41   2.0000      -4.641829      -126.3106
  42   2.0000      -4.640333      -126.2699
  43   2.0000      -0.985950       -26.8291
  44   2.0000      -0.983117       -26.7520
  45   2.0000      -0.943235       -25.6667
  46   2.0000      -0.941622       -25.6228
  47   2.0000      -0.763917       -20.7872
  48   2.0000      -0.719958       -19.5911
  49   2.0000      -0.707149       -19.2425
  50   2.0000      -0.686148       -18.6710
  51   2.0000      -0.684994       -18.6396
  52   2.0000      -0.670902       -18.2562
  53   2.0000      -0.649339       -17.6694
  54   2.0000      -0.637261       -17.3408
  55   2.0000      -0.599061       -16.3013
  56   2.0000      -0.590286       -16.0625
  57   2.0000      -0.574791       -15.6409
  58   2.0000      -0.571471       -15.5505
  59   2.0000      -0.557236       -15.1632
  60   2.0000      -0.499636       -13.5958
  61   2.0000      -0.496725       -13.5166
  62   2.0000      -0.469294       -12.7701
  63   2.0000      -0.468589       -12.7509
  64   2.0000      -0.459246       -12.4967
  65   2.0000      -0.439542       -11.9605
  66   2.0000      -0.437473       -11.9042
  67   2.0000      -0.431934       -11.7535
  68   2.0000      -0.426277       -11.5996
  69   2.0000      -0.415913       -11.3176
  70   2.0000      -0.410583       -11.1725
  71   2.0000      -0.401463       -10.9244
  72   2.0000      -0.389650       -10.6029
  73   2.0000      -0.387789       -10.5523
  74   2.0000      -0.376179       -10.2363
  75   2.0000      -0.372355       -10.1323
  76   2.0000      -0.368978       -10.0404
  77   2.0000      -0.358156        -9.7459
  78   2.0000      -0.354719        -9.6524
  79   2.0000      -0.351854        -9.5744
  80   2.0000      -0.347908        -9.4671
  81   2.0000      -0.341633        -9.2963
  82   2.0000      -0.341375        -9.2893
  83   2.0000      -0.338011        -9.1978
  84   2.0000      -0.331676        -9.0254
  85   2.0000      -0.321360        -8.7447
  86   2.0000      -0.304029        -8.2731
  87   2.0000      -0.296327        -8.0635
  88   2.0000      -0.294398        -8.0110
  89   2.0000      -0.286163        -7.7869
  90   2.0000      -0.282341        -7.6829
  91   2.0000      -0.274335        -7.4650
  92   2.0000      -0.269528        -7.3342
  93   2.0000      -0.260535        -7.0895
  94   2.0000      -0.257594        -7.0095
  95   2.0000      -0.237970        -6.4755
  96   2.0000      -0.214608        -5.8398
  97   2.0000      -0.208034        -5.6609
  98   2.0000      -0.200854        -5.4655
  99   2.0000      -0.194133        -5.2826
 100   2.0000      -0.189023        -5.1436
 101   0.0000      -0.048825        -1.3286
 102   0.0000      -0.026476        -0.7204
 103   0.0000      -0.013074        -0.3558
 104   0.0000      -0.000248        -0.0068
 105   0.0000       0.020975         0.5708

MULLIKEN ATOMIC CHARGES
-----------------------
   0 C :   -0.314219
   1 C :   -0.000358
   2 O :   -0.350045
   3 P :    0.643828
   4 S :   -0.340462
   5 O :   -0.375971
   6 C :   -0.005515
   7 C :   -0.315763
   8 S :   -0.092156
   9 C :   -0.353206
  10 S :   -0.086852
  11 P :    0.608536
  12 S :   -0.319484
  13 O :   -0.367902
  14 C :    0.006996
  15 C :   -0.359851
  16 O :   -0.375252
  17 C :   -0.003487
  18 C :   -0.308873
  19 H :    0.124987
  20 H :    0.104915
  21 H :    0.126241
  22 H :    0.102718
  23 H :    0.109563
  24 H :    0.105233
  25 H :    0.112547
  26 H :    0.125588
  27 H :    0.118596
  28 H :    0.113787
  29 H :    0.192387
  30 H :    0.189083
  31 H :    0.107133
  32 H :    0.104816
  33 H :    0.114801
  34 H :    0.125321
  35 H :    0.153504
  36 H :    0.106215
  37 H :    0.111994
  38 H :    0.113587
  39 H :    0.130321
  40 H :    0.116701
Sum of atomic charges:   -0.0000000

LOEWDIN ATOMIC CHARGES
----------------------
   0 C :   -0.365977
   1 C :   -0.110541
   2 O :   -0.232068
   3 P :    0.576035
   4 S :   -0.324252
   5 O :   -0.241846
   6 C :   -0.120373
   7 C :   -0.369111
   8 S :    0.096989
   9 C :   -0.477730
  10 S :    0.090393
  11 P :    0.569232
  12 S :   -0.310645
  13 O :   -0.248179
  14 C :   -0.120852
  15 C :   -0.374714
  16 O :   -0.243538
  17 C :   -0.116270
  18 C :   -0.358763
  19 H :    0.121969
  20 H :    0.126867
  21 H :    0.127157
  22 H :    0.110056
  23 H :    0.117687
  24 H :    0.118526
  25 H :    0.110348
  26 H :    0.120756
  27 H :    0.125110
  28 H :    0.131582
  29 H :    0.130553
  30 H :    0.132643
  31 H :    0.108192
  32 H :    0.118688
  33 H :    0.131721
  34 H :    0.126267
  35 H :    0.122057
  36 H :    0.117231
  37 H :    0.108141
  38 H :    0.132207
  39 H :    0.120268
  40 H :    0.124182

  Mayer bond orders larger than 0.100000
B(  0-C ,  1-C ) :   1.1665 B(  0-C , 19-H ) :   0.9330 B(  0-C , 20-H ) :   0.9383
B(  0-C , 21-H ) :   0.9451 B(  1-C ,  2-O ) :   0.9054 B(  1-C , 22-H ) :   0.9280
B(  1-C , 23-H ) :   0.9267 B(  2-O ,  3-P ) :   1.1404 B(  3-P ,  4-S ) :   1.6005
B(  3-P ,  5-O ) :   1.1015 B(  3-P ,  8-S ) :   0.9431 B(  4-S ,  8-S ) :   0.1118
B(  5-O ,  6-C ) :   0.9056 B(  6-C ,  7-C ) :   1.1656 B(  6-C , 24-H ) :   0.9328
B(  6-C , 25-H ) :   0.9129 B(  7-C , 26-H ) :   0.9343 B(  7-C , 27-H ) :   0.9455
B(  7-C , 28-H ) :   0.9381 B(  8-S ,  9-C ) :   1.0124 B(  9-C , 10-S ) :   1.0045
B(  9-C , 29-H ) :   0.8808 B(  9-C , 30-H ) :   0.8988 B( 10-S , 11-P ) :   0.9554
B( 10-S , 12-S ) :   0.1104 B( 11-P , 12-S ) :   1.6134 B( 11-P , 13-O ) :   1.1069
B( 11-P , 16-O ) :   1.1168 B( 13-O , 14-C ) :   0.9153 B( 14-C , 15-C ) :   1.1592
B( 14-C , 31-H ) :   0.9131 B( 14-C , 32-H ) :   0.9325 B( 15-C , 33-H ) :   0.9379
B( 15-C , 34-H ) :   0.9424 B( 15-C , 35-H ) :   0.9218 B( 16-O , 17-C ) :   0.8974
B( 17-C , 18-C ) :   1.1657 B( 17-C , 36-H ) :   0.9332 B( 17-C , 37-H ) :   0.8998
B( 18-C , 38-H ) :   0.9396 B( 18-C , 39-H ) :   0.9379 B( 18-C , 40-H ) :   0.9474

Dispersion correction           -0.067800866
FINAL SINGLE POINT ENERGY     -2929.516991354094

DIPOLE MOMENT
-------------

Method             : SCF
Type of density    : Electron Density
Multiplicity       :   1
Irrep              :   0
Energy             : -2929.6337612415763942 Eh
Relativity type    :
Basis              : AO
                                X                 Y                 Z
Electronic contribution:     -3.106322239      -0.017355595       3.849860255
Nuclear contribution   :      2.983364597      -0.289243025      -4.252591762
                        -----------------------------------------
Total Dipole Moment    :     -0.122957642      -0.306598621      -0.402731506
                        -----------------------------------------
Magnitude (a.u.)       :      0.520878068
Magnitude (Debye)      :      1.323966832

Rotational constants in cm-1:             0.011195             0.006122             0.004964
Rotational constants in MHz :           335.615368           183.539834           148.822320

                             ****ORCA TERMINATED NORMALLY****
TOTAL RUN TIME: 0 days 0 hours 0 minutes 21 seconds 534 msec
