                         Program Version 6.0.0  -   RELEASE  -
|  1> ! wb97x-v def2-tzvp def2/J RIJCOSX DEFGRID2 scfconv7 GCP(DFT/TZ) printgap
|  2> %output
|  3>     printlevel normal
|  4> end
|  5> * xyz 0 1
|  6> C 0.8803705756055691 1.3791500287185774 -0.6450899684007859
|  7> C 1.5947561327892612 0.1682420195338698 -0.08106003782272864
|  8> H 2.5654421740362077 0.06169796903522881 -0.587407574370899
|  9> C 0.7641823374012124 -1.1069010599100542 -0.3062960234075237
| 10> H 1.1985081288942963 -1.93133675279662 0.27845319072528896
| 11> C -0.6877893921871989 -0.9006848586989933 0.14102980512029095
| 12> H -1.29359825172522 -1.7449388491053368 -0.20538317291726588
| 13> C -1.2673622205175927 0.3889510436039864 -0.44954218733032913
| 14> H -1.3415674196193232 0.3223982533964529 -1.5437528816708803
| 15> O -0.4425563104940221 1.509740783281698 -0.09542941440352883
| 16> O -2.5548101080900683 0.6428036537212801 0.04714869578936154
| 17> O -0.7937122030753405 -0.8696338147813706 1.5678123778009372
| 18> O 0.7212682402357606 -1.4380762837411523 -1.697898898802547
| 19> O 1.78359591544471 0.3950662517463146 1.329642060701173
| 20> H 0.8294952822965252 1.297241720001096 -1.7398740392982484
| 21> H 1.4155468851003226 2.295123961169663 -0.38338455216503703
| 22> H -2.5342946166137854 0.4247698757308276 0.9933511328704395
| 23> H -0.09320176921754184 -0.2739662851113362 1.885043709641964
| 24> H 1.6282292287002227 -1.6088148840131948 -1.9864499240668894
| 25> H 2.2983623747251816 -0.3452797456266956 1.6798197000501602
| 26> *
| 27>
| 28>                          ****END OF INPUT****

CARTESIAN COORDINATES (ANGSTROEM)
---------------------------------
  C      0.880371    1.379150   -0.645090
  C      1.594756    0.168242   -0.081060
  H      2.565442    0.061698   -0.587408
  C      0.764182   -1.106901   -0.306296
  H      1.198508   -1.931337    0.278453
  C     -0.687789   -0.900685    0.141030
  H     -1.293598   -1.744939   -0.205383
  C     -1.267362    0.388951   -0.449542
  H     -1.341567    0.322398   -1.543753
  O     -0.442556    1.509741   -0.095429
  O     -2.554810    0.642804    0.047149
  O     -0.793712   -0.869634    1.567812
  O      0.721268   -1.438076   -1.697899
  O      1.783596    0.395066    1.329642
  H      0.829495    1.297242   -1.739874
  H      1.415547    2.295124   -0.383385
  H     -2.534295    0.424770    0.993351
  H     -0.093202   -0.273966    1.885044
  H      1.628229   -1.608815   -1.986450
  H      2.298362   -0.345280    1.679820

 Total Charge           Charge          ....    0
 Multiplicity           Mult            ....    1
 Number of Electrons    NEL             ....   80
 Basis Dimension        Dim             ....  370

ORBITAL ENERGIES
----------------

  NO   OCC          E(Eh)            E(eV)
   0   2.0000     -21.707062      -590.6792
   1   2.0000     -21.701605      -590.5307
   2   2.0000     -21.680055      -589.9443
   3   2.0000     -21.678551      -589.9034
   4   2.0000     -21.671030      -589.6987
   5   2.0000     -12.142477      -330.4136
   6   2.0000     -12.125130      -329.9416
   7   2.0000     -12.123186      -329.8887
   8   2.0000     -12.107151      -329.4523
   9   2.0000     -12.104579      -329.3823
  10   2.0000      -1.712017       -46.5864
  11   2.0000      -1.703702       -46.3601
  12   2.0000      -1.702341       -46.3230
  13   2.0000      -1.681258       -45.7494
  14   2.0000      -1.662534       -45.2398
  15   2.0000      -1.338028       -36.4096
  16   2.0000      -1.301271       -35.4094
  17   2.0000      -1.204533       -32.7770
  18   2.0000      -1.191869       -32.4324
  19   2.0000      -1.137557       -30.9545
  20   2.0000      -1.088523       -29.6202
  21   2.0000      -1.075028       -29.2530
  22   2.0000      -1.061190       -28.8765
  23   2.0000      -1.022041       -27.8112
  24   2.0000      -1.009951       -27.4822
  25   2.0000      -1.002491       -27.2792
  26   2.0000      -0.993381       -27.0313
  27   2.0000      -0.974145       -26.5078
  28   2.0000      -0.964248       -26.2385
  29   2.0000      -0.955952       -26.0128
  30   2.0000      -0.939383       -25.5619
  31   2.0000      -0.931542       -25.3485
  32   2.0000      -0.915045       -24.8996
  33   2.0000      -0.897121       -24.4119
  34   2.0000      -0.877778       -23.8856
  35   2.0000      -0.865875       -23.5616
  36   2.0000      -0.846385       -23.0313
  37   2.0000      -0.824370       -22.4322
  38   2.0000      -0.804345       -21.8873
  39   2.0000      -0.781354       -21.2617
  40   0.0000      -0.241361        -6.5678
  41   0.0000      -0.181695        -4.9442
  42   0.0000      -0.173389        -4.7182
  43   0.0000      -0.136619        -3.7176
  44   0.0000      -0.103587        -2.8187

MULLIKEN ATOMIC CHARGES
-----------------------
   0 C :   -0.017549
   1 C :   -0.015907
   2 H :    0.094762
   3 C :   -0.026786
   4 H :    0.096104
   5 C :    0.151294
   6 H :    0.109499
   7 C :    0.059669
   8 H :    0.089078
   9 O :   -0.247123
  10 O :   -0.411254
  11 O :   -0.471511
  12 O :   -0.426475
  13 O :   -0.454739
  14 H :    0.098131
  15 H :    0.122826
  16 H :    0.317749
  17 H :    0.320163
  18 H :    0.302268
  19 H :    0.309802
Sum of atomic charges:    0.0000000

LOEWDIN ATOMIC CHARGES
----------------------
   0 C :   -0.278645
   1 C :   -0.336585
   2 H :    0.135136
   3 C :   -0.316984
   4 H :    0.134648
   5 C :   -0.308649
   6 H :    0.152679
   7 C :   -0.406978
   8 H :    0.133697
   9 O :    0.158257
  10 O :    0.009048
  11 O :   -0.018831
  12 O :   -0.002459
  13 O :   -0.012872
  14 H :    0.128906
  15 H :    0.134963
  16 H :    0.178379
  17 H :    0.170530
  18 H :    0.172953
  19 H :    0.172809

  Mayer bond orders larger than 0.100000
B(  0-C ,  1-C ) :   0.9704 B(  0-C ,  9-O ) :   0.9987 B(  0-C , 14-H ) :   0.9695
B(  0-C , 15-H ) :   0.9661 B(  1-C ,  2-H ) :   0.9764 B(  1-C ,  3-C ) :   0.9800
B(  1-C , 13-O ) :   1.0052 B(  3-C ,  4-H ) :   0.9879 B(  3-C ,  5-C ) :   0.9478
B(  3-C , 12-O ) :   1.1095 B(  5-C ,  6-H ) :   0.9562 B(  5-C ,  7-C ) :   0.9898
B(  5-C , 11-O ) :   1.0018 B(  7-C ,  8-H ) :   0.9860 B(  7-C ,  9-O ) :   1.0105
B(  7-C , 10-O ) :   1.1716 B( 10-O , 16-H ) :   0.8697 B( 11-O , 17-H ) :   0.8589
B( 12-O , 18-H ) :   0.8973 B( 13-O , 19-H ) :   0.8937

FINAL SINGLE POINT ENERGY      -572.703062091847

DIPOLE MOMENT
-------------

Method             : SCF
Type of density    : Electron Density
Multiplicity       :   1
Irrep              :   0
Energy             :  -572.7192607382464757 Eh
Relativity type    :
Basis              : AO
                                X                 Y                 Z
Electronic contribution:     -2.376040228       0.681909515       1.253838187
Nuclear contribution   :      4.392956663      -1.499047792      -1.536539782
                        -----------------------------------------
Total Dipole Moment    :      2.016916435      -0.817138276      -0.282701595
                        -----------------------------------------
Magnitude (a.u.)       :      2.194444590
Magnitude (Debye)      :      5.577834870

Rotational constants in cm-1:             0.057717             0.040451             0.038233
Rotational constants in MHz :          1730.302038          1212.689480          1146.197644

                             ****ORCA TERMINATED NORMALLY****
TOTAL RUN TIME: 0 days 0 hours 3 minutes 53 seconds 685 msec
