                         Program Version 6.0.0  -   RELEASE  -
|  1> ! wb97x-v def2-tzvp def2/J RIJCOSX DEFGRID2 scfconv7 GCP(DFT/TZ) printgap
|  2> %output
|  3>     printlevel normal
|  4> end
|  5> %cpcm
|  6>     smd true
|  7>     smdsolvent "water"
|  8> end
|  9> * xyz 0 1
| 10> C 0.8803705756055691 1.3791500287185774 -0.6450899684007859
| 11> C 1.5947561327892612 0.1682420195338698 -0.08106003782272864
| 12> H 2.5654421740362077 0.06169796903522881 -0.587407574370899
| 13> C 0.7641823374012124 -1.1069010599100542 -0.3062960234075237
| 14> H 1.1985081288942963 -1.93133675279662 0.27845319072528896
| 15> C -0.6877893921871989 -0.9006848586989933 0.14102980512029095
| 16> H -1.29359825172522 -1.7449388491053368 -0.20538317291726588
| 17> C -1.2673622205175927 0.3889510436039864 -0.44954218733032913
| 18> H -1.3415674196193232 0.3223982533964529 -1.5437528816708803
| 19> O -0.4425563104940221 1.509740783281698 -0.09542941440352883
| 20> O -2.5548101080900683 0.6428036537212801 0.04714869578936154
| 21> O -0.7937122030753405 -0.8696338147813706 1.5678123778009372
| 22> O 0.7212682402357606 -1.4380762837411523 -1.697898898802547
| 23> O 1.78359591544471 0.3950662517463146 1.329642060701173
| 24> H 0.8294952822965252 1.297241720001096 -1.7398740392982484
| 25> H 1.4155468851003226 2.295123961169663 -0.38338455216503703
| 26> H -2.5342946166137854 0.4247698757308276 0.9933511328704395
| 27> H -0.09320176921754184 -0.2739662851113362 1.885043709641964
| 28> H 1.6282292287002227 -1.6088148840131948 -1.9864499240668894
| 29> H 2.2983623747251816 -0.3452797456266956 1.6798197000501602
| 30> *
| 31>
| 32>                          ****END OF INPUT****

CARTESIAN COORDINATES (ANGSTROEM)
---------------------------------
  C      0.880371    1.379150   -0.645090
  C      1.594756    0.168242   -0.081060
  H      2.565442    0.061698   -0.587408
  C      0.764182   -1.106901   -0.306296
  H      1.198508   -1.931337    0.278453
  C     -0.687789   -0.900685    0.141030
  H     -1.293598   -1.744939   -0.205383
  C     -1.267362    0.388951   -0.449542
  H     -1.341567    0.322398   -1.543753
  O     -0.442556    1.509741   -0.095429
  O     -2.554810    0.642804    0.047149
  O     -0.793712   -0.869634    1.567812
  O      0.721268   -1.438076   -1.697899
  O      1.783596    0.395066    1.329642
  H      0.829495    1.297242   -1.739874
  H      1.415547    2.295124   -0.383385
  H     -2.534295    0.424770    0.993351
  H     -0.093202   -0.273966    1.885044
  H      1.628229   -1.608815   -1.986450
  H      2.298362   -0.345280    1.679820

 Total Charge           Charge          ....    0
 Multiplicity           Mult            ....    1
 Number of Electrons    NEL             ....   80
 Basis Dimension        Dim             ....  370

ORBITAL ENERGIES
----------------

  NO   OCC          E(Eh)            E(eV)
   0   2.0000     -21.687345      -590.1427
   1   2.0000     -21.686552      -590.1211
   2   2.0000     -21.685738      -590.0989
   3   2.0000     -21.684307      -590.0600
   4   2.0000     -21.682060      -589.9988
   5   2.0000     -12.146733      -330.5294
   6   2.0000     -12.105189      -329.3989
   7   2.0000     -12.102802      -329.3340
   8   2.0000     -12.102216      -329.3180
   9   2.0000     -12.093138      -329.0710
  10   2.0000      -1.718347       -46.7586
  11   2.0000      -1.690912       -46.0120
  12   2.0000      -1.684464       -45.8366
  13   2.0000      -1.682304       -45.7778
  14   2.0000      -1.673733       -45.5446
  15   2.0000      -1.323549       -36.0156
  16   2.0000      -1.297987       -35.3200
  17   2.0000      -1.199376       -32.6367
  18   2.0000      -1.185568       -32.2609
  19   2.0000      -1.132426       -30.8149
  20   2.0000      -1.081890       -29.4397
  21   2.0000      -1.070480       -29.1292
  22   2.0000      -1.053796       -28.6752
  23   2.0000      -1.020595       -27.7718
  24   2.0000      -1.006131       -27.3782
  25   2.0000      -1.003874       -27.3168
  26   2.0000      -0.984317       -26.7846
  27   2.0000      -0.970841       -26.4179
  28   2.0000      -0.963795       -26.2262
  29   2.0000      -0.955475       -25.9998
  30   2.0000      -0.931760       -25.3545
  31   2.0000      -0.926595       -25.2139
  32   2.0000      -0.916854       -24.9489
  33   2.0000      -0.896236       -24.3878
  34   2.0000      -0.879927       -23.9440
  35   2.0000      -0.853880       -23.2352
  36   2.0000      -0.839799       -22.8521
  37   2.0000      -0.815613       -22.1940
  38   2.0000      -0.792374       -21.5616
  39   2.0000      -0.774354       -21.0712
  40   0.0000      -0.227929        -6.2023
  41   0.0000      -0.177664        -4.8345
  42   0.0000      -0.163142        -4.4393
  43   0.0000      -0.137496        -3.7415
  44   0.0000      -0.094061        -2.5595

MULLIKEN ATOMIC CHARGES
-----------------------
   0 C :   -0.060353
   1 C :    0.036578
   2 H :    0.139668
   3 C :    0.015330
   4 H :    0.128290
   5 C :    0.138953
   6 H :    0.131390
   7 C :    0.077186
   8 H :    0.122803
   9 O :   -0.339673
  10 O :   -0.499062
  11 O :   -0.535353
  12 O :   -0.528640
  13 O :   -0.546434
  14 H :    0.129257
  15 H :    0.147253
  16 H :    0.359130
  17 H :    0.348853
  18 H :    0.365589
  19 H :    0.369235
Sum of atomic charges:    0.0000000

LOEWDIN ATOMIC CHARGES
----------------------
   0 C :   -0.276733
   1 C :   -0.321333
   2 H :    0.153302
   3 C :   -0.302430
   4 H :    0.148788
   5 C :   -0.308668
   6 H :    0.156939
   7 C :   -0.408330
   8 H :    0.141604
   9 O :    0.119915
  10 O :   -0.027421
  11 O :   -0.043811
  12 O :   -0.032892
  13 O :   -0.040231
  14 H :    0.137366
  15 H :    0.138944
  16 H :    0.190905
  17 H :    0.178940
  18 H :    0.197751
  19 H :    0.197395

  Mayer bond orders larger than 0.100000
B(  0-C ,  1-C ) :   0.9685 B(  0-C ,  9-O ) :   0.9481 B(  0-C , 14-H ) :   0.9726
B(  0-C , 15-H ) :   0.9644 B(  1-C ,  2-H ) :   0.9698 B(  1-C ,  3-C ) :   0.9817
B(  1-C , 13-O ) :   0.9822 B(  3-C ,  4-H ) :   0.9852 B(  3-C ,  5-C ) :   0.9553
B(  3-C , 12-O ) :   1.0748 B(  5-C ,  6-H ) :   0.9495 B(  5-C ,  7-C ) :   0.9827
B(  5-C , 11-O ) :   0.9889 B(  7-C ,  8-H ) :   0.9865 B(  7-C ,  9-O ) :   1.0094
B(  7-C , 10-O ) :   1.1234 B( 10-O , 16-H ) :   0.8424 B( 11-O , 17-H ) :   0.8374
B( 12-O , 18-H ) :   0.8600 B( 13-O , 19-H ) :   0.8584

FINAL SINGLE POINT ENERGY      -572.736528126773

DIPOLE MOMENT
-------------

Method             : SCF
Type of density    : Electron Density
Multiplicity       :   1
Irrep              :   0
Energy             :  -572.7527267731727534 Eh
Relativity type    :
Basis              : AO
                                X                 Y                 Z
Electronic contribution:     -1.596127609       0.284087143       1.106427736
Nuclear contribution   :      4.392956663      -1.499047792      -1.536539782
                        -----------------------------------------
Total Dipole Moment    :      2.796829054      -1.214960649      -0.430112046
                        -----------------------------------------
Magnitude (a.u.)       :      3.079509459
Magnitude (Debye)      :      7.827490984

Rotational constants in cm-1:             0.057717             0.040451             0.038233
Rotational constants in MHz :          1730.302038          1212.689480          1146.197644

                             ****ORCA TERMINATED NORMALLY****
TOTAL RUN TIME: 0 days 0 hours 4 minutes 14 seconds 891 msec
