                         Program Version 6.0.1  -  RELEASE   -
|  1> ! pbe def2-sv(p) def2/J RI DEFGRID1 loosescf d4 GCP(DFT/SV(P)) printgap
|  2> %output
|  3>     printlevel normal
|  4> end
|  5> * xyz 0 1
|  6> C 3.9288121374 -4.0678521108 -0.63392286
|  7> C 2.4499760909 -3.7827208814 -0.8427162967
|  8> O 2.0670751207 -2.5431604355 -0.2152562876
|  9> C 2.2742389586 -1.4209781845 -0.8734527717
| 10> O 2.732498386 -1.3480170525 -1.9910355506
| 11> C 1.8350934764 -0.2141407469 -0.0634330959
| 12> C 0.8502423332 0.6083394238 -0.8927909665
| 13> H 1.3144487896 0.866662642 -1.8495240909
| 14> C 0.4206711869 1.8735682793 -0.1794333951
| 15> O -0.7443272539 2.1133370377 0.0748245243
| 16> O 1.4310330946 2.6324903246 0.1280028949
| 17> C 1.175578455 3.8675668418 0.835573222
| 18> C 0.8021368593 4.9796642369 -0.1297098088
| 19> S -0.6457631562 -0.3405495984 -1.3308714124
| 20> P -1.8172150092 -0.1460770875 0.436614587
| 21> S -0.9684239834 0.0508120822 2.2031022562
| 22> O -3.1117849227 0.7103208822 0.1191069976
| 23> C -3.4477770078 1.9671526865 0.7102337169
| 24> O -2.5977411943 -1.5448422608 0.3327173744
| 25> C -1.9209169622 -2.7812456583 0.5650683159
| 26> H 4.1682487443 -5.0399533114 -1.0519921447
| 27> H 4.5295827229 -3.3113593646 -1.1333643024
| 28> H 4.1642154954 -4.0656423873 0.4268157961
| 29> H 1.8278947742 -4.5355491802 -0.3585729923
| 30> H 2.2143758898 -3.7184139045 -1.9088686756
| 31> H 2.7092462822 0.4038065971 0.1506419739
| 32> H 1.3858556494 -0.5476973817 0.8730448645
| 33> H 0.3786282777 3.691153576 1.5628549255
| 34> H 2.1153533696 4.0791348677 1.3447701415
| 35> H -0.1326740199 4.7451343852 -0.6335806059
| 36> H 0.679818012 5.9047700964 0.4235572769
| 37> H 1.5833407387 5.1079998859 -0.8737259407
| 38> H -4.5233486278 1.9437850463 0.8720499016
| 39> H -3.1744259459 2.7691275546 0.0272637803
| 40> H -2.9232249656 2.0961222944 1.658288446
| 41> H -1.2208554813 -2.9881476147 -0.2456338209
| 42> H -2.6992125991 -3.5391313951 0.5989227953
| 43> H -1.3843484822 -2.7427151601 1.5155556838
| 44> *
| 45>
| 46>                          ****END OF INPUT****

CARTESIAN COORDINATES (ANGSTROEM)
---------------------------------
  C      3.928812   -4.067852   -0.633923
  C      2.449976   -3.782721   -0.842716
  O      2.067075   -2.543160   -0.215256
  C      2.274239   -1.420978   -0.873453
  O      2.732498   -1.348017   -1.991036
  C      1.835093   -0.214141   -0.063433
  C      0.850242    0.608339   -0.892791
  H      1.314449    0.866663   -1.849524
  C      0.420671    1.873568   -0.179433
  O     -0.744327    2.113337    0.074825
  O      1.431033    2.632490    0.128003
  C      1.175578    3.867567    0.835573
  C      0.802137    4.979664   -0.129710
  S     -0.645763   -0.340550   -1.330871
  P     -1.817215   -0.146077    0.436615
  S     -0.968424    0.050812    2.203102
  O     -3.111785    0.710321    0.119107
  C     -3.447777    1.967153    0.710234
  O     -2.597741   -1.544842    0.332717
  C     -1.920917   -2.781246    0.565068
  H      4.168249   -5.039953   -1.051992
  H      4.529583   -3.311359   -1.133364
  H      4.164215   -4.065642    0.426816
  H      1.827895   -4.535549   -0.358573
  H      2.214376   -3.718414   -1.908869
  H      2.709246    0.403807    0.150642
  H      1.385856   -0.547697    0.873045
  H      0.378628    3.691154    1.562855
  H      2.115353    4.079135    1.344770
  H     -0.132674    4.745134   -0.633581
  H      0.679818    5.904770    0.423557
  H      1.583341    5.108000   -0.873726
  H     -4.523349    1.943785    0.872050
  H     -3.174426    2.769128    0.027264
  H     -2.923225    2.096122    1.658288
  H     -1.220855   -2.988148   -0.245634
  H     -2.699213   -3.539131    0.598923
  H     -1.384348   -2.742715    1.515556

 Total Charge           Charge          ....    0
 Multiplicity           Mult            ....    1
 Number of Electrons    NEL             ....  174
 Basis Dimension        Dim             ....  316

ORBITAL ENERGIES
----------------

  NO   OCC          E(Eh)            E(eV)
   0   2.0000     -88.035214     -2395.5600
   1   2.0000     -87.973930     -2393.8923
   2   2.0000     -76.419894     -2079.4910
   3   2.0000     -18.828544      -512.3507
   4   2.0000     -18.806042      -511.7384
   5   2.0000     -18.779741      -511.0227
   6   2.0000     -18.772529      -510.8265
   7   2.0000     -18.763064      -510.5689
   8   2.0000     -18.740487      -509.9546
   9   2.0000     -10.033678      -273.0303
  10   2.0000     -10.011667      -272.4313
  11   2.0000      -9.963715      -271.1265
  12   2.0000      -9.952703      -270.8268
  13   2.0000      -9.949851      -270.7492
  14   2.0000      -9.933264      -270.2979
  15   2.0000      -9.930035      -270.2100
  16   2.0000      -9.907096      -269.5858
  17   2.0000      -9.899538      -269.3801
  18   2.0000      -9.888826      -269.0886
  19   2.0000      -7.679962      -208.9824
  20   2.0000      -7.619038      -207.3246
  21   2.0000      -6.415433      -174.5728
  22   2.0000      -5.708045      -155.3238
  23   2.0000      -5.704501      -155.2274
  24   2.0000      -5.696721      -155.0157
  25   2.0000      -5.648078      -153.6920
  26   2.0000      -5.639973      -153.4715
  27   2.0000      -5.638711      -153.4371
  28   2.0000      -4.637843      -126.2021
  29   2.0000      -4.637610      -126.1958
  30   2.0000      -4.636056      -126.1535
  31   2.0000      -1.038317       -28.2541
  32   2.0000      -1.013051       -27.5665
  33   2.0000      -0.972487       -26.4627
  34   2.0000      -0.942721       -25.6527
  35   2.0000      -0.926428       -25.2094
  36   2.0000      -0.918610       -24.9966
  37   2.0000      -0.767574       -20.8868
  38   2.0000      -0.720088       -19.5946
  39   2.0000      -0.709688       -19.3116
  40   2.0000      -0.687464       -18.7068
  41   2.0000      -0.653337       -17.7782
  42   2.0000      -0.633450       -17.2371
  43   2.0000      -0.622291       -16.9334
  44   2.0000      -0.610417       -16.6103
  45   2.0000      -0.600381       -16.3372
  46   2.0000      -0.568754       -15.4766
  47   2.0000      -0.516102       -14.0438
  48   2.0000      -0.505830       -13.7643
  49   2.0000      -0.498684       -13.5699
  50   2.0000      -0.488876       -13.3030
  51   2.0000      -0.464775       -12.6472
  52   2.0000      -0.458551       -12.4778
  53   2.0000      -0.448745       -12.2110
  54   2.0000      -0.445485       -12.1223
  55   2.0000      -0.432262       -11.7625
  56   2.0000      -0.426274       -11.5995
  57   2.0000      -0.417312       -11.3556
  58   2.0000      -0.414790       -11.2870
  59   2.0000      -0.404664       -11.0115
  60   2.0000      -0.399493       -10.8708
  61   2.0000      -0.398319       -10.8388
  62   2.0000      -0.390786       -10.6338
  63   2.0000      -0.385692       -10.4952
  64   2.0000      -0.383922       -10.4471
  65   2.0000      -0.372426       -10.1342
  66   2.0000      -0.363206        -9.8833
  67   2.0000      -0.358630        -9.7588
  68   2.0000      -0.355291        -9.6680
  69   2.0000      -0.344376        -9.3710
  70   2.0000      -0.338582        -9.2133
  71   2.0000      -0.333927        -9.0866
  72   2.0000      -0.327179        -8.9030
  73   2.0000      -0.313349        -8.5267
  74   2.0000      -0.303285        -8.2528
  75   2.0000      -0.296314        -8.0631
  76   2.0000      -0.293864        -7.9965
  77   2.0000      -0.287159        -7.8140
  78   2.0000      -0.277745        -7.5578
  79   2.0000      -0.264620        -7.2007
  80   2.0000      -0.260726        -7.0947
  81   2.0000      -0.246805        -6.7159
  82   2.0000      -0.244414        -6.6509
  83   2.0000      -0.227427        -6.1886
  84   2.0000      -0.219433        -5.9711
  85   2.0000      -0.193905        -5.2764
  86   2.0000      -0.187135        -5.0922
  87   0.0000      -0.050872        -1.3843
  88   0.0000      -0.036289        -0.9875
  89   0.0000      -0.019153        -0.5212
  90   0.0000       0.004951         0.1347
  91   0.0000       0.032329         0.8797

MULLIKEN ATOMIC CHARGES
-----------------------
   0 C :   -0.307476
   1 C :   -0.012458
   2 O :   -0.218628
   3 C :    0.127756
   4 O :   -0.207740
   5 C :   -0.081942
   6 C :   -0.320952
   7 H :    0.158584
   8 C :    0.233952
   9 O :   -0.196337
  10 O :   -0.216082
  11 C :   -0.011189
  12 C :   -0.311756
  13 S :   -0.085049
  14 P :    0.622627
  15 S :   -0.352479
  16 O :   -0.366142
  17 C :   -0.085023
  18 O :   -0.373526
  19 C :   -0.102561
  20 H :    0.114265
  21 H :    0.128274
  22 H :    0.115911
  23 H :    0.104341
  24 H :    0.110546
  25 H :    0.120946
  26 H :    0.117548
  27 H :    0.122070
  28 H :    0.111502
  29 H :    0.130654
  30 H :    0.120642
  31 H :    0.120188
  32 H :    0.119293
  33 H :    0.115063
  34 H :    0.114810
  35 H :    0.108658
  36 H :    0.119870
  37 H :    0.111836
Sum of atomic charges:    0.0000000

LOEWDIN ATOMIC CHARGES
----------------------
   0 C :   -0.356576
   1 C :   -0.110837
   2 O :   -0.050432
   3 C :    0.026537
   4 O :   -0.170910
   5 C :   -0.257017
   6 C :   -0.259528
   7 H :    0.154669
   8 C :    0.027992
   9 O :   -0.155631
  10 O :   -0.032105
  11 C :   -0.104808
  12 C :   -0.356113
  13 S :    0.109893
  14 P :    0.589096
  15 S :   -0.340580
  16 O :   -0.236547
  17 C :   -0.207222
  18 O :   -0.258687
  19 C :   -0.223228
  20 H :    0.131439
  21 H :    0.130719
  22 H :    0.125698
  23 H :    0.118227
  24 H :    0.121164
  25 H :    0.145625
  26 H :    0.129935
  27 H :    0.126544
  28 H :    0.122916
  29 H :    0.131209
  30 H :    0.134883
  31 H :    0.127983
  32 H :    0.117471
  33 H :    0.112117
  34 H :    0.108351
  35 H :    0.101515
  36 H :    0.119677
  37 H :    0.106559

  Mayer bond orders larger than 0.100000
B(  0-C ,  1-C ) :   1.1735 B(  0-C , 20-H ) :   0.9441 B(  0-C , 21-H ) :   0.9455
B(  0-C , 22-H ) :   0.9483 B(  1-C ,  2-O ) :   0.9157 B(  1-C , 23-H ) :   0.9362
B(  1-C , 24-H ) :   0.9153 B(  2-O ,  3-C ) :   1.2465 B(  3-C ,  4-O ) :   2.0334
B(  3-C ,  5-C ) :   1.0024 B(  5-C ,  6-C ) :   1.0564 B(  5-C , 25-H ) :   0.8710
B(  5-C , 26-H ) :   0.8797 B(  6-C ,  7-H ) :   0.8535 B(  6-C ,  8-C ) :   0.9215
B(  6-C , 13-S ) :   1.0250 B(  8-C ,  9-O ) :   1.9240 B(  8-C , 10-O ) :   1.2867
B(  9-O , 14-P ) :   0.1130 B( 10-O , 11-C ) :   0.8965 B( 11-C , 12-C ) :   1.1746
B( 11-C , 27-H ) :   0.9154 B( 11-C , 28-H ) :   0.9359 B( 12-C , 29-H ) :   0.9451
B( 12-C , 30-H ) :   0.9430 B( 12-C , 31-H ) :   0.9470 B( 13-S , 14-P ) :   0.9272
B( 13-S , 15-S ) :   0.1174 B( 14-P , 15-S ) :   1.5490 B( 14-P , 16-O ) :   1.1407
B( 14-P , 18-O ) :   1.0821 B( 16-O , 17-C ) :   0.9286 B( 17-C , 32-H ) :   0.9543
B( 17-C , 33-H ) :   0.9542 B( 17-C , 34-H ) :   0.9352 B( 18-O , 19-C ) :   0.9467
B( 19-C , 35-H ) :   0.9405 B( 19-C , 36-H ) :   0.9587 B( 19-C , 37-H ) :   0.9339

Dispersion correction           -0.051596272
FINAL SINGLE POINT ENERGY     -1979.017434038886

DIPOLE MOMENT
-------------

Method             : SCF
Type of density    : Electron Density
Multiplicity       :   1
Irrep              :   0
Energy             : -1979.1480720624526839 Eh
Relativity type    :
Basis              : AO
                                X                 Y                 Z
Electronic contribution:    -11.199140013      -0.566735720      -0.779845508
Nuclear contribution   :     11.999120102       1.189102084       0.873687554
                        -----------------------------------------
Total Dipole Moment    :      0.799980089       0.622366364       0.093842046
                        -----------------------------------------
Magnitude (a.u.)       :      1.017897030
Magnitude (Debye)      :      2.587288635

Rotational constants in cm-1:             0.012024             0.007522             0.005390
Rotational constants in MHz :           360.465327           225.517786           161.600214

                             ****ORCA TERMINATED NORMALLY****
TOTAL RUN TIME: 0 days 0 hours 0 minutes 32 seconds 141 msec
