                         Program Version 6.0.0  -   RELEASE  -
|  1> ! wb97x-v def2-tzvp def2/J RIJCOSX DEFGRID2 scfconv7 GCP(DFT/TZ) printgap
|  2> %output
|  3>     printlevel normal
|  4> end
|  5> * xyz 0 1
|  6> C -0.7308460059266039 -1.261318045299566 0.233303527871356
|  7> C -1.4581911541992991 0.002136136927371958 -0.23336114029796814
|  8> C -0.727106042992918 1.2634085268018538 0.23334899143055254
|  9> C 0.7308068267587379 1.2612704654459728 -0.2333225626434986
| 10> C 1.4581744976191016 -0.002141458850339797 0.23340316877950842
| 11> C 0.7271180375263452 -1.2634650339823184 -0.23322341586813475
| 12> H -1.2484697610634639 -2.1554505490886484 -0.1342429863315774
| 13> H -0.7568964859413856 -1.3056245979270296 1.3313971684943493
| 14> H -1.5096424934238941 0.002237377800259636 -1.3314132464653372
| 15> H -2.4911529920036957 0.003651826689403519 0.13455285810190507
| 16> H -1.2421333219793087 2.1590980546163396 -0.13405578585616237
| 17> H -0.7529269660068328 1.3076900599424388 1.3314529801726074
| 18> H 0.7567285418065691 1.3054408418598977 -1.3314279013684402
| 19> H 1.2484690533361364 2.155451616784587 0.13405169836583983
| 20> H 2.491127059540298 -0.0036758569192650017 -0.13453558749684738
| 21> H 1.5096606620518065 -0.002168100715307295 1.3314522094257408
| 22> H 0.7530484862262902 -1.3078700589747418 -1.3313158723335459
| 23> H 1.2421161342373803 -2.159107509912427 0.13433020766927262
| 24> *
| 25>
| 26>                          ****END OF INPUT****

CARTESIAN COORDINATES (ANGSTROEM)
---------------------------------
  C     -0.730846   -1.261318    0.233304
  C     -1.458191    0.002136   -0.233361
  C     -0.727106    1.263409    0.233349
  C      0.730807    1.261270   -0.233323
  C      1.458174   -0.002141    0.233403
  C      0.727118   -1.263465   -0.233223
  H     -1.248470   -2.155451   -0.134243
  H     -0.756896   -1.305625    1.331397
  H     -1.509642    0.002237   -1.331413
  H     -2.491153    0.003652    0.134553
  H     -1.242133    2.159098   -0.134056
  H     -0.752927    1.307690    1.331453
  H      0.756729    1.305441   -1.331428
  H      1.248469    2.155452    0.134052
  H      2.491127   -0.003676   -0.134536
  H      1.509661   -0.002168    1.331452
  H      0.753048   -1.307870   -1.331316
  H      1.242116   -2.159108    0.134330

 Total Charge           Charge          ....    0
 Multiplicity           Mult            ....    1
 Number of Electrons    NEL             ....   48
 Basis Dimension        Dim             ....  258

ORBITAL ENERGIES
----------------

  NO   OCC          E(Eh)            E(eV)
   0   2.0000     -12.035394      -327.4997
   1   2.0000     -12.035283      -327.4967
   2   2.0000     -12.035271      -327.4964
   3   2.0000     -12.033973      -327.4610
   4   2.0000     -12.033961      -327.4607
   5   2.0000     -12.033281      -327.4422
   6   2.0000      -1.332293       -36.2535
   7   2.0000      -1.242691       -33.8153
   8   2.0000      -1.242626       -33.8136
   9   2.0000      -1.089829       -29.6558
  10   2.0000      -1.089822       -29.6556
  11   2.0000      -1.003896       -27.3174
  12   2.0000      -0.908068       -24.7098
  13   2.0000      -0.868715       -23.6389
  14   2.0000      -0.864998       -23.5378
  15   2.0000      -0.864895       -23.5350
  16   2.0000      -0.834100       -22.6970
  17   2.0000      -0.814424       -22.1616
  18   2.0000      -0.814331       -22.1591
  19   2.0000      -0.769154       -20.9298
  20   2.0000      -0.769150       -20.9296
  21   2.0000      -0.743859       -20.2414
  22   2.0000      -0.743825       -20.2405
  23   2.0000      -0.727567       -19.7981
  24   0.0000      -0.026959        -0.7336
  25   0.0000      -0.018767        -0.5107
  26   0.0000      -0.018632        -0.5070
  27   0.0000      -0.006155        -0.1675
  28   0.0000      -0.004241        -0.1154

MULLIKEN ATOMIC CHARGES
-----------------------
   0 C :   -0.183021
   1 C :   -0.182897
   2 C :   -0.182972
   3 C :   -0.183079
   4 C :   -0.182881
   5 C :   -0.183001
   6 H :    0.097340
   7 H :    0.085612
   8 H :    0.085594
   9 H :    0.097429
  10 H :    0.097332
  11 H :    0.085611
  12 H :    0.085611
  13 H :    0.097370
  14 H :    0.097423
  15 H :    0.085588
  16 H :    0.085615
  17 H :    0.097326
Sum of atomic charges:   -0.0000000

LOEWDIN ATOMIC CHARGES
----------------------
   0 C :   -0.262198
   1 C :   -0.262205
   2 C :   -0.262200
   3 C :   -0.262202
   4 C :   -0.262206
   5 C :   -0.262198
   6 H :    0.129702
   7 H :    0.132506
   8 H :    0.132479
   9 H :    0.129710
  10 H :    0.129700
  11 H :    0.132507
  12 H :    0.132508
  13 H :    0.129701
  14 H :    0.129709
  15 H :    0.132478
  16 H :    0.132506
  17 H :    0.129702

  Mayer bond orders larger than 0.100000
B(  0-C ,  1-C ) :   0.9889 B(  0-C ,  5-C ) :   0.9889 B(  0-C ,  6-H ) :   0.9753
B(  0-C ,  7-H ) :   0.9753 B(  1-C ,  2-C ) :   0.9889 B(  1-C ,  8-H ) :   0.9753
B(  1-C ,  9-H ) :   0.9755 B(  2-C ,  3-C ) :   0.9888 B(  2-C , 10-H ) :   0.9753
B(  2-C , 11-H ) :   0.9753 B(  3-C ,  4-C ) :   0.9889 B(  3-C , 12-H ) :   0.9753
B(  3-C , 13-H ) :   0.9753 B(  4-C ,  5-C ) :   0.9888 B(  4-C , 14-H ) :   0.9755
B(  4-C , 15-H ) :   0.9753 B(  5-C , 16-H ) :   0.9753 B(  5-C , 17-H ) :   0.9753

FINAL SINGLE POINT ENERGY      -235.887129857569

DIPOLE MOMENT
-------------

Method             : SCF
Type of density    : Electron Density
Multiplicity       :   1
Irrep              :   0
Energy             :  -235.8996974269688849 Eh
Relativity type    :
Basis              : AO
                                X                 Y                 Z
Electronic contribution:     -0.000012080       0.000081748       0.000038295
Nuclear contribution   :      0.000012531      -0.000086823      -0.000041289
                        -----------------------------------------
Total Dipole Moment    :      0.000000452      -0.000005075      -0.000002993
                        -----------------------------------------
Magnitude (a.u.)       :      0.000005909
Magnitude (Debye)      :      0.000015020

Rotational constants in cm-1:             0.144128             0.144060             0.082444
Rotational constants in MHz :          4320.836662          4318.825044          2471.604759

                             ****ORCA TERMINATED NORMALLY****
TOTAL RUN TIME: 0 days 0 hours 2 minutes 3 seconds 374 msec
