                         Program Version 6.0.0  -   RELEASE  -
|  1> ! wb97x-v def2-tzvp def2/J RIJCOSX DEFGRID2 scfconv7 GCP(DFT/TZ) printgap
|  2> %output
|  3>     printlevel normal
|  4> end
|  5> %cpcm
|  6>     smd true
|  7>     smdsolvent "water"
|  8> end
|  9> * xyz 0 1
| 10> C -0.7308460059266039 -1.261318045299566 0.233303527871356
| 11> C -1.4581911541992991 0.002136136927371958 -0.23336114029796814
| 12> C -0.727106042992918 1.2634085268018538 0.23334899143055254
| 13> C 0.7308068267587379 1.2612704654459728 -0.2333225626434986
| 14> C 1.4581744976191016 -0.002141458850339797 0.23340316877950842
| 15> C 0.7271180375263452 -1.2634650339823184 -0.23322341586813475
| 16> H -1.2484697610634639 -2.1554505490886484 -0.1342429863315774
| 17> H -0.7568964859413856 -1.3056245979270296 1.3313971684943493
| 18> H -1.5096424934238941 0.002237377800259636 -1.3314132464653372
| 19> H -2.4911529920036957 0.003651826689403519 0.13455285810190507
| 20> H -1.2421333219793087 2.1590980546163396 -0.13405578585616237
| 21> H -0.7529269660068328 1.3076900599424388 1.3314529801726074
| 22> H 0.7567285418065691 1.3054408418598977 -1.3314279013684402
| 23> H 1.2484690533361364 2.155451616784587 0.13405169836583983
| 24> H 2.491127059540298 -0.0036758569192650017 -0.13453558749684738
| 25> H 1.5096606620518065 -0.002168100715307295 1.3314522094257408
| 26> H 0.7530484862262902 -1.3078700589747418 -1.3313158723335459
| 27> H 1.2421161342373803 -2.159107509912427 0.13433020766927262
| 28> *
| 29>
| 30>                          ****END OF INPUT****

CARTESIAN COORDINATES (ANGSTROEM)
---------------------------------
  C     -0.730846   -1.261318    0.233304
  C     -1.458191    0.002136   -0.233361
  C     -0.727106    1.263409    0.233349
  C      0.730807    1.261270   -0.233323
  C      1.458174   -0.002141    0.233403
  C      0.727118   -1.263465   -0.233223
  H     -1.248470   -2.155451   -0.134243
  H     -0.756896   -1.305625    1.331397
  H     -1.509642    0.002237   -1.331413
  H     -2.491153    0.003652    0.134553
  H     -1.242133    2.159098   -0.134056
  H     -0.752927    1.307690    1.331453
  H      0.756729    1.305441   -1.331428
  H      1.248469    2.155452    0.134052
  H      2.491127   -0.003676   -0.134536
  H      1.509661   -0.002168    1.331452
  H      0.753048   -1.307870   -1.331316
  H      1.242116   -2.159108    0.134330

 Total Charge           Charge          ....    0
 Multiplicity           Mult            ....    1
 Number of Electrons    NEL             ....   48
 Basis Dimension        Dim             ....  258

ORBITAL ENERGIES
----------------

  NO   OCC          E(Eh)            E(eV)
   0   2.0000     -12.028005      -327.2986
   1   2.0000     -12.027890      -327.2955
   2   2.0000     -12.027885      -327.2954
   3   2.0000     -12.026579      -327.2598
   4   2.0000     -12.026574      -327.2597
   5   2.0000     -12.025892      -327.2412
   6   2.0000      -1.325090       -36.0575
   7   2.0000      -1.235611       -33.6227
   8   2.0000      -1.235535       -33.6206
   9   2.0000      -1.082838       -29.4655
  10   2.0000      -1.082826       -29.4652
  11   2.0000      -0.996740       -27.1227
  12   2.0000      -0.901067       -24.5193
  13   2.0000      -0.861483       -23.4421
  14   2.0000      -0.857656       -23.3380
  15   2.0000      -0.857543       -23.3349
  16   2.0000      -0.827076       -22.5059
  17   2.0000      -0.807364       -21.9695
  18   2.0000      -0.807260       -21.9667
  19   2.0000      -0.761723       -20.7275
  20   2.0000      -0.761709       -20.7271
  21   2.0000      -0.736752       -20.0480
  22   2.0000      -0.736711       -20.0469
  23   2.0000      -0.720052       -19.5936
  24   0.0000      -0.018474        -0.5027
  25   0.0000      -0.012346        -0.3359
  26   0.0000      -0.012207        -0.3322
  27   0.0000       0.002834         0.0771
  28   0.0000       0.002909         0.0791

MULLIKEN ATOMIC CHARGES
-----------------------
   0 C :   -0.204852
   1 C :   -0.205185
   2 C :   -0.204799
   3 C :   -0.204911
   4 C :   -0.205169
   5 C :   -0.204827
   6 H :    0.108834
   7 H :    0.096084
   8 H :    0.096136
   9 H :    0.108903
  10 H :    0.108824
  11 H :    0.096083
  12 H :    0.096084
  13 H :    0.108866
  14 H :    0.108896
  15 H :    0.096130
  16 H :    0.096086
  17 H :    0.108818
Sum of atomic charges:   -0.0000000

LOEWDIN ATOMIC CHARGES
----------------------
   0 C :   -0.265403
   1 C :   -0.265441
   2 C :   -0.265404
   3 C :   -0.265407
   4 C :   -0.265442
   5 C :   -0.265402
   6 H :    0.131028
   7 H :    0.134401
   8 H :    0.134367
   9 H :    0.131025
  10 H :    0.131025
  11 H :    0.134403
  12 H :    0.134404
  13 H :    0.131027
  14 H :    0.131024
  15 H :    0.134366
  16 H :    0.134402
  17 H :    0.131027

  Mayer bond orders larger than 0.100000
B(  0-C ,  1-C ) :   0.9882 B(  0-C ,  5-C ) :   0.9880 B(  0-C ,  6-H ) :   0.9734
B(  0-C ,  7-H ) :   0.9741 B(  1-C ,  2-C ) :   0.9882 B(  1-C ,  8-H ) :   0.9741
B(  1-C ,  9-H ) :   0.9735 B(  2-C ,  3-C ) :   0.9880 B(  2-C , 10-H ) :   0.9734
B(  2-C , 11-H ) :   0.9741 B(  3-C ,  4-C ) :   0.9882 B(  3-C , 12-H ) :   0.9741
B(  3-C , 13-H ) :   0.9734 B(  4-C ,  5-C ) :   0.9882 B(  4-C , 14-H ) :   0.9735
B(  4-C , 15-H ) :   0.9741 B(  5-C , 16-H ) :   0.9741 B(  5-C , 17-H ) :   0.9734

FINAL SINGLE POINT ENERGY      -235.885267279683

DIPOLE MOMENT
-------------

Method             : SCF
Type of density    : Electron Density
Multiplicity       :   1
Irrep              :   0
Energy             :  -235.8978348490827557 Eh
Relativity type    :
Basis              : AO
                                X                 Y                 Z
Electronic contribution:     -0.000012205       0.000078879       0.000035119
Nuclear contribution   :      0.000012531      -0.000086823      -0.000041289
                        -----------------------------------------
Total Dipole Moment    :      0.000000327      -0.000007944      -0.000006170
                        -----------------------------------------
Magnitude (a.u.)       :      0.000010064
Magnitude (Debye)      :      0.000025581

Rotational constants in cm-1:             0.144128             0.144060             0.082444
Rotational constants in MHz :          4320.836662          4318.825044          2471.604759

                             ****ORCA TERMINATED NORMALLY****
TOTAL RUN TIME: 0 days 0 hours 1 minutes 55 seconds 127 msec
