                         Program Version 6.0.0  -   RELEASE  -
|  1> ! wb97x-v def2-tzvp def2/J RIJCOSX DEFGRID2 scfconv7 GCP(DFT/TZ) printgap
|  2> %output
|  3>     printlevel normal
|  4> end
|  5> * xyz 0 1
|  6> C -1.8467064527125567 -0.6472147443056103 -0.13586127752889002
|  7> C -1.3526128480193 0.5238704055435955 0.2501682762115203
|  8> C 0.07131527817027446 0.9465494645888239 0.32719814322458995
|  9> Cl 1.2634898700441837 -0.3419362435271047 -0.18080931695758318
| 10> H -2.919168731017296 -0.8134398665265922 -0.14079571324908247
| 11> H -1.2094002325472757 -1.4666586197398008 -0.45386120602742347
| 12> H -2.0280613457496264 1.3216313156158648 0.5626696306227835
| 13> H 0.25704459544358454 1.8080731615110435 -0.3208042021282829
| 14> H 0.33983443994394913 1.2262486021367403 1.350099086969577
| 15> *
| 16>
| 17>                          ****END OF INPUT****

CARTESIAN COORDINATES (ANGSTROEM)
---------------------------------
  C     -1.846706   -0.647215   -0.135861
  C     -1.352613    0.523870    0.250168
  C      0.071315    0.946549    0.327198
  Cl     1.263490   -0.341936   -0.180809
  H     -2.919169   -0.813440   -0.140796
  H     -1.209400   -1.466659   -0.453861
  H     -2.028061    1.321631    0.562670
  H      0.257045    1.808073   -0.320804
  H      0.339834    1.226249    1.350099

 Total Charge           Charge          ....    0
 Multiplicity           Mult            ....    1
 Number of Electrons    NEL             ....   40
 Basis Dimension        Dim             ....  160

ORBITAL ENERGIES
----------------

  NO   OCC          E(Eh)            E(eV)
   0   2.0000    -107.130560     -2915.1707
   1   2.0000     -12.119476      -329.7877
   2   2.0000     -12.068286      -328.3948
   3   2.0000     -12.050335      -327.9063
   4   2.0000     -11.283671      -307.0443
   5   2.0000      -9.075069      -246.9452
   6   2.0000      -9.072434      -246.8735
   7   2.0000      -9.072412      -246.8729
   8   2.0000      -1.397814       -38.0365
   9   2.0000      -1.312389       -35.7119
  10   2.0000      -1.198699       -32.6183
  11   2.0000      -1.031894       -28.0793
  12   2.0000      -0.930068       -25.3084
  13   2.0000      -0.914024       -24.8719
  14   2.0000      -0.893876       -24.3236
  15   2.0000      -0.857421       -23.3316
  16   2.0000      -0.804048       -21.8792
  17   2.0000      -0.771794       -21.0016
  18   2.0000      -0.767801       -20.8929
  19   2.0000      -0.665124       -18.0989
  20   0.0000      -0.264679        -7.2023
  21   0.0000      -0.204992        -5.5781
  22   0.0000      -0.031908        -0.8683
  23   0.0000      -0.013121        -0.3571
  24   0.0000       0.016936         0.4608

MULLIKEN ATOMIC CHARGES
-----------------------
   0 C :   -0.255076
   1 C :   -0.175009
   2 C :   -0.066349
   3 Cl:   -0.158150
   4 H :    0.126047
   5 H :    0.137907
   6 H :    0.120316
   7 H :    0.135105
   8 H :    0.135208
Sum of atomic charges:    0.0000000

LOEWDIN ATOMIC CHARGES
----------------------
   0 C :   -0.204522
   1 C :   -0.242040
   2 C :   -0.442189
   3 Cl:    0.238475
   4 H :    0.123069
   5 H :    0.120705
   6 H :    0.145433
   7 H :    0.130549
   8 H :    0.130520

  Mayer bond orders larger than 0.100000
B(  0-C ,  1-C ) :   1.9798 B(  0-C ,  4-H ) :   0.9666 B(  0-C ,  5-H ) :   0.9569
B(  1-C ,  2-C ) :   1.0113 B(  1-C ,  6-H ) :   0.9447 B(  2-C ,  3-Cl) :   1.0589
B(  2-C ,  7-H ) :   0.9640 B(  2-C ,  8-H ) :   0.9641

FINAL SINGLE POINT ENERGY      -577.449047234844

DIPOLE MOMENT
-------------

Method             : SCF
Type of density    : Electron Density
Multiplicity       :   1
Irrep              :   0
Energy             :  -577.4540893272435369 Eh
Relativity type    :
Basis              : AO
                                X                 Y                 Z
Electronic contribution:      6.467976844      -1.851838934      -0.961923354
Nuclear contribution   :     -6.982774213       2.412711006       1.182798704
                        -----------------------------------------
Total Dipole Moment    :     -0.514797369       0.560872072       0.220875350
                        -----------------------------------------
Magnitude (a.u.)       :      0.792704063
Magnitude (Debye)      :      2.014893603

Rotational constants in cm-1:             0.449827             0.123404             0.098629
Rotational constants in MHz :         13485.473844          3699.551196          2956.835307

                             ****ORCA TERMINATED NORMALLY****
TOTAL RUN TIME: 0 days 0 hours 0 minutes 39 seconds 592 msec
