                         Program Version 6.0.0  -   RELEASE  -
|  1> ! wb97x-v def2-tzvp def2/J RIJCOSX DEFGRID2 scfconv7 GCP(DFT/TZ) printgap
|  2> %output
|  3>     printlevel normal
|  4> end
|  5> %cpcm
|  6>     smd true
|  7>     smdsolvent "water"
|  8> end
|  9> * xyz 0 1
| 10> C -1.8467064527125567 -0.6472147443056103 -0.13586127752889002
| 11> C -1.3526128480193 0.5238704055435955 0.2501682762115203
| 12> C 0.07131527817027446 0.9465494645888239 0.32719814322458995
| 13> Cl 1.2634898700441837 -0.3419362435271047 -0.18080931695758318
| 14> H -2.919168731017296 -0.8134398665265922 -0.14079571324908247
| 15> H -1.2094002325472757 -1.4666586197398008 -0.45386120602742347
| 16> H -2.0280613457496264 1.3216313156158648 0.5626696306227835
| 17> H 0.25704459544358454 1.8080731615110435 -0.3208042021282829
| 18> H 0.33983443994394913 1.2262486021367403 1.350099086969577
| 19> *
| 20>
| 21>                          ****END OF INPUT****

CARTESIAN COORDINATES (ANGSTROEM)
---------------------------------
  C     -1.846706   -0.647215   -0.135861
  C     -1.352613    0.523870    0.250168
  C      0.071315    0.946549    0.327198
  Cl     1.263490   -0.341936   -0.180809
  H     -2.919169   -0.813440   -0.140796
  H     -1.209400   -1.466659   -0.453861
  H     -2.028061    1.321631    0.562670
  H      0.257045    1.808073   -0.320804
  H      0.339834    1.226249    1.350099

 Total Charge           Charge          ....    0
 Multiplicity           Mult            ....    1
 Number of Electrons    NEL             ....   40
 Basis Dimension        Dim             ....  160

ORBITAL ENERGIES
----------------

  NO   OCC          E(Eh)            E(eV)
   0   2.0000    -107.130422     -2915.1670
   1   2.0000     -12.107020      -329.4488
   2   2.0000     -12.059439      -328.1540
   3   2.0000     -12.040397      -327.6359
   4   2.0000     -11.283718      -307.0456
   5   2.0000      -9.075061      -246.9450
   6   2.0000      -9.072586      -246.8776
   7   2.0000      -9.072562      -246.8770
   8   2.0000      -1.395802       -37.9817
   9   2.0000      -1.304945       -35.5094
  10   2.0000      -1.188657       -32.3450
  11   2.0000      -1.021636       -27.8001
  12   2.0000      -0.920005       -25.0346
  13   2.0000      -0.906260       -24.6606
  14   2.0000      -0.881893       -23.9975
  15   2.0000      -0.850238       -23.1362
  16   2.0000      -0.795315       -21.6416
  17   2.0000      -0.770641       -20.9702
  18   2.0000      -0.767299       -20.8793
  19   2.0000      -0.657531       -17.8923
  20   0.0000      -0.257433        -7.0051
  21   0.0000      -0.196884        -5.3575
  22   0.0000      -0.019254        -0.5239
  23   0.0000       0.003031         0.0825
  24   0.0000       0.028391         0.7726

MULLIKEN ATOMIC CHARGES
-----------------------
   0 C :   -0.348957
   1 C :   -0.194702
   2 C :   -0.074892
   3 Cl:   -0.201857
   4 H :    0.164466
   5 H :    0.154875
   6 H :    0.165021
   7 H :    0.168061
   8 H :    0.167986
Sum of atomic charges:    0.0000000

LOEWDIN ATOMIC CHARGES
----------------------
   0 C :   -0.230650
   1 C :   -0.238401
   2 C :   -0.430640
   3 Cl:    0.208475
   4 H :    0.129828
   5 H :    0.120483
   6 H :    0.157910
   7 H :    0.141541
   8 H :    0.141454

  Mayer bond orders larger than 0.100000
B(  0-C ,  1-C ) :   1.9448 B(  0-C ,  4-H ) :   0.9640 B(  0-C ,  5-H ) :   0.9598
B(  1-C ,  2-C ) :   1.0251 B(  1-C ,  6-H ) :   0.9420 B(  2-C ,  3-Cl) :   1.0214
B(  2-C ,  7-H ) :   0.9527 B(  2-C ,  8-H ) :   0.9529

FINAL SINGLE POINT ENERGY      -577.451397493436

DIPOLE MOMENT
-------------

Method             : SCF
Type of density    : Electron Density
Multiplicity       :   1
Irrep              :   0
Energy             :  -577.4564395858358239 Eh
Relativity type    :
Basis              : AO
                                X                 Y                 Z
Electronic contribution:      6.339537213      -1.566755198      -0.856604412
Nuclear contribution   :     -6.982774213       2.412711006       1.182798704
                        -----------------------------------------
Total Dipole Moment    :     -0.643237000       0.845955808       0.326194291
                        -----------------------------------------
Magnitude (a.u.)       :      1.111664420
Magnitude (Debye)      :      2.825626399

Rotational constants in cm-1:             0.449827             0.123404             0.098629
Rotational constants in MHz :         13485.473844          3699.551196          2956.835307

                             ****ORCA TERMINATED NORMALLY****
TOTAL RUN TIME: 0 days 0 hours 0 minutes 38 seconds 879 msec
