                         Program Version 6.0.0  -   RELEASE  -
|  1> ! pbe def2-sv(p) def2/J RI DEFGRID1 loosescf d4 GCP(DFT/SV(P)) printgap
|  2> %output
|  3>     printlevel normal
|  4> end
|  5> * xyz 0 1
|  6> C 5.6761297923 -0.200072626 -0.8661510863
|  7> C 4.5508921232 -1.0153216891 -1.4675161605
|  8> O 3.4282916893 -1.1278068719 -0.5687288308
|  9> P 2.5067834891 0.1093432053 -0.2029862905
| 10> S 2.180802082 1.3581301123 -1.6868404307
| 11> O 3.2381830691 0.7218147114 1.0660464787
| 12> C 2.9342858214 2.0282325831 1.5845047969
| 13> C 1.5497129161 2.0873175283 2.1956939509
| 14> S 0.8793858115 -0.9615971108 0.5840368185
| 15> C 0.0299668277 -1.2359119433 -1.0144506555
| 16> S -1.6593148011 -1.7884901061 -0.7652149754
| 17> P -2.5478580965 0.0549636864 -0.1243400728
| 18> S -1.4386611377 1.656794076 -0.3244981861
| 19> O -3.1052030985 -0.2475844256 1.3329906359
| 20> C -2.2793398557 -0.4282762039 2.498561789
| 21> C -2.083117998 0.8842052978 3.2322307764
| 22> O -3.86957092 0.1988983813 -0.9600826525
| 23> C -4.7524710054 -0.8675561324 -1.3926036556
| 24> C -5.169911193 -1.7898915407 -0.2687872463
| 25> H 5.3617148566 0.8364736398 -0.7521663207
| 26> H 5.945802735 -0.5950081958 0.1097070711
| 27> H 6.5387915273 -0.2366197046 -1.5240423156
| 28> H 4.8480211456 -2.0500786529 -1.6428463698
| 29> H 4.201367332 -0.5613418971 -2.4005652441
| 30> H 3.7125418538 2.2001472143 2.3294320205
| 31> H 3.0258582973 2.7558428126 0.77151912
| 32> H 0.7936014484 1.9923009525 1.4157657724
| 33> H 1.4203083516 1.281481534 2.9140768405
| 34> H 1.4142041386 3.0421142907 2.693492355
| 35> H 0.5384549461 -2.0258638876 -1.5623187581
| 36> H 0.0357732233 -0.2933153196 -1.5680092874
| 37> H -2.8285429146 -1.1454176443 3.1118129089
| 38> H -1.3176628858 -0.8600179898 2.2039781881
| 39> H -1.4954935972 0.710413431 4.1275426511
| 40> H -1.5614011313 1.5960159164 2.5969468751
| 41> H -3.0457110461 1.3055535935 3.5078625476
| 42> H -5.6037560173 -0.32654209 -1.8086710594
| 43> H -4.2430407542 -1.4241107488 -2.1829506042
| 44> H -4.3109350003 -2.3499011506 0.0959817166
| 45> H -5.5959830146 -1.217114811 0.55044727
| 46> H -5.9115638719 -2.4882609455 -0.6442812104
| 47> *
| 48>
| 49>                          ****END OF INPUT****

CARTESIAN COORDINATES (ANGSTROEM)
---------------------------------
  C      5.676130   -0.200073   -0.866151
  C      4.550892   -1.015322   -1.467516
  O      3.428292   -1.127807   -0.568729
  P      2.506783    0.109343   -0.202986
  S      2.180802    1.358130   -1.686840
  O      3.238183    0.721815    1.066046
  C      2.934286    2.028233    1.584505
  C      1.549713    2.087318    2.195694
  S      0.879386   -0.961597    0.584037
  C      0.029967   -1.235912   -1.014451
  S     -1.659315   -1.788490   -0.765215
  P     -2.547858    0.054964   -0.124340
  S     -1.438661    1.656794   -0.324498
  O     -3.105203   -0.247584    1.332991
  C     -2.279340   -0.428276    2.498562
  C     -2.083118    0.884205    3.232231
  O     -3.869571    0.198898   -0.960083
  C     -4.752471   -0.867556   -1.392604
  C     -5.169911   -1.789892   -0.268787
  H      5.361715    0.836474   -0.752166
  H      5.945803   -0.595008    0.109707
  H      6.538792   -0.236620   -1.524042
  H      4.848021   -2.050079   -1.642846
  H      4.201367   -0.561342   -2.400565
  H      3.712542    2.200147    2.329432
  H      3.025858    2.755843    0.771519
  H      0.793601    1.992301    1.415766
  H      1.420308    1.281482    2.914077
  H      1.414204    3.042114    2.693492
  H      0.538455   -2.025864   -1.562319
  H      0.035773   -0.293315   -1.568009
  H     -2.828543   -1.145418    3.111813
  H     -1.317663   -0.860018    2.203978
  H     -1.495494    0.710413    4.127543
  H     -1.561401    1.596016    2.596947
  H     -3.045711    1.305554    3.507863
  H     -5.603756   -0.326542   -1.808671
  H     -4.243041   -1.424111   -2.182951
  H     -4.310935   -2.349901    0.095982
  H     -5.595983   -1.217115    0.550447
  H     -5.911564   -2.488261   -0.644281

 Total Charge           Charge          ....    0
 Multiplicity           Mult            ....    1
 Number of Electrons    NEL             ....  202
 Basis Dimension        Dim             ....  334

ORBITAL ENERGIES
----------------

  NO   OCC          E(Eh)            E(eV)
   0   2.0000     -88.049287     -2395.9429
   1   2.0000     -88.039217     -2395.6689
   2   2.0000     -87.984954     -2394.1923
   3   2.0000     -87.981132     -2394.0883
   4   2.0000     -76.425993     -2079.6570
   5   2.0000     -76.423536     -2079.5901
   6   2.0000     -18.792976      -511.3829
   7   2.0000     -18.792622      -511.3733
   8   2.0000     -18.789939      -511.3002
   9   2.0000     -18.786489      -511.2064
  10   2.0000      -9.960514      -271.0394
  11   2.0000      -9.953420      -270.8463
  12   2.0000      -9.952545      -270.8225
  13   2.0000      -9.950259      -270.7603
  14   2.0000      -9.949014      -270.7264
  15   2.0000      -9.892517      -269.1891
  16   2.0000      -9.882560      -268.9181
  17   2.0000      -9.879216      -268.8271
  18   2.0000      -9.878014      -268.7944
  19   2.0000      -7.693973      -209.3637
  20   2.0000      -7.684253      -209.0991
  21   2.0000      -7.629761      -207.6163
  22   2.0000      -7.625914      -207.5117
  23   2.0000      -6.423290      -174.7866
  24   2.0000      -6.421190      -174.7295
  25   2.0000      -5.721830      -155.6989
  26   2.0000      -5.718277      -155.6022
  27   2.0000      -5.712151      -155.4355
  28   2.0000      -5.711281      -155.4119
  29   2.0000      -5.709111      -155.3528
  30   2.0000      -5.700855      -155.1281
  31   2.0000      -5.658512      -153.9759
  32   2.0000      -5.655053      -153.8818
  33   2.0000      -5.650464      -153.7570
  34   2.0000      -5.650054      -153.7458
  35   2.0000      -5.646378      -153.6458
  36   2.0000      -5.645995      -153.6353
  37   2.0000      -4.645961      -126.4230
  38   2.0000      -4.645235      -126.4033
  39   2.0000      -4.643718      -126.3620
  40   2.0000      -4.643523      -126.3567
  41   2.0000      -4.642862      -126.3387
  42   2.0000      -4.641740      -126.3082
  43   2.0000      -0.987037       -26.8587
  44   2.0000      -0.984881       -26.8000
  45   2.0000      -0.944866       -25.7111
  46   2.0000      -0.944399       -25.6984
  47   2.0000      -0.763440       -20.7743
  48   2.0000      -0.721954       -19.6454
  49   2.0000      -0.711050       -19.3487
  50   2.0000      -0.691703       -18.8222
  51   2.0000      -0.684829       -18.6351
  52   2.0000      -0.673999       -18.3405
  53   2.0000      -0.649842       -17.6831
  54   2.0000      -0.634744       -17.2723
  55   2.0000      -0.599124       -16.3030
  56   2.0000      -0.592902       -16.1337
  57   2.0000      -0.573394       -15.6028
  58   2.0000      -0.570378       -15.5208
  59   2.0000      -0.563211       -15.3258
  60   2.0000      -0.498338       -13.5605
  61   2.0000      -0.490799       -13.3553
  62   2.0000      -0.477494       -12.9933
  63   2.0000      -0.471058       -12.8181
  64   2.0000      -0.453478       -12.3398
  65   2.0000      -0.447651       -12.1812
  66   2.0000      -0.439365       -11.9557
  67   2.0000      -0.436647       -11.8818
  68   2.0000      -0.433256       -11.7895
  69   2.0000      -0.416476       -11.3329
  70   2.0000      -0.403286       -10.9740
  71   2.0000      -0.400556       -10.8997
  72   2.0000      -0.391976       -10.6662
  73   2.0000      -0.390242       -10.6190
  74   2.0000      -0.389227       -10.5914
  75   2.0000      -0.379858       -10.3365
  76   2.0000      -0.359542        -9.7836
  77   2.0000      -0.358002        -9.7417
  78   2.0000      -0.355252        -9.6669
  79   2.0000      -0.351101        -9.5539
  80   2.0000      -0.347532        -9.4568
  81   2.0000      -0.345464        -9.4005
  82   2.0000      -0.340515        -9.2659
  83   2.0000      -0.332915        -9.0591
  84   2.0000      -0.330978        -9.0064
  85   2.0000      -0.317753        -8.6465
  86   2.0000      -0.312954        -8.5159
  87   2.0000      -0.293295        -7.9810
  88   2.0000      -0.292334        -7.9548
  89   2.0000      -0.291013        -7.9189
  90   2.0000      -0.280392        -7.6299
  91   2.0000      -0.277867        -7.5611
  92   2.0000      -0.271096        -7.3769
  93   2.0000      -0.263968        -7.1829
  94   2.0000      -0.260414        -7.0862
  95   2.0000      -0.235467        -6.4074
  96   2.0000      -0.222617        -6.0577
  97   2.0000      -0.207481        -5.6458
  98   2.0000      -0.202222        -5.5027
  99   2.0000      -0.194098        -5.2817
 100   2.0000      -0.190602        -5.1865
 101   0.0000      -0.047628        -1.2960
 102   0.0000      -0.032196        -0.8761
 103   0.0000      -0.010303        -0.2804
 104   0.0000       0.010101         0.2749
 105   0.0000       0.017298         0.4707

MULLIKEN ATOMIC CHARGES
-----------------------
   0 C :   -0.306362
   1 C :   -0.004568
   2 O :   -0.370525
   3 P :    0.615718
   4 S :   -0.320959
   5 O :   -0.371587
   6 C :    0.007896
   7 C :   -0.363620
   8 S :   -0.098501
   9 C :   -0.334843
  10 S :   -0.129939
  11 P :    0.587490
  12 S :   -0.282690
  13 O :   -0.371437
  14 C :   -0.017730
  15 C :   -0.302154
  16 O :   -0.356993
  17 C :   -0.005241
  18 C :   -0.317839
  19 H :    0.122153
  20 H :    0.117371
  21 H :    0.111219
  22 H :    0.103540
  23 H :    0.108923
  24 H :    0.102888
  25 H :    0.110844
  26 H :    0.170715
  27 H :    0.112604
  28 H :    0.112832
  29 H :    0.180776
  30 H :    0.210111
  31 H :    0.102193
  32 H :    0.116248
  33 H :    0.105928
  34 H :    0.142755
  35 H :    0.111859
  36 H :    0.115064
  37 H :    0.114985
  38 H :    0.125788
  39 H :    0.128105
  40 H :    0.116983
Sum of atomic charges:   -0.0000000

LOEWDIN ATOMIC CHARGES
----------------------
   0 C :   -0.364230
   1 C :   -0.119094
   2 O :   -0.246935
   3 P :    0.571619
   4 S :   -0.309539
   5 O :   -0.241542
   6 C :   -0.117059
   7 C :   -0.377175
   8 S :    0.083622
   9 C :   -0.477863
  10 S :    0.067064
  11 P :    0.562168
  12 S :   -0.280047
  13 O :   -0.244202
  14 C :   -0.116966
  15 C :   -0.362375
  16 O :   -0.233407
  17 C :   -0.111791
  18 C :   -0.367790
  19 H :    0.123003
  20 H :    0.126722
  21 H :    0.129842
  22 H :    0.117953
  23 H :    0.109347
  24 H :    0.117579
  25 H :    0.111791
  26 H :    0.122470
  27 H :    0.120926
  28 H :    0.131297
  29 H :    0.134136
  30 H :    0.124549
  31 H :    0.116775
  32 H :    0.098518
  33 H :    0.127363
  34 H :    0.127685
  35 H :    0.125491
  36 H :    0.125106
  37 H :    0.112485
  38 H :    0.118070
  39 H :    0.131338
  40 H :    0.133095

  Mayer bond orders larger than 0.100000
B(  0-C ,  1-C ) :   1.1646 B(  0-C , 19-H ) :   0.9381 B(  0-C , 20-H ) :   0.9463
B(  0-C , 21-H ) :   0.9389 B(  1-C ,  2-O ) :   0.9117 B(  1-C , 22-H ) :   0.9349
B(  1-C , 23-H ) :   0.9147 B(  2-O ,  3-P ) :   1.1180 B(  3-P ,  4-S ) :   1.6072
B(  3-P ,  5-O ) :   1.1127 B(  3-P ,  8-S ) :   0.9645 B(  4-S ,  8-S ) :   0.1152
B(  5-O ,  6-C ) :   0.9041 B(  6-C ,  7-C ) :   1.1643 B(  6-C , 24-H ) :   0.9329
B(  6-C , 25-H ) :   0.9161 B(  7-C , 26-H ) :   0.9146 B(  7-C , 27-H ) :   0.9435
B(  7-C , 28-H ) :   0.9371 B(  8-S ,  9-C ) :   0.9778 B(  9-C , 10-S ) :   1.0214
B(  9-C , 29-H ) :   0.9045 B(  9-C , 30-H ) :   0.8534 B( 10-S , 11-P ) :   0.9158
B( 10-S , 12-S ) :   0.1145 B( 11-P , 12-S ) :   1.6634 B( 11-P , 13-O ) :   1.0891
B( 11-P , 16-O ) :   1.1501 B( 13-O , 14-C ) :   0.9047 B( 14-C , 15-C ) :   1.1705
B( 14-C , 31-H ) :   0.9352 B( 14-C , 32-H ) :   0.9040 B( 15-C , 33-H ) :   0.9387
B( 15-C , 34-H ) :   0.9276 B( 15-C , 35-H ) :   0.9459 B( 16-O , 17-C ) :   0.9008
B( 17-C , 18-C ) :   1.1690 B( 17-C , 36-H ) :   0.9343 B( 17-C , 37-H ) :   0.9247
B( 18-C , 38-H ) :   0.9379 B( 18-C , 39-H ) :   0.9413 B( 18-C , 40-H ) :   0.9340

Dispersion correction           -0.065335113
FINAL SINGLE POINT ENERGY     -2929.516331609821

DIPOLE MOMENT
-------------

Method             : SCF
Type of density    : Electron Density
Multiplicity       :   1
Irrep              :   0
Energy             : -2929.6359100288277659 Eh
Relativity type    :
Basis              : AO
                                X                 Y                 Z
Electronic contribution:     -1.955061693      -1.060915143     -11.249703260
Nuclear contribution   :      1.836722450      -0.023532227      11.948409728
                        -----------------------------------------
Total Dipole Moment    :     -0.118339243      -1.084447370       0.698706468
                        -----------------------------------------
Magnitude (a.u.)       :      1.295461695
Magnitude (Debye)      :      3.292801945

Rotational constants in cm-1:             0.014359             0.004518             0.004110
Rotational constants in MHz :           430.468433           135.459011           123.217761

                             ****ORCA TERMINATED NORMALLY****
TOTAL RUN TIME: 0 days 0 hours 0 minutes 21 seconds 29 msec
