                         Program Version 6.0.0  -   RELEASE  -
|  1> ! pbe def2-sv(p) def2/J RI DEFGRID1 loosescf d4 GCP(DFT/SV(P)) printgap
|  2> %output
|  3>     printlevel normal
|  4> end
|  5> * xyz 0 1
|  6> C 5.1868484263 0.9111751896 -0.0900309712
|  7> C 3.8833675555 1.2818910221 -0.7651042577
|  8> O 3.0150874491 0.1383448403 -0.9098463166
|  9> P 2.3149132799 -0.5381799433 0.3376922193
| 10> S 1.8966846158 0.6485403847 1.8483504453
| 11> O 3.329573748 -1.7026288337 0.7130569732
| 12> C 3.235499944 -2.4280788302 1.9498985868
| 13> C 1.9820347694 -3.2770089548 2.0068283222
| 14> S 0.7465319824 -1.555361531 -0.6640839095
| 15> C 0.207358905 -0.2497480941 -1.8048613459
| 16> S -0.3256750799 1.2755713847 -0.9772619496
| 17> P -2.3449557654 0.751014806 -0.5863134984
| 18> S -3.0085164483 -0.9090611087 -1.3998787548
| 19> O -3.0487140479 2.0633034004 -1.1217062786
| 20> C -4.4253200978 2.0743770594 -1.5496055
| 21> C -5.3721611154 1.9455536441 -0.3750698704
| 22> O -2.5428117994 0.9406094558 0.9802919703
| 23> C -1.8434022898 0.2499322496 2.0275920061
| 24> C -2.0561974838 -1.250243108 1.9933897233
| 25> H 5.8517877236 1.7691348678 -0.0947876026
| 26> H 4.9981573024 0.615007434 0.9410219149
| 27> H 5.6577307818 0.0829056785 -0.6128456176
| 28> H 4.0392416192 1.6247036679 -1.7887683354
| 29> H 3.3526967996 2.0501471511 -0.1933289104
| 30> H 4.1400020364 -3.0371373298 1.9690239906
| 31> H 3.2504537524 -1.7087126559 2.7754498913
| 32> H 1.9310814851 -3.9367338715 1.1444501052
| 33> H 1.9837904097 -3.8685012538 2.9166034118
| 34> H 1.1022845734 -2.6331706097 2.0031474529
| 35> H -0.6312078854 -0.6763695604 -2.3578430522
| 36> H 1.0283791746 0.0148207744 -2.4646188527
| 37> H -4.5346856309 3.0325526021 -2.0588371017
| 38> H -4.5761528296 1.2543956726 -2.2593150239
| 39> H -5.1700868527 2.7224849306 0.3573980532
| 40> H -6.3963962463 2.0312442109 -0.7241046779
| 41> H -5.2369961444 0.9740135379 0.0988004522
| 42> H -0.7787515186 0.4972620761 1.9636834351
| 43> H -2.2554526737 0.6871609889 2.9389844434
| 44> H -1.6005690931 -1.6847574913 1.104629308
| 45> H -1.5998366735 -1.6913480685 2.8741426141
| 46> H -3.1184727901 -1.4817041679 1.9855915848
| 47> *
| 48>
| 49>                          ****END OF INPUT****

CARTESIAN COORDINATES (ANGSTROEM)
---------------------------------
  C      5.186848    0.911175   -0.090031
  C      3.883368    1.281891   -0.765104
  O      3.015087    0.138345   -0.909846
  P      2.314913   -0.538180    0.337692
  S      1.896685    0.648540    1.848350
  O      3.329574   -1.702629    0.713057
  C      3.235500   -2.428079    1.949899
  C      1.982035   -3.277009    2.006828
  S      0.746532   -1.555362   -0.664084
  C      0.207359   -0.249748   -1.804861
  S     -0.325675    1.275571   -0.977262
  P     -2.344956    0.751015   -0.586313
  S     -3.008516   -0.909061   -1.399879
  O     -3.048714    2.063303   -1.121706
  C     -4.425320    2.074377   -1.549605
  C     -5.372161    1.945554   -0.375070
  O     -2.542812    0.940609    0.980292
  C     -1.843402    0.249932    2.027592
  C     -2.056197   -1.250243    1.993390
  H      5.851788    1.769135   -0.094788
  H      4.998157    0.615007    0.941022
  H      5.657731    0.082906   -0.612846
  H      4.039242    1.624704   -1.788768
  H      3.352697    2.050147   -0.193329
  H      4.140002   -3.037137    1.969024
  H      3.250454   -1.708713    2.775450
  H      1.931081   -3.936734    1.144450
  H      1.983790   -3.868501    2.916603
  H      1.102285   -2.633171    2.003147
  H     -0.631208   -0.676370   -2.357843
  H      1.028379    0.014821   -2.464619
  H     -4.534686    3.032553   -2.058837
  H     -4.576153    1.254396   -2.259315
  H     -5.170087    2.722485    0.357398
  H     -6.396396    2.031244   -0.724105
  H     -5.236996    0.974014    0.098800
  H     -0.778752    0.497262    1.963683
  H     -2.255453    0.687161    2.938984
  H     -1.600569   -1.684757    1.104629
  H     -1.599837   -1.691348    2.874143
  H     -3.118473   -1.481704    1.985592

 Total Charge           Charge          ....    0
 Multiplicity           Mult            ....    1
 Number of Electrons    NEL             ....  202
 Basis Dimension        Dim             ....  334

ORBITAL ENERGIES
----------------

  NO   OCC          E(Eh)            E(eV)
   0   2.0000     -88.042598     -2395.7609
   1   2.0000     -88.040083     -2395.6925
   2   2.0000     -87.991327     -2394.3657
   3   2.0000     -87.988687     -2394.2939
   4   2.0000     -76.430790     -2079.7875
   5   2.0000     -76.424485     -2079.6160
   6   2.0000     -18.799645      -511.5643
   7   2.0000     -18.796279      -511.4728
   8   2.0000     -18.786135      -511.1967
   9   2.0000     -18.784611      -511.1552
  10   2.0000      -9.956833      -270.9392
  11   2.0000      -9.956450      -270.9288
  12   2.0000      -9.955056      -270.8908
  13   2.0000      -9.948115      -270.7020
  14   2.0000      -9.940956      -270.5072
  15   2.0000      -9.889984      -269.1201
  16   2.0000      -9.887542      -269.0537
  17   2.0000      -9.879947      -268.8470
  18   2.0000      -9.871622      -268.6205
  19   2.0000      -7.687581      -209.1897
  20   2.0000      -7.685252      -209.1263
  21   2.0000      -7.635844      -207.7819
  22   2.0000      -7.633547      -207.7194
  23   2.0000      -6.428444      -174.9268
  24   2.0000      -6.421995      -174.7514
  25   2.0000      -5.715635      -155.5303
  26   2.0000      -5.713117      -155.4618
  27   2.0000      -5.712096      -155.4340
  28   2.0000      -5.709881      -155.3737
  29   2.0000      -5.704371      -155.2238
  30   2.0000      -5.702067      -155.1611
  31   2.0000      -5.664573      -154.1409
  32   2.0000      -5.662354      -154.0805
  33   2.0000      -5.656536      -153.9222
  34   2.0000      -5.656180      -153.9125
  35   2.0000      -5.654412      -153.8644
  36   2.0000      -5.653583      -153.8418
  37   2.0000      -4.651090      -126.5626
  38   2.0000      -4.650208      -126.5386
  39   2.0000      -4.648816      -126.5007
  40   2.0000      -4.644279      -126.3773
  41   2.0000      -4.643848      -126.3655
  42   2.0000      -4.642669      -126.3334
  43   2.0000      -0.993213       -27.0267
  44   2.0000      -0.981233       -26.7007
  45   2.0000      -0.953322       -25.9412
  46   2.0000      -0.938869       -25.5479
  47   2.0000      -0.762411       -20.7463
  48   2.0000      -0.721878       -19.6433
  49   2.0000      -0.706716       -19.2307
  50   2.0000      -0.691933       -18.8285
  51   2.0000      -0.679556       -18.4916
  52   2.0000      -0.672591       -18.3021
  53   2.0000      -0.654953       -17.8222
  54   2.0000      -0.640837       -17.4381
  55   2.0000      -0.604181       -16.4406
  56   2.0000      -0.593498       -16.1499
  57   2.0000      -0.577958       -15.7270
  58   2.0000      -0.566473       -15.4145
  59   2.0000      -0.560662       -15.2564
  60   2.0000      -0.499734       -13.5985
  61   2.0000      -0.489130       -13.3099
  62   2.0000      -0.478693       -13.0259
  63   2.0000      -0.463397       -12.6097
  64   2.0000      -0.461013       -12.5448
  65   2.0000      -0.444953       -12.1078
  66   2.0000      -0.443857       -12.0780
  67   2.0000      -0.430323       -11.7097
  68   2.0000      -0.423994       -11.5375
  69   2.0000      -0.419589       -11.4176
  70   2.0000      -0.405026       -11.0213
  71   2.0000      -0.398648       -10.8478
  72   2.0000      -0.393410       -10.7052
  73   2.0000      -0.388082       -10.5603
  74   2.0000      -0.386050       -10.5049
  75   2.0000      -0.376618       -10.2483
  76   2.0000      -0.370997       -10.0953
  77   2.0000      -0.360660        -9.8141
  78   2.0000      -0.355060        -9.6617
  79   2.0000      -0.351695        -9.5701
  80   2.0000      -0.347115        -9.4455
  81   2.0000      -0.341960        -9.3052
  82   2.0000      -0.338048        -9.1988
  83   2.0000      -0.335093        -9.1183
  84   2.0000      -0.331741        -9.0271
  85   2.0000      -0.317467        -8.6387
  86   2.0000      -0.308049        -8.3824
  87   2.0000      -0.300885        -8.1875
  88   2.0000      -0.290862        -7.9147
  89   2.0000      -0.289518        -7.8782
  90   2.0000      -0.282326        -7.6825
  91   2.0000      -0.278621        -7.5817
  92   2.0000      -0.270737        -7.3671
  93   2.0000      -0.266698        -7.2572
  94   2.0000      -0.255922        -6.9640
  95   2.0000      -0.241964        -6.5842
  96   2.0000      -0.219851        -5.9825
  97   2.0000      -0.209666        -5.7053
  98   2.0000      -0.205000        -5.5783
  99   2.0000      -0.202219        -5.5026
 100   2.0000      -0.196395        -5.3442
 101   0.0000      -0.048934        -1.3315
 102   0.0000      -0.026062        -0.7092
 103   0.0000      -0.019213        -0.5228
 104   0.0000       0.003324         0.0904
 105   0.0000       0.016776         0.4565

MULLIKEN ATOMIC CHARGES
-----------------------
   0 C :   -0.306084
   1 C :   -0.007906
   2 O :   -0.374032
   3 P :    0.612156
   4 S :   -0.317903
   5 O :   -0.366997
   6 C :   -0.002009
   7 C :   -0.339772
   8 S :   -0.087715
   9 C :   -0.349397
  10 S :   -0.083868
  11 P :    0.628446
  12 S :   -0.336673
  13 O :   -0.368494
  14 C :   -0.006308
  15 C :   -0.303811
  16 O :   -0.370432
  17 C :   -0.027581
  18 C :   -0.330752
  19 H :    0.114512
  20 H :    0.123393
  21 H :    0.118973
  22 H :    0.106411
  23 H :    0.117622
  24 H :    0.108252
  25 H :    0.110063
  26 H :    0.126873
  27 H :    0.118322
  28 H :    0.137686
  29 H :    0.193838
  30 H :    0.190501
  31 H :    0.104886
  32 H :    0.111701
  33 H :    0.117303
  34 H :    0.109845
  35 H :    0.124034
  36 H :    0.136374
  37 H :    0.099705
  38 H :    0.144899
  39 H :    0.110515
  40 H :    0.113425
Sum of atomic charges:   -0.0000000

LOEWDIN ATOMIC CHARGES
----------------------
   0 C :   -0.364164
   1 C :   -0.117724
   2 O :   -0.239645
   3 P :    0.572016
   4 S :   -0.307795
   5 O :   -0.241643
   6 C :   -0.120484
   7 C :   -0.371859
   8 S :    0.094585
   9 C :   -0.480325
  10 S :    0.088537
  11 P :    0.575076
  12 S :   -0.310611
  13 O :   -0.244446
  14 C :   -0.117131
  15 C :   -0.363775
  16 O :   -0.240023
  17 C :   -0.122606
  18 C :   -0.373879
  19 H :    0.131816
  20 H :    0.123132
  21 H :    0.127696
  22 H :    0.118980
  23 H :    0.113150
  24 H :    0.120333
  25 H :    0.109461
  26 H :    0.127863
  27 H :    0.133930
  28 H :    0.121529
  29 H :    0.128731
  30 H :    0.134451
  31 H :    0.118713
  32 H :    0.109104
  33 H :    0.126839
  34 H :    0.129291
  35 H :    0.123387
  36 H :    0.103141
  37 H :    0.117939
  38 H :    0.114801
  39 H :    0.127481
  40 H :    0.124129

  Mayer bond orders larger than 0.100000
B(  0-C ,  1-C ) :   1.1654 B(  0-C , 19-H ) :   0.9386 B(  0-C , 20-H ) :   0.9362
B(  0-C , 21-H ) :   0.9458 B(  1-C ,  2-O ) :   0.8987 B(  1-C , 22-H ) :   0.9337
B(  1-C , 23-H ) :   0.9157 B(  2-O ,  3-P ) :   1.1148 B(  3-P ,  4-S ) :   1.5998
B(  3-P ,  5-O ) :   1.1056 B(  3-P ,  8-S ) :   0.9661 B(  4-S ,  8-S ) :   0.1054
B(  5-O ,  6-C ) :   0.9092 B(  6-C ,  7-C ) :   1.1631 B(  6-C , 24-H ) :   0.9323
B(  6-C , 25-H ) :   0.9138 B(  7-C , 26-H ) :   0.9425 B(  7-C , 27-H ) :   0.9378
B(  7-C , 28-H ) :   0.9287 B(  8-S ,  9-C ) :   0.9972 B(  9-C , 10-S ) :   1.0178
B(  9-C , 29-H ) :   0.8661 B(  9-C , 30-H ) :   0.8978 B( 10-S , 11-P ) :   0.9443
B( 10-S , 12-S ) :   0.1143 B( 11-P , 12-S ) :   1.5934 B( 11-P , 13-O ) :   1.1338
B( 11-P , 16-O ) :   1.1230 B( 13-O , 14-C ) :   0.9103 B( 14-C , 15-C ) :   1.1634
B( 14-C , 31-H ) :   0.9346 B( 14-C , 32-H ) :   0.9138 B( 15-C , 33-H ) :   0.9465
B( 15-C , 34-H ) :   0.9389 B( 15-C , 35-H ) :   0.9369 B( 16-O , 17-C ) :   0.9033
B( 17-C , 18-C ) :   1.1671 B( 17-C , 36-H ) :   0.9003 B( 17-C , 37-H ) :   0.9346
B( 18-C , 38-H ) :   0.9220 B( 18-C , 39-H ) :   0.9330 B( 18-C , 40-H ) :   0.9427

Dispersion correction           -0.065888391
FINAL SINGLE POINT ENERGY     -2929.522563436331

DIPOLE MOMENT
-------------

Method             : SCF
Type of density    : Electron Density
Multiplicity       :   1
Irrep              :   0
Energy             : -2929.6415680923992113 Eh
Relativity type    :
Basis              : AO
                                X                 Y                 Z
Electronic contribution:     -0.676418187       3.343892482      -9.948044062
Nuclear contribution   :      1.406149386      -3.307905190      10.119805009
                        -----------------------------------------
Total Dipole Moment    :      0.729731199       0.035987292       0.171760947
                        -----------------------------------------
Magnitude (a.u.)       :      0.750536162
Magnitude (Debye)      :      1.907711317

Rotational constants in cm-1:             0.014285             0.004604             0.004248
Rotational constants in MHz :           428.267313           138.029938           127.355132

                             ****ORCA TERMINATED NORMALLY****
TOTAL RUN TIME: 0 days 0 hours 0 minutes 21 seconds 78 msec
