                         Program Version 6.0.0  -   RELEASE  -
|  1> ! pbe def2-sv(p) def2/J RI DEFGRID1 loosescf d4 GCP(DFT/SV(P)) printgap
|  2> %output
|  3>     printlevel normal
|  4> end
|  5> * xyz 0 1
|  6> C 4.16044e-05 -2.5736893382 -2.47835e-05
|  7> C 1.2025604044 -1.8882338772 -2.52055e-05
|  8> C 1.1999367723 -0.5026069547 -4.2789e-05
|  9> C 1.1147e-06 0.2030710728 2.1943e-06
| 10> C -1.1999208703 -0.5026287114 3.04524e-05
| 11> C -1.2025043965 -1.8882650547 2.7411e-05
| 12> Cl -2.6950945327 0.3653877378 -1.2938e-06
| 13> Cl -3.08378e-05 1.9332833672 -8.0305e-06
| 14> Cl 2.6950829828 0.365433905 1.63665e-05
| 15> H 6.1066e-05 -3.6508885865 7.60392e-05
| 16> H 2.1427860716 -2.4135311894 6.27318e-05
| 17> H -2.142722141 -2.4135858244 3.427e-06
| 18> *
| 19>
| 20>                          ****END OF INPUT****

CARTESIAN COORDINATES (ANGSTROEM)
---------------------------------
  C      0.000042   -2.573689   -0.000025
  C      1.202560   -1.888234   -0.000025
  C      1.199937   -0.502607   -0.000043
  C      0.000001    0.203071    0.000002
  C     -1.199921   -0.502629    0.000030
  C     -1.202504   -1.888265    0.000027
  Cl    -2.695095    0.365388   -0.000001
  Cl    -0.000031    1.933283   -0.000008
  Cl     2.695083    0.365434    0.000016
  H      0.000061   -3.650889    0.000076
  H      2.142786   -2.413531    0.000063
  H     -2.142722   -2.413586    0.000003

 Total Charge           Charge          ....    0
 Multiplicity           Mult            ....    1
 Number of Electrons    NEL             ....   90
 Basis Dimension        Dim             ....  144

ORBITAL ENERGIES
----------------

  NO   OCC          E(Eh)            E(eV)
   0   2.0000    -100.653326     -2738.9162
   1   2.0000    -100.652856     -2738.9034
   2   2.0000    -100.652853     -2738.9034
   3   2.0000      -9.969936      -271.2958
   4   2.0000      -9.969836      -271.2930
   5   2.0000      -9.969583      -271.2861
   6   2.0000      -9.920318      -269.9456
   7   2.0000      -9.918664      -269.9006
   8   2.0000      -9.918656      -269.9004
   9   2.0000      -9.188802      -250.0400
  10   2.0000      -9.188561      -250.0335
  11   2.0000      -9.188557      -250.0334
  12   2.0000      -7.020619      -191.0408
  13   2.0000      -7.020159      -191.0282
  14   2.0000      -7.020159      -191.0282
  15   2.0000      -7.008849      -190.7205
  16   2.0000      -7.008622      -190.7143
  17   2.0000      -7.008621      -190.7143
  18   2.0000      -7.007747      -190.6905
  19   2.0000      -7.007683      -190.6888
  20   2.0000      -7.007676      -190.6886
  21   2.0000      -0.854953       -23.2645
  22   2.0000      -0.810392       -22.0519
  23   2.0000      -0.784106       -21.3366
  24   2.0000      -0.762445       -20.7472
  25   2.0000      -0.671965       -18.2851
  26   2.0000      -0.671960       -18.2850
  27   2.0000      -0.560125       -15.2418
  28   2.0000      -0.559923       -15.2363
  29   2.0000      -0.484456       -13.1827
  30   2.0000      -0.460115       -12.5204
  31   2.0000      -0.430553       -11.7160
  32   2.0000      -0.409171       -11.1341
  33   2.0000      -0.408645       -11.1198
  34   2.0000      -0.395969       -10.7749
  35   2.0000      -0.353011        -9.6059
  36   2.0000      -0.351787        -9.5726
  37   2.0000      -0.333686        -9.0801
  38   2.0000      -0.311509        -8.4766
  39   2.0000      -0.294005        -8.0003
  40   2.0000      -0.290571        -7.9068
  41   2.0000      -0.282917        -7.6986
  42   2.0000      -0.258877        -7.0444
  43   2.0000      -0.229596        -6.2476
  44   2.0000      -0.227779        -6.1982
  45   0.0000      -0.060494        -1.6461
  46   0.0000      -0.060187        -1.6378
  47   0.0000      -0.037885        -1.0309
  48   0.0000       0.029948         0.8149
  49   0.0000       0.047543         1.2937

MULLIKEN ATOMIC CHARGES
-----------------------
   0 C :   -0.055811
   1 C :   -0.079622
   2 C :    0.045748
   3 C :    0.060956
   4 C :    0.045746
   5 C :   -0.079623
   6 Cl:   -0.048141
   7 Cl:   -0.026040
   8 Cl:   -0.048141
   9 H :    0.071017
  10 H :    0.056954
  11 H :    0.056959
Sum of atomic charges:   -0.0000000

LOEWDIN ATOMIC CHARGES
----------------------
   0 C :   -0.114773
   1 C :   -0.139429
   2 C :   -0.148852
   3 C :   -0.175455
   4 C :   -0.148849
   5 C :   -0.139428
   6 Cl:    0.150830
   7 Cl:    0.158016
   8 Cl:    0.150836
   9 H :    0.134235
  10 H :    0.136435
  11 H :    0.136434

  Mayer bond orders larger than 0.100000
B(  0-C ,  1-C ) :   1.3329 B(  0-C ,  5-C ) :   1.3329 B(  0-C ,  9-H ) :   0.9608
B(  1-C ,  2-C ) :   1.3947 B(  1-C , 10-H ) :   0.9694 B(  2-C ,  3-C ) :   1.4069
B(  2-C ,  8-Cl) :   1.0404 B(  3-C ,  4-C ) :   1.4069 B(  3-C ,  7-Cl) :   1.1114
B(  4-C ,  5-C ) :   1.3947 B(  4-C ,  6-Cl) :   1.0404 B(  5-C , 11-H ) :   0.9694

Dispersion correction           -0.018808818
FINAL SINGLE POINT ENERGY     -1609.560678778437

DIPOLE MOMENT
-------------

Method             : SCF
Type of density    : Electron Density
Multiplicity       :   1
Irrep              :   0
Energy             : -1609.5797074871213681 Eh
Relativity type    :
Basis              : AO
                                X                 Y                 Z
Electronic contribution:     -0.000151658      10.713702131      -0.000087324
Nuclear contribution   :      0.000174162     -11.529661359       0.000123955
                        -----------------------------------------
Total Dipole Moment    :      0.000022505      -0.815959228       0.000036631
                        -----------------------------------------
Magnitude (a.u.)       :      0.815959229
Magnitude (Debye)      :      2.074003538

Rotational constants in cm-1:             0.049738             0.028399             0.018077
Rotational constants in MHz :          1491.107152           851.369573           541.940608

                             ****ORCA TERMINATED NORMALLY****
TOTAL RUN TIME: 0 days 0 hours 0 minutes 7 seconds 107 msec
