                         Program Version 6.0.1  -  RELEASE   -
|  1> ! pbe def2-sv(p) def2/J RI DEFGRID1 loosescf d4 GCP(DFT/SV(P)) printgap
|  2> %output
|  3>     printlevel normal
|  4> end
|  5> * xyz 0 1
|  6> C 5.4022426942 -1.7600265012 -0.4713841651
|  7> C 4.2522044355 -2.3255468799 0.3466094415
|  8> O 3.0069231335 -2.2166373579 -0.3732585101
|  9> C 2.3226640215 -1.0998711956 -0.2823881933
| 10> O 2.65922974 -0.132175147 0.3725350621
| 11> C 1.0303548559 -1.1684023749 -1.0601155375
| 12> C 0.4610674898 0.2293729698 -1.2796625556
| 13> H 0.8974401277 0.7152050086 -2.153649623
| 14> C 0.6443513516 1.1271020697 -0.069481189
| 15> O 0.0496422182 0.9279308652 0.9753748695
| 16> O 1.359554178 2.1834829672 -0.3411441883
| 17> C 1.6117962349 3.1365404687 0.7121745553
| 18> C 1.8641873429 4.4899476697 0.0764777643
| 19> S -1.3347174604 0.1876408936 -1.570778117
| 20> P -2.1417063483 -0.2903174173 0.3521777296
| 21> S -1.383952595 -1.7317424258 1.4470541656
| 22> O -2.5258345618 1.0461573859 1.1116216689
| 23> C -3.3976782963 2.0328526174 0.526224371
| 24> O -3.6130622953 -0.6914433445 -0.1638180004
| 25> C -3.8654556734 -1.9283470739 -0.8350077536
| 26> H 6.3326463986 -1.9183880941 0.0637002901
| 27> H 5.4537573694 -2.2566761252 -1.4361362771
| 28> H 5.2615595878 -0.6927944745 -0.6267983155
| 29> H 4.1521860881 -1.7965382311 1.298640393
| 30> H 4.3713332101 -3.3952947497 0.5179000394
| 31> H 0.3478039492 -1.7651314202 -0.4416409933
| 32> H 1.1763714314 -1.692900325 -2.0028868513
| 33> H 0.7483057178 3.145749128 1.3847841986
| 34> H 2.4837911469 2.7760787802 1.2655752389
| 35> H 2.7042005962 4.4245830104 -0.6080344944
| 36> H 0.9865232558 4.8182298918 -0.4725959969
| 37> H 2.0901238308 5.2113019998 0.8545762395
| 38> H -3.308409679 2.9055902359 1.1683131351
| 39> H -4.4198610094 1.6591331207 0.5171728859
| 40> H -3.0783988758 2.2646503298 -0.4905869916
| 41> H -3.3756550528 -2.7471968282 -0.3051231517
| 42> H -3.5004511207 -1.8738740727 -1.8601041763
| 43> H -4.9446707733 -2.0565455782 -0.8177260517
| 44> *
| 45>
| 46>                          ****END OF INPUT****

CARTESIAN COORDINATES (ANGSTROEM)
---------------------------------
  C      5.402243   -1.760027   -0.471384
  C      4.252204   -2.325547    0.346609
  O      3.006923   -2.216637   -0.373259
  C      2.322664   -1.099871   -0.282388
  O      2.659230   -0.132175    0.372535
  C      1.030355   -1.168402   -1.060116
  C      0.461067    0.229373   -1.279663
  H      0.897440    0.715205   -2.153650
  C      0.644351    1.127102   -0.069481
  O      0.049642    0.927931    0.975375
  O      1.359554    2.183483   -0.341144
  C      1.611796    3.136540    0.712175
  C      1.864187    4.489948    0.076478
  S     -1.334717    0.187641   -1.570778
  P     -2.141706   -0.290317    0.352178
  S     -1.383953   -1.731742    1.447054
  O     -2.525835    1.046157    1.111622
  C     -3.397678    2.032853    0.526224
  O     -3.613062   -0.691443   -0.163818
  C     -3.865456   -1.928347   -0.835008
  H      6.332646   -1.918388    0.063700
  H      5.453757   -2.256676   -1.436136
  H      5.261560   -0.692794   -0.626798
  H      4.152186   -1.796538    1.298640
  H      4.371333   -3.395295    0.517900
  H      0.347804   -1.765131   -0.441641
  H      1.176371   -1.692900   -2.002887
  H      0.748306    3.145749    1.384784
  H      2.483791    2.776079    1.265575
  H      2.704201    4.424583   -0.608034
  H      0.986523    4.818230   -0.472596
  H      2.090124    5.211302    0.854576
  H     -3.308410    2.905590    1.168313
  H     -4.419861    1.659133    0.517173
  H     -3.078399    2.264650   -0.490587
  H     -3.375655   -2.747197   -0.305123
  H     -3.500451   -1.873874   -1.860104
  H     -4.944671   -2.056546   -0.817726

 Total Charge           Charge          ....    0
 Multiplicity           Mult            ....    1
 Number of Electrons    NEL             ....  174
 Basis Dimension        Dim             ....  316

ORBITAL ENERGIES
----------------

  NO   OCC          E(Eh)            E(eV)
   0   2.0000     -88.037670     -2395.6268
   1   2.0000     -87.968211     -2393.7367
   2   2.0000     -76.418389     -2079.4501
   3   2.0000     -18.807514      -511.7785
   4   2.0000     -18.803001      -511.6557
   5   2.0000     -18.779296      -511.0106
   6   2.0000     -18.778807      -510.9973
   7   2.0000     -18.749048      -510.1875
   8   2.0000     -18.731622      -509.7134
   9   2.0000     -10.016229      -272.5554
  10   2.0000     -10.013340      -272.4768
  11   2.0000      -9.952120      -270.8109
  12   2.0000      -9.945373      -270.6274
  13   2.0000      -9.944438      -270.6019
  14   2.0000      -9.940562      -270.4964
  15   2.0000      -9.933775      -270.3118
  16   2.0000      -9.905846      -269.5518
  17   2.0000      -9.891608      -269.1643
  18   2.0000      -9.888732      -269.0861
  19   2.0000      -7.682221      -209.0439
  20   2.0000      -7.613436      -207.1721
  21   2.0000      -6.413929      -174.5319
  22   2.0000      -5.710112      -155.3800
  23   2.0000      -5.706507      -155.2820
  24   2.0000      -5.699476      -155.0906
  25   2.0000      -5.642781      -153.5479
  26   2.0000      -5.634278      -153.3165
  27   2.0000      -5.632880      -153.2784
  28   2.0000      -4.637018      -126.1797
  29   2.0000      -4.635976      -126.1513
  30   2.0000      -4.634081      -126.0998
  31   2.0000      -1.018378       -27.7115
  32   2.0000      -1.011281       -27.5184
  33   2.0000      -0.974628       -26.5210
  34   2.0000      -0.928578       -25.2679
  35   2.0000      -0.924730       -25.1632
  36   2.0000      -0.913317       -24.8526
  37   2.0000      -0.761615       -20.7246
  38   2.0000      -0.715370       -19.4662
  39   2.0000      -0.706151       -19.2153
  40   2.0000      -0.685627       -18.6569
  41   2.0000      -0.658045       -17.9063
  42   2.0000      -0.626976       -17.0609
  43   2.0000      -0.618771       -16.8376
  44   2.0000      -0.607561       -16.5326
  45   2.0000      -0.597374       -16.2554
  46   2.0000      -0.556188       -15.1347
  47   2.0000      -0.511090       -13.9075
  48   2.0000      -0.504007       -13.7147
  49   2.0000      -0.498953       -13.5772
  50   2.0000      -0.479949       -13.0601
  51   2.0000      -0.464951       -12.6520
  52   2.0000      -0.454839       -12.3768
  53   2.0000      -0.445694       -12.1280
  54   2.0000      -0.442612       -12.0441
  55   2.0000      -0.429356       -11.6834
  56   2.0000      -0.421303       -11.4642
  57   2.0000      -0.419994       -11.4286
  58   2.0000      -0.412239       -11.2176
  59   2.0000      -0.405884       -11.0447
  60   2.0000      -0.400419       -10.8959
  61   2.0000      -0.394397       -10.7321
  62   2.0000      -0.388776       -10.5791
  63   2.0000      -0.384853       -10.4724
  64   2.0000      -0.369300       -10.0492
  65   2.0000      -0.366393        -9.9701
  66   2.0000      -0.359697        -9.7878
  67   2.0000      -0.353856        -9.6289
  68   2.0000      -0.351391        -9.5618
  69   2.0000      -0.340003        -9.2520
  70   2.0000      -0.330856        -9.0031
  71   2.0000      -0.324579        -8.8322
  72   2.0000      -0.319238        -8.6869
  73   2.0000      -0.310153        -8.4397
  74   2.0000      -0.301281        -8.1983
  75   2.0000      -0.297594        -8.0979
  76   2.0000      -0.287938        -7.8352
  77   2.0000      -0.283382        -7.7112
  78   2.0000      -0.270050        -7.3484
  79   2.0000      -0.261837        -7.1250
  80   2.0000      -0.253138        -6.8882
  81   2.0000      -0.245787        -6.6882
  82   2.0000      -0.233693        -6.3591
  83   2.0000      -0.232283        -6.3207
  84   2.0000      -0.221871        -6.0374
  85   2.0000      -0.187905        -5.1131
  86   2.0000      -0.176461        -4.8017
  87   0.0000      -0.045350        -1.2340
  88   0.0000      -0.027662        -0.7527
  89   0.0000      -0.012658        -0.3445
  90   0.0000       0.017939         0.4881
  91   0.0000       0.032395         0.8815

MULLIKEN ATOMIC CHARGES
-----------------------
   0 C :   -0.306586
   1 C :   -0.012541
   2 O :   -0.224295
   3 C :    0.137066
   4 O :   -0.210627
   5 C :   -0.066589
   6 C :   -0.287112
   7 H :    0.125948
   8 C :    0.197447
   9 O :   -0.196381
  10 O :   -0.218466
  11 C :   -0.024930
  12 C :   -0.278852
  13 S :   -0.101533
  14 P :    0.621949
  15 S :   -0.304250
  16 O :   -0.357617
  17 C :   -0.099659
  18 O :   -0.401715
  19 C :   -0.098776
  20 H :    0.115799
  21 H :    0.115139
  22 H :    0.125510
  23 H :    0.115322
  24 H :    0.108139
  25 H :    0.141901
  26 H :    0.115119
  27 H :    0.116117
  28 H :    0.113264
  29 H :    0.114765
  30 H :    0.112515
  31 H :    0.112358
  32 H :    0.125601
  33 H :    0.123409
  34 H :    0.109702
  35 H :    0.114215
  36 H :    0.109635
  37 H :    0.119007
Sum of atomic charges:    0.0000000

LOEWDIN ATOMIC CHARGES
----------------------
   0 C :   -0.356126
   1 C :   -0.108204
   2 O :   -0.051298
   3 C :    0.048114
   4 O :   -0.155042
   5 C :   -0.265127
   6 C :   -0.258716
   7 H :    0.138621
   8 C :    0.007735
   9 O :   -0.163212
  10 O :   -0.043388
  11 C :   -0.104819
  12 C :   -0.351029
  13 S :    0.096558
  14 P :    0.588939
  15 S :   -0.305117
  16 O :   -0.234553
  17 C :   -0.209822
  18 O :   -0.269030
  19 C :   -0.220908
  20 H :    0.132052
  21 H :    0.125379
  22 H :    0.129590
  23 H :    0.123084
  24 H :    0.120678
  25 H :    0.142427
  26 H :    0.141277
  27 H :    0.120833
  28 H :    0.122461
  29 H :    0.126376
  30 H :    0.125302
  31 H :    0.130906
  32 H :    0.122571
  33 H :    0.116038
  34 H :    0.105089
  35 H :    0.107698
  36 H :    0.105358
  37 H :    0.119308

  Mayer bond orders larger than 0.100000
B(  0-C ,  1-C ) :   1.1730 B(  0-C , 20-H ) :   0.9440 B(  0-C , 21-H ) :   0.9485
B(  0-C , 22-H ) :   0.9468 B(  1-C ,  2-O ) :   0.9096 B(  1-C , 23-H ) :   0.9159
B(  1-C , 24-H ) :   0.9370 B(  2-O ,  3-C ) :   1.2545 B(  3-C ,  4-O ) :   1.9489
B(  3-C ,  5-C ) :   1.0196 B(  4-O ,  8-C ) :   0.1273 B(  5-C ,  6-C ) :   1.0088
B(  5-C , 25-H ) :   0.8255 B(  5-C , 26-H ) :   0.9023 B(  6-C ,  7-H ) :   0.8825
B(  6-C ,  8-C ) :   0.9006 B(  6-C , 13-S ) :   1.0138 B(  8-C ,  9-O ) :   1.9506
B(  8-C , 10-O ) :   1.2574 B(  9-O , 14-P ) :   0.1228 B( 10-O , 11-C ) :   0.9045
B( 11-C , 12-C ) :   1.1562 B( 11-C , 27-H ) :   0.9177 B( 11-C , 28-H ) :   0.9318
B( 12-C , 29-H ) :   0.9486 B( 12-C , 30-H ) :   0.9523 B( 12-C , 31-H ) :   0.9443
B( 13-S , 14-P ) :   0.9360 B( 13-S , 15-S ) :   0.1144 B( 14-P , 15-S ) :   1.6058
B( 14-P , 16-O ) :   1.1102 B( 14-P , 18-O ) :   1.0290 B( 15-S , 25-H ) :   0.1169
B( 16-O , 17-C ) :   0.9264 B( 17-C , 32-H ) :   0.9584 B( 17-C , 33-H ) :   0.9489
B( 17-C , 34-H ) :   0.9372 B( 18-O , 19-C ) :   0.9398 B( 19-C , 35-H ) :   0.9290
B( 19-C , 36-H ) :   0.9483 B( 19-C , 37-H ) :   0.9589

Dispersion correction           -0.051007782
FINAL SINGLE POINT ENERGY     -1979.008238982879

DIPOLE MOMENT
-------------

Method             : SCF
Type of density    : Electron Density
Multiplicity       :   1
Irrep              :   0
Energy             : -1979.1402546626895855 Eh
Relativity type    :
Basis              : AO
                                X                 Y                 Z
Electronic contribution:    -14.724506288      -6.933625888       2.944621072
Nuclear contribution   :     15.495786086       7.568191796      -4.176036232
                        -----------------------------------------
Total Dipole Moment    :      0.771279798       0.634565908      -1.231415160
                        -----------------------------------------
Magnitude (a.u.)       :      1.585537674
Magnitude (Debye)      :      4.030116488

Rotational constants in cm-1:             0.012865             0.006946             0.005266
Rotational constants in MHz :           385.695717           208.233602           157.881425

                             ****ORCA TERMINATED NORMALLY****
TOTAL RUN TIME: 0 days 0 hours 0 minutes 44 seconds 442 msec
