                         Program Version 6.0.0  -   RELEASE  -
|  1> ! pbe def2-sv(p) def2/J RI DEFGRID1 loosescf d4 GCP(DFT/SV(P)) printgap
|  2> %output
|  3>     printlevel normal
|  4> end
|  5> * xyz 0 1
|  6> C 5.4158689442 -1.0023854418 -1.6222954511
|  7> C 4.0887331223 -0.3303706873 -1.9089381601
|  8> O 3.6249447481 0.399334457 -0.7461914217
|  9> P 2.5743234885 -0.1676000275 0.2842353862
| 10> S 2.3588267342 1.1298912097 1.7334432931
| 11> O 3.1563091223 -1.6064714524 0.6207363578
| 12> C 2.4013067844 -2.6778313406 1.2172750166
| 13> C 1.8278813974 -2.3031897872 2.5678925496
| 14> S 0.8372981619 -0.6338517084 -0.8741078528
| 15> C 0.1012749912 1.0193207438 -0.8424751375
| 16> S -0.9436193522 1.3031271408 0.6127948166
| 17> P -2.7497831016 0.4266286049 -0.125428599
| 18> S -2.8382468652 0.1643757172 -2.0718675256
| 19> O -3.9190582034 1.3067962166 0.4727817716
| 20> C -4.4830821472 2.4119580808 -0.2527020227
| 21> C -3.5263379524 3.5850922903 -0.3346277905
| 22> O -3.0174478195 -0.820994683 0.8117184391
| 23> C -2.0799697847 -1.8817442848 1.0603774613
| 24> C -1.9796702766 -2.8425775239 -0.1083287736
| 25> H 6.1460420544 -0.2625410511 -1.3059666424
| 26> H 5.3022156093 -1.7398810104 -0.832527187
| 27> H 5.7686367628 -1.4921279687 -2.524537648
| 28> H 3.327194645 -1.059733185 -2.1991377111
| 29> H 4.1885067563 0.4283268018 -2.6873011892
| 30> H 1.6073920984 -2.9646858071 0.5218617305
| 31> H 3.1274230139 -3.4878273591 1.3050039483
| 32> H 2.6199167782 -1.9810704149 3.2394496931
| 33> H 1.1199849837 -1.4819030437 2.4636084531
| 34> H 1.3179946068 -3.1599845546 2.9961006712
| 35> H -0.5093046295 1.1040315764 -1.7430952357
| 36> H 0.8905765202 1.7671730574 -0.8137502679
| 37> H -4.7591781723 2.0691950965 -1.2556013976
| 38> H -5.381545042 2.665190731 0.3116323912
| 39> H -2.6726315981 3.3267236613 -0.9598962419
| 40> H -4.0370906517 4.4369854578 -0.7719795973
| 41> H -3.167516819 3.8487082901 0.6572772127
| 42> H -1.1029236379 -1.4464612423 1.2952499742
| 43> H -2.4786271356 -2.3758613092 1.9482958203
| 44> H -1.538175056 -2.3486156581 -0.9722028739
| 45> H -1.3571033027 -3.6856863065 0.1730959695
| 46> H -2.9688222185 -3.2010789119 -0.380418307
| 47> *
| 48>
| 49>                          ****END OF INPUT****

CARTESIAN COORDINATES (ANGSTROEM)
---------------------------------
  C      5.415869   -1.002385   -1.622295
  C      4.088733   -0.330371   -1.908938
  O      3.624945    0.399334   -0.746191
  P      2.574323   -0.167600    0.284235
  S      2.358827    1.129891    1.733443
  O      3.156309   -1.606471    0.620736
  C      2.401307   -2.677831    1.217275
  C      1.827881   -2.303190    2.567893
  S      0.837298   -0.633852   -0.874108
  C      0.101275    1.019321   -0.842475
  S     -0.943619    1.303127    0.612795
  P     -2.749783    0.426629   -0.125429
  S     -2.838247    0.164376   -2.071868
  O     -3.919058    1.306796    0.472782
  C     -4.483082    2.411958   -0.252702
  C     -3.526338    3.585092   -0.334628
  O     -3.017448   -0.820995    0.811718
  C     -2.079970   -1.881744    1.060377
  C     -1.979670   -2.842578   -0.108329
  H      6.146042   -0.262541   -1.305967
  H      5.302216   -1.739881   -0.832527
  H      5.768637   -1.492128   -2.524538
  H      3.327195   -1.059733   -2.199138
  H      4.188507    0.428327   -2.687301
  H      1.607392   -2.964686    0.521862
  H      3.127423   -3.487827    1.305004
  H      2.619917   -1.981070    3.239450
  H      1.119985   -1.481903    2.463608
  H      1.317995   -3.159985    2.996101
  H     -0.509305    1.104032   -1.743095
  H      0.890577    1.767173   -0.813750
  H     -4.759178    2.069195   -1.255601
  H     -5.381545    2.665191    0.311632
  H     -2.672632    3.326724   -0.959896
  H     -4.037091    4.436985   -0.771980
  H     -3.167517    3.848708    0.657277
  H     -1.102924   -1.446461    1.295250
  H     -2.478627   -2.375861    1.948296
  H     -1.538175   -2.348616   -0.972203
  H     -1.357103   -3.685686    0.173096
  H     -2.968822   -3.201079   -0.380418

 Total Charge           Charge          ....    0
 Multiplicity           Mult            ....    1
 Number of Electrons    NEL             ....  202
 Basis Dimension        Dim             ....  334

ORBITAL ENERGIES
----------------

  NO   OCC          E(Eh)            E(eV)
   0   2.0000     -88.049083     -2395.9374
   1   2.0000     -88.044028     -2395.7998
   2   2.0000     -87.990594     -2394.3458
   3   2.0000     -87.987287     -2394.2558
   4   2.0000     -76.431207     -2079.7989
   5   2.0000     -76.425941     -2079.6556
   6   2.0000     -18.803817      -511.6779
   7   2.0000     -18.795757      -511.4586
   8   2.0000     -18.788826      -511.2700
   9   2.0000     -18.788611      -511.2641
  10   2.0000      -9.967014      -271.2162
  11   2.0000      -9.959244      -271.0048
  12   2.0000      -9.956937      -270.9420
  13   2.0000      -9.953156      -270.8391
  14   2.0000      -9.949871      -270.7498
  15   2.0000      -9.890314      -269.1291
  16   2.0000      -9.889599      -269.1097
  17   2.0000      -9.881941      -268.9013
  18   2.0000      -9.881550      -268.8906
  19   2.0000      -7.693512      -209.3511
  20   2.0000      -7.688201      -209.2066
  21   2.0000      -7.635474      -207.7718
  22   2.0000      -7.632426      -207.6889
  23   2.0000      -6.428572      -174.9304
  24   2.0000      -6.423390      -174.7893
  25   2.0000      -5.721098      -155.6790
  26   2.0000      -5.718000      -155.5947
  27   2.0000      -5.716073      -155.5422
  28   2.0000      -5.712735      -155.4514
  29   2.0000      -5.710895      -155.4013
  30   2.0000      -5.705328      -155.2499
  31   2.0000      -5.664209      -154.1310
  32   2.0000      -5.661597      -154.0599
  33   2.0000      -5.656056      -153.9091
  34   2.0000      -5.655874      -153.9042
  35   2.0000      -5.652937      -153.8242
  36   2.0000      -5.652463      -153.8113
  37   2.0000      -4.651487      -126.5734
  38   2.0000      -4.650608      -126.5495
  39   2.0000      -4.648468      -126.4913
  40   2.0000      -4.645641      -126.4143
  41   2.0000      -4.645454      -126.4092
  42   2.0000      -4.643809      -126.3645
  43   2.0000      -0.995656       -27.0932
  44   2.0000      -0.988099       -26.8875
  45   2.0000      -0.952351       -25.9148
  46   2.0000      -0.943627       -25.6774
  47   2.0000      -0.765172       -20.8214
  48   2.0000      -0.724189       -19.7062
  49   2.0000      -0.714005       -19.4291
  50   2.0000      -0.697796       -18.9880
  51   2.0000      -0.681834       -18.5536
  52   2.0000      -0.678805       -18.4712
  53   2.0000      -0.653601       -17.7854
  54   2.0000      -0.642699       -17.4887
  55   2.0000      -0.599627       -16.3167
  56   2.0000      -0.595331       -16.1998
  57   2.0000      -0.579969       -15.7818
  58   2.0000      -0.572096       -15.5675
  59   2.0000      -0.564690       -15.3660
  60   2.0000      -0.510750       -13.8982
  61   2.0000      -0.495457       -13.4821
  62   2.0000      -0.481503       -13.1024
  63   2.0000      -0.469430       -12.7738
  64   2.0000      -0.462479       -12.5847
  65   2.0000      -0.451293       -12.2803
  66   2.0000      -0.441802       -12.0220
  67   2.0000      -0.438012       -11.9189
  68   2.0000      -0.426041       -11.5932
  69   2.0000      -0.421103       -11.4588
  70   2.0000      -0.416986       -11.3468
  71   2.0000      -0.407460       -11.0875
  72   2.0000      -0.402035       -10.9399
  73   2.0000      -0.390543       -10.6272
  74   2.0000      -0.381683       -10.3861
  75   2.0000      -0.372950       -10.1485
  76   2.0000      -0.366479        -9.9724
  77   2.0000      -0.360714        -9.8155
  78   2.0000      -0.358430        -9.7534
  79   2.0000      -0.353146        -9.6096
  80   2.0000      -0.348717        -9.4891
  81   2.0000      -0.346474        -9.4280
  82   2.0000      -0.345126        -9.3913
  83   2.0000      -0.338503        -9.2111
  84   2.0000      -0.335907        -9.1405
  85   2.0000      -0.326081        -8.8731
  86   2.0000      -0.313115        -8.5203
  87   2.0000      -0.303903        -8.2696
  88   2.0000      -0.298030        -8.1098
  89   2.0000      -0.294426        -8.0117
  90   2.0000      -0.287622        -7.8266
  91   2.0000      -0.284120        -7.7313
  92   2.0000      -0.269629        -7.3370
  93   2.0000      -0.267235        -7.2718
  94   2.0000      -0.260213        -7.0808
  95   2.0000      -0.245409        -6.6779
  96   2.0000      -0.217443        -5.9169
  97   2.0000      -0.214083        -5.8255
  98   2.0000      -0.205154        -5.5825
  99   2.0000      -0.203385        -5.5344
 100   2.0000      -0.198323        -5.3966
 101   0.0000      -0.045546        -1.2394
 102   0.0000      -0.036125        -0.9830
 103   0.0000      -0.012845        -0.3495
 104   0.0000       0.004748         0.1292
 105   0.0000       0.007910         0.2153

MULLIKEN ATOMIC CHARGES
-----------------------
   0 C :   -0.289355
   1 C :   -0.010759
   2 O :   -0.353271
   3 P :    0.585350
   4 S :   -0.298593
   5 O :   -0.379168
   6 C :   -0.020440
   7 C :   -0.333899
   8 S :   -0.113730
   9 C :   -0.347659
  10 S :   -0.069314
  11 P :    0.595333
  12 S :   -0.336792
  13 O :   -0.356173
  14 C :   -0.005094
  15 C :   -0.310611
  16 O :   -0.350319
  17 C :   -0.042109
  18 C :   -0.308109
  19 H :    0.121842
  20 H :    0.121050
  21 H :    0.110604
  22 H :    0.097879
  23 H :    0.110576
  24 H :    0.118677
  25 H :    0.111226
  26 H :    0.128392
  27 H :    0.157233
  28 H :    0.111891
  29 H :    0.194786
  30 H :    0.190375
  31 H :    0.113852
  32 H :    0.107327
  33 H :    0.119286
  34 H :    0.111872
  35 H :    0.120454
  36 H :    0.134136
  37 H :    0.106672
  38 H :    0.133176
  39 H :    0.103970
  40 H :    0.119435
Sum of atomic charges:   -0.0000000

LOEWDIN ATOMIC CHARGES
----------------------
   0 C :   -0.358751
   1 C :   -0.116137
   2 O :   -0.237187
   3 P :    0.564326
   4 S :   -0.302937
   5 O :   -0.243348
   6 C :   -0.115298
   7 C :   -0.370772
   8 S :    0.075135
   9 C :   -0.483856
  10 S :    0.097795
  11 P :    0.567081
  12 S :   -0.315173
  13 O :   -0.233410
  14 C :   -0.119611
  15 C :   -0.367618
  16 O :   -0.230807
  17 C :   -0.122184
  18 C :   -0.367657
  19 H :    0.129739
  20 H :    0.126153
  21 H :    0.129758
  22 H :    0.102456
  23 H :    0.121604
  24 H :    0.107094
  25 H :    0.122022
  26 H :    0.132914
  27 H :    0.123962
  28 H :    0.130202
  29 H :    0.125967
  30 H :    0.134199
  31 H :    0.110127
  32 H :    0.119889
  33 H :    0.118830
  34 H :    0.130175
  35 H :    0.126298
  36 H :    0.099814
  37 H :    0.119878
  38 H :    0.115807
  39 H :    0.124645
  40 H :    0.128875

  Mayer bond orders larger than 0.100000
B(  0-C ,  1-C ) :   1.1648 B(  0-C , 19-H ) :   0.9468 B(  0-C , 20-H ) :   0.9431
B(  0-C , 21-H ) :   0.9401 B(  1-C ,  2-O ) :   0.8934 B(  1-C , 22-H ) :   0.9125
B(  1-C , 23-H ) :   0.9357 B(  2-O ,  3-P ) :   1.1311 B(  3-P ,  4-S ) :   1.6525
B(  3-P ,  5-O ) :   1.0793 B(  3-P ,  8-S ) :   0.9440 B(  4-S ,  8-S ) :   0.1114
B(  5-O ,  6-C ) :   0.9108 B(  6-C ,  7-C ) :   1.1675 B(  6-C , 24-H ) :   0.9232
B(  6-C , 25-H ) :   0.9323 B(  7-C , 26-H ) :   0.9410 B(  7-C , 27-H ) :   0.9137
B(  7-C , 28-H ) :   0.9354 B(  8-S ,  9-C ) :   0.9921 B(  9-C , 10-S ) :   1.0149
B(  9-C , 29-H ) :   0.8592 B(  9-C , 30-H ) :   0.8887 B( 10-S , 11-P ) :   0.9377
B( 10-S , 12-S ) :   0.1213 B( 11-P , 12-S ) :   1.5879 B( 11-P , 13-O ) :   1.1318
B( 11-P , 16-O ) :   1.1322 B( 13-O , 14-C ) :   0.9129 B( 14-C , 15-C ) :   1.1628
B( 14-C , 31-H ) :   0.9143 B( 14-C , 32-H ) :   0.9338 B( 15-C , 33-H ) :   0.9388
B( 15-C , 34-H ) :   0.9387 B( 15-C , 35-H ) :   0.9448 B( 16-O , 17-C ) :   0.9201
B( 17-C , 18-C ) :   1.1616 B( 17-C , 36-H ) :   0.8969 B( 17-C , 37-H ) :   0.9346
B( 18-C , 38-H ) :   0.9305 B( 18-C , 39-H ) :   0.9364 B( 18-C , 40-H ) :   0.9436

Dispersion correction           -0.064807168
FINAL SINGLE POINT ENERGY     -2929.520524752416

DIPOLE MOMENT
-------------

Method             : SCF
Type of density    : Electron Density
Multiplicity       :   1
Irrep              :   0
Energy             : -2929.6399833377531650 Eh
Relativity type    :
Basis              : AO
                                X                 Y                 Z
Electronic contribution:     -4.760940063       9.655732569       1.237714765
Nuclear contribution   :      5.277867137     -10.657436109      -1.547310388
                        -----------------------------------------
Total Dipole Moment    :      0.516927074      -1.001703540      -0.309595623
                        -----------------------------------------
Magnitude (a.u.)       :      1.168962374
Magnitude (Debye)      :      2.971266224

Rotational constants in cm-1:             0.013102             0.004451             0.004205
Rotational constants in MHz :           392.790127           133.432200           126.064550

                             ****ORCA TERMINATED NORMALLY****
TOTAL RUN TIME: 0 days 0 hours 0 minutes 20 seconds 727 msec
