                         Program Version 6.0.1  -  RELEASE   -
|  1> ! pbe def2-sv(p) def2/J RI DEFGRID1 loosescf d4 GCP(DFT/SV(P)) printgap
|  2> %output
|  3>     printlevel normal
|  4> end
|  5> * xyz 0 1
|  6> C 3.3931364537 -1.2362550218 1.9522314094
|  7> C 2.7844855229 -2.0918567651 0.8535036419
|  8> O 2.6288805217 -1.3333171542 -0.3651718262
|  9> C 1.5964031183 -0.5512627523 -0.4999399584
| 10> O 0.7316822881 -0.3872913306 0.3550610161
| 11> C 1.5380415677 0.1697912727 -1.8196892934
| 12> C 0.3477413008 1.1160818357 -1.7754912456
| 13> H 0.3153040482 1.7540370283 -2.6619557355
| 14> C 0.3664964159 1.9953538379 -0.533046325
| 15> O -0.6242289806 2.358394823 0.0573665705
| 16> O 1.5974013055 2.341152381 -0.2158771639
| 17> C 1.7983264882 3.2088789944 0.9192628729
| 18> C 3.0616163932 4.0147257216 0.6858087187
| 19> S -1.2572225029 0.2339734232 -1.8550187748
| 20> P -1.6352469798 -0.8193117963 -0.0607881222
| 21> S -1.0023576176 -2.6499173978 0.3199111021
| 22> O -1.8350569677 0.0938105556 1.2342736207
| 23> C -1.0392269698 0.0841572455 2.4123117906
| 24> O -3.169936392 -0.8807744137 -0.5485513476
| 25> C -4.1499712494 -1.6688867675 0.1270894653
| 26> H 4.3415604165 -0.8219408236 1.6220379039
| 27> H 2.7182393529 -0.4236203022 2.212455818
| 28> H 3.5557566836 -1.849890069 2.8318994558
| 29> H 1.8072282913 -2.483679514 1.1497493589
| 30> H 3.4450839796 -2.9111606329 0.5720394391
| 31> H 1.4237844212 -0.5555073666 -2.6266004518
| 32> H 2.4697624748 0.7161353654 -1.9717284312
| 33> H 0.916442131 3.8470778476 1.0289588277
| 34> H 1.8866229754 2.5757728499 1.8080070131
| 35> H 2.9577953273 4.6241631304 -0.2068995474
| 36> H 3.2332015674 4.6604770662 1.5404952969
| 37> H 3.9112386442 3.3503754087 0.5628309013
| 38> H -1.7202357529 0.2984263397 3.233262964
| 39> H -0.2768892282 0.857914506 2.3373647224
| 40> H -0.5709402808 -0.8929259753 2.5434441963
| 41> H -3.7361899795 -2.6479888804 0.3814559144
| 42> H -4.9757902971 -1.7773007557 -0.5717019854
| 43> H -4.4776876814 -1.1590704967 1.0328719067
| 44> *
| 45>
| 46>                          ****END OF INPUT****

CARTESIAN COORDINATES (ANGSTROEM)
---------------------------------
  C      3.393136   -1.236255    1.952231
  C      2.784486   -2.091857    0.853504
  O      2.628881   -1.333317   -0.365172
  C      1.596403   -0.551263   -0.499940
  O      0.731682   -0.387291    0.355061
  C      1.538042    0.169791   -1.819689
  C      0.347741    1.116082   -1.775491
  H      0.315304    1.754037   -2.661956
  C      0.366496    1.995354   -0.533046
  O     -0.624229    2.358395    0.057367
  O      1.597401    2.341152   -0.215877
  C      1.798326    3.208879    0.919263
  C      3.061616    4.014726    0.685809
  S     -1.257223    0.233973   -1.855019
  P     -1.635247   -0.819312   -0.060788
  S     -1.002358   -2.649917    0.319911
  O     -1.835057    0.093811    1.234274
  C     -1.039227    0.084157    2.412312
  O     -3.169936   -0.880774   -0.548551
  C     -4.149971   -1.668887    0.127089
  H      4.341560   -0.821941    1.622038
  H      2.718239   -0.423620    2.212456
  H      3.555757   -1.849890    2.831899
  H      1.807228   -2.483680    1.149749
  H      3.445084   -2.911161    0.572039
  H      1.423784   -0.555507   -2.626600
  H      2.469762    0.716135   -1.971728
  H      0.916442    3.847078    1.028959
  H      1.886623    2.575773    1.808007
  H      2.957795    4.624163   -0.206900
  H      3.233202    4.660477    1.540495
  H      3.911239    3.350375    0.562831
  H     -1.720236    0.298426    3.233263
  H     -0.276889    0.857915    2.337365
  H     -0.570940   -0.892926    2.543444
  H     -3.736190   -2.647989    0.381456
  H     -4.975790   -1.777301   -0.571702
  H     -4.477688   -1.159070    1.032872

 Total Charge           Charge          ....    0
 Multiplicity           Mult            ....    1
 Number of Electrons    NEL             ....  174
 Basis Dimension        Dim             ....  316

ORBITAL ENERGIES
----------------

  NO   OCC          E(Eh)            E(eV)
   0   2.0000     -88.027768     -2395.3573
   1   2.0000     -87.960550     -2393.5283
   2   2.0000     -76.412000     -2079.2762
   3   2.0000     -18.821651      -512.1632
   4   2.0000     -18.812342      -511.9099
   5   2.0000     -18.773573      -510.8549
   6   2.0000     -18.765871      -510.6453
   7   2.0000     -18.761885      -510.5368
   8   2.0000     -18.739211      -509.9198
   9   2.0000     -10.031481      -272.9705
  10   2.0000     -10.018173      -272.6083
  11   2.0000      -9.957749      -270.9641
  12   2.0000      -9.954483      -270.8752
  13   2.0000      -9.949826      -270.7485
  14   2.0000      -9.926982      -270.1269
  15   2.0000      -9.922083      -269.9936
  16   2.0000      -9.920911      -269.9617
  17   2.0000      -9.898725      -269.3580
  18   2.0000      -9.896415      -269.2951
  19   2.0000      -7.672453      -208.7781
  20   2.0000      -7.605752      -206.9630
  21   2.0000      -6.407490      -174.3567
  22   2.0000      -5.701230      -155.1383
  23   2.0000      -5.696798      -155.0178
  24   2.0000      -5.688682      -154.7969
  25   2.0000      -5.634896      -153.3333
  26   2.0000      -5.626256      -153.0982
  27   2.0000      -5.625737      -153.0841
  28   2.0000      -4.630450      -126.0010
  29   2.0000      -4.629515      -125.9755
  30   2.0000      -4.627838      -125.9299
  31   2.0000      -1.032561       -28.0974
  32   2.0000      -1.018997       -27.7283
  33   2.0000      -0.961756       -26.1707
  34   2.0000      -0.939468       -25.5642
  35   2.0000      -0.920773       -25.0555
  36   2.0000      -0.917472       -24.9657
  37   2.0000      -0.766278       -20.8515
  38   2.0000      -0.721185       -19.6244
  39   2.0000      -0.713461       -19.4143
  40   2.0000      -0.687966       -18.7205
  41   2.0000      -0.652788       -17.7633
  42   2.0000      -0.623732       -16.9726
  43   2.0000      -0.611174       -16.6309
  44   2.0000      -0.608839       -16.5674
  45   2.0000      -0.602844       -16.4042
  46   2.0000      -0.565103       -15.3772
  47   2.0000      -0.520655       -14.1677
  48   2.0000      -0.509885       -13.8747
  49   2.0000      -0.494019       -13.4429
  50   2.0000      -0.490892       -13.3579
  51   2.0000      -0.470390       -12.8000
  52   2.0000      -0.460699       -12.5362
  53   2.0000      -0.452453       -12.3119
  54   2.0000      -0.443720       -12.0742
  55   2.0000      -0.438834       -11.9413
  56   2.0000      -0.422016       -11.4836
  57   2.0000      -0.417504       -11.3609
  58   2.0000      -0.405491       -11.0340
  59   2.0000      -0.403685       -10.9848
  60   2.0000      -0.396063       -10.7774
  61   2.0000      -0.392896       -10.6912
  62   2.0000      -0.391183       -10.6446
  63   2.0000      -0.382384       -10.4052
  64   2.0000      -0.378806       -10.3078
  65   2.0000      -0.373874       -10.1736
  66   2.0000      -0.366934        -9.9848
  67   2.0000      -0.359842        -9.7918
  68   2.0000      -0.355198        -9.6654
  69   2.0000      -0.343772        -9.3545
  70   2.0000      -0.337644        -9.1878
  71   2.0000      -0.331772        -9.0280
  72   2.0000      -0.326886        -8.8950
  73   2.0000      -0.308537        -8.3957
  74   2.0000      -0.305598        -8.3157
  75   2.0000      -0.300980        -8.1901
  76   2.0000      -0.284795        -7.7497
  77   2.0000      -0.278843        -7.5877
  78   2.0000      -0.267125        -7.2688
  79   2.0000      -0.263856        -7.1799
  80   2.0000      -0.253472        -6.8973
  81   2.0000      -0.250136        -6.8066
  82   2.0000      -0.242644        -6.6027
  83   2.0000      -0.224931        -6.1207
  84   2.0000      -0.208476        -5.6729
  85   2.0000      -0.178353        -4.8532
  86   2.0000      -0.174537        -4.7494
  87   0.0000      -0.056761        -1.5446
  88   0.0000      -0.029563        -0.8045
  89   0.0000      -0.022524        -0.6129
  90   0.0000       0.003687         0.1003
  91   0.0000       0.016607         0.4519

MULLIKEN ATOMIC CHARGES
-----------------------
   0 C :   -0.319013
   1 C :   -0.024389
   2 O :   -0.207160
   3 C :    0.153043
   4 O :   -0.241796
   5 C :   -0.046488
   6 C :   -0.320057
   7 H :    0.146937
   8 C :    0.188504
   9 O :   -0.168698
  10 O :   -0.246833
  11 C :   -0.043547
  12 C :   -0.275781
  13 S :   -0.055936
  14 P :    0.672424
  15 S :   -0.372871
  16 O :   -0.371898
  17 C :   -0.091320
  18 O :   -0.400457
  19 C :   -0.094604
  20 H :    0.112998
  21 H :    0.127610
  22 H :    0.119994
  23 H :    0.139572
  24 H :    0.108357
  25 H :    0.137007
  26 H :    0.124927
  27 H :    0.120385
  28 H :    0.116330
  29 H :    0.116532
  30 H :    0.115132
  31 H :    0.113538
  32 H :    0.112515
  33 H :    0.111527
  34 H :    0.109867
  35 H :    0.111223
  36 H :    0.116358
  37 H :    0.106066
Sum of atomic charges:    0.0000000

LOEWDIN ATOMIC CHARGES
----------------------
   0 C :   -0.357426
   1 C :   -0.109955
   2 O :   -0.029281
   3 C :    0.054416
   4 O :   -0.166140
   5 C :   -0.254191
   6 C :   -0.268182
   7 H :    0.152477
   8 C :    0.006012
   9 O :   -0.146178
  10 O :   -0.065055
  11 C :   -0.108263
  12 C :   -0.350214
  13 S :    0.138051
  14 P :    0.590337
  15 S :   -0.358138
  16 O :   -0.234240
  17 C :   -0.214292
  18 O :   -0.271754
  19 C :   -0.217377
  20 H :    0.124103
  21 H :    0.126774
  22 H :    0.134650
  23 H :    0.124239
  24 H :    0.121959
  25 H :    0.150958
  26 H :    0.147595
  27 H :    0.122674
  28 H :    0.115862
  29 H :    0.127650
  30 H :    0.132460
  31 H :    0.125428
  32 H :    0.115180
  33 H :    0.104763
  34 H :    0.103900
  35 H :    0.104253
  36 H :    0.117958
  37 H :    0.108987

  Mayer bond orders larger than 0.100000
B(  0-C ,  1-C ) :   1.1673 B(  0-C , 20-H ) :   0.9471 B(  0-C , 21-H ) :   0.9437
B(  0-C , 22-H ) :   0.9431 B(  1-C ,  2-O ) :   0.8946 B(  1-C , 23-H ) :   0.9035
B(  1-C , 24-H ) :   0.9375 B(  2-O ,  3-C ) :   1.3080 B(  3-C ,  4-O ) :   1.8037
B(  3-C ,  5-C ) :   1.0192 B(  4-O , 14-P ) :   0.1268 B(  5-C ,  6-C ) :   1.0271
B(  5-C , 25-H ) :   0.8788 B(  5-C , 26-H ) :   0.8703 B(  6-C ,  7-H ) :   0.8635
B(  6-C ,  8-C ) :   0.8769 B(  6-C , 13-S ) :   1.0506 B(  8-C ,  9-O ) :   2.0975
B(  8-C , 10-O ) :   1.2151 B( 10-O , 11-C ) :   0.9052 B( 11-C , 12-C ) :   1.1585
B( 11-C , 27-H ) :   0.9172 B( 11-C , 28-H ) :   0.9274 B( 12-C , 29-H ) :   0.9511
B( 12-C , 30-H ) :   0.9435 B( 12-C , 31-H ) :   0.9487 B( 13-S , 14-P ) :   0.9516
B( 13-S , 15-S ) :   0.1028 B( 14-P , 15-S ) :   1.5436 B( 14-P , 16-O ) :   1.0936
B( 14-P , 18-O ) :   1.0524 B( 16-O , 17-C ) :   0.9417 B( 17-C , 32-H ) :   0.9534
B( 17-C , 33-H ) :   0.9451 B( 17-C , 34-H ) :   0.9308 B( 18-O , 19-C ) :   0.9432
B( 19-C , 35-H ) :   0.9267 B( 19-C , 36-H ) :   0.9606 B( 19-C , 37-H ) :   0.9525

Dispersion correction           -0.054685918
FINAL SINGLE POINT ENERGY     -1978.999975699306

DIPOLE MOMENT
-------------

Method             : SCF
Type of density    : Electron Density
Multiplicity       :   1
Irrep              :   0
Energy             : -1979.1311418691525432 Eh
Relativity type    :
Basis              : AO
                                X                 Y                 Z
Electronic contribution:    -15.673340037      -6.664791410     -13.429578129
Nuclear contribution   :     17.675906736       7.552983794      14.008223366
                        -----------------------------------------
Total Dipole Moment    :      2.002566698       0.888192384       0.578645237
                        -----------------------------------------
Magnitude (a.u.)       :      2.265830842
Magnitude (Debye)      :      5.759284302

Rotational constants in cm-1:             0.013419             0.008293             0.006802
Rotational constants in MHz :           402.290186           248.632496           203.914909

                             ****ORCA TERMINATED NORMALLY****
TOTAL RUN TIME: 0 days 0 hours 0 minutes 36 seconds 737 msec
