                         Program Version 6.0.0  -   RELEASE  -
|  1> ! pbe def2-sv(p) def2/J RI DEFGRID1 loosescf d4 GCP(DFT/SV(P)) printgap
|  2> %output
|  3>     printlevel normal
|  4> end
|  5> * xyz 0 1
|  6> C 3.7990705067 1.3835912177 -1.8206438839
|  7> C 2.5356228362 0.619530512 -2.1511552229
|  8> O 2.3194425272 -0.4785450345 -1.2428359406
|  9> P 2.0012288582 -0.2705507518 0.290588349
| 10> S 0.9013288215 1.2876860922 0.7743051987
| 11> O 3.4496078319 -0.2341041259 0.9392074983
| 12> C 3.6573956339 0.0578345342 2.3358093613
| 13> C 5.0997343045 0.4874596031 2.5136329882
| 14> S 1.3822070128 -2.2119386763 0.8260468039
| 15> C -0.3041138794 -2.2907399595 0.1557946975
| 16> S -1.4873066114 -1.2373009118 1.0499237694
| 17> P -2.0338443234 0.0622252011 -0.5250514749
| 18> S -0.9318879008 0.0891626521 -2.1395817756
| 19> O -2.2466339942 1.5102663263 0.0732866687
| 20> C -3.1503210535 1.8157145135 1.1632569216
| 21> C -2.4324333643 1.7935515034 2.4976501114
| 22> O -3.4982156861 -0.5460987259 -0.7689704417
| 23> C -4.2045401828 -0.3790133195 -2.0117648315
| 24> C -4.6843808697 1.0456276086 -2.2055059467
| 25> H 4.6446388484 0.7029269953 -1.768588805
| 26> H 3.9774901734 2.1299904885 -2.5883474796
| 27> H 3.6864329966 1.8828076811 -0.8590005299
| 28> H 2.5875741382 0.1381548539 -3.1286400003
| 29> H 1.6594157275 1.2753072848 -2.119002285
| 30> H 2.9608345993 0.8491405181 2.6332893838
| 31> H 3.4371972351 -0.847248632 2.9077152058
| 32> H 5.2955250776 1.3929235896 1.9462065737
| 33> H 5.2866829243 0.6766006749 3.5654971976
| 34> H 5.7638803252 -0.2975886016 2.1643028589
| 35> H -0.6137100917 -3.3250261384 0.279048697
| 36> H -0.2902306359 -1.9979309162 -0.8967528023
| 37> H -3.5089874653 2.8193282748 0.9274237095
| 38> H -3.9808666052 1.1051053774 1.1463781436
| 39> H -2.1614925968 0.7775072088 2.7752631309
| 40> H -1.5231988426 2.3869506698 2.4353563737
| 41> H -3.0846806633 2.2093357794 3.2589444333
| 42> H -3.5395188197 -0.6737889235 -2.8298049743
| 43> H -5.0358299479 -1.081423733 -1.9378331335
| 44> H -5.3240736726 1.3486228512 -1.3805759614
| 45> H -3.8289579607 1.719203288 -2.257240538
| 46> H -5.2409842411 1.1128897325 -3.1350215089
| 47> *
| 48>
| 49>                          ****END OF INPUT****

CARTESIAN COORDINATES (ANGSTROEM)
---------------------------------
  C      3.799071    1.383591   -1.820644
  C      2.535623    0.619531   -2.151155
  O      2.319443   -0.478545   -1.242836
  P      2.001229   -0.270551    0.290588
  S      0.901329    1.287686    0.774305
  O      3.449608   -0.234104    0.939207
  C      3.657396    0.057835    2.335809
  C      5.099734    0.487460    2.513633
  S      1.382207   -2.211939    0.826047
  C     -0.304114   -2.290740    0.155795
  S     -1.487307   -1.237301    1.049924
  P     -2.033844    0.062225   -0.525051
  S     -0.931888    0.089163   -2.139582
  O     -2.246634    1.510266    0.073287
  C     -3.150321    1.815715    1.163257
  C     -2.432433    1.793552    2.497650
  O     -3.498216   -0.546099   -0.768970
  C     -4.204540   -0.379013   -2.011765
  C     -4.684381    1.045628   -2.205506
  H      4.644639    0.702927   -1.768589
  H      3.977490    2.129990   -2.588347
  H      3.686433    1.882808   -0.859001
  H      2.587574    0.138155   -3.128640
  H      1.659416    1.275307   -2.119002
  H      2.960835    0.849141    2.633289
  H      3.437197   -0.847249    2.907715
  H      5.295525    1.392924    1.946207
  H      5.286683    0.676601    3.565497
  H      5.763880   -0.297589    2.164303
  H     -0.613710   -3.325026    0.279049
  H     -0.290231   -1.997931   -0.896753
  H     -3.508987    2.819328    0.927424
  H     -3.980867    1.105105    1.146378
  H     -2.161493    0.777507    2.775263
  H     -1.523199    2.386951    2.435356
  H     -3.084681    2.209336    3.258944
  H     -3.539519   -0.673789   -2.829805
  H     -5.035830   -1.081424   -1.937833
  H     -5.324074    1.348623   -1.380576
  H     -3.828958    1.719203   -2.257241
  H     -5.240984    1.112890   -3.135022

 Total Charge           Charge          ....    0
 Multiplicity           Mult            ....    1
 Number of Electrons    NEL             ....  202
 Basis Dimension        Dim             ....  334

ORBITAL ENERGIES
----------------

  NO   OCC          E(Eh)            E(eV)
   0   2.0000     -88.036283     -2395.5891
   1   2.0000     -88.036215     -2395.5872
   2   2.0000     -87.984301     -2394.1746
   3   2.0000     -87.977202     -2393.9814
   4   2.0000     -76.422720     -2079.5679
   5   2.0000     -76.417942     -2079.4379
   6   2.0000     -18.791521      -511.3433
   7   2.0000     -18.785159      -511.1702
   8   2.0000     -18.783111      -511.1144
   9   2.0000     -18.780925      -511.0550
  10   2.0000      -9.956320      -270.9253
  11   2.0000      -9.953308      -270.8433
  12   2.0000      -9.947819      -270.6939
  13   2.0000      -9.947521      -270.6858
  14   2.0000      -9.939236      -270.4604
  15   2.0000      -9.885087      -268.9869
  16   2.0000      -9.884367      -268.9673
  17   2.0000      -9.882047      -268.9042
  18   2.0000      -9.875378      -268.7227
  19   2.0000      -7.681993      -209.0377
  20   2.0000      -7.681625      -209.0276
  21   2.0000      -7.629366      -207.6056
  22   2.0000      -7.621756      -207.3985
  23   2.0000      -6.420442      -174.7091
  24   2.0000      -6.415571      -174.5766
  25   2.0000      -5.709811      -155.3719
  26   2.0000      -5.709605      -155.3662
  27   2.0000      -5.706504      -155.2819
  28   2.0000      -5.706427      -155.2798
  29   2.0000      -5.698907      -155.0751
  30   2.0000      -5.698111      -155.0535
  31   2.0000      -5.658300      -153.9702
  32   2.0000      -5.650565      -153.7597
  33   2.0000      -5.650296      -153.7524
  34   2.0000      -5.649075      -153.7191
  35   2.0000      -5.642420      -153.5381
  36   2.0000      -5.642038      -153.5277
  37   2.0000      -4.643342      -126.3518
  38   2.0000      -4.641769      -126.3090
  39   2.0000      -4.641053      -126.2895
  40   2.0000      -4.638049      -126.2077
  41   2.0000      -4.637409      -126.1903
  42   2.0000      -4.636028      -126.1527
  43   2.0000      -0.981420       -26.7058
  44   2.0000      -0.979179       -26.6448
  45   2.0000      -0.939210       -25.5572
  46   2.0000      -0.938220       -25.5303
  47   2.0000      -0.757846       -20.6220
  48   2.0000      -0.718372       -19.5479
  49   2.0000      -0.705789       -19.2055
  50   2.0000      -0.689378       -18.7589
  51   2.0000      -0.682131       -18.5617
  52   2.0000      -0.667897       -18.1744
  53   2.0000      -0.647335       -17.6149
  54   2.0000      -0.631379       -17.1807
  55   2.0000      -0.595057       -16.1923
  56   2.0000      -0.585602       -15.9350
  57   2.0000      -0.576457       -15.6862
  58   2.0000      -0.560696       -15.2573
  59   2.0000      -0.556893       -15.1538
  60   2.0000      -0.498930       -13.5766
  61   2.0000      -0.494371       -13.4525
  62   2.0000      -0.474811       -12.9203
  63   2.0000      -0.468622       -12.7519
  64   2.0000      -0.449990       -12.2449
  65   2.0000      -0.443983       -12.0814
  66   2.0000      -0.435611       -11.8536
  67   2.0000      -0.430885       -11.7250
  68   2.0000      -0.423001       -11.5105
  69   2.0000      -0.414907       -11.2902
  70   2.0000      -0.401343       -10.9211
  71   2.0000      -0.394963       -10.7475
  72   2.0000      -0.388310       -10.5665
  73   2.0000      -0.382065       -10.3965
  74   2.0000      -0.374139       -10.1808
  75   2.0000      -0.369658       -10.0589
  76   2.0000      -0.367276        -9.9941
  77   2.0000      -0.352842        -9.6013
  78   2.0000      -0.351444        -9.5633
  79   2.0000      -0.347783        -9.4637
  80   2.0000      -0.344753        -9.3812
  81   2.0000      -0.340538        -9.2665
  82   2.0000      -0.338445        -9.2096
  83   2.0000      -0.335029        -9.1166
  84   2.0000      -0.330198        -8.9851
  85   2.0000      -0.314142        -8.5482
  86   2.0000      -0.309004        -8.4084
  87   2.0000      -0.301346        -8.2000
  88   2.0000      -0.294259        -8.0072
  89   2.0000      -0.277644        -7.5551
  90   2.0000      -0.274257        -7.4629
  91   2.0000      -0.267824        -7.2879
  92   2.0000      -0.265610        -7.2276
  93   2.0000      -0.263791        -7.1781
  94   2.0000      -0.255070        -6.9408
  95   2.0000      -0.234292        -6.3754
  96   2.0000      -0.219034        -5.9602
  97   2.0000      -0.206494        -5.6190
  98   2.0000      -0.201422        -5.4810
  99   2.0000      -0.186889        -5.0855
 100   2.0000      -0.181980        -4.9519
 101   0.0000      -0.037905        -1.0314
 102   0.0000      -0.029883        -0.8132
 103   0.0000      -0.005931        -0.1614
 104   0.0000       0.007124         0.1938
 105   0.0000       0.024605         0.6695

MULLIKEN ATOMIC CHARGES
-----------------------
   0 C :   -0.304781
   1 C :   -0.010115
   2 O :   -0.363079
   3 P :    0.621645
   4 S :   -0.327472
   5 O :   -0.379391
   6 C :   -0.008702
   7 C :   -0.283316
   8 S :   -0.100670
   9 C :   -0.343146
  10 S :   -0.091834
  11 P :    0.636646
  12 S :   -0.311068
  13 O :   -0.360061
  14 C :   -0.036372
  15 C :   -0.295124
  16 O :   -0.387006
  17 C :   -0.004229
  18 C :   -0.318101
  19 H :    0.113572
  20 H :    0.109000
  21 H :    0.121379
  22 H :    0.101759
  23 H :    0.128595
  24 H :    0.103164
  25 H :    0.101456
  26 H :    0.120026
  27 H :    0.110490
  28 H :    0.116706
  29 H :    0.182825
  30 H :    0.195873
  31 H :    0.110202
  32 H :    0.107809
  33 H :    0.132934
  34 H :    0.135240
  35 H :    0.107441
  36 H :    0.109703
  37 H :    0.102365
  38 H :    0.112125
  39 H :    0.130853
  40 H :    0.112656
Sum of atomic charges:   -0.0000000

LOEWDIN ATOMIC CHARGES
----------------------
   0 C :   -0.365949
   1 C :   -0.119999
   2 O :   -0.235139
   3 P :    0.564383
   4 S :   -0.315980
   5 O :   -0.248301
   6 C :   -0.121176
   7 C :   -0.350898
   8 S :    0.075527
   9 C :   -0.476736
  10 S :    0.084284
  11 P :    0.578785
  12 S :   -0.289468
  13 O :   -0.232292
  14 C :   -0.115856
  15 C :   -0.362517
  16 O :   -0.261914
  17 C :   -0.121748
  18 C :   -0.366342
  19 H :    0.124517
  20 H :    0.129178
  21 H :    0.120801
  22 H :    0.118123
  23 H :    0.110626
  24 H :    0.106226
  25 H :    0.109898
  26 H :    0.127797
  27 H :    0.130077
  28 H :    0.126911
  29 H :    0.138020
  30 H :    0.124459
  31 H :    0.121188
  32 H :    0.108159
  33 H :    0.120575
  34 H :    0.132180
  35 H :    0.128644
  36 H :    0.108078
  37 H :    0.117003
  38 H :    0.121799
  39 H :    0.126263
  40 H :    0.130813

  Mayer bond orders larger than 0.100000
B(  0-C ,  1-C ) :   1.1628 B(  0-C , 19-H ) :   0.9451 B(  0-C , 20-H ) :   0.9387
B(  0-C , 21-H ) :   0.9354 B(  1-C ,  2-O ) :   0.8984 B(  1-C , 22-H ) :   0.9363
B(  1-C , 23-H ) :   0.9086 B(  2-O ,  3-P ) :   1.1424 B(  3-P ,  4-S ) :   1.6156
B(  3-P ,  5-O ) :   1.0939 B(  3-P ,  8-S ) :   0.9690 B(  4-S ,  8-S ) :   0.1198
B(  5-O ,  6-C ) :   0.9067 B(  6-C ,  7-C ) :   1.1596 B(  6-C , 24-H ) :   0.9053
B(  6-C , 25-H ) :   0.9302 B(  7-C , 26-H ) :   0.9516 B(  7-C , 27-H ) :   0.9421
B(  7-C , 28-H ) :   0.9503 B(  8-S ,  9-C ) :   0.9951 B(  9-C , 10-S ) :   1.0048
B(  9-C , 29-H ) :   0.9119 B(  9-C , 30-H ) :   0.8546 B( 10-S , 11-P ) :   0.9559
B( 10-S , 12-S ) :   0.1093 B( 11-P , 12-S ) :   1.5981 B( 11-P , 13-O ) :   1.1228
B( 11-P , 16-O ) :   1.0676 B( 12-S , 30-H ) :   0.1047 B( 13-O , 14-C ) :   0.9035
B( 14-C , 15-C ) :   1.1704 B( 14-C , 31-H ) :   0.9342 B( 14-C , 32-H ) :   0.9157
B( 15-C , 33-H ) :   0.9347 B( 15-C , 34-H ) :   0.9400 B( 15-C , 35-H ) :   0.9376
B( 16-O , 17-C ) :   0.9192 B( 17-C , 18-C ) :   1.1599 B( 17-C , 36-H ) :   0.9121
B( 17-C , 37-H ) :   0.9348 B( 18-C , 38-H ) :   0.9465 B( 18-C , 39-H ) :   0.9366
B( 18-C , 40-H ) :   0.9396

Dispersion correction           -0.066736770
FINAL SINGLE POINT ENERGY     -2929.514425841496

DIPOLE MOMENT
-------------

Method             : SCF
Type of density    : Electron Density
Multiplicity       :   1
Irrep              :   0
Energy             : -2929.6322369003114545 Eh
Relativity type    :
Basis              : AO
                                X                 Y                 Z
Electronic contribution:     -1.663039819     -13.531517611      -0.903989713
Nuclear contribution   :      1.128405692      13.669265871       1.248129927
                        -----------------------------------------
Total Dipole Moment    :     -0.534634128       0.137748260       0.344140213
                        -----------------------------------------
Magnitude (a.u.)       :      0.650569535
Magnitude (Debye)      :      1.653616343

Rotational constants in cm-1:             0.013130             0.005021             0.004746
Rotational constants in MHz :           393.639404           150.528499           142.286100

                             ****ORCA TERMINATED NORMALLY****
TOTAL RUN TIME: 0 days 0 hours 0 minutes 20 seconds 811 msec
