                         Program Version 6.0.0  -   RELEASE  -
|  1> ! pbe def2-sv(p) def2/J RI DEFGRID1 loosescf d4 GCP(DFT/SV(P)) printgap
|  2> %output
|  3>     printlevel normal
|  4> end
|  5> * xyz 0 1
|  6> C 2.8269373463 2.6265970016 -0.4161301642
|  7> C 2.3521800102 1.5063847539 -1.3197005165
|  8> O 1.483150161 0.5877813901 -0.6248252293
|  9> P 1.9597872631 -0.5307095158 0.3887261734
| 10> S 2.6492816671 0.0289034675 2.141975264
| 11> O 3.0002085619 -1.3448120599 -0.4929837154
| 12> C 3.9286057075 -2.2777083714 0.0896281123
| 13> C 3.2316058574 -3.5216114303 0.600470766
| 14> S 0.2063836313 -1.7016368216 0.4376996494
| 15> C -0.6140992737 -0.7793490883 1.7644652851
| 16> S -0.9782229963 0.9431472152 1.3219795463
| 17> P -2.0914778569 0.6293603923 -0.4574231106
| 18> S -1.25311287 0.317006556 -2.2068009725
| 19> O -3.0547701242 1.8990606135 -0.4706077136
| 20> C -2.7004078353 3.1137074774 -1.1506279658
| 21> C -1.4917356377 3.7758822297 -0.520655403
| 22> O -3.0664859221 -0.5021930204 0.0587334503
| 23> C -3.6357621086 -1.5327300896 -0.7799139097
| 24> C -3.3113666179 -2.891461468 -0.1916204155
| 25> H 3.4644317255 2.2336688213 0.3736343353
| 26> H 3.3901166714 3.3446776642 -1.0035918191
| 27> H 1.9775485143 3.1256209854 0.0448323053
| 28> H 3.1923190768 0.9457301844 -1.7358357114
| 29> H 1.7247326288 1.8797565957 -2.1325463351
| 30> H 4.6179371033 -2.5048426472 -0.7245788666
| 31> H 4.4607096912 -1.7725480976 0.9022514517
| 32> H 2.5947750784 -3.2691254701 1.4473537511
| 33> H 2.6163494246 -3.9579639049 -0.1824319442
| 34> H 3.9751102408 -4.2439885065 0.9214294696
| 35> H 0.04448037 -0.7275758599 2.6323322571
| 36> H -1.5371824387 -1.3047751038 1.9951945676
| 37> H -2.5040787411 2.8756766728 -2.2014163264
| 38> H -3.5932753221 3.7345012316 -1.0690877437
| 39> H -0.6246074981 3.1222429093 -0.6252968538
| 40> H -1.287850264 4.7172619412 -1.0205630434
| 41> H -1.6649095746 3.9542804872 0.53794756
| 42> H -4.7115844757 -1.3498071242 -0.8000209129
| 43> H -3.2284983875 -1.4327066367 -1.7916870864
| 44> H -3.6994225001 -2.9644173606 0.8203896589
| 45> H -3.7682782694 -3.6604547788 -0.8057738819
| 46> H -2.2337523316 -3.044887583 -0.1712949966
| 47> *
| 48>
| 49>                          ****END OF INPUT****

CARTESIAN COORDINATES (ANGSTROEM)
---------------------------------
  C      2.826937    2.626597   -0.416130
  C      2.352180    1.506385   -1.319701
  O      1.483150    0.587781   -0.624825
  P      1.959787   -0.530710    0.388726
  S      2.649282    0.028903    2.141975
  O      3.000209   -1.344812   -0.492984
  C      3.928606   -2.277708    0.089628
  C      3.231606   -3.521611    0.600471
  S      0.206384   -1.701637    0.437700
  C     -0.614099   -0.779349    1.764465
  S     -0.978223    0.943147    1.321980
  P     -2.091478    0.629360   -0.457423
  S     -1.253113    0.317007   -2.206801
  O     -3.054770    1.899061   -0.470608
  C     -2.700408    3.113707   -1.150628
  C     -1.491736    3.775882   -0.520655
  O     -3.066486   -0.502193    0.058733
  C     -3.635762   -1.532730   -0.779914
  C     -3.311367   -2.891461   -0.191620
  H      3.464432    2.233669    0.373634
  H      3.390117    3.344678   -1.003592
  H      1.977549    3.125621    0.044832
  H      3.192319    0.945730   -1.735836
  H      1.724733    1.879757   -2.132546
  H      4.617937   -2.504843   -0.724579
  H      4.460710   -1.772548    0.902251
  H      2.594775   -3.269125    1.447354
  H      2.616349   -3.957964   -0.182432
  H      3.975110   -4.243989    0.921429
  H      0.044480   -0.727576    2.632332
  H     -1.537182   -1.304775    1.995195
  H     -2.504079    2.875677   -2.201416
  H     -3.593275    3.734501   -1.069088
  H     -0.624607    3.122243   -0.625297
  H     -1.287850    4.717262   -1.020563
  H     -1.664910    3.954280    0.537948
  H     -4.711584   -1.349807   -0.800021
  H     -3.228498   -1.432707   -1.791687
  H     -3.699423   -2.964417    0.820390
  H     -3.768278   -3.660455   -0.805774
  H     -2.233752   -3.044888   -0.171295

 Total Charge           Charge          ....    0
 Multiplicity           Mult            ....    1
 Number of Electrons    NEL             ....  202
 Basis Dimension        Dim             ....  334

ORBITAL ENERGIES
----------------

  NO   OCC          E(Eh)            E(eV)
   0   2.0000     -88.042471     -2395.7574
   1   2.0000     -88.036802     -2395.6032
   2   2.0000     -87.986018     -2394.2213
   3   2.0000     -87.980607     -2394.0740
   4   2.0000     -76.426066     -2079.6590
   5   2.0000     -76.422634     -2079.5656
   6   2.0000     -18.796080      -511.4673
   7   2.0000     -18.791565      -511.3445
   8   2.0000     -18.784812      -511.1607
   9   2.0000     -18.782515      -511.0982
  10   2.0000      -9.955366      -270.8993
  11   2.0000      -9.953066      -270.8367
  12   2.0000      -9.951174      -270.7852
  13   2.0000      -9.948584      -270.7147
  14   2.0000      -9.947563      -270.6869
  15   2.0000      -9.887672      -269.0572
  16   2.0000      -9.884825      -268.9798
  17   2.0000      -9.884745      -268.9776
  18   2.0000      -9.876855      -268.7629
  19   2.0000      -7.687328      -209.1828
  20   2.0000      -7.681901      -209.0352
  21   2.0000      -7.630989      -207.6498
  22   2.0000      -7.625580      -207.5026
  23   2.0000      -6.423418      -174.7901
  24   2.0000      -6.419982      -174.6966
  25   2.0000      -5.715212      -155.5188
  26   2.0000      -5.712006      -155.4316
  27   2.0000      -5.710095      -155.3796
  28   2.0000      -5.706449      -155.2804
  29   2.0000      -5.704099      -155.2164
  30   2.0000      -5.698495      -155.0639
  31   2.0000      -5.659779      -154.0104
  32   2.0000      -5.654412      -153.8644
  33   2.0000      -5.651797      -153.7932
  34   2.0000      -5.651109      -153.7745
  35   2.0000      -5.646378      -153.6458
  36   2.0000      -5.645645      -153.6258
  37   2.0000      -4.646311      -126.4325
  38   2.0000      -4.644926      -126.3949
  39   2.0000      -4.643862      -126.3659
  40   2.0000      -4.642686      -126.3339
  41   2.0000      -4.641783      -126.3093
  42   2.0000      -4.640289      -126.2687
  43   2.0000      -0.986033       -26.8313
  44   2.0000      -0.983061       -26.7504
  45   2.0000      -0.943171       -25.6650
  46   2.0000      -0.941627       -25.6230
  47   2.0000      -0.763899       -20.7868
  48   2.0000      -0.719920       -19.5900
  49   2.0000      -0.707126       -19.2419
  50   2.0000      -0.686156       -18.6712
  51   2.0000      -0.684983       -18.6393
  52   2.0000      -0.670860       -18.2550
  53   2.0000      -0.649327       -17.6691
  54   2.0000      -0.637262       -17.3408
  55   2.0000      -0.599057       -16.3012
  56   2.0000      -0.590312       -16.0632
  57   2.0000      -0.574848       -15.6424
  58   2.0000      -0.571364       -15.5476
  59   2.0000      -0.557253       -15.1636
  60   2.0000      -0.499583       -13.5944
  61   2.0000      -0.496647       -13.5144
  62   2.0000      -0.469312       -12.7706
  63   2.0000      -0.468655       -12.7528
  64   2.0000      -0.459193       -12.4953
  65   2.0000      -0.439517       -11.9599
  66   2.0000      -0.437509       -11.9052
  67   2.0000      -0.431757       -11.7487
  68   2.0000      -0.426190       -11.5972
  69   2.0000      -0.415796       -11.3144
  70   2.0000      -0.410572       -11.1722
  71   2.0000      -0.401692       -10.9306
  72   2.0000      -0.389665       -10.6033
  73   2.0000      -0.387793       -10.5524
  74   2.0000      -0.376171       -10.2361
  75   2.0000      -0.372379       -10.1329
  76   2.0000      -0.368926       -10.0390
  77   2.0000      -0.358105        -9.7445
  78   2.0000      -0.354741        -9.6530
  79   2.0000      -0.351915        -9.5761
  80   2.0000      -0.347789        -9.4638
  81   2.0000      -0.341539        -9.2938
  82   2.0000      -0.341309        -9.2875
  83   2.0000      -0.338066        -9.1992
  84   2.0000      -0.331566        -9.0224
  85   2.0000      -0.321608        -8.7514
  86   2.0000      -0.304111        -8.2753
  87   2.0000      -0.296391        -8.0652
  88   2.0000      -0.294367        -8.0101
  89   2.0000      -0.286157        -7.7867
  90   2.0000      -0.282219        -7.6796
  91   2.0000      -0.274354        -7.4656
  92   2.0000      -0.269403        -7.3308
  93   2.0000      -0.260417        -7.0863
  94   2.0000      -0.257546        -7.0082
  95   2.0000      -0.237990        -6.4760
  96   2.0000      -0.214556        -5.8384
  97   2.0000      -0.208024        -5.6606
  98   2.0000      -0.200845        -5.4653
  99   2.0000      -0.194043        -5.2802
 100   2.0000      -0.189078        -5.1451
 101   0.0000      -0.048806        -1.3281
 102   0.0000      -0.026511        -0.7214
 103   0.0000      -0.013183        -0.3587
 104   0.0000      -0.000290        -0.0079
 105   0.0000       0.021021         0.5720

MULLIKEN ATOMIC CHARGES
-----------------------
   0 C :   -0.314248
   1 C :   -0.000591
   2 O :   -0.350103
   3 P :    0.644365
   4 S :   -0.339997
   5 O :   -0.376213
   6 C :   -0.005564
   7 C :   -0.315579
   8 S :   -0.092832
   9 C :   -0.352845
  10 S :   -0.086938
  11 P :    0.608938
  12 S :   -0.319749
  13 O :   -0.367846
  14 C :    0.006256
  15 C :   -0.357961
  16 O :   -0.375275
  17 C :   -0.003503
  18 C :   -0.309039
  19 H :    0.124762
  20 H :    0.105049
  21 H :    0.126031
  22 H :    0.103028
  23 H :    0.109475
  24 H :    0.105233
  25 H :    0.112555
  26 H :    0.125583
  27 H :    0.118539
  28 H :    0.113785
  29 H :    0.192383
  30 H :    0.189015
  31 H :    0.107158
  32 H :    0.104834
  33 H :    0.152540
  34 H :    0.114672
  35 H :    0.125101
  36 H :    0.106154
  37 H :    0.112123
  38 H :    0.116688
  39 H :    0.113547
  40 H :    0.130467
Sum of atomic charges:   -0.0000000

LOEWDIN ATOMIC CHARGES
----------------------
   0 C :   -0.365985
   1 C :   -0.110748
   2 O :   -0.232136
   3 P :    0.576215
   4 S :   -0.323952
   5 O :   -0.241825
   6 C :   -0.120388
   7 C :   -0.369018
   8 S :    0.096600
   9 C :   -0.477633
  10 S :    0.090389
  11 P :    0.569248
  12 S :   -0.310355
  13 O :   -0.248173
  14 C :   -0.120975
  15 C :   -0.374448
  16 O :   -0.243514
  17 C :   -0.116298
  18 C :   -0.358818
  19 H :    0.121802
  20 H :    0.126885
  21 H :    0.127336
  22 H :    0.110122
  23 H :    0.117464
  24 H :    0.118513
  25 H :    0.110352
  26 H :    0.120792
  27 H :    0.125126
  28 H :    0.131601
  29 H :    0.130560
  30 H :    0.132666
  31 H :    0.108094
  32 H :    0.118687
  33 H :    0.121989
  34 H :    0.131684
  35 H :    0.126305
  36 H :    0.117188
  37 H :    0.108135
  38 H :    0.124188
  39 H :    0.132201
  40 H :    0.120125

  Mayer bond orders larger than 0.100000
B(  0-C ,  1-C ) :   1.1662 B(  0-C , 19-H ) :   0.9334 B(  0-C , 20-H ) :   0.9383
B(  0-C , 21-H ) :   0.9455 B(  1-C ,  2-O ) :   0.9058 B(  1-C , 22-H ) :   0.9283
B(  1-C , 23-H ) :   0.9263 B(  2-O ,  3-P ) :   1.1400 B(  3-P ,  4-S ) :   1.6007
B(  3-P ,  5-O ) :   1.1010 B(  3-P ,  8-S ) :   0.9425 B(  4-S ,  8-S ) :   0.1119
B(  5-O ,  6-C ) :   0.9055 B(  6-C ,  7-C ) :   1.1657 B(  6-C , 24-H ) :   0.9328
B(  6-C , 25-H ) :   0.9129 B(  7-C , 26-H ) :   0.9343 B(  7-C , 27-H ) :   0.9455
B(  7-C , 28-H ) :   0.9381 B(  8-S ,  9-C ) :   1.0124 B(  9-C , 10-S ) :   1.0046
B(  9-C , 29-H ) :   0.8809 B(  9-C , 30-H ) :   0.8989 B( 10-S , 11-P ) :   0.9553
B( 10-S , 12-S ) :   0.1103 B( 11-P , 12-S ) :   1.6135 B( 11-P , 13-O ) :   1.1068
B( 11-P , 16-O ) :   1.1169 B( 13-O , 14-C ) :   0.9154 B( 14-C , 15-C ) :   1.1592
B( 14-C , 31-H ) :   0.9130 B( 14-C , 32-H ) :   0.9325 B( 15-C , 33-H ) :   0.9226
B( 15-C , 34-H ) :   0.9380 B( 15-C , 35-H ) :   0.9425 B( 16-O , 17-C ) :   0.8975
B( 17-C , 18-C ) :   1.1656 B( 17-C , 36-H ) :   0.9332 B( 17-C , 37-H ) :   0.8997
B( 18-C , 38-H ) :   0.9474 B( 18-C , 39-H ) :   0.9395 B( 18-C , 40-H ) :   0.9378

Dispersion correction           -0.067793593
FINAL SINGLE POINT ENERGY     -2929.516916003658

DIPOLE MOMENT
-------------

Method             : SCF
Type of density    : Electron Density
Multiplicity       :   1
Irrep              :   0
Energy             : -2929.6336972458143464 Eh
Relativity type    :
Basis              : AO
                                X                 Y                 Z
Electronic contribution:     -3.197934281       0.035537290       3.907541925
Nuclear contribution   :      3.082243117      -0.347873080      -4.315380651
                        -----------------------------------------
Total Dipole Moment    :     -0.115691164      -0.312335790      -0.407838726
                        -----------------------------------------
Magnitude (a.u.)       :      0.526564828
Magnitude (Debye)      :      1.338421426

Rotational constants in cm-1:             0.011196             0.006120             0.004967
Rotational constants in MHz :           335.661288           183.461620           148.908612

                             ****ORCA TERMINATED NORMALLY****
TOTAL RUN TIME: 0 days 0 hours 0 minutes 21 seconds 717 msec
