                         Program Version 6.0.0  -   RELEASE  -
|  1> ! r2scan-3c def2/J RI DEFGRID2 scfconv6 printgap
|  2> %output
|  3>     printlevel normal
|  4> end
|  5> * xyz 0 1
|  6> C -0.7841626934 0.000127961 0.6771292491
|  7> C 0.5921419159 0.0001782754 0.026325874
|  8> Cl 0.4606301395 -5.65145e-05 -1.7417178649
|  9> Cl 1.4870603271 -1.4422401333 0.5449213753
| 10> Cl 1.4874266282 1.4423949524 0.5448815464
| 11> Cl -1.6754260251 1.4511985172 0.1816400218
| 12> Cl -1.6746855981 -1.4514024406 0.1817244635
| 13> H -0.7018099334 6.58539e-05 1.7669170268
| 14> *
| 15>
| 16>                          ****END OF INPUT****

CARTESIAN COORDINATES (ANGSTROEM)
---------------------------------
  C     -0.784163    0.000128    0.677129
  C      0.592142    0.000178    0.026326
  Cl     0.460630   -0.000057   -1.741718
  Cl     1.487060   -1.442240    0.544921
  Cl     1.487427    1.442395    0.544882
  Cl    -1.675426    1.451199    0.181640
  Cl    -1.674686   -1.451402    0.181724
  H     -0.701810    0.000066    1.766917

 Total Charge           Charge          ....    0
 Multiplicity           Mult            ....    1
 Number of Electrons    NEL             ....   98
 Basis Dimension        Dim             ....  178

ORBITAL ENERGIES
----------------

  NO   OCC          E(Eh)            E(eV)
   0   2.0000    -101.250944     -2755.1782
   1   2.0000    -101.250923     -2755.1777
   2   2.0000    -101.246294     -2755.0517
   3   2.0000    -101.242271     -2754.9423
   4   2.0000    -101.242251     -2754.9417
   5   2.0000     -10.250107      -278.9196
   6   2.0000     -10.199760      -277.5496
   7   2.0000      -9.406961      -255.9764
   8   2.0000      -9.406943      -255.9759
   9   2.0000      -9.402278      -255.8490
  10   2.0000      -9.398243      -255.7392
  11   2.0000      -9.398225      -255.7387
  12   2.0000      -7.154117      -194.6734
  13   2.0000      -7.154099      -194.6729
  14   2.0000      -7.149506      -194.5479
  15   2.0000      -7.145272      -194.4327
  16   2.0000      -7.145255      -194.4323
  17   2.0000      -7.142645      -194.3612
  18   2.0000      -7.142627      -194.3608
  19   2.0000      -7.142388      -194.3542
  20   2.0000      -7.142369      -194.3537
  21   2.0000      -7.137805      -194.2296
  22   2.0000      -7.137785      -194.2290
  23   2.0000      -7.133939      -194.1243
  24   2.0000      -7.133921      -194.1239
  25   2.0000      -7.133780      -194.1200
  26   2.0000      -7.133764      -194.1196
  27   2.0000      -0.952852       -25.9284
  28   2.0000      -0.877615       -23.8811
  29   2.0000      -0.826086       -22.4789
  30   2.0000      -0.816732       -22.2244
  31   2.0000      -0.801747       -21.8166
  32   2.0000      -0.693713       -18.8769
  33   2.0000      -0.585485       -15.9319
  34   2.0000      -0.508815       -13.8455
  35   2.0000      -0.489329       -13.3153
  36   2.0000      -0.485761       -13.2182
  37   2.0000      -0.440303       -11.9812
  38   2.0000      -0.429822       -11.6960
  39   2.0000      -0.347138        -9.4461
  40   2.0000      -0.343725        -9.3532
  41   2.0000      -0.328012        -8.9257
  42   2.0000      -0.323926        -8.8145
  43   2.0000      -0.319598        -8.6967
  44   2.0000      -0.311921        -8.4878
  45   2.0000      -0.307534        -8.3684
  46   2.0000      -0.295131        -8.0309
  47   2.0000      -0.290726        -7.9111
  48   2.0000      -0.281817        -7.6686
  49   0.0000      -0.070934        -1.9302
  50   0.0000      -0.059564        -1.6208
  51   0.0000      -0.058336        -1.5874
  52   0.0000      -0.015267        -0.4154
  53   0.0000       0.015779         0.4294

MULLIKEN ATOMIC CHARGES
-----------------------
   0 C :   -0.058982
   1 C :    0.181468
   2 Cl:   -0.056884
   3 Cl:   -0.058166
   4 Cl:   -0.058115
   5 Cl:   -0.085660
   6 Cl:   -0.085688
   7 H :    0.222027
Sum of atomic charges:    0.0000000

LOEWDIN ATOMIC CHARGES
----------------------
   0 C :   -0.382920
   1 C :   -0.441588
   2 Cl:    0.140697
   3 Cl:    0.139073
   4 Cl:    0.139102
   5 Cl:    0.109996
   6 Cl:    0.109973
   7 H :    0.185667

  Mayer bond orders larger than 0.100000
B(  0-C ,  1-C ) :   0.9173 B(  0-C ,  5-Cl) :   1.0273 B(  0-C ,  6-Cl) :   1.0272
B(  0-C ,  7-H ) :   0.9143 B(  1-C ,  2-Cl) :   1.0516 B(  1-C ,  3-Cl) :   1.0183
B(  1-C ,  4-Cl) :   1.0184

Dispersion correction           -0.004214445
FINAL SINGLE POINT ENERGY     -2377.661224978972

DIPOLE MOMENT
-------------

Method             : SCF
Type of density    : Electron Density
Multiplicity       :   1
Irrep              :   0
Energy             : -2377.6680899377465721 Eh
Relativity type    :
Basis              : AO
                                X                 Y                 Z
Electronic contribution:      0.809576187      -0.000097136      -1.653800564
Nuclear contribution   :     -0.772518988       0.000203547       2.044982233
                        -----------------------------------------
Total Dipole Moment    :      0.037057199       0.000106411       0.391181669
                        -----------------------------------------
Magnitude (a.u.)       :      0.392933004
Magnitude (Debye)      :      0.998756324

Rotational constants in cm-1:             0.038624             0.032733             0.025076
Rotational constants in MHz :          1157.912495           981.305800           751.769566

                             ****ORCA TERMINATED NORMALLY****
TOTAL RUN TIME: 0 days 0 hours 0 minutes 14 seconds 792 msec
