                         Program Version 6.0.0  -   RELEASE  -
|  1> ! r2scan-3c def2/J RI DEFGRID2 scfconv6 printgap
|  2> %output
|  3>     printlevel normal
|  4> end
|  5> %cpcm
|  6>     smd true
|  7>     smdsolvent "water"
|  8> end
|  9> * xyz 0 1
| 10> C -0.7841626934 0.000127961 0.6771292491
| 11> C 0.5921419159 0.0001782754 0.026325874
| 12> Cl 0.4606301395 -5.65145e-05 -1.7417178649
| 13> Cl 1.4870603271 -1.4422401333 0.5449213753
| 14> Cl 1.4874266282 1.4423949524 0.5448815464
| 15> Cl -1.6754260251 1.4511985172 0.1816400218
| 16> Cl -1.6746855981 -1.4514024406 0.1817244635
| 17> H -0.7018099334 6.58539e-05 1.7669170268
| 18> *
| 19>
| 20>                          ****END OF INPUT****

CARTESIAN COORDINATES (ANGSTROEM)
---------------------------------
  C     -0.784163    0.000128    0.677129
  C      0.592142    0.000178    0.026326
  Cl     0.460630   -0.000057   -1.741718
  Cl     1.487060   -1.442240    0.544921
  Cl     1.487427    1.442395    0.544882
  Cl    -1.675426    1.451199    0.181640
  Cl    -1.674686   -1.451402    0.181724
  H     -0.701810    0.000066    1.766917

 Total Charge           Charge          ....    0
 Multiplicity           Mult            ....    1
 Number of Electrons    NEL             ....   98
 Basis Dimension        Dim             ....  178

ORBITAL ENERGIES
----------------

  NO   OCC          E(Eh)            E(eV)
   0   2.0000    -101.249702     -2755.1445
   1   2.0000    -101.249681     -2755.1439
   2   2.0000    -101.246598     -2755.0600
   3   2.0000    -101.239906     -2754.8779
   4   2.0000    -101.239886     -2754.8774
   5   2.0000     -10.248851      -278.8854
   6   2.0000     -10.193100      -277.3684
   7   2.0000      -9.405734      -255.9430
   8   2.0000      -9.405717      -255.9426
   9   2.0000      -9.402763      -255.8622
  10   2.0000      -9.396025      -255.6788
  11   2.0000      -9.396008      -255.6784
  12   2.0000      -7.152879      -194.6397
  13   2.0000      -7.152861      -194.6392
  14   2.0000      -7.149869      -194.5578
  15   2.0000      -7.142927      -194.3689
  16   2.0000      -7.142910      -194.3685
  17   2.0000      -7.141383      -194.3269
  18   2.0000      -7.141365      -194.3264
  19   2.0000      -7.141203      -194.3220
  20   2.0000      -7.141184      -194.3215
  21   2.0000      -7.138324      -194.2437
  22   2.0000      -7.138317      -194.2435
  23   2.0000      -7.131799      -194.0661
  24   2.0000      -7.131782      -194.0657
  25   2.0000      -7.131580      -194.0602
  26   2.0000      -7.131563      -194.0597
  27   2.0000      -0.950936       -25.8763
  28   2.0000      -0.875143       -23.8138
  29   2.0000      -0.824527       -22.4365
  30   2.0000      -0.816775       -22.2256
  31   2.0000      -0.799894       -21.7662
  32   2.0000      -0.690279       -18.7834
  33   2.0000      -0.580938       -15.8081
  34   2.0000      -0.504000       -13.7145
  35   2.0000      -0.487466       -13.2646
  36   2.0000      -0.483606       -13.1596
  37   2.0000      -0.436602       -11.8806
  38   2.0000      -0.427392       -11.6299
  39   2.0000      -0.346228        -9.4214
  40   2.0000      -0.343597        -9.3497
  41   2.0000      -0.326985        -8.8977
  42   2.0000      -0.322772        -8.7831
  43   2.0000      -0.318601        -8.6696
  44   2.0000      -0.310775        -8.4566
  45   2.0000      -0.306291        -8.3346
  46   2.0000      -0.293403        -7.9839
  47   2.0000      -0.290767        -7.9122
  48   2.0000      -0.280994        -7.6462
  49   0.0000      -0.069863        -1.9011
  50   0.0000      -0.057057        -1.5526
  51   0.0000      -0.055995        -1.5237
  52   0.0000      -0.011812        -0.3214
  53   0.0000       0.019316         0.5256

MULLIKEN ATOMIC CHARGES
-----------------------
   0 C :   -0.058560
   1 C :    0.177839
   2 Cl:   -0.068594
   3 Cl:   -0.061733
   4 Cl:   -0.061674
   5 Cl:   -0.104326
   6 Cl:   -0.104355
   7 H :    0.281402
Sum of atomic charges:    0.0000000

LOEWDIN ATOMIC CHARGES
----------------------
   0 C :   -0.376508
   1 C :   -0.441200
   2 Cl:    0.131494
   3 Cl:    0.138608
   4 Cl:    0.138641
   5 Cl:    0.100749
   6 Cl:    0.100724
   7 H :    0.207491

  Mayer bond orders larger than 0.100000
B(  0-C ,  1-C ) :   0.9180 B(  0-C ,  5-Cl) :   1.0076 B(  0-C ,  6-Cl) :   1.0076
B(  0-C ,  7-H ) :   0.8908 B(  1-C ,  2-Cl) :   1.0417 B(  1-C ,  3-Cl) :   1.0227
B(  1-C ,  4-Cl) :   1.0228

Dispersion correction           -0.004214445
FINAL SINGLE POINT ENERGY     -2377.663199452648

DIPOLE MOMENT
-------------

Method             : SCF
Type of density    : Electron Density
Multiplicity       :   1
Irrep              :   0
Energy             : -2377.6700644114225724 Eh
Relativity type    :
Basis              : AO
                                X                 Y                 Z
Electronic contribution:      0.821609921      -0.000057020      -1.401807896
Nuclear contribution   :     -0.772518988       0.000203547       2.044982233
                        -----------------------------------------
Total Dipole Moment    :      0.049090933       0.000146527       0.643174337
                        -----------------------------------------
Magnitude (a.u.)       :      0.645045091
Magnitude (Debye)      :      1.639574322

Rotational constants in cm-1:             0.038624             0.032733             0.025076
Rotational constants in MHz :          1157.912495           981.305800           751.769566

                             ****ORCA TERMINATED NORMALLY****
TOTAL RUN TIME: 0 days 0 hours 0 minutes 19 seconds 364 msec
