                         Program Version 6.0.0  -   RELEASE  -
|  1> ! pbe def2-sv(p) def2/J RI DEFGRID1 loosescf d4 GCP(DFT/SV(P)) printgap
|  2> %output
|  3>     printlevel normal
|  4> end
|  5> * xyz 0 1
|  6> C 2.7398315828 -0.5573685165 -2.8890931115
|  7> C 3.3754422863 0.2386007082 -1.76634789
|  8> O 2.3702305348 0.6938513404 -0.8230000518
|  9> P 2.03837124 0.0077708916 0.5491982334
| 10> S 0.8092444698 1.083186024 1.6252201962
| 11> O 3.4767308502 -0.1887182372 1.1944075492
| 12> C 3.6371097857 -0.6996549183 2.5344287512
| 13> C 5.0287681915 -0.3338093429 3.0084410663
| 14> S 1.4878585411 -2.0169540923 0.181753072
| 15> C -0.0898814766 -1.7875023501 -0.6767051252
| 16> S -1.4487666332 -1.2645732098 0.4186309982
| 17> P -2.0878174848 0.4283408288 -0.7073450033
| 18> S -0.7358932159 1.3420050729 -1.7836238266
| 19> O -2.9176897993 1.294275505 0.3314013067
| 20> C -2.3580995223 2.219483612 1.2802768808
| 21> C -3.4620638201 3.1691072631 1.6973647735
| 22> O -3.234036682 -0.1076563643 -1.6459935346
| 23> C -4.3865204665 -0.8488539218 -1.164157926
| 24> C -4.3050687215 -2.2889407967 -1.6292444049
| 25> H 3.4717449804 -0.7020890257 -3.6773116502
| 26> H 2.4051524845 -1.529664426 -2.5359029592
| 27> H 1.8892418199 -0.0094035323 -3.2894374213
| 28> H 3.8163438362 1.1634883426 -2.1410538684
| 29> H 4.1282427731 -0.3429595593 -1.2319823008
| 30> H 2.8654393034 -0.2543887918 3.1710672472
| 31> H 3.4955347923 -1.7830325933 2.5020659605
| 32> H 5.1485867621 0.7460367866 3.0145664936
| 33> H 5.1730579331 -0.7162458223 4.0134267122
| 34> H 5.7733291244 -0.7674214914 2.3473601132
| 35> H -0.3352821983 -2.7610466234 -1.0925297826
| 36> H 0.0251356416 -1.0318103575 -1.4582476166
| 37> H -1.9680796299 1.6534395098 2.1304148488
| 38> H -1.5236664347 2.7495500715 0.8102595968
| 39> H -4.2810389578 2.6121677394 2.1428618441
| 40> H -3.0662372515 3.8715429631 2.4231721852
| 41> H -3.8317517509 3.7135835635 0.8328315438
| 42> H -4.4276128042 -0.7816983963 -0.0751195229
| 43> H -5.2481212578 -0.337707922 -1.5958111039
| 44> H -5.2293130171 -2.7963111375 -1.3718887581
| 45> H -4.164478501 -2.3227495477 -2.7058857713
| 46> H -3.4748165258 -2.7979889409 -1.1462854844
| 47> *
| 48>
| 49>                          ****END OF INPUT****

CARTESIAN COORDINATES (ANGSTROEM)
---------------------------------
  C      2.739832   -0.557369   -2.889093
  C      3.375442    0.238601   -1.766348
  O      2.370231    0.693851   -0.823000
  P      2.038371    0.007771    0.549198
  S      0.809244    1.083186    1.625220
  O      3.476731   -0.188718    1.194408
  C      3.637110   -0.699655    2.534429
  C      5.028768   -0.333809    3.008441
  S      1.487859   -2.016954    0.181753
  C     -0.089881   -1.787502   -0.676705
  S     -1.448767   -1.264573    0.418631
  P     -2.087817    0.428341   -0.707345
  S     -0.735893    1.342005   -1.783624
  O     -2.917690    1.294276    0.331401
  C     -2.358100    2.219484    1.280277
  C     -3.462064    3.169107    1.697365
  O     -3.234037   -0.107656   -1.645994
  C     -4.386520   -0.848854   -1.164158
  C     -4.305069   -2.288941   -1.629244
  H      3.471745   -0.702089   -3.677312
  H      2.405152   -1.529664   -2.535903
  H      1.889242   -0.009404   -3.289437
  H      3.816344    1.163488   -2.141054
  H      4.128243   -0.342960   -1.231982
  H      2.865439   -0.254389    3.171067
  H      3.495535   -1.783033    2.502066
  H      5.148587    0.746037    3.014566
  H      5.173058   -0.716246    4.013427
  H      5.773329   -0.767421    2.347360
  H     -0.335282   -2.761047   -1.092530
  H      0.025136   -1.031810   -1.458248
  H     -1.968080    1.653440    2.130415
  H     -1.523666    2.749550    0.810260
  H     -4.281039    2.612168    2.142862
  H     -3.066237    3.871543    2.423172
  H     -3.831752    3.713584    0.832832
  H     -4.427613   -0.781698   -0.075120
  H     -5.248121   -0.337708   -1.595811
  H     -5.229313   -2.796311   -1.371889
  H     -4.164479   -2.322750   -2.705886
  H     -3.474817   -2.797989   -1.146285

 Total Charge           Charge          ....    0
 Multiplicity           Mult            ....    1
 Number of Electrons    NEL             ....  202
 Basis Dimension        Dim             ....  334

ORBITAL ENERGIES
----------------

  NO   OCC          E(Eh)            E(eV)
   0   2.0000     -88.041516     -2395.7315
   1   2.0000     -88.035767     -2395.5750
   2   2.0000     -87.977365     -2393.9858
   3   2.0000     -87.974689     -2393.9130
   4   2.0000     -76.421445     -2079.5332
   5   2.0000     -76.418878     -2079.4634
   6   2.0000     -18.790486      -511.3151
   7   2.0000     -18.788400      -511.2584
   8   2.0000     -18.787208      -511.2259
   9   2.0000     -18.781450      -511.0692
  10   2.0000      -9.954593      -270.8782
  11   2.0000      -9.953591      -270.8510
  12   2.0000      -9.952800      -270.8294
  13   2.0000      -9.952673      -270.8260
  14   2.0000      -9.943457      -270.5752
  15   2.0000      -9.888395      -269.0769
  16   2.0000      -9.884597      -268.9736
  17   2.0000      -9.882556      -268.9180
  18   2.0000      -9.881494      -268.8891
  19   2.0000      -7.686621      -209.1636
  20   2.0000      -7.680629      -209.0005
  21   2.0000      -7.622642      -207.4226
  22   2.0000      -7.619895      -207.3479
  23   2.0000      -6.418887      -174.6668
  24   2.0000      -6.416512      -174.6022
  25   2.0000      -5.714226      -155.4920
  26   2.0000      -5.711151      -155.4083
  27   2.0000      -5.708453      -155.3349
  28   2.0000      -5.705302      -155.2492
  29   2.0000      -5.703855      -155.2098
  30   2.0000      -5.697522      -155.0375
  31   2.0000      -5.651662      -153.7895
  32   2.0000      -5.648931      -153.7152
  33   2.0000      -5.643491      -153.5672
  34   2.0000      -5.642382      -153.5370
  35   2.0000      -5.640479      -153.4852
  36   2.0000      -5.639898      -153.4694
  37   2.0000      -4.641898      -126.3125
  38   2.0000      -4.640767      -126.2817
  39   2.0000      -4.639295      -126.2416
  40   2.0000      -4.638847      -126.2294
  41   2.0000      -4.638244      -126.2130
  42   2.0000      -4.636801      -126.1738
  43   2.0000      -0.985633       -26.8204
  44   2.0000      -0.981619       -26.7112
  45   2.0000      -0.942327       -25.6420
  46   2.0000      -0.937417       -25.5084
  47   2.0000      -0.758062       -20.6279
  48   2.0000      -0.719081       -19.5672
  49   2.0000      -0.710834       -19.3428
  50   2.0000      -0.690182       -18.7808
  51   2.0000      -0.686626       -18.6841
  52   2.0000      -0.672340       -18.2953
  53   2.0000      -0.644393       -17.5348
  54   2.0000      -0.629499       -17.1295
  55   2.0000      -0.585486       -15.9319
  56   2.0000      -0.580255       -15.7896
  57   2.0000      -0.571744       -15.5580
  58   2.0000      -0.568705       -15.4753
  59   2.0000      -0.561492       -15.2790
  60   2.0000      -0.509523       -13.8648
  61   2.0000      -0.501059       -13.6345
  62   2.0000      -0.475854       -12.9487
  63   2.0000      -0.474578       -12.9139
  64   2.0000      -0.452345       -12.3089
  65   2.0000      -0.445189       -12.1142
  66   2.0000      -0.438451       -11.9309
  67   2.0000      -0.433861       -11.8060
  68   2.0000      -0.429136       -11.6774
  69   2.0000      -0.423372       -11.5205
  70   2.0000      -0.406377       -11.0581
  71   2.0000      -0.386771       -10.5246
  72   2.0000      -0.384779       -10.4704
  73   2.0000      -0.380677       -10.3587
  74   2.0000      -0.377923       -10.2838
  75   2.0000      -0.365739        -9.9523
  76   2.0000      -0.362503        -9.8642
  77   2.0000      -0.352386        -9.5889
  78   2.0000      -0.350721        -9.5436
  79   2.0000      -0.348439        -9.4815
  80   2.0000      -0.348342        -9.4789
  81   2.0000      -0.343715        -9.3530
  82   2.0000      -0.340918        -9.2769
  83   2.0000      -0.335264        -9.1230
  84   2.0000      -0.332416        -9.0455
  85   2.0000      -0.315820        -8.5939
  86   2.0000      -0.306985        -8.3535
  87   2.0000      -0.301399        -8.2015
  88   2.0000      -0.293396        -7.9837
  89   2.0000      -0.293162        -7.9773
  90   2.0000      -0.289334        -7.8732
  91   2.0000      -0.270053        -7.3485
  92   2.0000      -0.267209        -7.2711
  93   2.0000      -0.257605        -7.0098
  94   2.0000      -0.254335        -6.9208
  95   2.0000      -0.239435        -6.5153
  96   2.0000      -0.220622        -6.0034
  97   2.0000      -0.200228        -5.4485
  98   2.0000      -0.198720        -5.4075
  99   2.0000      -0.182397        -4.9633
 100   2.0000      -0.180730        -4.9179
 101   0.0000      -0.037481        -1.0199
 102   0.0000      -0.028580        -0.7777
 103   0.0000      -0.009374        -0.2551
 104   0.0000       0.005564         0.1514
 105   0.0000       0.025643         0.6978

MULLIKEN ATOMIC CHARGES
-----------------------
   0 C :   -0.309088
   1 C :   -0.008635
   2 O :   -0.345329
   3 P :    0.616987
   4 S :   -0.318126
   5 O :   -0.386481
   6 C :   -0.011073
   7 C :   -0.281208
   8 S :   -0.126561
   9 C :   -0.357352
  10 S :   -0.094854
  11 P :    0.600218
  12 S :   -0.296811
  13 O :   -0.384413
  14 C :   -0.028047
  15 C :   -0.273553
  16 O :   -0.359456
  17 C :   -0.008302
  18 C :   -0.286599
  19 H :    0.109568
  20 H :    0.119445
  21 H :    0.138426
  22 H :    0.112046
  23 H :    0.105453
  24 H :    0.105772
  25 H :    0.104064
  26 H :    0.122919
  27 H :    0.112324
  28 H :    0.113920
  29 H :    0.180198
  30 H :    0.199557
  31 H :    0.118341
  32 H :    0.123276
  33 H :    0.109790
  34 H :    0.112974
  35 H :    0.117051
  36 H :    0.103679
  37 H :    0.109974
  38 H :    0.107606
  39 H :    0.118252
  40 H :    0.114048
Sum of atomic charges:   -0.0000000

LOEWDIN ATOMIC CHARGES
----------------------
   0 C :   -0.366450
   1 C :   -0.108497
   2 O :   -0.224830
   3 P :    0.564959
   4 S :   -0.307431
   5 O :   -0.252056
   6 C :   -0.120012
   7 C :   -0.350621
   8 S :    0.057523
   9 C :   -0.481025
  10 S :    0.065256
  11 P :    0.566415
  12 S :   -0.294878
  13 O :   -0.245249
  14 C :   -0.119179
  15 C :   -0.351425
  16 O :   -0.243891
  17 C :   -0.113366
  18 C :   -0.359958
  19 H :    0.129570
  20 H :    0.117819
  21 H :    0.132477
  22 H :    0.123586
  23 H :    0.110140
  24 H :    0.109511
  25 H :    0.108875
  26 H :    0.130260
  27 H :    0.131108
  28 H :    0.125477
  29 H :    0.134357
  30 H :    0.121382
  31 H :    0.110591
  32 H :    0.113152
  33 H :    0.123714
  34 H :    0.131527
  35 H :    0.127458
  36 H :    0.107301
  37 H :    0.121110
  38 H :    0.128645
  39 H :    0.128198
  40 H :    0.118458

  Mayer bond orders larger than 0.100000
B(  0-C ,  1-C ) :   1.1700 B(  0-C , 19-H ) :   0.9381 B(  0-C , 20-H ) :   0.9332
B(  0-C , 21-H ) :   0.9358 B(  1-C ,  2-O ) :   0.8942 B(  1-C , 22-H ) :   0.9347
B(  1-C , 23-H ) :   0.9195 B(  2-O ,  3-P ) :   1.1506 B(  3-P ,  4-S ) :   1.6663
B(  3-P ,  5-O ) :   1.0790 B(  3-P ,  8-S ) :   0.9439 B(  4-S ,  8-S ) :   0.1141
B(  5-O ,  6-C ) :   0.9043 B(  6-C ,  7-C ) :   1.1609 B(  6-C , 24-H ) :   0.9067
B(  6-C , 25-H ) :   0.9298 B(  7-C , 26-H ) :   0.9506 B(  7-C , 27-H ) :   0.9416
B(  7-C , 28-H ) :   0.9514 B(  8-S ,  9-C ) :   0.9946 B(  9-C , 10-S ) :   1.0027
B(  9-C , 29-H ) :   0.9112 B(  9-C , 30-H ) :   0.8465 B( 10-S , 11-P ) :   0.9399
B( 10-S , 12-S ) :   0.1141 B( 11-P , 12-S ) :   1.6419 B( 11-P , 13-O ) :   1.1077
B( 11-P , 16-O ) :   1.1288 B( 12-S , 30-H ) :   0.1052 B( 13-O , 14-C ) :   0.8957
B( 14-C , 15-C ) :   1.1519 B( 14-C , 31-H ) :   0.9276 B( 14-C , 32-H ) :   0.9151
B( 15-C , 33-H ) :   0.9505 B( 15-C , 34-H ) :   0.9425 B( 15-C , 35-H ) :   0.9499
B( 16-O , 17-C ) :   0.8923 B( 17-C , 18-C ) :   1.1630 B( 17-C , 36-H ) :   0.9181
B( 17-C , 37-H ) :   0.9347 B( 18-C , 38-H ) :   0.9403 B( 18-C , 39-H ) :   0.9465
B( 18-C , 40-H ) :   0.9388

Dispersion correction           -0.064554284
FINAL SINGLE POINT ENERGY     -2929.512526858687

DIPOLE MOMENT
-------------

Method             : SCF
Type of density    : Electron Density
Multiplicity       :   1
Irrep              :   0
Energy             : -2929.6314301502829949 Eh
Relativity type    :
Basis              : AO
                                X                 Y                 Z
Electronic contribution:     -0.455602728       1.601128003      -0.873241412
Nuclear contribution   :      0.638165779      -2.614618171       1.115168422
                        -----------------------------------------
Total Dipole Moment    :      0.182563052      -1.013490168       0.241927011
                        -----------------------------------------
Magnitude (a.u.)       :      1.057837543
Magnitude (Debye)      :      2.688809350

Rotational constants in cm-1:             0.011803             0.005019             0.004544
Rotational constants in MHz :           353.849690           150.480546           136.230214

                             ****ORCA TERMINATED NORMALLY****
TOTAL RUN TIME: 0 days 0 hours 0 minutes 20 seconds 660 msec
