                         Program Version 6.0.0  -   RELEASE  -
|  1> ! pbe def2-sv(p) def2/J RI DEFGRID1 loosescf d4 GCP(DFT/SV(P)) printgap
|  2> %output
|  3>     printlevel normal
|  4> end
|  5> * xyz 0 1
|  6> C 4.4916117348 -1.6035410698 -0.9536737071
|  7> C 4.60551121 -0.1548232282 -0.52541007
|  8> O 3.5418289009 0.2320215927 0.359350352
|  9> P 2.0283115428 0.3567954139 -0.1263000887
| 10> S 1.8709759714 1.0372683387 -1.9646755892
| 11> O 1.4129335704 1.1542727655 1.0954541117
| 12> C 1.9185383998 2.418788184 1.5767803826
| 13> C 1.6639317226 3.5476338752 0.5986608342
| 14> S 1.1716341465 -1.5383174438 0.2418436895
| 15> C 0.1493340116 -1.7303643067 -1.2557957457
| 16> S -1.5767923088 -2.1284927201 -0.8849437255
| 17> P -2.099854442 -0.406204331 0.2066988683
| 18> S -1.4113603298 1.3166567224 -0.4497843329
| 19> O -1.6753784747 -0.8931276169 1.6526626048
| 20> C -2.1009928536 -0.2755570386 2.8868471896
| 21> C -1.2536389825 0.9336179268 3.2272051643
| 22> O -3.6855733022 -0.4493610606 0.3180672538
| 23> C -4.5428022563 0.1787720164 -0.6506121087
| 24> C -4.5065158191 -0.5361234586 -1.9855145758
| 25> H 4.3903764379 -2.2483371422 -0.0844404826
| 26> H 3.6180232763 -1.7316549968 -1.5914335065
| 27> H 5.3790356756 -1.8835559159 -1.511938975
| 28> H 4.5851689235 0.505155296 -1.3986388796
| 29> H 5.5098373541 0.024450303 0.0576868812
| 30> H 1.3695465383 2.5741518524 2.507416709
| 31> H 2.9851794063 2.3089553772 1.7868049658
| 32> H 2.2615755164 3.4163140469 -0.3016309915
| 33> H 0.61434289 3.5603893985 0.3105217219
| 34> H 1.9225542247 4.494016256 1.0625482974
| 35> H 0.523899577 -2.5754433805 -1.8279579539
| 36> H 0.2099661941 -0.8048203538 -1.8367915546
| 37> H -3.1576471714 -0.0110603421 2.8024890257
| 38> H -1.9757897114 -1.0689801783 3.625913884
| 39> H -0.203961152 0.6509556087 3.254938851
| 40> H -1.3833677217 1.7095880479 2.4748680629
| 41> H -1.5512870514 1.3218429265 4.1961833119
| 42> H -5.5322837386 0.1324648843 -0.1938338603
| 43> H -4.2305036944 1.2221605343 -0.7635845934
| 44> H -3.5259585621 -0.4165939868 -2.4446597748
| 45> H -4.7020706166 -1.5968877184 -1.8513936578
| 46> H -5.2568199229 -0.1087435245 -2.642871834
| 47> *
| 48>
| 49>                          ****END OF INPUT****

CARTESIAN COORDINATES (ANGSTROEM)
---------------------------------
  C      4.491612   -1.603541   -0.953674
  C      4.605511   -0.154823   -0.525410
  O      3.541829    0.232022    0.359350
  P      2.028312    0.356795   -0.126300
  S      1.870976    1.037268   -1.964676
  O      1.412934    1.154273    1.095454
  C      1.918538    2.418788    1.576780
  C      1.663932    3.547634    0.598661
  S      1.171634   -1.538317    0.241844
  C      0.149334   -1.730364   -1.255796
  S     -1.576792   -2.128493   -0.884944
  P     -2.099854   -0.406204    0.206699
  S     -1.411360    1.316657   -0.449784
  O     -1.675378   -0.893128    1.652663
  C     -2.100993   -0.275557    2.886847
  C     -1.253639    0.933618    3.227205
  O     -3.685573   -0.449361    0.318067
  C     -4.542802    0.178772   -0.650612
  C     -4.506516   -0.536123   -1.985515
  H      4.390376   -2.248337   -0.084440
  H      3.618023   -1.731655   -1.591434
  H      5.379036   -1.883556   -1.511939
  H      4.585169    0.505155   -1.398639
  H      5.509837    0.024450    0.057687
  H      1.369547    2.574152    2.507417
  H      2.985179    2.308955    1.786805
  H      2.261576    3.416314   -0.301631
  H      0.614343    3.560389    0.310522
  H      1.922554    4.494016    1.062548
  H      0.523900   -2.575443   -1.827958
  H      0.209966   -0.804820   -1.836792
  H     -3.157647   -0.011060    2.802489
  H     -1.975790   -1.068980    3.625914
  H     -0.203961    0.650956    3.254939
  H     -1.383368    1.709588    2.474868
  H     -1.551287    1.321843    4.196183
  H     -5.532284    0.132465   -0.193834
  H     -4.230504    1.222161   -0.763585
  H     -3.525959   -0.416594   -2.444660
  H     -4.702071   -1.596888   -1.851394
  H     -5.256820   -0.108744   -2.642872

 Total Charge           Charge          ....    0
 Multiplicity           Mult            ....    1
 Number of Electrons    NEL             ....  202
 Basis Dimension        Dim             ....  334

ORBITAL ENERGIES
----------------

  NO   OCC          E(Eh)            E(eV)
   0   2.0000     -88.039802     -2395.6848
   1   2.0000     -88.038308     -2395.6442
   2   2.0000     -87.983103     -2394.1419
   3   2.0000     -87.980296     -2394.0656
   4   2.0000     -76.422946     -2079.5741
   5   2.0000     -76.422632     -2079.5655
   6   2.0000     -18.792239      -511.3628
   7   2.0000     -18.789358      -511.2844
   8   2.0000     -18.784931      -511.1640
   9   2.0000     -18.782708      -511.1035
  10   2.0000      -9.951082      -270.7827
  11   2.0000      -9.950441      -270.7653
  12   2.0000      -9.950065      -270.7550
  13   2.0000      -9.949197      -270.7314
  14   2.0000      -9.948589      -270.7149
  15   2.0000      -9.881793      -268.8973
  16   2.0000      -9.881411      -268.8869
  17   2.0000      -9.877093      -268.7694
  18   2.0000      -9.874522      -268.6994
  19   2.0000      -7.685432      -209.1312
  20   2.0000      -7.683269      -209.0724
  21   2.0000      -7.628005      -207.5686
  22   2.0000      -7.624909      -207.4843
  23   2.0000      -6.420140      -174.7009
  24   2.0000      -6.419953      -174.6958
  25   2.0000      -5.713482      -155.4718
  26   2.0000      -5.711160      -155.4086
  27   2.0000      -5.709851      -155.3730
  28   2.0000      -5.707886      -155.3195
  29   2.0000      -5.702224      -155.1654
  30   2.0000      -5.700089      -155.1073
  31   2.0000      -5.656840      -153.9304
  32   2.0000      -5.653696      -153.8449
  33   2.0000      -5.648870      -153.7136
  34   2.0000      -5.647985      -153.6895
  35   2.0000      -5.645721      -153.6279
  36   2.0000      -5.645038      -153.6093
  37   2.0000      -4.642815      -126.3374
  38   2.0000      -4.642797      -126.3369
  39   2.0000      -4.641625      -126.3050
  40   2.0000      -4.641570      -126.3035
  41   2.0000      -4.640814      -126.2830
  42   2.0000      -4.640331      -126.2698
  43   2.0000      -0.983887       -26.7729
  44   2.0000      -0.983286       -26.7566
  45   2.0000      -0.940032       -25.5796
  46   2.0000      -0.938761       -25.5450
  47   2.0000      -0.759976       -20.6800
  48   2.0000      -0.717965       -19.5368
  49   2.0000      -0.704324       -19.1656
  50   2.0000      -0.684720       -18.6322
  51   2.0000      -0.683129       -18.5889
  52   2.0000      -0.671168       -18.2634
  53   2.0000      -0.649470       -17.6730
  54   2.0000      -0.631204       -17.1759
  55   2.0000      -0.596671       -16.2362
  56   2.0000      -0.587612       -15.9897
  57   2.0000      -0.573957       -15.6182
  58   2.0000      -0.572695       -15.5838
  59   2.0000      -0.553947       -15.0737
  60   2.0000      -0.495933       -13.4950
  61   2.0000      -0.493068       -13.4171
  62   2.0000      -0.466473       -12.6934
  63   2.0000      -0.464465       -12.6387
  64   2.0000      -0.450886       -12.2692
  65   2.0000      -0.447945       -12.1892
  66   2.0000      -0.431596       -11.7443
  67   2.0000      -0.429741       -11.6939
  68   2.0000      -0.424307       -11.5460
  69   2.0000      -0.412895       -11.2354
  70   2.0000      -0.408307       -11.1106
  71   2.0000      -0.404042       -10.9945
  72   2.0000      -0.398629       -10.8472
  73   2.0000      -0.383207       -10.4276
  74   2.0000      -0.373765       -10.1707
  75   2.0000      -0.367671       -10.0048
  76   2.0000      -0.365757        -9.9528
  77   2.0000      -0.351541        -9.5659
  78   2.0000      -0.349593        -9.5129
  79   2.0000      -0.346459        -9.4276
  80   2.0000      -0.342275        -9.3138
  81   2.0000      -0.339483        -9.2378
  82   2.0000      -0.336519        -9.1572
  83   2.0000      -0.331512        -9.0209
  84   2.0000      -0.328937        -8.9508
  85   2.0000      -0.310896        -8.4599
  86   2.0000      -0.308918        -8.4061
  87   2.0000      -0.292645        -7.9633
  88   2.0000      -0.292149        -7.9498
  89   2.0000      -0.286463        -7.7950
  90   2.0000      -0.284116        -7.7312
  91   2.0000      -0.271275        -7.3818
  92   2.0000      -0.270751        -7.3675
  93   2.0000      -0.258937        -7.0460
  94   2.0000      -0.257248        -7.0001
  95   2.0000      -0.232701        -6.3321
  96   2.0000      -0.217967        -5.9312
  97   2.0000      -0.211785        -5.7630
  98   2.0000      -0.197512        -5.3746
  99   2.0000      -0.190519        -5.1843
 100   2.0000      -0.185268        -5.0414
 101   0.0000      -0.040998        -1.1156
 102   0.0000      -0.030720        -0.8359
 103   0.0000      -0.007177        -0.1953
 104   0.0000       0.015949         0.4340
 105   0.0000       0.018830         0.5124

MULLIKEN ATOMIC CHARGES
-----------------------
   0 C :   -0.308614
   1 C :   -0.002259
   2 O :   -0.382078
   3 P :    0.633037
   4 S :   -0.314998
   5 O :   -0.357544
   6 C :   -0.005408
   7 C :   -0.317020
   8 S :   -0.083682
   9 C :   -0.362096
  10 S :   -0.088537
  11 P :    0.621767
  12 S :   -0.315225
  13 O :   -0.360318
  14 C :   -0.001685
  15 C :   -0.317071
  16 O :   -0.379932
  17 C :   -0.004144
  18 C :   -0.316677
  19 H :    0.117505
  20 H :    0.117441
  21 H :    0.110896
  22 H :    0.109191
  23 H :    0.101095
  24 H :    0.106050
  25 H :    0.104874
  26 H :    0.125611
  27 H :    0.134191
  28 H :    0.104751
  29 H :    0.179879
  30 H :    0.210238
  31 H :    0.102430
  32 H :    0.105885
  33 H :    0.129202
  34 H :    0.128256
  35 H :    0.102229
  36 H :    0.102425
  37 H :    0.110589
  38 H :    0.129616
  39 H :    0.117088
  40 H :    0.113041
Sum of atomic charges:    0.0000000

LOEWDIN ATOMIC CHARGES
----------------------
   0 C :   -0.368268
   1 C :   -0.121801
   2 O :   -0.249410
   3 P :    0.573830
   4 S :   -0.298130
   5 O :   -0.233236
   6 C :   -0.109933
   7 C :   -0.368313
   8 S :    0.091276
   9 C :   -0.481145
  10 S :    0.088506
  11 P :    0.564154
  12 S :   -0.303651
  13 O :   -0.241205
  14 C :   -0.107725
  15 C :   -0.367457
  16 O :   -0.246509
  17 C :   -0.121451
  18 C :   -0.369347
  19 H :    0.124397
  20 H :    0.118539
  21 H :    0.129613
  22 H :    0.108444
  23 H :    0.116440
  24 H :    0.116803
  25 H :    0.110140
  26 H :    0.120861
  27 H :    0.129779
  28 H :    0.126652
  29 H :    0.134500
  30 H :    0.124447
  31 H :    0.109835
  32 H :    0.119682
  33 H :    0.128248
  34 H :    0.121897
  35 H :    0.124981
  36 H :    0.117153
  37 H :    0.109521
  38 H :    0.122551
  39 H :    0.124148
  40 H :    0.131183

  Mayer bond orders larger than 0.100000
B(  0-C ,  1-C ) :   1.1657 B(  0-C , 19-H ) :   0.9443 B(  0-C , 20-H ) :   0.9373
B(  0-C , 21-H ) :   0.9384 B(  1-C ,  2-O ) :   0.9156 B(  1-C , 22-H ) :   0.9124
B(  1-C , 23-H ) :   0.9332 B(  2-O ,  3-P ) :   1.0810 B(  3-P ,  4-S ) :   1.5927
B(  3-P ,  5-O ) :   1.1303 B(  3-P ,  8-S ) :   0.9667 B(  4-S ,  8-S ) :   0.1237
B(  5-O ,  6-C ) :   0.9096 B(  6-C ,  7-C ) :   1.1667 B(  6-C , 24-H ) :   0.9289
B(  6-C , 25-H ) :   0.9280 B(  7-C , 26-H ) :   0.9354 B(  7-C , 27-H ) :   0.9418
B(  7-C , 28-H ) :   0.9373 B(  8-S ,  9-C ) :   1.0022 B(  9-C , 10-S ) :   1.0015
B(  9-C , 29-H ) :   0.9103 B(  9-C , 30-H ) :   0.8462 B( 10-S , 11-P ) :   0.9526
B( 10-S , 12-S ) :   0.1160 B( 11-P , 12-S ) :   1.6298 B( 11-P , 13-O ) :   1.1237
B( 11-P , 16-O ) :   1.0879 B( 13-O , 14-C ) :   0.9103 B( 14-C , 15-C ) :   1.1670
B( 14-C , 31-H ) :   0.9249 B( 14-C , 32-H ) :   0.9361 B( 15-C , 33-H ) :   0.9369
B( 15-C , 34-H ) :   0.9331 B( 15-C , 35-H ) :   0.9372 B( 16-O , 17-C ) :   0.9079
B( 17-C , 18-C ) :   1.1660 B( 17-C , 36-H ) :   0.9330 B( 17-C , 37-H ) :   0.9116
B( 18-C , 38-H ) :   0.9346 B( 18-C , 39-H ) :   0.9453 B( 18-C , 40-H ) :   0.9382

Dispersion correction           -0.067887573
FINAL SINGLE POINT ENERGY     -2929.517508116678

DIPOLE MOMENT
-------------

Method             : SCF
Type of density    : Electron Density
Multiplicity       :   1
Irrep              :   0
Energy             : -2929.6349890193459942 Eh
Relativity type    :
Basis              : AO
                                X                 Y                 Z
Electronic contribution:     -1.790499359      -9.044874709      -4.530884199
Nuclear contribution   :      1.791777610       8.971384264       5.349494838
                        -----------------------------------------
Total Dipole Moment    :      0.001278252      -0.073490444       0.818610638
                        -----------------------------------------
Magnitude (a.u.)       :      0.821903800
Magnitude (Debye)      :      2.089113435

Rotational constants in cm-1:             0.012201             0.005573             0.005032
Rotational constants in MHz :           365.785052           167.087157           150.855067

                             ****ORCA TERMINATED NORMALLY****
TOTAL RUN TIME: 0 days 0 hours 0 minutes 21 seconds 448 msec
