                         Program Version 6.0.1  -  RELEASE   -
|  1> ! r2scan-3c def2/J RI DEFGRID2 scfconv6 printgap
|  2> %output
|  3>     printlevel normal
|  4> end
|  5> * xyz 0 1
|  6> C 5.0149499737 0.17897 -0.2797496327
|  7> C 4.6838688183 -1.0109369313 -1.1657423411
|  8> O 3.3613403776 -1.4990386699 -0.8611061225
|  9> C 2.3898187331 -1.3041468104 -1.730416002
| 10> O 2.5183733239 -0.7857293141 -2.815924185
| 11> C 1.065909739 -1.8309347915 -1.2001121869
| 12> C 0.1365033295 -0.6371496029 -0.9544927134
| 13> H -0.0206796443 -0.0896026013 -1.88792435
| 14> C 0.8201928819 0.2853660878 0.0369081017
| 15> O 1.7341981867 1.0058447991 -0.2928495911
| 16> O 0.3731400332 0.1372781528 1.2654330016
| 17> C 1.0424198921 0.8520224418 2.3237495586
| 18> C 2.1358578838 -0.0151501795 2.9238074244
| 19> S -1.4644500314 -1.2460527811 -0.3361824449
| 20> P -2.2716252093 0.5999835264 0.3349039291
| 21> S -1.4890980929 2.2228648109 -0.440168353
| 22> O -3.8332394832 0.4110753061 0.0420112229
| 23> C -4.3454179081 0.3882309718 -1.2949157925
| 24> O -2.2805052801 0.6073232684 1.9121741721
| 25> C -2.8484498809 -0.4795052116 2.6754049624
| 26> H 5.0590851956 -0.1247484866 0.7623999385
| 27> H 5.975208879 0.5899825139 -0.5725294445
| 28> H 4.2494679615 0.94450418 -0.3927674125
| 29> H 5.3557367139 -1.8497348807 -0.975960577
| 30> H 4.7119031671 -0.7331629974 -2.222786863
| 31> H 1.2329842059 -2.3809039675 -0.2744095525
| 32> H 0.6155736496 -2.4828952533 -1.9489948071
| 33> H 1.4486232572 1.7784050579 1.9079318143
| 34> H 0.2574618141 1.0795840823 3.045529734
| 35> H 2.6248013502 0.5307854208 3.7235240159
| 36> H 1.7125581096 -0.9335029473 3.3201883416
| 37> H 2.8710702802 -0.2628084098 2.1612804573
| 38> H -3.9582755695 1.2371935284 -1.8606033183
| 39> H -5.4254433291 0.4597674025 -1.1954627928
| 40> H -4.0648423257 -0.5448131676 -1.783349864
| 41> H -2.6270433251 -0.2440951096 3.7129725397
| 42> H -2.3830853147 -1.4202280995 2.3817852144
| 43> H -3.9225913088 -0.524810865 2.5092683383
| 44> *
| 45>
| 46>                          ****END OF INPUT****

CARTESIAN COORDINATES (ANGSTROEM)
---------------------------------
  C      5.014950    0.178970   -0.279750
  C      4.683869   -1.010937   -1.165742
  O      3.361340   -1.499039   -0.861106
  C      2.389819   -1.304147   -1.730416
  O      2.518373   -0.785729   -2.815924
  C      1.065910   -1.830935   -1.200112
  C      0.136503   -0.637150   -0.954493
  H     -0.020680   -0.089603   -1.887924
  C      0.820193    0.285366    0.036908
  O      1.734198    1.005845   -0.292850
  O      0.373140    0.137278    1.265433
  C      1.042420    0.852022    2.323750
  C      2.135858   -0.015150    2.923807
  S     -1.464450   -1.246053   -0.336182
  P     -2.271625    0.599984    0.334904
  S     -1.489098    2.222865   -0.440168
  O     -3.833239    0.411075    0.042011
  C     -4.345418    0.388231   -1.294916
  O     -2.280505    0.607323    1.912174
  C     -2.848450   -0.479505    2.675405
  H      5.059085   -0.124748    0.762400
  H      5.975209    0.589983   -0.572529
  H      4.249468    0.944504   -0.392767
  H      5.355737   -1.849735   -0.975961
  H      4.711903   -0.733163   -2.222787
  H      1.232984   -2.380904   -0.274410
  H      0.615574   -2.482895   -1.948995
  H      1.448623    1.778405    1.907932
  H      0.257462    1.079584    3.045530
  H      2.624801    0.530785    3.723524
  H      1.712558   -0.933503    3.320188
  H      2.871070   -0.262808    2.161280
  H     -3.958276    1.237194   -1.860603
  H     -5.425443    0.459767   -1.195463
  H     -4.064842   -0.544813   -1.783350
  H     -2.627043   -0.244095    3.712973
  H     -2.383085   -1.420228    2.381785
  H     -3.922591   -0.524811    2.509268

 Total Charge           Charge          ....    0
 Multiplicity           Mult            ....    1
 Number of Electrons    NEL             ....  174
 Basis Dimension        Dim             ....  510

ORBITAL ENERGIES
----------------

  NO   OCC          E(Eh)            E(eV)
   0   2.0000     -88.578337     -2410.3391
   1   2.0000     -88.520465     -2408.7643
   2   2.0000     -76.917025     -2093.0186
   3   2.0000     -19.005092      -517.1548
   4   2.0000     -18.999787      -517.0105
   5   2.0000     -18.999003      -516.9892
   6   2.0000     -18.995137      -516.8840
   7   2.0000     -18.936068      -515.2766
   8   2.0000     -18.928823      -515.0794
   9   2.0000     -10.164673      -276.5948
  10   2.0000     -10.158669      -276.4314
  11   2.0000     -10.103059      -274.9182
  12   2.0000     -10.098515      -274.7946
  13   2.0000     -10.094288      -274.6796
  14   2.0000     -10.093893      -274.6688
  15   2.0000     -10.088274      -274.5159
  16   2.0000     -10.065581      -273.8984
  17   2.0000     -10.033736      -273.0318
  18   2.0000     -10.022844      -272.7354
  19   2.0000      -7.872774      -214.2291
  20   2.0000      -7.814937      -212.6553
  21   2.0000      -6.595338      -179.4683
  22   2.0000      -5.819569      -158.3585
  23   2.0000      -5.816597      -158.2777
  24   2.0000      -5.809985      -158.0977
  25   2.0000      -5.762866      -156.8156
  26   2.0000      -5.755046      -156.6028
  27   2.0000      -5.754897      -156.5987
  28   2.0000      -4.741054      -129.0106
  29   2.0000      -4.740430      -128.9937
  30   2.0000      -4.738760      -128.9482
  31   2.0000      -1.084450       -29.5094
  32   2.0000      -1.074549       -29.2400
  33   2.0000      -1.055331       -28.7170
  34   2.0000      -1.013155       -27.5693
  35   2.0000      -0.987528       -26.8720
  36   2.0000      -0.979267       -26.6472
  37   2.0000      -0.815289       -22.1851
  38   2.0000      -0.754535       -20.5319
  39   2.0000      -0.744164       -20.2497
  40   2.0000      -0.734409       -19.9843
  41   2.0000      -0.700050       -19.0493
  42   2.0000      -0.680427       -18.5154
  43   2.0000      -0.659838       -17.9551
  44   2.0000      -0.651295       -17.7226
  45   2.0000      -0.627219       -17.0675
  46   2.0000      -0.599303       -16.3079
  47   2.0000      -0.545854       -14.8534
  48   2.0000      -0.532323       -14.4852
  49   2.0000      -0.525842       -14.3089
  50   2.0000      -0.499827       -13.6010
  51   2.0000      -0.497171       -13.5287
  52   2.0000      -0.484669       -13.1885
  53   2.0000      -0.468671       -12.7532
  54   2.0000      -0.461142       -12.5483
  55   2.0000      -0.454673       -12.3723
  56   2.0000      -0.452214       -12.3054
  57   2.0000      -0.439213       -11.9516
  58   2.0000      -0.435825       -11.8594
  59   2.0000      -0.429980       -11.7004
  60   2.0000      -0.423768       -11.5313
  61   2.0000      -0.420216       -11.4346
  62   2.0000      -0.414543       -11.2803
  63   2.0000      -0.399775       -10.8784
  64   2.0000      -0.394482       -10.7344
  65   2.0000      -0.384165       -10.4537
  66   2.0000      -0.371386       -10.1059
  67   2.0000      -0.369501       -10.0546
  68   2.0000      -0.365092        -9.9347
  69   2.0000      -0.351202        -9.5567
  70   2.0000      -0.348913        -9.4944
  71   2.0000      -0.345873        -9.4117
  72   2.0000      -0.336929        -9.1683
  73   2.0000      -0.334275        -9.0961
  74   2.0000      -0.326987        -8.8978
  75   2.0000      -0.320553        -8.7227
  76   2.0000      -0.313984        -8.5439
  77   2.0000      -0.305125        -8.3029
  78   2.0000      -0.293525        -7.9872
  79   2.0000      -0.282094        -7.6762
  80   2.0000      -0.278023        -7.5654
  81   2.0000      -0.270139        -7.3509
  82   2.0000      -0.254819        -6.9340
  83   2.0000      -0.240550        -6.5457
  84   2.0000      -0.231404        -6.2968
  85   2.0000      -0.218201        -5.9376
  86   2.0000      -0.216981        -5.9044
  87   0.0000      -0.045289        -1.2324
  88   0.0000      -0.028978        -0.7885
  89   0.0000      -0.019825        -0.5395
  90   0.0000       0.007218         0.1964
  91   0.0000       0.015723         0.4278

MULLIKEN ATOMIC CHARGES
-----------------------
   0 C :   -0.480338
   1 C :   -0.150708
   2 O :   -0.154095
   3 C :    0.313965
   4 O :   -0.394959
   5 C :   -0.344393
   6 C :   -0.055361
   7 H :    0.253527
   8 C :    0.289282
   9 O :   -0.383415
  10 O :   -0.135685
  11 C :   -0.163017
  12 C :   -0.464140
  13 S :   -0.209915
  14 P :    0.760418
  15 S :   -0.407558
  16 O :   -0.357698
  17 C :   -0.295026
  18 O :   -0.308603
  19 C :   -0.289565
  20 H :    0.142587
  21 H :    0.144482
  22 H :    0.196523
  23 H :    0.143063
  24 H :    0.185727
  25 H :    0.185015
  26 H :    0.180122
  27 H :    0.183903
  28 H :    0.161732
  29 H :    0.152306
  30 H :    0.151563
  31 H :    0.166476
  32 H :    0.176051
  33 H :    0.152534
  34 H :    0.158808
  35 H :    0.155897
  36 H :    0.170328
  37 H :    0.170166
Sum of atomic charges:   -0.0000000

LOEWDIN ATOMIC CHARGES
----------------------
   0 C :   -0.391178
   1 C :    0.032885
   2 O :   -0.584826
   3 C :    0.355437
   4 O :   -0.418752
   5 C :   -0.201587
   6 C :   -0.193298
   7 H :    0.210244
   8 C :    0.328154
   9 O :   -0.417292
  10 O :   -0.622719
  11 C :    0.035448
  12 C :   -0.386883
  13 S :    0.189507
  14 P :    0.397693
  15 S :   -0.043422
  16 O :   -0.683099
  17 C :   -0.058159
  18 O :   -0.649997
  19 C :   -0.051417
  20 H :    0.152700
  21 H :    0.157828
  22 H :    0.180044
  23 H :    0.175600
  24 H :    0.196062
  25 H :    0.188449
  26 H :    0.187886
  27 H :    0.196182
  28 H :    0.183447
  29 H :    0.160449
  30 H :    0.156641
  31 H :    0.165114
  32 H :    0.177427
  33 H :    0.177509
  34 H :    0.169425
  35 H :    0.179418
  36 H :    0.174024
  37 H :    0.175056

  Mayer bond orders larger than 0.100000
B(  0-C ,  1-C ) :   0.9309 B(  0-C , 20-H ) :   0.9724 B(  0-C , 21-H ) :   0.9653
B(  0-C , 22-H ) :   0.9627 B(  1-C ,  2-O ) :   0.8010 B(  1-C , 23-H ) :   0.9574
B(  1-C , 24-H ) :   0.9729 B(  2-O ,  3-C ) :   1.0631 B(  3-C ,  4-O ) :   1.8651
B(  3-C ,  5-C ) :   0.8955 B(  5-C ,  6-C ) :   0.8740 B(  5-C , 25-H ) :   0.9954
B(  5-C , 26-H ) :   0.9374 B(  6-C ,  7-H ) :   0.9533 B(  6-C ,  8-C ) :   0.9134
B(  6-C , 13-S ) :   0.8702 B(  8-C ,  9-O ) :   1.8054 B(  8-C , 10-O ) :   1.0699
B( 10-O , 11-C ) :   0.7818 B( 11-C , 12-C ) :   0.9189 B( 11-C , 27-H ) :   0.9675
B( 11-C , 28-H ) :   0.9586 B( 12-C , 29-H ) :   0.9683 B( 12-C , 30-H ) :   0.9760
B( 12-C , 31-H ) :   0.9696 B( 13-S , 14-P ) :   0.9997 B( 14-P , 15-S ) :   1.7986
B( 14-P , 16-O ) :   1.0246 B( 14-P , 18-O ) :   1.1465 B( 16-O , 17-C ) :   0.8311
B( 17-C , 32-H ) :   0.9588 B( 17-C , 33-H ) :   0.9673 B( 17-C , 34-H ) :   0.9561
B( 18-O , 19-C ) :   0.7945 B( 19-C , 35-H ) :   0.9653 B( 19-C , 36-H ) :   0.9561
B( 19-C , 37-H ) :   0.9605

Dispersion correction           -0.017935756
FINAL SINGLE POINT ENERGY     -1981.450615571654

DIPOLE MOMENT
-------------

Method             : SCF
Type of density    : Electron Density
Multiplicity       :   1
Irrep              :   0
Energy             : -1981.4699678152937850 Eh
Relativity type    :
Basis              : AO
                                X                 Y                 Z
Electronic contribution:    -15.446808538       3.764079199      -7.966857815
Nuclear contribution   :     15.007644195      -5.229921048       9.478573605
                        -----------------------------------------
Total Dipole Moment    :     -0.439164342      -1.465841848       1.511715790
                        -----------------------------------------
Magnitude (a.u.)       :      2.151009594
Magnitude (Debye)      :      5.467431884

Rotational constants in cm-1:             0.017180             0.006287             0.005598
Rotational constants in MHz :           515.053691           188.491755           167.837220

                             ****ORCA TERMINATED NORMALLY****
TOTAL RUN TIME: 0 days 0 hours 1 minutes 22 seconds 770 msec
