                         Program Version 6.0.1  -  RELEASE   -
|  1> ! r2scan-3c def2/J RI DEFGRID2 scfconv6 printgap
|  2> %output
|  3>     printlevel normal
|  4> end
|  5> %cpcm
|  6>     smd true
|  7>     smdsolvent "water"
|  8> end
|  9> * xyz 0 1
| 10> C 5.0149499737 0.17897 -0.2797496327
| 11> C 4.6838688183 -1.0109369313 -1.1657423411
| 12> O 3.3613403776 -1.4990386699 -0.8611061225
| 13> C 2.3898187331 -1.3041468104 -1.730416002
| 14> O 2.5183733239 -0.7857293141 -2.815924185
| 15> C 1.065909739 -1.8309347915 -1.2001121869
| 16> C 0.1365033295 -0.6371496029 -0.9544927134
| 17> H -0.0206796443 -0.0896026013 -1.88792435
| 18> C 0.8201928819 0.2853660878 0.0369081017
| 19> O 1.7341981867 1.0058447991 -0.2928495911
| 20> O 0.3731400332 0.1372781528 1.2654330016
| 21> C 1.0424198921 0.8520224418 2.3237495586
| 22> C 2.1358578838 -0.0151501795 2.9238074244
| 23> S -1.4644500314 -1.2460527811 -0.3361824449
| 24> P -2.2716252093 0.5999835264 0.3349039291
| 25> S -1.4890980929 2.2228648109 -0.440168353
| 26> O -3.8332394832 0.4110753061 0.0420112229
| 27> C -4.3454179081 0.3882309718 -1.2949157925
| 28> O -2.2805052801 0.6073232684 1.9121741721
| 29> C -2.8484498809 -0.4795052116 2.6754049624
| 30> H 5.0590851956 -0.1247484866 0.7623999385
| 31> H 5.975208879 0.5899825139 -0.5725294445
| 32> H 4.2494679615 0.94450418 -0.3927674125
| 33> H 5.3557367139 -1.8497348807 -0.975960577
| 34> H 4.7119031671 -0.7331629974 -2.222786863
| 35> H 1.2329842059 -2.3809039675 -0.2744095525
| 36> H 0.6155736496 -2.4828952533 -1.9489948071
| 37> H 1.4486232572 1.7784050579 1.9079318143
| 38> H 0.2574618141 1.0795840823 3.045529734
| 39> H 2.6248013502 0.5307854208 3.7235240159
| 40> H 1.7125581096 -0.9335029473 3.3201883416
| 41> H 2.8710702802 -0.2628084098 2.1612804573
| 42> H -3.9582755695 1.2371935284 -1.8606033183
| 43> H -5.4254433291 0.4597674025 -1.1954627928
| 44> H -4.0648423257 -0.5448131676 -1.783349864
| 45> H -2.6270433251 -0.2440951096 3.7129725397
| 46> H -2.3830853147 -1.4202280995 2.3817852144
| 47> H -3.9225913088 -0.524810865 2.5092683383
| 48> *
| 49>
| 50>                          ****END OF INPUT****

CARTESIAN COORDINATES (ANGSTROEM)
---------------------------------
  C      5.014950    0.178970   -0.279750
  C      4.683869   -1.010937   -1.165742
  O      3.361340   -1.499039   -0.861106
  C      2.389819   -1.304147   -1.730416
  O      2.518373   -0.785729   -2.815924
  C      1.065910   -1.830935   -1.200112
  C      0.136503   -0.637150   -0.954493
  H     -0.020680   -0.089603   -1.887924
  C      0.820193    0.285366    0.036908
  O      1.734198    1.005845   -0.292850
  O      0.373140    0.137278    1.265433
  C      1.042420    0.852022    2.323750
  C      2.135858   -0.015150    2.923807
  S     -1.464450   -1.246053   -0.336182
  P     -2.271625    0.599984    0.334904
  S     -1.489098    2.222865   -0.440168
  O     -3.833239    0.411075    0.042011
  C     -4.345418    0.388231   -1.294916
  O     -2.280505    0.607323    1.912174
  C     -2.848450   -0.479505    2.675405
  H      5.059085   -0.124748    0.762400
  H      5.975209    0.589983   -0.572529
  H      4.249468    0.944504   -0.392767
  H      5.355737   -1.849735   -0.975961
  H      4.711903   -0.733163   -2.222787
  H      1.232984   -2.380904   -0.274410
  H      0.615574   -2.482895   -1.948995
  H      1.448623    1.778405    1.907932
  H      0.257462    1.079584    3.045530
  H      2.624801    0.530785    3.723524
  H      1.712558   -0.933503    3.320188
  H      2.871070   -0.262808    2.161280
  H     -3.958276    1.237194   -1.860603
  H     -5.425443    0.459767   -1.195463
  H     -4.064842   -0.544813   -1.783350
  H     -2.627043   -0.244095    3.712973
  H     -2.383085   -1.420228    2.381785
  H     -3.922591   -0.524811    2.509268

 Total Charge           Charge          ....    0
 Multiplicity           Mult            ....    1
 Number of Electrons    NEL             ....  174
 Basis Dimension        Dim             ....  510

ORBITAL ENERGIES
----------------

  NO   OCC          E(Eh)            E(eV)
   0   2.0000     -88.581227     -2410.4177
   1   2.0000     -88.531813     -2409.0731
   2   2.0000     -76.922778     -2093.1752
   3   2.0000     -19.011358      -517.3254
   4   2.0000     -19.009035      -517.2621
   5   2.0000     -18.999316      -516.9977
   6   2.0000     -18.996326      -516.9163
   7   2.0000     -18.952614      -515.7268
   8   2.0000     -18.948404      -515.6123
   9   2.0000     -10.177146      -276.9342
  10   2.0000     -10.173281      -276.8290
  11   2.0000     -10.101574      -274.8778
  12   2.0000     -10.087269      -274.4886
  13   2.0000     -10.085929      -274.4521
  14   2.0000     -10.084641      -274.4170
  15   2.0000     -10.082523      -274.3594
  16   2.0000     -10.062221      -273.8070
  17   2.0000     -10.020397      -272.6689
  18   2.0000     -10.018159      -272.6080
  19   2.0000      -7.875554      -214.3047
  20   2.0000      -7.826732      -212.9762
  21   2.0000      -6.601147      -179.6264
  22   2.0000      -5.822427      -158.4363
  23   2.0000      -5.819441      -158.3550
  24   2.0000      -5.812633      -158.1698
  25   2.0000      -5.774500      -157.1321
  26   2.0000      -5.766916      -156.9258
  27   2.0000      -5.766689      -156.9196
  28   2.0000      -4.746791      -129.1667
  29   2.0000      -4.746187      -129.1503
  30   2.0000      -4.744747      -129.1111
  31   2.0000      -1.092951       -29.7407
  32   2.0000      -1.085534       -29.5389
  33   2.0000      -1.055787       -28.7294
  34   2.0000      -1.012901       -27.5624
  35   2.0000      -1.001964       -27.2648
  36   2.0000      -0.996857       -27.1259
  37   2.0000      -0.817657       -22.2496
  38   2.0000      -0.754459       -20.5299
  39   2.0000      -0.739590       -20.1253
  40   2.0000      -0.732844       -19.9417
  41   2.0000      -0.697662       -18.9844
  42   2.0000      -0.672006       -18.2862
  43   2.0000      -0.661242       -17.9933
  44   2.0000      -0.651251       -17.7214
  45   2.0000      -0.626064       -17.0361
  46   2.0000      -0.598012       -16.2727
  47   2.0000      -0.543813       -14.7979
  48   2.0000      -0.531771       -14.4702
  49   2.0000      -0.526220       -14.3192
  50   2.0000      -0.500221       -13.6117
  51   2.0000      -0.495101       -13.4724
  52   2.0000      -0.487949       -13.2778
  53   2.0000      -0.472263       -12.8509
  54   2.0000      -0.466646       -12.6981
  55   2.0000      -0.457676       -12.4540
  56   2.0000      -0.450734       -12.2651
  57   2.0000      -0.449433       -12.2297
  58   2.0000      -0.436720       -11.8838
  59   2.0000      -0.428542       -11.6612
  60   2.0000      -0.419661       -11.4195
  61   2.0000      -0.415016       -11.2931
  62   2.0000      -0.411988       -11.2108
  63   2.0000      -0.399603       -10.8738
  64   2.0000      -0.392822       -10.6892
  65   2.0000      -0.381236       -10.3740
  66   2.0000      -0.371664       -10.1135
  67   2.0000      -0.368276       -10.0213
  68   2.0000      -0.361126        -9.8267
  69   2.0000      -0.353371        -9.6157
  70   2.0000      -0.349414        -9.5080
  71   2.0000      -0.346277        -9.4227
  72   2.0000      -0.337045        -9.1715
  73   2.0000      -0.334728        -9.1084
  74   2.0000      -0.323296        -8.7973
  75   2.0000      -0.319175        -8.6852
  76   2.0000      -0.310289        -8.4434
  77   2.0000      -0.306166        -8.3312
  78   2.0000      -0.292846        -7.9687
  79   2.0000      -0.285308        -7.7636
  80   2.0000      -0.283147        -7.7048
  81   2.0000      -0.279765        -7.6128
  82   2.0000      -0.266217        -7.2441
  83   2.0000      -0.259472        -7.0606
  84   2.0000      -0.241032        -6.5588
  85   2.0000      -0.230493        -6.2720
  86   2.0000      -0.228678        -6.2227
  87   0.0000      -0.050358        -1.3703
  88   0.0000      -0.040612        -1.1051
  89   0.0000      -0.028797        -0.7836
  90   0.0000       0.003957         0.1077
  91   0.0000       0.012040         0.3276

MULLIKEN ATOMIC CHARGES
-----------------------
   0 C :   -0.509381
   1 C :   -0.141833
   2 O :   -0.168809
   3 C :    0.329853
   4 O :   -0.474914
   5 C :   -0.344143
   6 C :   -0.080998
   7 H :    0.273515
   8 C :    0.311762
   9 O :   -0.449416
  10 O :   -0.144928
  11 C :   -0.154609
  12 C :   -0.495855
  13 S :   -0.193324
  14 P :    0.788981
  15 S :   -0.481744
  16 O :   -0.382371
  17 C :   -0.306160
  18 O :   -0.342671
  19 C :   -0.294536
  20 H :    0.170036
  21 H :    0.169083
  22 H :    0.174655
  23 H :    0.173494
  24 H :    0.183897
  25 H :    0.210418
  26 H :    0.216930
  27 H :    0.181245
  28 H :    0.182513
  29 H :    0.175249
  30 H :    0.169643
  31 H :    0.168899
  32 H :    0.177316
  33 H :    0.180729
  34 H :    0.175939
  35 H :    0.184896
  36 H :    0.180742
  37 H :    0.185894
Sum of atomic charges:   -0.0000000

LOEWDIN ATOMIC CHARGES
----------------------
   0 C :   -0.393341
   1 C :    0.039121
   2 O :   -0.582531
   3 C :    0.363222
   4 O :   -0.478731
   5 C :   -0.192342
   6 C :   -0.193994
   7 H :    0.212378
   8 C :    0.330138
   9 O :   -0.469180
  10 O :   -0.620993
  11 C :    0.039836
  12 C :   -0.386544
  13 S :    0.209916
  14 P :    0.402454
  15 S :   -0.096851
  16 O :   -0.690638
  17 C :   -0.053219
  18 O :   -0.666871
  19 C :   -0.041362
  20 H :    0.161692
  21 H :    0.167063
  22 H :    0.170305
  23 H :    0.189240
  24 H :    0.195303
  25 H :    0.200379
  26 H :    0.202471
  27 H :    0.194784
  28 H :    0.192545
  29 H :    0.169440
  30 H :    0.163280
  31 H :    0.164693
  32 H :    0.177812
  33 H :    0.189457
  34 H :    0.176663
  35 H :    0.192018
  36 H :    0.179954
  37 H :    0.182432

  Mayer bond orders larger than 0.100000
B(  0-C ,  1-C ) :   0.9227 B(  0-C , 20-H ) :   0.9679 B(  0-C , 21-H ) :   0.9599
B(  0-C , 22-H ) :   0.9668 B(  1-C ,  2-O ) :   0.7869 B(  1-C , 23-H ) :   0.9474
B(  1-C , 24-H ) :   0.9688 B(  2-O ,  3-C ) :   1.0814 B(  3-C ,  4-O ) :   1.8011
B(  3-C ,  5-C ) :   0.8992 B(  5-C ,  6-C ) :   0.8602 B(  5-C , 25-H ) :   0.9800
B(  5-C , 26-H ) :   0.9331 B(  6-C ,  7-H ) :   0.9566 B(  6-C ,  8-C ) :   0.8961
B(  6-C , 13-S ) :   0.8696 B(  8-C ,  9-O ) :   1.7578 B(  8-C , 10-O ) :   1.0966
B( 10-O , 11-C ) :   0.7647 B( 11-C , 12-C ) :   0.9231 B( 11-C , 27-H ) :   0.9581
B( 11-C , 28-H ) :   0.9485 B( 12-C , 29-H ) :   0.9618 B( 12-C , 30-H ) :   0.9725
B( 12-C , 31-H ) :   0.9654 B( 13-S , 14-P ) :   1.0167 B( 14-P , 15-S ) :   1.7565
B( 14-P , 16-O ) :   1.0356 B( 14-P , 18-O ) :   1.1567 B( 16-O , 17-C ) :   0.8229
B( 17-C , 32-H ) :   0.9553 B( 17-C , 33-H ) :   0.9570 B( 17-C , 34-H ) :   0.9498
B( 18-O , 19-C ) :   0.7855 B( 19-C , 35-H ) :   0.9540 B( 19-C , 36-H ) :   0.9475
B( 19-C , 37-H ) :   0.9517

Dispersion correction           -0.017935756
FINAL SINGLE POINT ENERGY     -1981.467198450409

DIPOLE MOMENT
-------------

Method             : SCF
Type of density    : Electron Density
Multiplicity       :   1
Irrep              :   0
Energy             : -1981.4865506940495834 Eh
Relativity type    :
Basis              : AO
                                X                 Y                 Z
Electronic contribution:    -15.665486398       2.762441816      -7.329253234
Nuclear contribution   :     15.007644195      -5.229921048       9.478573605
                        -----------------------------------------
Total Dipole Moment    :     -0.657842203      -2.467479232       2.149320371
                        -----------------------------------------
Magnitude (a.u.)       :      3.337781925
Magnitude (Debye)      :      8.483967422

Rotational constants in cm-1:             0.017180             0.006287             0.005598
Rotational constants in MHz :           515.053691           188.491755           167.837220

                             ****ORCA TERMINATED NORMALLY****
TOTAL RUN TIME: 0 days 0 hours 1 minutes 49 seconds 164 msec
