                         Program Version 6.0.0  -   RELEASE  -
|  1> ! pbe def2-sv(p) def2/J RI DEFGRID1 loosescf d4 GCP(DFT/SV(P)) printgap
|  2> %output
|  3>     printlevel normal
|  4> end
|  5> * xyz 0 1
|  6> C 4.0617425547 -0.1304811219 -2.7891836823
|  7> C 2.6068675807 -0.3030553244 -2.4050758775
|  8> O 2.2549487569 0.6049974116 -1.3323254238
|  9> P 2.1148116702 0.1662878805 0.1680608688
| 10> S 1.4964292063 1.6603802222 1.2702078383
| 11> O 3.5887449248 -0.3717346782 0.4591332793
| 12> C 3.9731607094 -1.2091783312 1.5636713346
| 13> C 3.7225631554 -0.5601323584 2.9093391158
| 14> S 0.9503646357 -1.6238079936 0.2425185446
| 15> C -0.2593253307 -1.1521147891 1.5184677099
| 16> S -1.9926940752 -1.3865209253 1.0321950871
| 17> P -2.3396865208 0.2116233613 -0.3281167828
| 18> S -0.8546935525 0.7940319373 -1.4801529251
| 19> O -3.0206445596 1.3537667734 0.5339077144
| 20> C -2.2882632817 2.1602614109 1.4763912103
| 21> C -3.0558506072 3.4511452005 1.6774201302
| 22> O -3.6505019413 -0.2360888416 -1.0791674639
| 23> C -3.5968622171 -0.970415988 -2.317905346
| 24> C -3.0279473524 -2.3628934181 -2.1331078501
| 25> H 4.2491008977 0.9003534555 -3.0769563539
| 26> H 4.7045168718 -0.3816074362 -1.9495890052
| 27> H 4.2874150843 -0.784443932 -3.6255121282
| 28> H 2.3958610401 -1.3286489186 -2.0885442656
| 29> H 1.9361421603 -0.0308307562 -3.2227485751
| 30> H 3.4317140365 -2.156165608 1.4809491604
| 31> H 5.0387686448 -1.3773655175 1.3979454191
| 32> H 2.6556867168 -0.4098529561 3.0660382878
| 33> H 4.1111735762 -1.2002624454 3.6947450099
| 34> H 4.212589928 0.4092741532 2.9587185857
| 35> H -0.0725354761 -0.1091189396 1.7913484342
| 36> H -0.1225648346 -1.8162595322 2.3682458232
| 37> H -2.2065919105 1.6018494042 2.4136707902
| 38> H -1.2814893236 2.3560343096 1.0890474948
| 39> H -4.0589746078 3.2315126154 2.0308456427
| 40> H -2.5365186785 4.0616738559 2.408741237
| 41> H -3.1234834118 3.9943776485 0.739009841
| 42> H -4.6363645315 -0.9986551078 -2.6470635998
| 43> H -2.9951163646 -0.399886236 -3.0327683322
| 44> H -3.1195790195 -2.9142563001 -3.0634241431
| 45> H -1.9741517383 -2.3020055232 -1.862143235
| 46> H -3.5630406853 -2.88828864 -1.3460675189
| 47> *
| 48>
| 49>                          ****END OF INPUT****

CARTESIAN COORDINATES (ANGSTROEM)
---------------------------------
  C      4.061743   -0.130481   -2.789184
  C      2.606868   -0.303055   -2.405076
  O      2.254949    0.604997   -1.332325
  P      2.114812    0.166288    0.168061
  S      1.496429    1.660380    1.270208
  O      3.588745   -0.371735    0.459133
  C      3.973161   -1.209178    1.563671
  C      3.722563   -0.560132    2.909339
  S      0.950365   -1.623808    0.242519
  C     -0.259325   -1.152115    1.518468
  S     -1.992694   -1.386521    1.032195
  P     -2.339687    0.211623   -0.328117
  S     -0.854694    0.794032   -1.480153
  O     -3.020645    1.353767    0.533908
  C     -2.288263    2.160261    1.476391
  C     -3.055851    3.451145    1.677420
  O     -3.650502   -0.236089   -1.079167
  C     -3.596862   -0.970416   -2.317905
  C     -3.027947   -2.362893   -2.133108
  H      4.249101    0.900353   -3.076956
  H      4.704517   -0.381607   -1.949589
  H      4.287415   -0.784444   -3.625512
  H      2.395861   -1.328649   -2.088544
  H      1.936142   -0.030831   -3.222749
  H      3.431714   -2.156166    1.480949
  H      5.038769   -1.377366    1.397945
  H      2.655687   -0.409853    3.066038
  H      4.111174   -1.200262    3.694745
  H      4.212590    0.409274    2.958719
  H     -0.072535   -0.109119    1.791348
  H     -0.122565   -1.816260    2.368246
  H     -2.206592    1.601849    2.413671
  H     -1.281489    2.356034    1.089047
  H     -4.058975    3.231513    2.030846
  H     -2.536519    4.061674    2.408741
  H     -3.123483    3.994378    0.739010
  H     -4.636365   -0.998655   -2.647064
  H     -2.995116   -0.399886   -3.032768
  H     -3.119579   -2.914256   -3.063424
  H     -1.974152   -2.302006   -1.862143
  H     -3.563041   -2.888289   -1.346068

 Total Charge           Charge          ....    0
 Multiplicity           Mult            ....    1
 Number of Electrons    NEL             ....  202
 Basis Dimension        Dim             ....  334

ORBITAL ENERGIES
----------------

  NO   OCC          E(Eh)            E(eV)
   0   2.0000     -88.044117     -2395.8022
   1   2.0000     -88.041609     -2395.7340
   2   2.0000     -87.985207     -2394.1992
   3   2.0000     -87.980897     -2394.0819
   4   2.0000     -76.427095     -2079.6870
   5   2.0000     -76.420667     -2079.5121
   6   2.0000     -18.791338      -511.3383
   7   2.0000     -18.790576      -511.3176
   8   2.0000     -18.786948      -511.2189
   9   2.0000     -18.779530      -511.0170
  10   2.0000      -9.957441      -270.9557
  11   2.0000      -9.956171      -270.9212
  12   2.0000      -9.955897      -270.9137
  13   2.0000      -9.949988      -270.7529
  14   2.0000      -9.943221      -270.5688
  15   2.0000      -9.886201      -269.0172
  16   2.0000      -9.884774      -268.9784
  17   2.0000      -9.881308      -268.8841
  18   2.0000      -9.878973      -268.8205
  19   2.0000      -7.688531      -209.2156
  20   2.0000      -7.686743      -209.1669
  21   2.0000      -7.630282      -207.6305
  22   2.0000      -7.625452      -207.4991
  23   2.0000      -6.424084      -174.8082
  24   2.0000      -6.418053      -174.6441
  25   2.0000      -5.716350      -155.5498
  26   2.0000      -5.714598      -155.5021
  27   2.0000      -5.713114      -155.4617
  28   2.0000      -5.711090      -155.4067
  29   2.0000      -5.705617      -155.2577
  30   2.0000      -5.703900      -155.2110
  31   2.0000      -5.659272      -153.9966
  32   2.0000      -5.654325      -153.8620
  33   2.0000      -5.651143      -153.7754
  34   2.0000      -5.650029      -153.7451
  35   2.0000      -5.646202      -153.6410
  36   2.0000      -5.645634      -153.6255
  37   2.0000      -4.646734      -126.4441
  38   2.0000      -4.646070      -126.4260
  39   2.0000      -4.644356      -126.3794
  40   2.0000      -4.640414      -126.2721
  41   2.0000      -4.640111      -126.2639
  42   2.0000      -4.638380      -126.2167
  43   2.0000      -0.987706       -26.8769
  44   2.0000      -0.983533       -26.7633
  45   2.0000      -0.943341       -25.6696
  46   2.0000      -0.938644       -25.5418
  47   2.0000      -0.759469       -20.6662
  48   2.0000      -0.719677       -19.5834
  49   2.0000      -0.710081       -19.3223
  50   2.0000      -0.690539       -18.7905
  51   2.0000      -0.680478       -18.5167
  52   2.0000      -0.675698       -18.3867
  53   2.0000      -0.649446       -17.6723
  54   2.0000      -0.635271       -17.2866
  55   2.0000      -0.595869       -16.2144
  56   2.0000      -0.588784       -16.0216
  57   2.0000      -0.574708       -15.6386
  58   2.0000      -0.566887       -15.4258
  59   2.0000      -0.556328       -15.1385
  60   2.0000      -0.505005       -13.7419
  61   2.0000      -0.498159       -13.5556
  62   2.0000      -0.474634       -12.9155
  63   2.0000      -0.465515       -12.6673
  64   2.0000      -0.452128       -12.3030
  65   2.0000      -0.446446       -12.1484
  66   2.0000      -0.439679       -11.9643
  67   2.0000      -0.434624       -11.8267
  68   2.0000      -0.426946       -11.6178
  69   2.0000      -0.421588       -11.4720
  70   2.0000      -0.408860       -11.1256
  71   2.0000      -0.407147       -11.0790
  72   2.0000      -0.387131       -10.5344
  73   2.0000      -0.385333       -10.4854
  74   2.0000      -0.375097       -10.2069
  75   2.0000      -0.370439       -10.0802
  76   2.0000      -0.360636        -9.8134
  77   2.0000      -0.357189        -9.7196
  78   2.0000      -0.350375        -9.5342
  79   2.0000      -0.348852        -9.4927
  80   2.0000      -0.346623        -9.4321
  81   2.0000      -0.344026        -9.3614
  82   2.0000      -0.340762        -9.2726
  83   2.0000      -0.334262        -9.0957
  84   2.0000      -0.332760        -9.0549
  85   2.0000      -0.319527        -8.6948
  86   2.0000      -0.310348        -8.4450
  87   2.0000      -0.297570        -8.0973
  88   2.0000      -0.295588        -8.0434
  89   2.0000      -0.287113        -7.8127
  90   2.0000      -0.285475        -7.7682
  91   2.0000      -0.277213        -7.5433
  92   2.0000      -0.264784        -7.2051
  93   2.0000      -0.262668        -7.1476
  94   2.0000      -0.252216        -6.8632
  95   2.0000      -0.237319        -6.4578
  96   2.0000      -0.220952        -6.0124
  97   2.0000      -0.212162        -5.7732
  98   2.0000      -0.202775        -5.5178
  99   2.0000      -0.189401        -5.1539
 100   2.0000      -0.186535        -5.0759
 101   0.0000      -0.042274        -1.1503
 102   0.0000      -0.034204        -0.9307
 103   0.0000      -0.016605        -0.4518
 104   0.0000       0.000825         0.0225
 105   0.0000       0.017882         0.4866

MULLIKEN ATOMIC CHARGES
-----------------------
   0 C :   -0.284036
   1 C :   -0.014403
   2 O :   -0.344033
   3 P :    0.608900
   4 S :   -0.297833
   5 O :   -0.377501
   6 C :   -0.005688
   7 C :   -0.307035
   8 S :   -0.110918
   9 C :   -0.346619
  10 S :   -0.108898
  11 P :    0.592829
  12 S :   -0.318800
  13 O :   -0.357500
  14 C :   -0.040493
  15 C :   -0.271414
  16 O :   -0.356490
  17 C :    0.000491
  18 C :   -0.321053
  19 H :    0.122463
  20 H :    0.118710
  21 H :    0.109212
  22 H :    0.103790
  23 H :    0.116806
  24 H :    0.104308
  25 H :    0.105361
  26 H :    0.119348
  27 H :    0.109198
  28 H :    0.125651
  29 H :    0.196277
  30 H :    0.178883
  31 H :    0.098395
  32 H :    0.132066
  33 H :    0.113511
  34 H :    0.110102
  35 H :    0.119962
  36 H :    0.106799
  37 H :    0.111392
  38 H :    0.110750
  39 H :    0.128762
  40 H :    0.118750
Sum of atomic charges:    0.0000000

LOEWDIN ATOMIC CHARGES
----------------------
   0 C :   -0.357642
   1 C :   -0.110513
   2 O :   -0.223538
   3 P :    0.575187
   4 S :   -0.286850
   5 O :   -0.249033
   6 C :   -0.120665
   7 C :   -0.367718
   8 S :    0.066431
   9 C :   -0.483846
  10 S :    0.071703
  11 P :    0.561206
  12 S :   -0.310086
  13 O :   -0.239611
  14 C :   -0.124220
  15 C :   -0.349191
  16 O :   -0.232955
  17 C :   -0.116581
  18 C :   -0.371871
  19 H :    0.130359
  20 H :    0.126114
  21 H :    0.129065
  22 H :    0.103898
  23 H :    0.122946
  24 H :    0.102385
  25 H :    0.118936
  26 H :    0.118063
  27 H :    0.128785
  28 H :    0.130772
  29 H :    0.118317
  30 H :    0.134995
  31 H :    0.106923
  32 H :    0.108213
  33 H :    0.125513
  34 H :    0.130165
  35 H :    0.129209
  36 H :    0.119559
  37 H :    0.111111
  38 H :    0.129889
  39 H :    0.120414
  40 H :    0.124161

  Mayer bond orders larger than 0.100000
B(  0-C ,  1-C ) :   1.1645 B(  0-C , 19-H ) :   0.9469 B(  0-C , 20-H ) :   0.9427
B(  0-C , 21-H ) :   0.9403 B(  1-C ,  2-O ) :   0.8907 B(  1-C , 22-H ) :   0.9164
B(  1-C , 23-H ) :   0.9325 B(  2-O ,  3-P ) :   1.1493 B(  3-P ,  4-S ) :   1.6155
B(  3-P ,  5-O ) :   1.0721 B(  3-P ,  8-S ) :   0.9436 B(  4-S ,  8-S ) :   0.1167
B(  4-S , 29-H ) :   0.1293 B(  5-O ,  6-C ) :   0.9204 B(  6-C ,  7-C ) :   1.1654
B(  6-C , 24-H ) :   0.9168 B(  6-C , 25-H ) :   0.9329 B(  7-C , 26-H ) :   0.9350
B(  7-C , 27-H ) :   0.9361 B(  7-C , 28-H ) :   0.9445 B(  8-S ,  9-C ) :   0.9971
B(  9-C , 10-S ) :   0.9977 B(  9-C , 29-H ) :   0.8437 B(  9-C , 30-H ) :   0.9089
B( 10-S , 11-P ) :   0.9346 B( 10-S , 12-S ) :   0.1255 B( 11-P , 12-S ) :   1.6346
B( 11-P , 13-O ) :   1.1261 B( 11-P , 16-O ) :   1.1357 B( 13-O , 14-C ) :   0.9093
B( 14-C , 15-C ) :   1.1638 B( 14-C , 31-H ) :   0.9260 B( 14-C , 32-H ) :   0.8995
B( 15-C , 33-H ) :   0.9501 B( 15-C , 34-H ) :   0.9421 B( 15-C , 35-H ) :   0.9505
B( 16-O , 17-C ) :   0.9069 B( 17-C , 18-C ) :   1.1645 B( 17-C , 36-H ) :   0.9342
B( 17-C , 37-H ) :   0.9160 B( 18-C , 38-H ) :   0.9376 B( 18-C , 39-H ) :   0.9329
B( 18-C , 40-H ) :   0.9438

Dispersion correction           -0.065706036
FINAL SINGLE POINT ENERGY     -2929.515063865703

DIPOLE MOMENT
-------------

Method             : SCF
Type of density    : Electron Density
Multiplicity       :   1
Irrep              :   0
Energy             : -2929.6328556123899034 Eh
Relativity type    :
Basis              : AO
                                X                 Y                 Z
Electronic contribution:     -6.518646658       1.416489218       0.417287337
Nuclear contribution   :      7.079467693      -2.686935581      -0.354930344
                        -----------------------------------------
Total Dipole Moment    :      0.560821035      -1.270446363       0.062356993
                        -----------------------------------------
Magnitude (a.u.)       :      1.390123228
Magnitude (Debye)      :      3.533412441

Rotational constants in cm-1:             0.011034             0.005371             0.004817
Rotational constants in MHz :           330.795139           161.032113           144.409753

                             ****ORCA TERMINATED NORMALLY****
TOTAL RUN TIME: 0 days 0 hours 0 minutes 20 seconds 774 msec
