                         Program Version 6.0.0  -   RELEASE  -
|  1> ! r2scan-3c def2/J RI DEFGRID2 scfconv6 printgap
|  2> %output
|  3>     printlevel normal
|  4> end
|  5> * xyz 0 1
|  6> C 4.4280693262 -1.8340125295 -0.7430861309
|  7> C 4.6241733948 -0.3530965139 -0.4893432574
|  8> O 3.5734376172 0.2068243391 0.3156217057
|  9> P 2.0737728152 0.3369053061 -0.2002612718
| 10> S 1.9085807884 0.808729288 -2.0986485517
| 11> O 1.4854230951 1.3436459245 0.875499243
| 12> C 1.5032909019 2.771480306 0.6842484897
| 13> C 2.9106078963 3.3241853523 0.6172415671
| 14> S 1.1796685598 -1.4586616513 0.4540632394
| 15> C -0.0156854357 -1.7558270004 -0.902185694
| 16> S -1.6755778542 -2.1374559889 -0.2998274137
| 17> P -2.3484910334 -0.1914384591 0.2399177043
| 18> S -1.3980156311 1.3079189964 -0.6074201923
| 19> O -2.4113295609 -0.1751437438 1.8217245006
| 20> C -1.2397484558 -0.1517593033 2.6582978353
| 21> C -1.672600719 0.2874492246 4.0424487725
| 22> O -3.9105949308 -0.2264629589 0.0283521539
| 23> C -4.5224774964 0.1495502586 -1.2193493077
| 24> C -4.2057259029 -0.8288560214 -2.3325692911
| 25> H 4.2732186041 -2.3617439966 0.1945919704
| 26> H 3.5598468332 -1.9881227179 -1.3825629874
| 27> H 5.3062674701 -2.2314752416 -1.2416834754
| 28> H 4.6618392878 0.1947327866 -1.4364810941
| 29> H 5.5279873578 -0.1592383324 0.089735698
| 30> H 0.9447139523 3.0008627538 -0.2297604254
| 31> H 0.9567254429 3.1560932125 1.5468410792
| 32> H 2.8675841402 4.4082799397 0.5821407519
| 33> H 3.478338979 3.0090944028 1.4889582876
| 34> H 3.4092733405 2.9612930667 -0.2808432118
| 35> H 0.3060946828 -2.6344852192 -1.4544994846
| 36> H -0.0377158607 -0.8700443204 -1.5423200314
| 37> H -0.8064180818 -1.1568197232 2.6778071523
| 38> H -0.5057357639 0.5410271043 2.2315354399
| 39> H -2.4190561466 -0.4001124655 4.4288857695
| 40> H -0.8096842131 0.2927910908 4.7001841661
| 41> H -2.1018608589 1.28452267 4.0004831625
| 42> H -5.5886138767 0.1659569468 -0.9891040927
| 43> H -4.1846795174 1.1569326671 -1.4837346196
| 44> H -3.1501921048 -0.7675611979 -2.5949473616
| 45> H -4.4317670553 -1.8444912099 -2.0180317889
| 46> H -4.7984815494 -0.5804516821 -3.2072176524
| 47> *
| 48>
| 49>                          ****END OF INPUT****

CARTESIAN COORDINATES (ANGSTROEM)
---------------------------------
  C      4.428069   -1.834013   -0.743086
  C      4.624173   -0.353097   -0.489343
  O      3.573438    0.206824    0.315622
  P      2.073773    0.336905   -0.200261
  S      1.908581    0.808729   -2.098649
  O      1.485423    1.343646    0.875499
  C      1.503291    2.771480    0.684248
  C      2.910608    3.324185    0.617242
  S      1.179669   -1.458662    0.454063
  C     -0.015685   -1.755827   -0.902186
  S     -1.675578   -2.137456   -0.299827
  P     -2.348491   -0.191438    0.239918
  S     -1.398016    1.307919   -0.607420
  O     -2.411330   -0.175144    1.821725
  C     -1.239748   -0.151759    2.658298
  C     -1.672601    0.287449    4.042449
  O     -3.910595   -0.226463    0.028352
  C     -4.522477    0.149550   -1.219349
  C     -4.205726   -0.828856   -2.332569
  H      4.273219   -2.361744    0.194592
  H      3.559847   -1.988123   -1.382563
  H      5.306267   -2.231475   -1.241683
  H      4.661839    0.194733   -1.436481
  H      5.527987   -0.159238    0.089736
  H      0.944714    3.000863   -0.229760
  H      0.956725    3.156093    1.546841
  H      2.867584    4.408280    0.582141
  H      3.478339    3.009094    1.488958
  H      3.409273    2.961293   -0.280843
  H      0.306095   -2.634485   -1.454499
  H     -0.037716   -0.870044   -1.542320
  H     -0.806418   -1.156820    2.677807
  H     -0.505736    0.541027    2.231535
  H     -2.419056   -0.400112    4.428886
  H     -0.809684    0.292791    4.700184
  H     -2.101861    1.284523    4.000483
  H     -5.588614    0.165957   -0.989104
  H     -4.184680    1.156933   -1.483735
  H     -3.150192   -0.767561   -2.594947
  H     -4.431767   -1.844491   -2.018032
  H     -4.798482   -0.580452   -3.207218

 Total Charge           Charge          ....    0
 Multiplicity           Mult            ....    1
 Number of Electrons    NEL             ....  202
 Basis Dimension        Dim             ....  539

ORBITAL ENERGIES
----------------

  NO   OCC          E(Eh)            E(eV)
   0   2.0000     -88.577393     -2410.3134
   1   2.0000     -88.573670     -2410.2121
   2   2.0000     -88.520252     -2408.7585
   3   2.0000     -88.517538     -2408.6847
   4   2.0000     -76.912773     -2092.9029
   5   2.0000     -76.911481     -2092.8678
   6   2.0000     -18.990559      -516.7594
   7   2.0000     -18.989337      -516.7261
   8   2.0000     -18.985684      -516.6267
   9   2.0000     -18.984275      -516.5884
  10   2.0000     -10.106391      -275.0089
  11   2.0000     -10.097495      -274.7668
  12   2.0000     -10.097225      -274.7595
  13   2.0000     -10.093132      -274.6481
  14   2.0000     -10.089873      -274.5594
  15   2.0000     -10.027952      -272.8744
  16   2.0000     -10.027242      -272.8551
  17   2.0000     -10.026555      -272.8364
  18   2.0000     -10.025579      -272.8099
  19   2.0000      -7.871678      -214.1993
  20   2.0000      -7.868258      -214.1062
  21   2.0000      -7.814941      -212.6553
  22   2.0000      -7.812264      -212.5825
  23   2.0000      -6.591177      -179.3550
  24   2.0000      -6.590039      -179.3241
  25   2.0000      -5.818693      -158.3347
  26   2.0000      -5.815263      -158.2413
  27   2.0000      -5.815052      -158.2356
  28   2.0000      -5.812246      -158.1593
  29   2.0000      -5.808933      -158.0691
  30   2.0000      -5.805264      -157.9693
  31   2.0000      -5.762618      -156.8088
  32   2.0000      -5.759928      -156.7356
  33   2.0000      -5.755397      -156.6123
  34   2.0000      -5.754755      -156.5949
  35   2.0000      -5.752519      -156.5340
  36   2.0000      -5.752302      -156.5281
  37   2.0000      -4.736416      -128.8844
  38   2.0000      -4.735996      -128.8730
  39   2.0000      -4.735382      -128.8563
  40   2.0000      -4.735272      -128.8533
  41   2.0000      -4.735153      -128.8501
  42   2.0000      -4.733722      -128.8111
  43   2.0000      -1.050112       -28.5750
  44   2.0000      -1.047242       -28.4969
  45   2.0000      -1.007418       -27.4132
  46   2.0000      -1.006613       -27.3913
  47   2.0000      -0.797910       -21.7122
  48   2.0000      -0.757018       -20.5995
  49   2.0000      -0.748403       -20.3651
  50   2.0000      -0.729469       -19.8499
  51   2.0000      -0.726346       -19.7649
  52   2.0000      -0.711516       -19.3613
  53   2.0000      -0.685277       -18.6473
  54   2.0000      -0.664688       -18.0871
  55   2.0000      -0.634341       -17.2613
  56   2.0000      -0.624975       -17.0064
  57   2.0000      -0.603391       -16.4191
  58   2.0000      -0.595748       -16.2111
  59   2.0000      -0.589511       -16.0414
  60   2.0000      -0.525543       -14.3008
  61   2.0000      -0.514033       -13.9876
  62   2.0000      -0.489141       -13.3102
  63   2.0000      -0.486946       -13.2505
  64   2.0000      -0.468846       -12.7580
  65   2.0000      -0.464506       -12.6399
  66   2.0000      -0.456833       -12.4311
  67   2.0000      -0.454187       -12.3590
  68   2.0000      -0.443439       -12.0666
  69   2.0000      -0.434780       -11.8310
  70   2.0000      -0.428785       -11.6678
  71   2.0000      -0.412696       -11.2300
  72   2.0000      -0.407920       -11.1001
  73   2.0000      -0.402084       -10.9413
  74   2.0000      -0.396557       -10.7909
  75   2.0000      -0.391733       -10.6596
  76   2.0000      -0.385943       -10.5021
  77   2.0000      -0.368738       -10.0339
  78   2.0000      -0.366717        -9.9789
  79   2.0000      -0.361644        -9.8408
  80   2.0000      -0.360817        -9.8183
  81   2.0000      -0.355410        -9.6712
  82   2.0000      -0.352991        -9.6054
  83   2.0000      -0.351619        -9.5680
  84   2.0000      -0.347967        -9.4687
  85   2.0000      -0.325804        -8.8656
  86   2.0000      -0.322288        -8.7699
  87   2.0000      -0.314162        -8.5488
  88   2.0000      -0.307634        -8.3712
  89   2.0000      -0.305205        -8.3051
  90   2.0000      -0.295966        -8.0536
  91   2.0000      -0.284493        -7.7414
  92   2.0000      -0.281485        -7.6596
  93   2.0000      -0.278976        -7.5913
  94   2.0000      -0.269546        -7.3347
  95   2.0000      -0.247889        -6.7454
  96   2.0000      -0.231221        -6.2918
  97   2.0000      -0.229699        -6.2504
  98   2.0000      -0.217411        -5.9161
  99   2.0000      -0.212812        -5.7909
 100   2.0000      -0.204135        -5.5548
 101   0.0000      -0.045122        -1.2278
 102   0.0000      -0.035839        -0.9752
 103   0.0000      -0.015500        -0.4218
 104   0.0000       0.011709         0.3186
 105   0.0000       0.017467         0.4753

MULLIKEN ATOMIC CHARGES
-----------------------
   0 C :   -0.441861
   1 C :   -0.156155
   2 O :   -0.290810
   3 P :    0.662589
   4 S :   -0.462608
   5 O :   -0.289369
   6 C :   -0.154631
   7 C :   -0.449460
   8 S :   -0.138336
   9 C :   -0.209334
  10 S :   -0.128962
  11 P :    0.652104
  12 S :   -0.422211
  13 O :   -0.273958
  14 C :   -0.112716
  15 C :   -0.471469
  16 O :   -0.317683
  17 C :   -0.149282
  18 C :   -0.442008
  19 H :    0.156477
  20 H :    0.169898
  21 H :    0.147215
  22 H :    0.171862
  23 H :    0.147643
  24 H :    0.177173
  25 H :    0.152003
  26 H :    0.147278
  27 H :    0.156108
  28 H :    0.169376
  29 H :    0.193290
  30 H :    0.216379
  31 H :    0.155978
  32 H :    0.178543
  33 H :    0.154098
  34 H :    0.146009
  35 H :    0.156275
  36 H :    0.149693
  37 H :    0.173732
  38 H :    0.173272
  39 H :    0.155886
  40 H :    0.147970
Sum of atomic charges:    0.0000000

LOEWDIN ATOMIC CHARGES
----------------------
   0 C :   -0.407405
   1 C :    0.018308
   2 O :   -0.668741
   3 P :    0.374972
   4 S :   -0.122973
   5 O :   -0.692622
   6 C :    0.011751
   7 C :   -0.400771
   8 S :    0.157006
   9 C :   -0.416643
  10 S :    0.142525
  11 P :    0.383030
  12 S :   -0.084368
  13 O :   -0.652543
  14 C :    0.015187
  15 C :   -0.385711
  16 O :   -0.647775
  17 C :    0.023699
  18 C :   -0.406733
  19 H :    0.161067
  20 H :    0.162919
  21 H :    0.158287
  22 H :    0.179215
  23 H :    0.179165
  24 H :    0.182746
  25 H :    0.181329
  26 H :    0.159452
  27 H :    0.161204
  28 H :    0.165219
  29 H :    0.178615
  30 H :    0.201751
  31 H :    0.174075
  32 H :    0.189828
  33 H :    0.160353
  34 H :    0.159191
  35 H :    0.160781
  36 H :    0.180555
  37 H :    0.179978
  38 H :    0.164119
  39 H :    0.160803
  40 H :    0.159157

  Mayer bond orders larger than 0.100000
B(  0-C ,  1-C ) :   0.9204 B(  0-C , 19-H ) :   0.9667 B(  0-C , 20-H ) :   0.9670
B(  0-C , 21-H ) :   0.9596 B(  1-C ,  2-O ) :   0.8218 B(  1-C , 22-H ) :   0.9680
B(  1-C , 23-H ) :   0.9582 B(  2-O ,  3-P ) :   1.0548 B(  3-P ,  4-S ) :   1.7465
B(  3-P ,  5-O ) :   1.1611 B(  3-P ,  8-S ) :   1.1181 B(  5-O ,  6-C ) :   0.8160
B(  6-C ,  7-C ) :   0.9134 B(  6-C , 24-H ) :   0.9637 B(  6-C , 25-H ) :   0.9603
B(  7-C , 26-H ) :   0.9597 B(  7-C , 27-H ) :   0.9712 B(  7-C , 28-H ) :   0.9615
B(  8-S ,  9-C ) :   0.8798 B(  9-C , 10-S ) :   0.9154 B(  9-C , 29-H ) :   0.9123
B(  9-C , 30-H ) :   0.9027 B( 10-S , 11-P ) :   1.0655 B( 11-P , 12-S ) :   1.7646
B( 11-P , 13-O ) :   1.1400 B( 11-P , 16-O ) :   1.1321 B( 13-O , 14-C ) :   0.7684
B( 14-C , 15-C ) :   0.9457 B( 14-C , 31-H ) :   0.9391 B( 14-C , 32-H ) :   0.9427
B( 15-C , 33-H ) :   0.9746 B( 15-C , 34-H ) :   0.9658 B( 15-C , 35-H ) :   0.9747
B( 16-O , 17-C ) :   0.8165 B( 17-C , 18-C ) :   0.9197 B( 17-C , 36-H ) :   0.9602
B( 17-C , 37-H ) :   0.9697 B( 18-C , 38-H ) :   0.9640 B( 18-C , 39-H ) :   0.9675
B( 18-C , 40-H ) :   0.9592

Dispersion correction           -0.021906435
FINAL SINGLE POINT ENERGY     -2932.461248349001

DIPOLE MOMENT
-------------

Method             : SCF
Type of density    : Electron Density
Multiplicity       :   1
Irrep              :   0
Energy             : -2932.4858770627783997 Eh
Relativity type    :
Basis              : AO
                                X                 Y                 Z
Electronic contribution:     -5.898045040      -5.053395419      -3.497316922
Nuclear contribution   :      6.284749718       4.786819486       3.911195581
                        -----------------------------------------
Total Dipole Moment    :      0.386704678      -0.266575933       0.413878659
                        -----------------------------------------
Magnitude (a.u.)       :      0.626018195
Magnitude (Debye)      :      1.591211797

Rotational constants in cm-1:             0.011797             0.005188             0.004921
Rotational constants in MHz :           353.657982           155.526587           147.540023

                             ****ORCA TERMINATED NORMALLY****
TOTAL RUN TIME: 0 days 0 hours 1 minutes 23 seconds 419 msec
