                         Program Version 6.0.0  -   RELEASE  -
|  1> ! r2scan-3c def2/J RI DEFGRID2 scfconv6 printgap
|  2> %output
|  3>     printlevel normal
|  4> end
|  5> %cpcm
|  6>     smd true
|  7>     smdsolvent "water"
|  8> end
|  9> * xyz 0 1
| 10> C 4.4280693262 -1.8340125295 -0.7430861309
| 11> C 4.6241733948 -0.3530965139 -0.4893432574
| 12> O 3.5734376172 0.2068243391 0.3156217057
| 13> P 2.0737728152 0.3369053061 -0.2002612718
| 14> S 1.9085807884 0.808729288 -2.0986485517
| 15> O 1.4854230951 1.3436459245 0.875499243
| 16> C 1.5032909019 2.771480306 0.6842484897
| 17> C 2.9106078963 3.3241853523 0.6172415671
| 18> S 1.1796685598 -1.4586616513 0.4540632394
| 19> C -0.0156854357 -1.7558270004 -0.902185694
| 20> S -1.6755778542 -2.1374559889 -0.2998274137
| 21> P -2.3484910334 -0.1914384591 0.2399177043
| 22> S -1.3980156311 1.3079189964 -0.6074201923
| 23> O -2.4113295609 -0.1751437438 1.8217245006
| 24> C -1.2397484558 -0.1517593033 2.6582978353
| 25> C -1.672600719 0.2874492246 4.0424487725
| 26> O -3.9105949308 -0.2264629589 0.0283521539
| 27> C -4.5224774964 0.1495502586 -1.2193493077
| 28> C -4.2057259029 -0.8288560214 -2.3325692911
| 29> H 4.2732186041 -2.3617439966 0.1945919704
| 30> H 3.5598468332 -1.9881227179 -1.3825629874
| 31> H 5.3062674701 -2.2314752416 -1.2416834754
| 32> H 4.6618392878 0.1947327866 -1.4364810941
| 33> H 5.5279873578 -0.1592383324 0.089735698
| 34> H 0.9447139523 3.0008627538 -0.2297604254
| 35> H 0.9567254429 3.1560932125 1.5468410792
| 36> H 2.8675841402 4.4082799397 0.5821407519
| 37> H 3.478338979 3.0090944028 1.4889582876
| 38> H 3.4092733405 2.9612930667 -0.2808432118
| 39> H 0.3060946828 -2.6344852192 -1.4544994846
| 40> H -0.0377158607 -0.8700443204 -1.5423200314
| 41> H -0.8064180818 -1.1568197232 2.6778071523
| 42> H -0.5057357639 0.5410271043 2.2315354399
| 43> H -2.4190561466 -0.4001124655 4.4288857695
| 44> H -0.8096842131 0.2927910908 4.7001841661
| 45> H -2.1018608589 1.28452267 4.0004831625
| 46> H -5.5886138767 0.1659569468 -0.9891040927
| 47> H -4.1846795174 1.1569326671 -1.4837346196
| 48> H -3.1501921048 -0.7675611979 -2.5949473616
| 49> H -4.4317670553 -1.8444912099 -2.0180317889
| 50> H -4.7984815494 -0.5804516821 -3.2072176524
| 51> *
| 52>
| 53>                          ****END OF INPUT****

CARTESIAN COORDINATES (ANGSTROEM)
---------------------------------
  C      4.428069   -1.834013   -0.743086
  C      4.624173   -0.353097   -0.489343
  O      3.573438    0.206824    0.315622
  P      2.073773    0.336905   -0.200261
  S      1.908581    0.808729   -2.098649
  O      1.485423    1.343646    0.875499
  C      1.503291    2.771480    0.684248
  C      2.910608    3.324185    0.617242
  S      1.179669   -1.458662    0.454063
  C     -0.015685   -1.755827   -0.902186
  S     -1.675578   -2.137456   -0.299827
  P     -2.348491   -0.191438    0.239918
  S     -1.398016    1.307919   -0.607420
  O     -2.411330   -0.175144    1.821725
  C     -1.239748   -0.151759    2.658298
  C     -1.672601    0.287449    4.042449
  O     -3.910595   -0.226463    0.028352
  C     -4.522477    0.149550   -1.219349
  C     -4.205726   -0.828856   -2.332569
  H      4.273219   -2.361744    0.194592
  H      3.559847   -1.988123   -1.382563
  H      5.306267   -2.231475   -1.241683
  H      4.661839    0.194733   -1.436481
  H      5.527987   -0.159238    0.089736
  H      0.944714    3.000863   -0.229760
  H      0.956725    3.156093    1.546841
  H      2.867584    4.408280    0.582141
  H      3.478339    3.009094    1.488958
  H      3.409273    2.961293   -0.280843
  H      0.306095   -2.634485   -1.454499
  H     -0.037716   -0.870044   -1.542320
  H     -0.806418   -1.156820    2.677807
  H     -0.505736    0.541027    2.231535
  H     -2.419056   -0.400112    4.428886
  H     -0.809684    0.292791    4.700184
  H     -2.101861    1.284523    4.000483
  H     -5.588614    0.165957   -0.989104
  H     -4.184680    1.156933   -1.483735
  H     -3.150192   -0.767561   -2.594947
  H     -4.431767   -1.844491   -2.018032
  H     -4.798482   -0.580452   -3.207218

 Total Charge           Charge          ....    0
 Multiplicity           Mult            ....    1
 Number of Electrons    NEL             ....  202
 Basis Dimension        Dim             ....  539

ORBITAL ENERGIES
----------------

  NO   OCC          E(Eh)            E(eV)
   0   2.0000     -88.581102     -2410.4143
   1   2.0000     -88.575636     -2410.2656
   2   2.0000     -88.527033     -2408.9430
   3   2.0000     -88.526064     -2408.9167
   4   2.0000     -76.918278     -2093.0527
   5   2.0000     -76.917309     -2093.0264
   6   2.0000     -18.996215      -516.9133
   7   2.0000     -18.992389      -516.8092
   8   2.0000     -18.991731      -516.7913
   9   2.0000     -18.988814      -516.7119
  10   2.0000     -10.104767      -274.9647
  11   2.0000     -10.090892      -274.5871
  12   2.0000     -10.088076      -274.5105
  13   2.0000     -10.087796      -274.5029
  14   2.0000     -10.087768      -274.5021
  15   2.0000     -10.018684      -272.6223
  16   2.0000     -10.018524      -272.6179
  17   2.0000     -10.017858      -272.5998
  18   2.0000     -10.017389      -272.5870
  19   2.0000      -7.875332      -214.2987
  20   2.0000      -7.870213      -214.1594
  21   2.0000      -7.822031      -212.8483
  22   2.0000      -7.820987      -212.8199
  23   2.0000      -6.596979      -179.5129
  24   2.0000      -6.595763      -179.4798
  25   2.0000      -5.822363      -158.4346
  26   2.0000      -5.818928      -158.3411
  27   2.0000      -5.817029      -158.2894
  28   2.0000      -5.814222      -158.2130
  29   2.0000      -5.812577      -158.1683
  30   2.0000      -5.807185      -158.0215
  31   2.0000      -5.769643      -157.0000
  32   2.0000      -5.768598      -156.9715
  33   2.0000      -5.762468      -156.8047
  34   2.0000      -5.761875      -156.7886
  35   2.0000      -5.761177      -156.7696
  36   2.0000      -5.761103      -156.7676
  37   2.0000      -4.742326      -129.0452
  38   2.0000      -4.742100      -129.0391
  39   2.0000      -4.740983      -129.0087
  40   2.0000      -4.740650      -128.9997
  41   2.0000      -4.740565      -128.9973
  42   2.0000      -4.739925      -128.9799
  43   2.0000      -1.056781       -28.7565
  44   2.0000      -1.049720       -28.5643
  45   2.0000      -1.012825       -27.5604
  46   2.0000      -1.009290       -27.4642
  47   2.0000      -0.798986       -21.7415
  48   2.0000      -0.756140       -20.5756
  49   2.0000      -0.744986       -20.2721
  50   2.0000      -0.722354       -19.6563
  51   2.0000      -0.720855       -19.6155
  52   2.0000      -0.711117       -19.3505
  53   2.0000      -0.689605       -18.7651
  54   2.0000      -0.670454       -18.2440
  55   2.0000      -0.634045       -17.2532
  56   2.0000      -0.623157       -16.9570
  57   2.0000      -0.597933       -16.2706
  58   2.0000      -0.594146       -16.1675
  59   2.0000      -0.586796       -15.9675
  60   2.0000      -0.525773       -14.3070
  61   2.0000      -0.511517       -13.9191
  62   2.0000      -0.488662       -13.2972
  63   2.0000      -0.486057       -13.2263
  64   2.0000      -0.470399       -12.8002
  65   2.0000      -0.464820       -12.6484
  66   2.0000      -0.454966       -12.3802
  67   2.0000      -0.452472       -12.3124
  68   2.0000      -0.440849       -11.9961
  69   2.0000      -0.432065       -11.7571
  70   2.0000      -0.425550       -11.5798
  71   2.0000      -0.411563       -11.1992
  72   2.0000      -0.406134       -11.0515
  73   2.0000      -0.401057       -10.9133
  74   2.0000      -0.394630       -10.7384
  75   2.0000      -0.391869       -10.6633
  76   2.0000      -0.384715       -10.4686
  77   2.0000      -0.363882        -9.9017
  78   2.0000      -0.360799        -9.8178
  79   2.0000      -0.356192        -9.6925
  80   2.0000      -0.353981        -9.6323
  81   2.0000      -0.350295        -9.5320
  82   2.0000      -0.349783        -9.5181
  83   2.0000      -0.347136        -9.4461
  84   2.0000      -0.344853        -9.3839
  85   2.0000      -0.324461        -8.8290
  86   2.0000      -0.322166        -8.7666
  87   2.0000      -0.313694        -8.5360
  88   2.0000      -0.305508        -8.3133
  89   2.0000      -0.303189        -8.2502
  90   2.0000      -0.296253        -8.0615
  91   2.0000      -0.284690        -7.7468
  92   2.0000      -0.283282        -7.7085
  93   2.0000      -0.279975        -7.6185
  94   2.0000      -0.273536        -7.4433
  95   2.0000      -0.250495        -6.8163
  96   2.0000      -0.239278        -6.5111
  97   2.0000      -0.235482        -6.4078
  98   2.0000      -0.225199        -6.1280
  99   2.0000      -0.217988        -5.9317
 100   2.0000      -0.212901        -5.7933
 101   0.0000      -0.049375        -1.3436
 102   0.0000      -0.040463        -1.1010
 103   0.0000      -0.018455        -0.5022
 104   0.0000       0.006472         0.1761
 105   0.0000       0.014572         0.3965

MULLIKEN ATOMIC CHARGES
-----------------------
   0 C :   -0.476190
   1 C :   -0.158061
   2 O :   -0.319184
   3 P :    0.705062
   4 S :   -0.517431
   5 O :   -0.311442
   6 C :   -0.152353
   7 C :   -0.491963
   8 S :   -0.139007
   9 C :   -0.206435
  10 S :   -0.135449
  11 P :    0.674106
  12 S :   -0.461585
  13 O :   -0.307801
  14 C :   -0.109851
  15 C :   -0.510260
  16 O :   -0.347600
  17 C :   -0.148255
  18 C :   -0.477718
  19 H :    0.166201
  20 H :    0.171089
  21 H :    0.171423
  22 H :    0.177236
  23 H :    0.173778
  24 H :    0.176305
  25 H :    0.178082
  26 H :    0.171685
  27 H :    0.169606
  28 H :    0.169995
  29 H :    0.234091
  30 H :    0.211485
  31 H :    0.171752
  32 H :    0.178764
  33 H :    0.166135
  34 H :    0.169261
  35 H :    0.166649
  36 H :    0.176080
  37 H :    0.178652
  38 H :    0.171793
  39 H :    0.168267
  40 H :    0.173091
Sum of atomic charges:    0.0000000

LOEWDIN ATOMIC CHARGES
----------------------
   0 C :   -0.410217
   1 C :    0.023264
   2 O :   -0.681435
   3 P :    0.380772
   4 S :   -0.155950
   5 O :   -0.702926
   6 C :    0.014086
   7 C :   -0.403778
   8 S :    0.159071
   9 C :   -0.409050
  10 S :    0.145240
  11 P :    0.383329
  12 S :   -0.108066
  13 O :   -0.673358
  14 C :    0.017787
  15 C :   -0.389054
  16 O :   -0.666216
  17 C :    0.028036
  18 C :   -0.409236
  19 H :    0.163281
  20 H :    0.160880
  21 H :    0.167077
  22 H :    0.180950
  23 H :    0.190090
  24 H :    0.181707
  25 H :    0.191013
  26 H :    0.168472
  27 H :    0.164563
  28 H :    0.163063
  29 H :    0.194847
  30 H :    0.200022
  31 H :    0.179748
  32 H :    0.189897
  33 H :    0.163447
  34 H :    0.168699
  35 H :    0.163071
  36 H :    0.191621
  37 H :    0.181607
  38 H :    0.161238
  39 H :    0.163995
  40 H :    0.168413

  Mayer bond orders larger than 0.100000
B(  0-C ,  1-C ) :   0.9087 B(  0-C , 19-H ) :   0.9647 B(  0-C , 20-H ) :   0.9664
B(  0-C , 21-H ) :   0.9546 B(  1-C ,  2-O ) :   0.8095 B(  1-C , 22-H ) :   0.9662
B(  1-C , 23-H ) :   0.9487 B(  2-O ,  3-P ) :   1.0619 B(  3-P ,  4-S ) :   1.6934
B(  3-P ,  5-O ) :   1.1657 B(  3-P ,  8-S ) :   1.1362 B(  5-O ,  6-C ) :   0.8018
B(  6-C ,  7-C ) :   0.9066 B(  6-C , 24-H ) :   0.9612 B(  6-C , 25-H ) :   0.9494
B(  7-C , 26-H ) :   0.9536 B(  7-C , 27-H ) :   0.9696 B(  7-C , 28-H ) :   0.9615
B(  8-S ,  9-C ) :   0.8759 B(  9-C , 10-S ) :   0.9095 B(  9-C , 29-H ) :   0.8969
B(  9-C , 30-H ) :   0.9065 B( 10-S , 11-P ) :   1.0792 B( 11-P , 12-S ) :   1.7466
B( 11-P , 13-O ) :   1.1354 B( 11-P , 16-O ) :   1.1306 B( 13-O , 14-C ) :   0.7637
B( 14-C , 15-C ) :   0.9396 B( 14-C , 31-H ) :   0.9325 B( 14-C , 32-H ) :   0.9396
B( 15-C , 33-H ) :   0.9721 B( 15-C , 34-H ) :   0.9584 B( 15-C , 35-H ) :   0.9722
B( 16-O , 17-C ) :   0.8057 B( 17-C , 18-C ) :   0.9090 B( 17-C , 36-H ) :   0.9502
B( 17-C , 37-H ) :   0.9663 B( 18-C , 38-H ) :   0.9645 B( 18-C , 39-H ) :   0.9651
B( 18-C , 40-H ) :   0.9537

Dispersion correction           -0.021906435
FINAL SINGLE POINT ENERGY     -2932.467946940324

DIPOLE MOMENT
-------------

Method             : SCF
Type of density    : Electron Density
Multiplicity       :   1
Irrep              :   0
Energy             : -2932.4925756541010742 Eh
Relativity type    :
Basis              : AO
                                X                 Y                 Z
Electronic contribution:     -5.660542767      -5.305706285      -3.430521396
Nuclear contribution   :      6.284749718       4.786819486       3.911195581
                        -----------------------------------------
Total Dipole Moment    :      0.624206951      -0.518886799       0.480674185
                        -----------------------------------------
Magnitude (a.u.)       :      0.943358627
Magnitude (Debye)      :      2.397827073

Rotational constants in cm-1:             0.011797             0.005188             0.004921
Rotational constants in MHz :           353.657982           155.526587           147.540023

                             ****ORCA TERMINATED NORMALLY****
TOTAL RUN TIME: 0 days 0 hours 1 minutes 54 seconds 390 msec
