                         Program Version 6.0.1  -  RELEASE   -
|  1> ! pbe def2-sv(p) def2/J RI DEFGRID1 loosescf d4 GCP(DFT/SV(P)) printgap
|  2> %output
|  3>     printlevel normal
|  4> end
|  5> * xyz 0 1
|  6> C 3.0633482 -1.9271288083 1.5827784006
|  7> C 2.8455560514 -2.5056440984 0.1943255148
|  8> O 2.6635406914 -1.4465762127 -0.7663050767
|  9> C 1.4554994864 -1.0936294894 -1.1253541016
| 10> O 0.4333249877 -1.6268824394 -0.7240230841
| 11> C 1.4645046335 0.0427582487 -2.120486269
| 12> C 0.3812536616 1.0635547319 -1.7881824614
| 13> H 0.3558106268 1.8447237085 -2.5534199298
| 14> C 0.5541757461 1.7388079327 -0.4378663942
| 15> O -0.3759555944 2.2311555615 0.1668161764
| 16> O 1.7988386936 1.7226312757 -0.034021476
| 17> C 2.1163405197 2.3345938329 1.2338375796
| 18> C 2.258908483 3.8406261043 1.09559402
| 19> S -1.3104240703 0.3549746527 -1.8384966131
| 20> P -1.6104197275 -0.3172653057 0.1411778853
| 21> S -0.4372162674 -0.3654821026 1.7264091938
| 22> O -2.8700211908 0.6458632082 0.365877918
| 23> C -3.6051978758 0.6661093782 1.5912244805
| 24> O -2.3990396194 -1.698440384 -0.0497905651
| 25> C -1.8713221088 -3.0048412303 0.1711936596
| 26> H 3.2566831598 -2.7342664017 2.2812775176
| 27> H 3.9103027693 -1.2474011298 1.5753056658
| 28> H 2.1767866821 -1.3859555706 1.9101634626
| 29> H 1.9663224051 -3.1550059987 0.1756675192
| 30> H 3.7270076755 -3.0459084746 -0.1528942928
| 31> H 1.2572080152 -0.3714980159 -3.108977028
| 32> H 2.4478246494 0.5116352684 -2.114448106
| 33> H 1.3309776767 2.0737122924 1.9494386627
| 34> H 3.0570006904 1.866352738 1.5227733472
| 35> H 3.0054783562 4.0788455996 0.3431417705
| 36> H 1.3073491305 4.2823845028 0.8083912005
| 37> H 2.5647577966 4.2562923574 2.049794013
| 38> H -4.2518369118 -0.2093757383 1.6501781987
| 39> H -4.1927391515 1.5802387904 1.5659326082
| 40> H -2.9196447128 0.6789743474 2.4417033238
| 41> H -1.1517624213 -2.9822400596 0.9912374157
| 42> H -1.3847779618 -3.3606659677 -0.7346328359
| 43> H -2.72472785 -3.6288903846 0.4263391304
| 44> *
| 45>
| 46>                          ****END OF INPUT****

CARTESIAN COORDINATES (ANGSTROEM)
---------------------------------
  C      3.063348   -1.927129    1.582778
  C      2.845556   -2.505644    0.194326
  O      2.663541   -1.446576   -0.766305
  C      1.455499   -1.093629   -1.125354
  O      0.433325   -1.626882   -0.724023
  C      1.464505    0.042758   -2.120486
  C      0.381254    1.063555   -1.788182
  H      0.355811    1.844724   -2.553420
  C      0.554176    1.738808   -0.437866
  O     -0.375956    2.231156    0.166816
  O      1.798839    1.722631   -0.034021
  C      2.116341    2.334594    1.233838
  C      2.258908    3.840626    1.095594
  S     -1.310424    0.354975   -1.838497
  P     -1.610420   -0.317265    0.141178
  S     -0.437216   -0.365482    1.726409
  O     -2.870021    0.645863    0.365878
  C     -3.605198    0.666109    1.591224
  O     -2.399040   -1.698440   -0.049791
  C     -1.871322   -3.004841    0.171194
  H      3.256683   -2.734266    2.281278
  H      3.910303   -1.247401    1.575306
  H      2.176787   -1.385956    1.910163
  H      1.966322   -3.155006    0.175668
  H      3.727008   -3.045908   -0.152894
  H      1.257208   -0.371498   -3.108977
  H      2.447825    0.511635   -2.114448
  H      1.330978    2.073712    1.949439
  H      3.057001    1.866353    1.522773
  H      3.005478    4.078846    0.343142
  H      1.307349    4.282385    0.808391
  H      2.564758    4.256292    2.049794
  H     -4.251837   -0.209376    1.650178
  H     -4.192739    1.580239    1.565933
  H     -2.919645    0.678974    2.441703
  H     -1.151762   -2.982240    0.991237
  H     -1.384778   -3.360666   -0.734633
  H     -2.724728   -3.628890    0.426339

 Total Charge           Charge          ....    0
 Multiplicity           Mult            ....    1
 Number of Electrons    NEL             ....  174
 Basis Dimension        Dim             ....  316

ORBITAL ENERGIES
----------------

  NO   OCC          E(Eh)            E(eV)
   0   2.0000     -88.025190     -2395.2872
   1   2.0000     -87.968794     -2393.7526
   2   2.0000     -76.413577     -2079.3191
   3   2.0000     -18.811613      -511.8900
   4   2.0000     -18.811541      -511.8881
   5   2.0000     -18.773317      -510.8479
   6   2.0000     -18.763283      -510.5749
   7   2.0000     -18.750246      -510.2201
   8   2.0000     -18.736908      -509.8572
   9   2.0000     -10.019310      -272.6393
  10   2.0000     -10.015071      -272.5239
  11   2.0000      -9.950908      -270.7780
  12   2.0000      -9.949743      -270.7463
  13   2.0000      -9.947473      -270.6845
  14   2.0000      -9.925509      -270.0868
  15   2.0000      -9.922446      -270.0035
  16   2.0000      -9.914241      -269.7802
  17   2.0000      -9.886913      -269.0366
  18   2.0000      -9.883786      -268.9515
  19   2.0000      -7.670614      -208.7280
  20   2.0000      -7.613661      -207.1783
  21   2.0000      -6.408933      -174.3959
  22   2.0000      -5.699107      -155.0806
  23   2.0000      -5.695705      -154.9880
  24   2.0000      -5.686247      -154.7307
  25   2.0000      -5.642772      -153.5476
  26   2.0000      -5.634460      -153.3215
  27   2.0000      -5.633326      -153.2906
  28   2.0000      -4.631500      -126.0295
  29   2.0000      -4.631170      -126.0205
  30   2.0000      -4.629461      -125.9740
  31   2.0000      -1.020891       -27.7799
  32   2.0000      -1.017225       -27.6801
  33   2.0000      -0.961646       -26.1677
  34   2.0000      -0.925827       -25.1930
  35   2.0000      -0.919601       -25.0236
  36   2.0000      -0.916325       -24.9345
  37   2.0000      -0.762941       -20.7607
  38   2.0000      -0.714202       -19.4344
  39   2.0000      -0.704525       -19.1711
  40   2.0000      -0.684395       -18.6233
  41   2.0000      -0.649313       -17.6687
  42   2.0000      -0.619092       -16.8463
  43   2.0000      -0.615461       -16.7475
  44   2.0000      -0.610182       -16.6039
  45   2.0000      -0.595635       -16.2081
  46   2.0000      -0.566419       -15.4130
  47   2.0000      -0.508015       -13.8238
  48   2.0000      -0.503905       -13.7119
  49   2.0000      -0.494054       -13.4439
  50   2.0000      -0.481971       -13.1151
  51   2.0000      -0.458767       -12.4837
  52   2.0000      -0.454882       -12.3780
  53   2.0000      -0.447944       -12.1892
  54   2.0000      -0.431453       -11.7404
  55   2.0000      -0.424790       -11.5591
  56   2.0000      -0.421691       -11.4748
  57   2.0000      -0.409296       -11.1375
  58   2.0000      -0.408156       -11.1065
  59   2.0000      -0.398410       -10.8413
  60   2.0000      -0.395358       -10.7582
  61   2.0000      -0.391911       -10.6644
  62   2.0000      -0.389580       -10.6010
  63   2.0000      -0.380690       -10.3591
  64   2.0000      -0.373851       -10.1730
  65   2.0000      -0.367190        -9.9917
  66   2.0000      -0.359268        -9.7762
  67   2.0000      -0.355311        -9.6685
  68   2.0000      -0.348489        -9.4829
  69   2.0000      -0.340231        -9.2582
  70   2.0000      -0.334736        -9.1086
  71   2.0000      -0.330325        -8.9886
  72   2.0000      -0.321704        -8.7540
  73   2.0000      -0.300129        -8.1669
  74   2.0000      -0.298507        -8.1228
  75   2.0000      -0.293246        -7.9796
  76   2.0000      -0.284436        -7.7399
  77   2.0000      -0.271166        -7.3788
  78   2.0000      -0.269411        -7.3311
  79   2.0000      -0.262003        -7.1295
  80   2.0000      -0.252810        -6.8793
  81   2.0000      -0.244527        -6.6539
  82   2.0000      -0.241372        -6.5681
  83   2.0000      -0.224670        -6.1136
  84   2.0000      -0.190412        -5.1814
  85   2.0000      -0.188503        -5.1294
  86   2.0000      -0.178263        -4.8508
  87   0.0000      -0.045745        -1.2448
  88   0.0000      -0.038191        -1.0392
  89   0.0000      -0.031760        -0.8642
  90   0.0000       0.011059         0.3009
  91   0.0000       0.033988         0.9248

MULLIKEN ATOMIC CHARGES
-----------------------
   0 C :   -0.315291
   1 C :   -0.021726
   2 O :   -0.214092
   3 C :    0.114076
   4 O :   -0.211554
   5 C :   -0.005756
   6 C :   -0.330975
   7 H :    0.154539
   8 C :    0.181080
   9 O :   -0.175440
  10 O :   -0.223782
  11 C :   -0.015565
  12 C :   -0.307902
  13 S :   -0.056585
  14 P :    0.656918
  15 S :   -0.352785
  16 O :   -0.372989
  17 C :   -0.092638
  18 O :   -0.393775
  19 C :   -0.086840
  20 H :    0.109517
  21 H :    0.109727
  22 H :    0.148310
  23 H :    0.113380
  24 H :    0.103932
  25 H :    0.121254
  26 H :    0.110333
  27 H :    0.128084
  28 H :    0.101490
  29 H :    0.109251
  30 H :    0.132345
  31 H :    0.115213
  32 H :    0.103585
  33 H :    0.118674
  34 H :    0.112115
  35 H :    0.111372
  36 H :    0.111850
  37 H :    0.110651
Sum of atomic charges:    0.0000000

LOEWDIN ATOMIC CHARGES
----------------------
   0 C :   -0.360715
   1 C :   -0.108818
   2 O :   -0.040268
   3 C :    0.040828
   4 O :   -0.172867
   5 C :   -0.253920
   6 C :   -0.260445
   7 H :    0.153819
   8 C :   -0.005363
   9 O :   -0.154879
  10 O :   -0.042262
  11 C :   -0.109583
  12 C :   -0.357575
  13 S :    0.128378
  14 P :    0.603942
  15 S :   -0.313185
  16 O :   -0.253629
  17 C :   -0.215181
  18 O :   -0.258016
  19 C :   -0.213694
  20 H :    0.130163
  21 H :    0.121852
  22 H :    0.126284
  23 H :    0.120791
  24 H :    0.117949
  25 H :    0.148073
  26 H :    0.139321
  27 H :    0.124136
  28 H :    0.117155
  29 H :    0.122550
  30 H :    0.132383
  31 H :    0.132371
  32 H :    0.107600
  33 H :    0.119082
  34 H :    0.106095
  35 H :    0.104158
  36 H :    0.110143
  37 H :    0.113326

  Mayer bond orders larger than 0.100000
B(  0-C ,  1-C ) :   1.1792 B(  0-C , 20-H ) :   0.9411 B(  0-C , 21-H ) :   0.9466
B(  0-C , 22-H ) :   0.9249 B(  1-C ,  2-O ) :   0.9034 B(  1-C , 23-H ) :   0.9089
B(  1-C , 24-H ) :   0.9361 B(  2-O ,  3-C ) :   1.2721 B(  3-C ,  4-O ) :   1.9118
B(  3-C ,  5-C ) :   1.0116 B(  5-C ,  6-C ) :   1.0206 B(  5-C , 25-H ) :   0.8764
B(  5-C , 26-H ) :   0.8820 B(  6-C ,  7-H ) :   0.8712 B(  6-C ,  8-C ) :   0.8903
B(  6-C , 13-S ) :   1.0428 B(  8-C ,  9-O ) :   2.0400 B(  8-C , 10-O ) :   1.2614
B( 10-O , 11-C ) :   0.9010 B( 11-C , 12-C ) :   1.1701 B( 11-C , 27-H ) :   0.9081
B( 11-C , 28-H ) :   0.9365 B( 12-C , 29-H ) :   0.9475 B( 12-C , 30-H ) :   0.9436
B( 12-C , 31-H ) :   0.9442 B( 13-S , 14-P ) :   0.9300 B( 13-S , 15-S ) :   0.1206
B( 14-P , 15-S ) :   1.5075 B( 14-P , 16-O ) :   1.1013 B( 14-P , 18-O ) :   1.0921
B( 16-O , 17-C ) :   0.9421 B( 17-C , 32-H ) :   0.9515 B( 17-C , 33-H ) :   0.9605
B( 17-C , 34-H ) :   0.9310 B( 18-O , 19-C ) :   0.9367 B( 19-C , 35-H ) :   0.9318
B( 19-C , 36-H ) :   0.9513 B( 19-C , 37-H ) :   0.9552

Dispersion correction           -0.056392203
FINAL SINGLE POINT ENERGY     -1978.999202403282

DIPOLE MOMENT
-------------

Method             : SCF
Type of density    : Electron Density
Multiplicity       :   1
Irrep              :   0
Energy             : -1979.1274229238083535 Eh
Relativity type    :
Basis              : AO
                                X                 Y                 Z
Electronic contribution:    -12.910265533       0.271875746     -10.364981321
Nuclear contribution   :     14.367032107      -0.608199821      10.206866007
                        -----------------------------------------
Total Dipole Moment    :      1.456766574      -0.336324075      -0.158115314
                        -----------------------------------------
Magnitude (a.u.)       :      1.503423822
Magnitude (Debye)      :      3.821399663

Rotational constants in cm-1:             0.011930             0.009637             0.007658
Rotational constants in MHz :           357.655031           288.922732           229.575236

                             ****ORCA TERMINATED NORMALLY****
TOTAL RUN TIME: 0 days 0 hours 1 minutes 32 seconds 366 msec
