                         Program Version 6.0.0  -   RELEASE  -
|  1> ! r2scan-3c def2/J RI DEFGRID2 scfconv6 printgap
|  2> %output
|  3>     printlevel normal
|  4> end
|  5> * xyz 0 1
|  6> C 3.4461343659 -2.3803065222 1.8844669135
|  7> C 3.5278624329 -0.8736117567 1.7471553131
|  8> O 3.599158433 -0.4858022228 0.3501840044
|  9> P 2.3504671723 0.0137184868 -0.4837052266
| 10> S 2.8615864742 0.5754012179 -2.2827433446
| 11> O 1.6317828704 1.130142122 0.4247893332
| 12> C 1.811562636 2.5349624039 0.1813110834
| 13> C 3.1799392409 2.9995200755 0.6359047164
| 14> S 0.9247624662 -1.5332339906 -0.324557746
| 15> C -0.1460306755 -0.9931916841 -1.6801827324
| 16> S -0.8226838997 0.6859744766 -1.4798840357
| 17> P -2.3809757403 0.2612125734 -0.1148080778
| 18> S -3.3406088321 1.8211567125 0.5768312048
| 19> O -1.7470608621 -0.6841293387 0.9961227845
| 20> C -1.0930478351 -0.1651734621 2.1688872237
| 21> C -0.7888638264 -1.339985026 3.0757249336
| 22> O -3.2061777852 -0.7767568425 -0.981309796
| 23> C -4.592723824 -1.0635317699 -0.6978347627
| 24> C -4.7605781031 -1.7779835349 0.6261115101
| 25> H 3.4733542241 -2.6412889536 2.9377074634
| 26> H 2.523963234 -2.7553811973 1.4459240727
| 27> H 4.2870304561 -2.8451488186 1.3775899297
| 28> H 4.4523663568 -0.487958507 2.1802514418
| 29> H 2.6685011034 -0.3832214468 2.2103887604
| 30> H 1.6699879311 2.7239794468 -0.8877982812
| 31> H 1.0071980253 3.0138049908 0.7430324018
| 32> H 3.9496350399 2.4814470047 0.0639261213
| 33> H 3.2720890027 4.0673398631 0.4650042106
| 34> H 3.3208213941 2.7898399903 1.6930325587
| 35> H -0.9603136027 -1.709209913 -1.7485490318
| 36> H 0.4377001383 -0.9605578452 -2.599536068
| 37> H -0.1769715687 0.3480067175 1.8622734402
| 38> H -1.7597326323 0.5619749823 2.6437352941
| 39> H -0.2770307632 -0.9829823066 3.9631687288
| 40> H -1.7103171233 -1.834761383 3.3675908
| 41> H -0.156863434 -2.0514989436 2.5512938239
| 42> H -5.1475615253 -0.1202341558 -0.7019042041
| 43> H -4.9063314561 -1.68288882 -1.5391702788
| 44> H -5.7997746241 -2.0665801999 0.7492338889
| 45> H -4.1311580589 -2.6633150234 0.6591424803
| 46> H -4.4796644459 -1.1123464225 1.4410902163
| 47> *
| 48>
| 49>                          ****END OF INPUT****

CARTESIAN COORDINATES (ANGSTROEM)
---------------------------------
  C      3.446134   -2.380307    1.884467
  C      3.527862   -0.873612    1.747155
  O      3.599158   -0.485802    0.350184
  P      2.350467    0.013718   -0.483705
  S      2.861586    0.575401   -2.282743
  O      1.631783    1.130142    0.424789
  C      1.811563    2.534962    0.181311
  C      3.179939    2.999520    0.635905
  S      0.924762   -1.533234   -0.324558
  C     -0.146031   -0.993192   -1.680183
  S     -0.822684    0.685974   -1.479884
  P     -2.380976    0.261213   -0.114808
  S     -3.340609    1.821157    0.576831
  O     -1.747061   -0.684129    0.996123
  C     -1.093048   -0.165173    2.168887
  C     -0.788864   -1.339985    3.075725
  O     -3.206178   -0.776757   -0.981310
  C     -4.592724   -1.063532   -0.697835
  C     -4.760578   -1.777984    0.626112
  H      3.473354   -2.641289    2.937707
  H      2.523963   -2.755381    1.445924
  H      4.287030   -2.845149    1.377590
  H      4.452366   -0.487959    2.180251
  H      2.668501   -0.383221    2.210389
  H      1.669988    2.723979   -0.887798
  H      1.007198    3.013805    0.743032
  H      3.949635    2.481447    0.063926
  H      3.272089    4.067340    0.465004
  H      3.320821    2.789840    1.693033
  H     -0.960314   -1.709210   -1.748549
  H      0.437700   -0.960558   -2.599536
  H     -0.176972    0.348007    1.862273
  H     -1.759733    0.561975    2.643735
  H     -0.277031   -0.982982    3.963169
  H     -1.710317   -1.834761    3.367591
  H     -0.156863   -2.051499    2.551294
  H     -5.147562   -0.120234   -0.701904
  H     -4.906331   -1.682889   -1.539170
  H     -5.799775   -2.066580    0.749234
  H     -4.131158   -2.663315    0.659142
  H     -4.479664   -1.112346    1.441090

 Total Charge           Charge          ....    0
 Multiplicity           Mult            ....    1
 Number of Electrons    NEL             ....  202
 Basis Dimension        Dim             ....  539

ORBITAL ENERGIES
----------------

  NO   OCC          E(Eh)            E(eV)
   0   2.0000     -88.578928     -2410.3552
   1   2.0000     -88.574302     -2410.2293
   2   2.0000     -88.524037     -2408.8615
   3   2.0000     -88.521595     -2408.7951
   4   2.0000     -76.918375     -2093.0554
   5   2.0000     -76.914362     -2092.9462
   6   2.0000     -18.999071      -516.9910
   7   2.0000     -18.992760      -516.8193
   8   2.0000     -18.991853      -516.7946
   9   2.0000     -18.990513      -516.7581
  10   2.0000     -10.112325      -275.1703
  11   2.0000     -10.111184      -275.1393
  12   2.0000     -10.100903      -274.8595
  13   2.0000     -10.095919      -274.7239
  14   2.0000     -10.094954      -274.6977
  15   2.0000     -10.040993      -273.2293
  16   2.0000     -10.034874      -273.0628
  17   2.0000     -10.031810      -272.9794
  18   2.0000     -10.029885      -272.9270
  19   2.0000      -7.873768      -214.2561
  20   2.0000      -7.868288      -214.1070
  21   2.0000      -7.818704      -212.7577
  22   2.0000      -7.816203      -212.6897
  23   2.0000      -6.596639      -179.5037
  24   2.0000      -6.592773      -179.3985
  25   2.0000      -5.820597      -158.3865
  26   2.0000      -5.817572      -158.3042
  27   2.0000      -5.815644      -158.2517
  28   2.0000      -5.811853      -158.1486
  29   2.0000      -5.810868      -158.1218
  30   2.0000      -5.805265      -157.9693
  31   2.0000      -5.766513      -156.9148
  32   2.0000      -5.763822      -156.8416
  33   2.0000      -5.758975      -156.7097
  34   2.0000      -5.758565      -156.6985
  35   2.0000      -5.756574      -156.6443
  36   2.0000      -5.756167      -156.6333
  37   2.0000      -4.742530      -129.0508
  38   2.0000      -4.741262      -129.0163
  39   2.0000      -4.740336      -128.9911
  40   2.0000      -4.738100      -128.9303
  41   2.0000      -4.737880      -128.9243
  42   2.0000      -4.736513      -128.8871
  43   2.0000      -1.051769       -28.6201
  44   2.0000      -1.051306       -28.6075
  45   2.0000      -1.012466       -27.5506
  46   2.0000      -1.012027       -27.5386
  47   2.0000      -0.804060       -21.8796
  48   2.0000      -0.763849       -20.7854
  49   2.0000      -0.755029       -20.5454
  50   2.0000      -0.736750       -20.0480
  51   2.0000      -0.735271       -20.0077
  52   2.0000      -0.712302       -19.3827
  53   2.0000      -0.691306       -18.8114
  54   2.0000      -0.671167       -18.2634
  55   2.0000      -0.631353       -17.1800
  56   2.0000      -0.623977       -16.9793
  57   2.0000      -0.616923       -16.7873
  58   2.0000      -0.601128       -16.3575
  59   2.0000      -0.596610       -16.2346
  60   2.0000      -0.532655       -14.4943
  61   2.0000      -0.526907       -14.3379
  62   2.0000      -0.501433       -13.6447
  63   2.0000      -0.497656       -13.5419
  64   2.0000      -0.480623       -13.0784
  65   2.0000      -0.472639       -12.8612
  66   2.0000      -0.458282       -12.4705
  67   2.0000      -0.455129       -12.3847
  68   2.0000      -0.445292       -12.1170
  69   2.0000      -0.435376       -11.8472
  70   2.0000      -0.430281       -11.7085
  71   2.0000      -0.419110       -11.4046
  72   2.0000      -0.418001       -11.3744
  73   2.0000      -0.398241       -10.8367
  74   2.0000      -0.395583       -10.7643
  75   2.0000      -0.394173       -10.7260
  76   2.0000      -0.382115       -10.3979
  77   2.0000      -0.381310       -10.3760
  78   2.0000      -0.378752       -10.3064
  79   2.0000      -0.375622       -10.2212
  80   2.0000      -0.368552       -10.0288
  81   2.0000      -0.363014        -9.8781
  82   2.0000      -0.362709        -9.8698
  83   2.0000      -0.358660        -9.7596
  84   2.0000      -0.349471        -9.5096
  85   2.0000      -0.334247        -9.0953
  86   2.0000      -0.331771        -9.0280
  87   2.0000      -0.322033        -8.7630
  88   2.0000      -0.315494        -8.5850
  89   2.0000      -0.305632        -8.3167
  90   2.0000      -0.298074        -8.1110
  91   2.0000      -0.293395        -7.9837
  92   2.0000      -0.291722        -7.9382
  93   2.0000      -0.285689        -7.7740
  94   2.0000      -0.272614        -7.4182
  95   2.0000      -0.244661        -6.6576
  96   2.0000      -0.231305        -6.2941
  97   2.0000      -0.224332        -6.1044
  98   2.0000      -0.221641        -6.0312
  99   2.0000      -0.217807        -5.9268
 100   2.0000      -0.216277        -5.8852
 101   0.0000      -0.046291        -1.2596
 102   0.0000      -0.018717        -0.5093
 103   0.0000      -0.011792        -0.3209
 104   0.0000       0.000089         0.0024
 105   0.0000       0.005304         0.1443

MULLIKEN ATOMIC CHARGES
-----------------------
   0 C :   -0.423480
   1 C :   -0.164182
   2 O :   -0.286196
   3 P :    0.650367
   4 S :   -0.436083
   5 O :   -0.273874
   6 C :   -0.159272
   7 C :   -0.444224
   8 S :   -0.130090
   9 C :   -0.263093
  10 S :   -0.118748
  11 P :    0.660002
  12 S :   -0.468766
  13 O :   -0.256492
  14 C :   -0.131273
  15 C :   -0.473679
  16 O :   -0.300679
  17 C :   -0.151907
  18 C :   -0.438289
  19 H :    0.149550
  20 H :    0.155026
  21 H :    0.162979
  22 H :    0.157231
  23 H :    0.162623
  24 H :    0.179596
  25 H :    0.159869
  26 H :    0.175538
  27 H :    0.150064
  28 H :    0.145474
  29 H :    0.202330
  30 H :    0.216081
  31 H :    0.171021
  32 H :    0.167220
  33 H :    0.148193
  34 H :    0.151818
  35 H :    0.161393
  36 H :    0.173406
  37 H :    0.149336
  38 H :    0.148228
  39 H :    0.154079
  40 H :    0.168901
Sum of atomic charges:    0.0000000

LOEWDIN ATOMIC CHARGES
----------------------
   0 C :   -0.396871
   1 C :    0.022058
   2 O :   -0.653142
   3 P :    0.374086
   4 S :   -0.090839
   5 O :   -0.724765
   6 C :    0.009064
   7 C :   -0.398723
   8 S :    0.167838
   9 C :   -0.407327
  10 S :    0.198899
  11 P :    0.366950
  12 S :   -0.114834
  13 O :   -0.687370
  14 C :    0.009182
  15 C :   -0.391674
  16 O :   -0.679076
  17 C :    0.024659
  18 C :   -0.400352
  19 H :    0.160462
  20 H :    0.162463
  21 H :    0.164426
  22 H :    0.182113
  23 H :    0.176597
  24 H :    0.183533
  25 H :    0.181864
  26 H :    0.166841
  27 H :    0.161248
  28 H :    0.154916
  29 H :    0.191205
  30 H :    0.193789
  31 H :    0.187826
  32 H :    0.179472
  33 H :    0.158746
  34 H :    0.159494
  35 H :    0.160528
  36 H :    0.180856
  37 H :    0.179967
  38 H :    0.159871
  39 H :    0.160456
  40 H :    0.165567

  Mayer bond orders larger than 0.100000
B(  0-C ,  1-C ) :   0.9580 B(  0-C , 19-H ) :   0.9660 B(  0-C , 20-H ) :   0.9535
B(  0-C , 21-H ) :   0.9702 B(  1-C ,  2-O ) :   0.7483 B(  1-C , 22-H ) :   0.9594
B(  1-C , 23-H ) :   0.9682 B(  2-O ,  3-P ) :   1.1218 B(  3-P ,  4-S ) :   1.8477
B(  3-P ,  5-O ) :   1.0181 B(  3-P ,  8-S ) :   1.0564 B(  5-O ,  6-C ) :   0.7913
B(  6-C ,  7-C ) :   0.9169 B(  6-C , 24-H ) :   0.9591 B(  6-C , 25-H ) :   0.9618
B(  7-C , 26-H ) :   0.9610 B(  7-C , 27-H ) :   0.9622 B(  7-C , 28-H ) :   0.9732
B(  8-S ,  9-C ) :   0.9111 B(  9-C , 10-S ) :   0.9012 B(  9-C , 29-H ) :   0.9187
B(  9-C , 30-H ) :   0.9154 B( 10-S , 11-P ) :   1.0837 B( 11-P , 12-S ) :   1.7947
B( 11-P , 13-O ) :   1.0645 B( 11-P , 16-O ) :   1.1480 B( 13-O , 14-C ) :   0.7512
B( 14-C , 15-C ) :   0.9189 B( 14-C , 31-H ) :   0.9396 B( 14-C , 32-H ) :   0.9380
B( 15-C , 33-H ) :   0.9702 B( 15-C , 34-H ) :   0.9703 B( 15-C , 35-H ) :   0.9754
B( 16-O , 17-C ) :   0.8065 B( 17-C , 18-C ) :   0.9277 B( 17-C , 36-H ) :   0.9660
B( 17-C , 37-H ) :   0.9616 B( 18-C , 38-H ) :   0.9607 B( 18-C , 39-H ) :   0.9708
B( 18-C , 40-H ) :   0.9592

Dispersion correction           -0.021992023
FINAL SINGLE POINT ENERGY     -2932.461933661881

DIPOLE MOMENT
-------------

Method             : SCF
Type of density    : Electron Density
Multiplicity       :   1
Irrep              :   0
Energy             : -2932.4865560724360876 Eh
Relativity type    :
Basis              : AO
                                X                 Y                 Z
Electronic contribution:     -1.470157809       7.004871857     -20.482408484
Nuclear contribution   :      1.502949491      -8.099721285      22.111044327
                        -----------------------------------------
Total Dipole Moment    :      0.032791681      -1.094849428       1.628635843
                        -----------------------------------------
Magnitude (a.u.)       :      1.962708658
Magnitude (Debye)      :      4.988808941

Rotational constants in cm-1:             0.012283             0.005127             0.004778
Rotational constants in MHz :           368.233652           153.702640           143.233054

                             ****ORCA TERMINATED NORMALLY****
TOTAL RUN TIME: 0 days 0 hours 1 minutes 22 seconds 817 msec
