                         Program Version 6.0.0  -   RELEASE  -
|  1> ! r2scan-3c def2/J RI DEFGRID2 scfconv6 printgap
|  2> %output
|  3>     printlevel normal
|  4> end
|  5> %cpcm
|  6>     smd true
|  7>     smdsolvent "water"
|  8> end
|  9> * xyz 0 1
| 10> C 3.4461343659 -2.3803065222 1.8844669135
| 11> C 3.5278624329 -0.8736117567 1.7471553131
| 12> O 3.599158433 -0.4858022228 0.3501840044
| 13> P 2.3504671723 0.0137184868 -0.4837052266
| 14> S 2.8615864742 0.5754012179 -2.2827433446
| 15> O 1.6317828704 1.130142122 0.4247893332
| 16> C 1.811562636 2.5349624039 0.1813110834
| 17> C 3.1799392409 2.9995200755 0.6359047164
| 18> S 0.9247624662 -1.5332339906 -0.324557746
| 19> C -0.1460306755 -0.9931916841 -1.6801827324
| 20> S -0.8226838997 0.6859744766 -1.4798840357
| 21> P -2.3809757403 0.2612125734 -0.1148080778
| 22> S -3.3406088321 1.8211567125 0.5768312048
| 23> O -1.7470608621 -0.6841293387 0.9961227845
| 24> C -1.0930478351 -0.1651734621 2.1688872237
| 25> C -0.7888638264 -1.339985026 3.0757249336
| 26> O -3.2061777852 -0.7767568425 -0.981309796
| 27> C -4.592723824 -1.0635317699 -0.6978347627
| 28> C -4.7605781031 -1.7779835349 0.6261115101
| 29> H 3.4733542241 -2.6412889536 2.9377074634
| 30> H 2.523963234 -2.7553811973 1.4459240727
| 31> H 4.2870304561 -2.8451488186 1.3775899297
| 32> H 4.4523663568 -0.487958507 2.1802514418
| 33> H 2.6685011034 -0.3832214468 2.2103887604
| 34> H 1.6699879311 2.7239794468 -0.8877982812
| 35> H 1.0071980253 3.0138049908 0.7430324018
| 36> H 3.9496350399 2.4814470047 0.0639261213
| 37> H 3.2720890027 4.0673398631 0.4650042106
| 38> H 3.3208213941 2.7898399903 1.6930325587
| 39> H -0.9603136027 -1.709209913 -1.7485490318
| 40> H 0.4377001383 -0.9605578452 -2.599536068
| 41> H -0.1769715687 0.3480067175 1.8622734402
| 42> H -1.7597326323 0.5619749823 2.6437352941
| 43> H -0.2770307632 -0.9829823066 3.9631687288
| 44> H -1.7103171233 -1.834761383 3.3675908
| 45> H -0.156863434 -2.0514989436 2.5512938239
| 46> H -5.1475615253 -0.1202341558 -0.7019042041
| 47> H -4.9063314561 -1.68288882 -1.5391702788
| 48> H -5.7997746241 -2.0665801999 0.7492338889
| 49> H -4.1311580589 -2.6633150234 0.6591424803
| 50> H -4.4796644459 -1.1123464225 1.4410902163
| 51> *
| 52>
| 53>                          ****END OF INPUT****

CARTESIAN COORDINATES (ANGSTROEM)
---------------------------------
  C      3.446134   -2.380307    1.884467
  C      3.527862   -0.873612    1.747155
  O      3.599158   -0.485802    0.350184
  P      2.350467    0.013718   -0.483705
  S      2.861586    0.575401   -2.282743
  O      1.631783    1.130142    0.424789
  C      1.811563    2.534962    0.181311
  C      3.179939    2.999520    0.635905
  S      0.924762   -1.533234   -0.324558
  C     -0.146031   -0.993192   -1.680183
  S     -0.822684    0.685974   -1.479884
  P     -2.380976    0.261213   -0.114808
  S     -3.340609    1.821157    0.576831
  O     -1.747061   -0.684129    0.996123
  C     -1.093048   -0.165173    2.168887
  C     -0.788864   -1.339985    3.075725
  O     -3.206178   -0.776757   -0.981310
  C     -4.592724   -1.063532   -0.697835
  C     -4.760578   -1.777984    0.626112
  H      3.473354   -2.641289    2.937707
  H      2.523963   -2.755381    1.445924
  H      4.287030   -2.845149    1.377590
  H      4.452366   -0.487959    2.180251
  H      2.668501   -0.383221    2.210389
  H      1.669988    2.723979   -0.887798
  H      1.007198    3.013805    0.743032
  H      3.949635    2.481447    0.063926
  H      3.272089    4.067340    0.465004
  H      3.320821    2.789840    1.693033
  H     -0.960314   -1.709210   -1.748549
  H      0.437700   -0.960558   -2.599536
  H     -0.176972    0.348007    1.862273
  H     -1.759733    0.561975    2.643735
  H     -0.277031   -0.982982    3.963169
  H     -1.710317   -1.834761    3.367591
  H     -0.156863   -2.051499    2.551294
  H     -5.147562   -0.120234   -0.701904
  H     -4.906331   -1.682889   -1.539170
  H     -5.799775   -2.066580    0.749234
  H     -4.131158   -2.663315    0.659142
  H     -4.479664   -1.112346    1.441090

 Total Charge           Charge          ....    0
 Multiplicity           Mult            ....    1
 Number of Electrons    NEL             ....  202
 Basis Dimension        Dim             ....  539

ORBITAL ENERGIES
----------------

  NO   OCC          E(Eh)            E(eV)
   0   2.0000     -88.578795     -2410.3515
   1   2.0000     -88.578145     -2410.3339
   2   2.0000     -88.531187     -2409.0561
   3   2.0000     -88.530073     -2409.0258
   4   2.0000     -76.920572     -2093.1152
   5   2.0000     -76.919225     -2093.0785
   6   2.0000     -18.996964      -516.9337
   7   2.0000     -18.993552      -516.8408
   8   2.0000     -18.992712      -516.8180
   9   2.0000     -18.988220      -516.6957
  10   2.0000     -10.107444      -275.0375
  11   2.0000     -10.093917      -274.6694
  12   2.0000     -10.090125      -274.5663
  13   2.0000     -10.086630      -274.4711
  14   2.0000     -10.086390      -274.4646
  15   2.0000     -10.021421      -272.6967
  16   2.0000     -10.018867      -272.6272
  17   2.0000     -10.018655      -272.6215
  18   2.0000     -10.017781      -272.5977
  19   2.0000      -7.873509      -214.2491
  20   2.0000      -7.872282      -214.2157
  21   2.0000      -7.826263      -212.9634
  22   2.0000      -7.825047      -212.9304
  23   2.0000      -6.598868      -179.5643
  24   2.0000      -6.597674      -179.5318
  25   2.0000      -5.820346      -158.3797
  26   2.0000      -5.819558      -158.3582
  27   2.0000      -5.817312      -158.2971
  28   2.0000      -5.815783      -158.2555
  29   2.0000      -5.810623      -158.1151
  30   2.0000      -5.809388      -158.0815
  31   2.0000      -5.773938      -157.1168
  32   2.0000      -5.772565      -157.0795
  33   2.0000      -5.766488      -156.9141
  34   2.0000      -5.766225      -156.9070
  35   2.0000      -5.765398      -156.8845
  36   2.0000      -5.765066      -156.8754
  37   2.0000      -4.744701      -129.1099
  38   2.0000      -4.743435      -129.0754
  39   2.0000      -4.742950      -129.0622
  40   2.0000      -4.742743      -129.0566
  41   2.0000      -4.742725      -129.0561
  42   2.0000      -4.741544      -129.0240
  43   2.0000      -1.052045       -28.6276
  44   2.0000      -1.048940       -28.5431
  45   2.0000      -1.012123       -27.5413
  46   2.0000      -1.009121       -27.4596
  47   2.0000      -0.803361       -21.8606
  48   2.0000      -0.758132       -20.6298
  49   2.0000      -0.744826       -20.2677
  50   2.0000      -0.725834       -19.7509
  51   2.0000      -0.724243       -19.7077
  52   2.0000      -0.708854       -19.2889
  53   2.0000      -0.692909       -18.8550
  54   2.0000      -0.675852       -18.3909
  55   2.0000      -0.627289       -17.0694
  56   2.0000      -0.618169       -16.8212
  57   2.0000      -0.604690       -16.4545
  58   2.0000      -0.593167       -16.1409
  59   2.0000      -0.590719       -16.0743
  60   2.0000      -0.527385       -14.3509
  61   2.0000      -0.519424       -14.1342
  62   2.0000      -0.495493       -13.4831
  63   2.0000      -0.491769       -13.3817
  64   2.0000      -0.477035       -12.9808
  65   2.0000      -0.463564       -12.6142
  66   2.0000      -0.449149       -12.2220
  67   2.0000      -0.447148       -12.1675
  68   2.0000      -0.438439       -11.9305
  69   2.0000      -0.434743       -11.8299
  70   2.0000      -0.422490       -11.4966
  71   2.0000      -0.412080       -11.2133
  72   2.0000      -0.409947       -11.1552
  73   2.0000      -0.394317       -10.7299
  74   2.0000      -0.390553       -10.6275
  75   2.0000      -0.386503       -10.5173
  76   2.0000      -0.378062       -10.2876
  77   2.0000      -0.373788       -10.1713
  78   2.0000      -0.364568        -9.9204
  79   2.0000      -0.360786        -9.8175
  80   2.0000      -0.357836        -9.7372
  81   2.0000      -0.352969        -9.6048
  82   2.0000      -0.351738        -9.5713
  83   2.0000      -0.349641        -9.5142
  84   2.0000      -0.345401        -9.3988
  85   2.0000      -0.327999        -8.9253
  86   2.0000      -0.322962        -8.7882
  87   2.0000      -0.311916        -8.4877
  88   2.0000      -0.309999        -8.4355
  89   2.0000      -0.301959        -8.2167
  90   2.0000      -0.293942        -7.9986
  91   2.0000      -0.289570        -7.8796
  92   2.0000      -0.287551        -7.8247
  93   2.0000      -0.281538        -7.6610
  94   2.0000      -0.271262        -7.3814
  95   2.0000      -0.246778        -6.7152
  96   2.0000      -0.237071        -6.4510
  97   2.0000      -0.233532        -6.3547
  98   2.0000      -0.231133        -6.2895
  99   2.0000      -0.224685        -6.1140
 100   2.0000      -0.222740        -6.0611
 101   0.0000      -0.047712        -1.2983
 102   0.0000      -0.024168        -0.6577
 103   0.0000      -0.014976        -0.4075
 104   0.0000       0.001353         0.0368
 105   0.0000       0.003785         0.1030

MULLIKEN ATOMIC CHARGES
-----------------------
   0 C :   -0.461967
   1 C :   -0.155976
   2 O :   -0.319257
   3 P :    0.664461
   4 S :   -0.501400
   5 O :   -0.278708
   6 C :   -0.149493
   7 C :   -0.481357
   8 S :   -0.127137
   9 C :   -0.269215
  10 S :   -0.153650
  11 P :    0.683214
  12 S :   -0.525345
  13 O :   -0.274734
  14 C :   -0.117912
  15 C :   -0.504086
  16 O :   -0.322416
  17 C :   -0.142983
  18 C :   -0.478235
  19 H :    0.175127
  20 H :    0.156152
  21 H :    0.171867
  22 H :    0.180914
  23 H :    0.183516
  24 H :    0.176191
  25 H :    0.178215
  26 H :    0.168772
  27 H :    0.170416
  28 H :    0.167778
  29 H :    0.236288
  30 H :    0.235428
  31 H :    0.178714
  32 H :    0.169267
  33 H :    0.172638
  34 H :    0.164433
  35 H :    0.168024
  36 H :    0.176021
  37 H :    0.175753
  38 H :    0.172679
  39 H :    0.169631
  40 H :    0.168373
Sum of atomic charges:   -0.0000000

LOEWDIN ATOMIC CHARGES
----------------------
   0 C :   -0.399227
   1 C :    0.030761
   2 O :   -0.672563
   3 P :    0.376251
   4 S :   -0.139171
   5 O :   -0.722244
   6 C :    0.011978
   7 C :   -0.401430
   8 S :    0.176253
   9 C :   -0.400094
  10 S :    0.177991
  11 P :    0.370405
  12 S :   -0.154984
  13 O :   -0.693118
  14 C :    0.015290
  15 C :   -0.392508
  16 O :   -0.687452
  17 C :    0.029394
  18 C :   -0.402990
  19 H :    0.171139
  20 H :    0.160907
  21 H :    0.165352
  22 H :    0.192545
  23 H :    0.185589
  24 H :    0.181169
  25 H :    0.189071
  26 H :    0.162749
  27 H :    0.167917
  28 H :    0.162854
  29 H :    0.203475
  30 H :    0.199732
  31 H :    0.190356
  32 H :    0.181152
  33 H :    0.168978
  34 H :    0.162607
  35 H :    0.162639
  36 H :    0.181493
  37 H :    0.191175
  38 H :    0.169056
  39 H :    0.164518
  40 H :    0.162984

  Mayer bond orders larger than 0.100000
B(  0-C ,  1-C ) :   0.9457 B(  0-C , 19-H ) :   0.9592 B(  0-C , 20-H ) :   0.9530
B(  0-C , 21-H ) :   0.9699 B(  1-C ,  2-O ) :   0.7384 B(  1-C , 22-H ) :   0.9495
B(  1-C , 23-H ) :   0.9575 B(  2-O ,  3-P ) :   1.1298 B(  3-P ,  4-S ) :   1.8115
B(  3-P ,  5-O ) :   1.0298 B(  3-P ,  8-S ) :   1.0739 B(  5-O ,  6-C ) :   0.7764
B(  6-C ,  7-C ) :   0.9170 B(  6-C , 24-H ) :   0.9574 B(  6-C , 25-H ) :   0.9530
B(  7-C , 26-H ) :   0.9627 B(  7-C , 27-H ) :   0.9580 B(  7-C , 28-H ) :   0.9686
B(  8-S ,  9-C ) :   0.9025 B(  9-C , 10-S ) :   0.8936 B(  9-C , 29-H ) :   0.9076
B(  9-C , 30-H ) :   0.9078 B( 10-S , 11-P ) :   1.0981 B( 11-P , 12-S ) :   1.7611
B( 11-P , 13-O ) :   1.0744 B( 11-P , 16-O ) :   1.1550 B( 13-O , 14-C ) :   0.7459
B( 14-C , 15-C ) :   0.9223 B( 14-C , 31-H ) :   0.9327 B( 14-C , 32-H ) :   0.9347
B( 15-C , 33-H ) :   0.9620 B( 15-C , 34-H ) :   0.9692 B( 15-C , 35-H ) :   0.9709
B( 16-O , 17-C ) :   0.7948 B( 17-C , 18-C ) :   0.9167 B( 17-C , 36-H ) :   0.9620
B( 17-C , 37-H ) :   0.9510 B( 18-C , 38-H ) :   0.9548 B( 18-C , 39-H ) :   0.9696
B( 18-C , 40-H ) :   0.9583

Dispersion correction           -0.021992023
FINAL SINGLE POINT ENERGY     -2932.472763568454

DIPOLE MOMENT
-------------

Method             : SCF
Type of density    : Electron Density
Multiplicity       :   1
Irrep              :   0
Energy             : -2932.4973859790084134 Eh
Relativity type    :
Basis              : AO
                                X                 Y                 Z
Electronic contribution:     -1.575446534       6.551844805     -19.740086785
Nuclear contribution   :      1.502949491      -8.099721285      22.111044327
                        -----------------------------------------
Total Dipole Moment    :     -0.072497044      -1.547876480       2.370957542
                        -----------------------------------------
Magnitude (a.u.)       :      2.832422476
Magnitude (Debye)      :      7.199445786

Rotational constants in cm-1:             0.012283             0.005127             0.004778
Rotational constants in MHz :           368.233652           153.702640           143.233054

                             ****ORCA TERMINATED NORMALLY****
TOTAL RUN TIME: 0 days 0 hours 1 minutes 59 seconds 578 msec
