                         Program Version 6.0.0  -   RELEASE  -
|  1> ! pbe def2-sv(p) def2/J RI DEFGRID1 loosescf d4 GCP(DFT/SV(P)) printgap
|  2> %output
|  3>     printlevel normal
|  4> end
|  5> * xyz 0 1
|  6> C 3.2015129001 0.1449911508 3.3283441351
|  7> C 1.8745833105 -0.3391956842 2.7836932973
|  8> O 1.5871820839 0.2437193913 1.4937590651
|  9> P 2.3656419795 -0.193897004 0.1860345359
| 10> S 2.9808681903 -2.0590128289 0.1447218347
| 11> O 3.5093297563 0.9045094731 0.0989058185
| 12> C 4.6624778785 0.7520754295 -0.7464464171
| 13> C 4.3062410759 0.8332707784 -2.216833347
| 14> S 0.9603818783 0.3762867263 -1.2867537465
| 15> C -0.0656147754 -1.1130046763 -1.141453332
| 16> S -1.1646484612 -1.0762776454 0.2896319625
| 17> P -2.5267627426 0.3609750797 -0.516352266
| 18> S -2.8891274676 0.12707735 -2.426581525
| 19> O -1.9276166664 1.7903830895 -0.2185516289
| 20> C -2.055076504 2.5323482189 1.0181648475
| 21> C -1.3761868466 1.8405980166 2.1808328952
| 22> O -3.7874324013 0.3059568307 0.4473168427
| 23> C -4.8822578598 -0.6048980314 0.2342475979
| 24> C -4.4745589311 -2.0514145356 0.4220927369
| 25> H 3.2290442733 1.2312718513 3.3420515577
| 26> H 3.3366694639 -0.2343483112 4.3362926301
| 27> H 4.0140772711 -0.2194187309 2.701040737
| 28> H 1.0375613143 -0.0259759727 3.4087345615
| 29> H 1.8704379532 -1.4287295854 2.6790241045
| 30> H 5.318825854 1.5694917015 -0.4449032727
| 31> H 5.1338479491 -0.2095661099 -0.5187945784
| 32> H 5.2157696297 0.8314243803 -2.8089800776
| 33> H 3.6976804732 -0.0242889267 -2.5017626616
| 34> H 3.7437807613 1.7412220896 -2.4203461367
| 35> H 0.5791751288 -1.9859694096 -1.0333879105
| 36> H -0.6653692247 -1.172060263 -2.0506949096
| 37> H -1.5791394674 3.4859290819 0.7837127537
| 38> H -3.1177482901 2.6836348358 1.2174850974
| 39> H -0.3345615688 1.6412788448 1.9407095001
| 40> H -1.4261569952 2.4836733168 3.0540765031
| 41> H -1.8746636856 0.8982948564 2.4012932153
| 42> H -5.6222535294 -0.2952047069 0.9737261473
| 43> H -5.2722393767 -0.443960641 -0.7754325313
| 44> H -5.3581228708 -2.6798496629 0.3766385661
| 45> H -3.788857701 -2.3511866604 -0.3689950934
| 46> H -3.9828073255 -2.1876157304 1.3820324105
| 47> *
| 48>
| 49>                          ****END OF INPUT****

CARTESIAN COORDINATES (ANGSTROEM)
---------------------------------
  C      3.201513    0.144991    3.328344
  C      1.874583   -0.339196    2.783693
  O      1.587182    0.243719    1.493759
  P      2.365642   -0.193897    0.186035
  S      2.980868   -2.059013    0.144722
  O      3.509330    0.904509    0.098906
  C      4.662478    0.752075   -0.746446
  C      4.306241    0.833271   -2.216833
  S      0.960382    0.376287   -1.286754
  C     -0.065615   -1.113005   -1.141453
  S     -1.164648   -1.076278    0.289632
  P     -2.526763    0.360975   -0.516352
  S     -2.889127    0.127077   -2.426582
  O     -1.927617    1.790383   -0.218552
  C     -2.055077    2.532348    1.018165
  C     -1.376187    1.840598    2.180833
  O     -3.787432    0.305957    0.447317
  C     -4.882258   -0.604898    0.234248
  C     -4.474559   -2.051415    0.422093
  H      3.229044    1.231272    3.342052
  H      3.336669   -0.234348    4.336293
  H      4.014077   -0.219419    2.701041
  H      1.037561   -0.025976    3.408735
  H      1.870438   -1.428730    2.679024
  H      5.318826    1.569492   -0.444903
  H      5.133848   -0.209566   -0.518795
  H      5.215770    0.831424   -2.808980
  H      3.697680   -0.024289   -2.501763
  H      3.743781    1.741222   -2.420346
  H      0.579175   -1.985969   -1.033388
  H     -0.665369   -1.172060   -2.050695
  H     -1.579139    3.485929    0.783713
  H     -3.117748    2.683635    1.217485
  H     -0.334562    1.641279    1.940710
  H     -1.426157    2.483673    3.054077
  H     -1.874664    0.898295    2.401293
  H     -5.622254   -0.295205    0.973726
  H     -5.272239   -0.443961   -0.775433
  H     -5.358123   -2.679850    0.376639
  H     -3.788858   -2.351187   -0.368995
  H     -3.982807   -2.187616    1.382032

 Total Charge           Charge          ....    0
 Multiplicity           Mult            ....    1
 Number of Electrons    NEL             ....  202
 Basis Dimension        Dim             ....  334

ORBITAL ENERGIES
----------------

  NO   OCC          E(Eh)            E(eV)
   0   2.0000     -88.040100     -2395.6929
   1   2.0000     -88.038273     -2395.6432
   2   2.0000     -87.991824     -2394.3792
   3   2.0000     -87.983991     -2394.1661
   4   2.0000     -76.428376     -2079.7218
   5   2.0000     -76.426564     -2079.6725
   6   2.0000     -18.799823      -511.5692
   7   2.0000     -18.797472      -511.5052
   8   2.0000     -18.793856      -511.4068
   9   2.0000     -18.787861      -511.2437
  10   2.0000      -9.956841      -270.9394
  11   2.0000      -9.955260      -270.8964
  12   2.0000      -9.954261      -270.8692
  13   2.0000      -9.953350      -270.8444
  14   2.0000      -9.948418      -270.7102
  15   2.0000      -9.886777      -269.0329
  16   2.0000      -9.885725      -269.0043
  17   2.0000      -9.885144      -268.9885
  18   2.0000      -9.882965      -268.9291
  19   2.0000      -7.685329      -209.1284
  20   2.0000      -7.683183      -209.0700
  21   2.0000      -7.636678      -207.8046
  22   2.0000      -7.629262      -207.6028
  23   2.0000      -6.426202      -174.8659
  24   2.0000      -6.423900      -174.8032
  25   2.0000      -5.713148      -155.4627
  26   2.0000      -5.710883      -155.4010
  27   2.0000      -5.710024      -155.3777
  28   2.0000      -5.707928      -155.3206
  29   2.0000      -5.702134      -155.1630
  30   2.0000      -5.700121      -155.1082
  31   2.0000      -5.665418      -154.1639
  32   2.0000      -5.658209      -153.9677
  33   2.0000      -5.657360      -153.9446
  34   2.0000      -5.656993      -153.9346
  35   2.0000      -5.649988      -153.7440
  36   2.0000      -5.649247      -153.7238
  37   2.0000      -4.648668      -126.4967
  38   2.0000      -4.647915      -126.4762
  39   2.0000      -4.647106      -126.4542
  40   2.0000      -4.646736      -126.4441
  41   2.0000      -4.645297      -126.4050
  42   2.0000      -4.644146      -126.3736
  43   2.0000      -0.990712       -26.9587
  44   2.0000      -0.989872       -26.9358
  45   2.0000      -0.950206       -25.8564
  46   2.0000      -0.944918       -25.7125
  47   2.0000      -0.762660       -20.7530
  48   2.0000      -0.721844       -19.6424
  49   2.0000      -0.709402       -19.3038
  50   2.0000      -0.691766       -18.8239
  51   2.0000      -0.689430       -18.7603
  52   2.0000      -0.676857       -18.4182
  53   2.0000      -0.651987       -17.7415
  54   2.0000      -0.636030       -17.3073
  55   2.0000      -0.604506       -16.4495
  56   2.0000      -0.595734       -16.2107
  57   2.0000      -0.579364       -15.7653
  58   2.0000      -0.574713       -15.6387
  59   2.0000      -0.555206       -15.1079
  60   2.0000      -0.497573       -13.5397
  61   2.0000      -0.495327       -13.4785
  62   2.0000      -0.477058       -12.9814
  63   2.0000      -0.471456       -12.8290
  64   2.0000      -0.459924       -12.5152
  65   2.0000      -0.449350       -12.2274
  66   2.0000      -0.442324       -12.0362
  67   2.0000      -0.438472       -11.9314
  68   2.0000      -0.425662       -11.5829
  69   2.0000      -0.423343       -11.5198
  70   2.0000      -0.410888       -11.1808
  71   2.0000      -0.399529       -10.8717
  72   2.0000      -0.395694       -10.7674
  73   2.0000      -0.389028       -10.5860
  74   2.0000      -0.379880       -10.3371
  75   2.0000      -0.372780       -10.1439
  76   2.0000      -0.368382       -10.0242
  77   2.0000      -0.360049        -9.7974
  78   2.0000      -0.356123        -9.6906
  79   2.0000      -0.353738        -9.6257
  80   2.0000      -0.351368        -9.5612
  81   2.0000      -0.345706        -9.4071
  82   2.0000      -0.341976        -9.3057
  83   2.0000      -0.338076        -9.1995
  84   2.0000      -0.336608        -9.1596
  85   2.0000      -0.323467        -8.8020
  86   2.0000      -0.310753        -8.4560
  87   2.0000      -0.298449        -8.1212
  88   2.0000      -0.297363        -8.0917
  89   2.0000      -0.295199        -8.0328
  90   2.0000      -0.285943        -7.7809
  91   2.0000      -0.278391        -7.5754
  92   2.0000      -0.272151        -7.4056
  93   2.0000      -0.266712        -7.2576
  94   2.0000      -0.255678        -6.9574
  95   2.0000      -0.232447        -6.3252
  96   2.0000      -0.219074        -5.9613
  97   2.0000      -0.214009        -5.8235
  98   2.0000      -0.205181        -5.5833
  99   2.0000      -0.203302        -5.5321
 100   2.0000      -0.195497        -5.3197
 101   0.0000      -0.044074        -1.1993
 102   0.0000      -0.024420        -0.6645
 103   0.0000      -0.003223        -0.0877
 104   0.0000      -0.002037        -0.0554
 105   0.0000       0.018131         0.4934

MULLIKEN ATOMIC CHARGES
-----------------------
   0 C :   -0.303793
   1 C :   -0.005225
   2 O :   -0.357496
   3 P :    0.609404
   4 S :   -0.336933
   5 O :   -0.371136
   6 C :   -0.006017
   7 C :   -0.317811
   8 S :   -0.054611
   9 C :   -0.383016
  10 S :   -0.090303
  11 P :    0.618054
  12 S :   -0.319674
  13 O :   -0.356689
  14 C :    0.014470
  15 C :   -0.356762
  16 O :   -0.386901
  17 C :   -0.001565
  18 C :   -0.317674
  19 H :    0.116113
  20 H :    0.112741
  21 H :    0.121381
  22 H :    0.107502
  23 H :    0.113603
  24 H :    0.106662
  25 H :    0.111747
  26 H :    0.114807
  27 H :    0.130160
  28 H :    0.121070
  29 H :    0.189432
  30 H :    0.197130
  31 H :    0.109262
  32 H :    0.106090
  33 H :    0.157782
  34 H :    0.107232
  35 H :    0.117608
  36 H :    0.104877
  37 H :    0.115496
  38 H :    0.114885
  39 H :    0.131565
  40 H :    0.116532
Sum of atomic charges:   -0.0000000

LOEWDIN ATOMIC CHARGES
----------------------
   0 C :   -0.362891
   1 C :   -0.118192
   2 O :   -0.234535
   3 P :    0.575206
   4 S :   -0.323828
   5 O :   -0.242384
   6 C :   -0.118808
   7 C :   -0.369307
   8 S :    0.100893
   9 C :   -0.492903
  10 S :    0.079077
  11 P :    0.576935
  12 S :   -0.313113
  13 O :   -0.236978
  14 C :   -0.105204
  15 C :   -0.377319
  16 O :   -0.246518
  17 C :   -0.115769
  18 C :   -0.370822
  19 H :    0.126351
  20 H :    0.130727
  21 H :    0.122799
  22 H :    0.117130
  23 H :    0.110588
  24 H :    0.119332
  25 H :    0.110845
  26 H :    0.132096
  27 H :    0.122822
  28 H :    0.126061
  29 H :    0.127365
  30 H :    0.128179
  31 H :    0.122693
  32 H :    0.112565
  33 H :    0.131372
  34 H :    0.128155
  35 H :    0.116011
  36 H :    0.118482
  37 H :    0.114259
  38 H :    0.132253
  39 H :    0.123069
  40 H :    0.123306

  Mayer bond orders larger than 0.100000
B(  0-C ,  1-C ) :   1.1642 B(  0-C , 19-H ) :   0.9469 B(  0-C , 20-H ) :   0.9395
B(  0-C , 21-H ) :   0.9377 B(  1-C ,  2-O ) :   0.8961 B(  1-C , 22-H ) :   0.9313
B(  1-C , 23-H ) :   0.9145 B(  2-O ,  3-P ) :   1.1174 B(  3-P ,  4-S ) :   1.5834
B(  3-P ,  5-O ) :   1.1136 B(  3-P ,  8-S ) :   0.9758 B(  4-S ,  8-S ) :   0.1093
B(  5-O ,  6-C ) :   0.9059 B(  6-C ,  7-C ) :   1.1660 B(  6-C , 24-H ) :   0.9336
B(  6-C , 25-H ) :   0.9163 B(  7-C , 26-H ) :   0.9378 B(  7-C , 27-H ) :   0.9350
B(  7-C , 28-H ) :   0.9447 B(  8-S ,  9-C ) :   1.0019 B(  9-C , 10-S ) :   1.0089
B(  9-C , 29-H ) :   0.8683 B(  9-C , 30-H ) :   0.8648 B( 10-S , 11-P ) :   0.9415
B( 10-S , 12-S ) :   0.1125 B( 11-P , 12-S ) :   1.6294 B( 11-P , 13-O ) :   1.1402
B( 11-P , 16-O ) :   1.0788 B( 13-O , 14-C ) :   0.8998 B( 14-C , 15-C ) :   1.1707
B( 14-C , 31-H ) :   0.9337 B( 14-C , 32-H ) :   0.9285 B( 15-C , 33-H ) :   0.9192
B( 15-C , 34-H ) :   0.9350 B( 15-C , 35-H ) :   0.9399 B( 16-O , 17-C ) :   0.9015
B( 17-C , 18-C ) :   1.1669 B( 17-C , 36-H ) :   0.9341 B( 17-C , 37-H ) :   0.9177
B( 18-C , 38-H ) :   0.9366 B( 18-C , 39-H ) :   0.9330 B( 18-C , 40-H ) :   0.9445

Dispersion correction           -0.065643277
FINAL SINGLE POINT ENERGY     -2929.521598941671

DIPOLE MOMENT
-------------

Method             : SCF
Type of density    : Electron Density
Multiplicity       :   1
Irrep              :   0
Energy             : -2929.6419550990017342 Eh
Relativity type    :
Basis              : AO
                                X                 Y                 Z
Electronic contribution:     -3.977566772      -2.507792260     -13.616407670
Nuclear contribution   :      4.036115838       3.078470283      15.121488902
                        -----------------------------------------
Total Dipole Moment    :      0.058549066       0.570678023       1.505081233
                        -----------------------------------------
Magnitude (a.u.)       :      1.610705099
Magnitude (Debye)      :      4.094086999

Rotational constants in cm-1:             0.013146             0.004689             0.004382
Rotational constants in MHz :           394.092269           140.581164           131.380523

                             ****ORCA TERMINATED NORMALLY****
TOTAL RUN TIME: 0 days 0 hours 0 minutes 21 seconds 168 msec
