                         Program Version 6.0.1  -  RELEASE   -
|  1> ! pbe def2-sv(p) def2/J RI DEFGRID1 loosescf d4 GCP(DFT/SV(P)) printgap
|  2> %output
|  3>     printlevel normal
|  4> end
|  5> * xyz 0 1
|  6> C 3.7975271736 -3.6420838787 -0.2804698118
|  7> C 4.3602094729 -2.3769324105 -0.9083100172
|  8> O 3.3657444969 -1.7250500075 -1.7245037227
|  9> C 2.5169066672 -0.9075102378 -1.1438631183
| 10> O 2.5225774074 -0.6262546496 0.0368461996
| 11> C 1.5290767129 -0.3220934209 -2.1314476445
| 12> C 0.380309578 0.3267749302 -1.3710372779
| 13> H -0.2539628284 0.9061208204 -2.0494746928
| 14> C 0.9340307557 1.2857297278 -0.3274044257
| 15> O 1.7795419701 2.1069617782 -0.6000860279
| 16> O 0.327852028 1.1733891944 0.8359605578
| 17> C 0.7479520457 2.0238885442 1.9221286688
| 18> C 1.6958628697 1.2699297335 2.8387813864
| 19> S -0.6659729393 -0.9638031817 -0.6054779216
| 20> P -2.1445338276 0.2986077725 0.1935861096
| 21> S -2.3967991831 2.1171568766 -0.4838143113
| 22> O -3.365534841 -0.6934435086 -0.1611094985
| 23> C -4.7188872606 -0.2860732537 0.0761456425
| 24> O -2.0722710834 0.2844148515 1.7898154718
| 25> C -1.8070392444 -0.9354008324 2.5039293871
| 26> H 2.9805017389 -3.3929411432 0.3928294622
| 27> H 3.4270790807 -4.309697162 -1.0531541404
| 28> H 4.5794165603 -4.14192039 0.2815761227
| 29> H 5.1732137912 -2.6004918512 -1.5988399017
| 30> H 4.6949355508 -1.6756552846 -0.1387807128
| 31> H 1.173372979 -1.1004368958 -2.8048608043
| 32> H 2.051744847 0.4408321889 -2.7130975883
| 33> H 1.2282832958 2.906851718 1.4915362848
| 34> H -0.1755980967 2.3068167464 2.4305474565
| 35> H 2.5346511375 0.8882411454 2.2606923039
| 36> H 2.0630207564 1.943741262 3.6054649857
| 37> H 1.1861540807 0.4333395472 3.3076729414
| 38> H -5.3376253254 -1.069232149 -0.3540810667
| 39> H -4.9127271163 0.6686606574 -0.4155312803
| 40> H -4.907237241 -0.1880294834 1.1457107703
| 41> H -0.7498117958 -1.1847847549 2.4165882932
| 42> H -2.4094599094 -1.7519837566 2.1051233931
| 43> H -2.0705821804 -0.7284448074 3.5380405784
| 44> *
| 45>
| 46>                          ****END OF INPUT****

CARTESIAN COORDINATES (ANGSTROEM)
---------------------------------
  C      3.797527   -3.642084   -0.280470
  C      4.360209   -2.376932   -0.908310
  O      3.365744   -1.725050   -1.724504
  C      2.516907   -0.907510   -1.143863
  O      2.522577   -0.626255    0.036846
  C      1.529077   -0.322093   -2.131448
  C      0.380310    0.326775   -1.371037
  H     -0.253963    0.906121   -2.049475
  C      0.934031    1.285730   -0.327404
  O      1.779542    2.106962   -0.600086
  O      0.327852    1.173389    0.835961
  C      0.747952    2.023889    1.922129
  C      1.695863    1.269930    2.838781
  S     -0.665973   -0.963803   -0.605478
  P     -2.144534    0.298608    0.193586
  S     -2.396799    2.117157   -0.483814
  O     -3.365535   -0.693444   -0.161109
  C     -4.718887   -0.286073    0.076146
  O     -2.072271    0.284415    1.789815
  C     -1.807039   -0.935401    2.503929
  H      2.980502   -3.392941    0.392829
  H      3.427079   -4.309697   -1.053154
  H      4.579417   -4.141920    0.281576
  H      5.173214   -2.600492   -1.598840
  H      4.694936   -1.675655   -0.138781
  H      1.173373   -1.100437   -2.804861
  H      2.051745    0.440832   -2.713098
  H      1.228283    2.906852    1.491536
  H     -0.175598    2.306817    2.430547
  H      2.534651    0.888241    2.260692
  H      2.063021    1.943741    3.605465
  H      1.186154    0.433340    3.307673
  H     -5.337625   -1.069232   -0.354081
  H     -4.912727    0.668661   -0.415531
  H     -4.907237   -0.188029    1.145711
  H     -0.749812   -1.184785    2.416588
  H     -2.409460   -1.751984    2.105123
  H     -2.070582   -0.728445    3.538041

 Total Charge           Charge          ....    0
 Multiplicity           Mult            ....    1
 Number of Electrons    NEL             ....  174
 Basis Dimension        Dim             ....  316

ORBITAL ENERGIES
----------------

  NO   OCC          E(Eh)            E(eV)
   0   2.0000     -88.036737     -2395.6014
   1   2.0000     -87.978530     -2394.0175
   2   2.0000     -76.420865     -2079.5175
   3   2.0000     -18.812444      -511.9126
   4   2.0000     -18.798224      -511.5257
   5   2.0000     -18.791216      -511.3350
   6   2.0000     -18.784582      -511.1545
   7   2.0000     -18.753328      -510.3040
   8   2.0000     -18.725734      -509.5531
   9   2.0000     -10.021203      -272.6908
  10   2.0000     -10.008055      -272.3330
  11   2.0000      -9.956426      -270.9281
  12   2.0000      -9.949419      -270.7375
  13   2.0000      -9.943981      -270.5895
  14   2.0000      -9.941112      -270.5114
  15   2.0000      -9.936093      -270.3748
  16   2.0000      -9.918936      -269.9080
  17   2.0000      -9.894226      -269.2356
  18   2.0000      -9.877505      -268.7806
  19   2.0000      -7.681819      -209.0329
  20   2.0000      -7.623847      -207.4554
  21   2.0000      -6.418219      -174.6486
  22   2.0000      -5.709679      -155.3683
  23   2.0000      -5.706720      -155.2878
  24   2.0000      -5.698371      -155.0606
  25   2.0000      -5.653096      -153.8286
  26   2.0000      -5.644610      -153.5976
  27   2.0000      -5.643480      -153.5669
  28   2.0000      -4.641116      -126.2912
  29   2.0000      -4.639913      -126.2585
  30   2.0000      -4.638595      -126.2226
  31   2.0000      -1.022510       -27.8239
  32   2.0000      -1.004579       -27.3360
  33   2.0000      -0.979313       -26.6485
  34   2.0000      -0.936766       -25.4907
  35   2.0000      -0.929531       -25.2938
  36   2.0000      -0.908173       -24.7126
  37   2.0000      -0.765121       -20.8200
  38   2.0000      -0.720197       -19.5976
  39   2.0000      -0.697443       -18.9784
  40   2.0000      -0.692527       -18.8446
  41   2.0000      -0.659020       -17.9328
  42   2.0000      -0.637287       -17.3415
  43   2.0000      -0.617094       -16.7920
  44   2.0000      -0.612235       -16.6598
  45   2.0000      -0.598237       -16.2788
  46   2.0000      -0.561521       -15.2798
  47   2.0000      -0.512712       -13.9516
  48   2.0000      -0.507490       -13.8095
  49   2.0000      -0.492853       -13.4112
  50   2.0000      -0.481675       -13.1071
  51   2.0000      -0.473448       -12.8832
  52   2.0000      -0.462935       -12.5971
  53   2.0000      -0.444875       -12.1057
  54   2.0000      -0.439983       -11.9726
  55   2.0000      -0.430595       -11.7171
  56   2.0000      -0.425889       -11.5890
  57   2.0000      -0.423477       -11.5234
  58   2.0000      -0.413398       -11.2491
  59   2.0000      -0.404967       -11.0197
  60   2.0000      -0.401604       -10.9282
  61   2.0000      -0.394470       -10.7341
  62   2.0000      -0.393287       -10.7019
  63   2.0000      -0.379440       -10.3251
  64   2.0000      -0.375062       -10.2060
  65   2.0000      -0.367515       -10.0006
  66   2.0000      -0.363656        -9.8956
  67   2.0000      -0.350362        -9.5338
  68   2.0000      -0.347983        -9.4691
  69   2.0000      -0.336131        -9.1466
  70   2.0000      -0.331444        -9.0190
  71   2.0000      -0.325659        -8.8616
  72   2.0000      -0.324774        -8.8376
  73   2.0000      -0.317576        -8.6417
  74   2.0000      -0.312454        -8.5023
  75   2.0000      -0.302967        -8.2442
  76   2.0000      -0.287610        -7.8263
  77   2.0000      -0.277927        -7.5628
  78   2.0000      -0.272719        -7.4211
  79   2.0000      -0.270946        -7.3728
  80   2.0000      -0.262104        -7.1322
  81   2.0000      -0.251414        -6.8413
  82   2.0000      -0.238188        -6.4814
  83   2.0000      -0.230526        -6.2729
  84   2.0000      -0.202980        -5.5234
  85   2.0000      -0.200503        -5.4560
  86   2.0000      -0.192874        -5.2484
  87   0.0000      -0.043270        -1.1774
  88   0.0000      -0.029122        -0.7924
  89   0.0000      -0.011863        -0.3228
  90   0.0000       0.007474         0.2034
  91   0.0000       0.027378         0.7450

MULLIKEN ATOMIC CHARGES
-----------------------
   0 C :   -0.306769
   1 C :   -0.013830
   2 O :   -0.223362
   3 C :    0.119564
   4 O :   -0.195160
   5 C :   -0.099755
   6 C :   -0.306744
   7 H :    0.154674
   8 C :    0.237679
   9 O :   -0.205206
  10 O :   -0.239024
  11 C :   -0.010404
  12 C :   -0.302867
  13 S :   -0.081240
  14 P :    0.635547
  15 S :   -0.328084
  16 O :   -0.392376
  17 C :   -0.104157
  18 O :   -0.380542
  19 C :   -0.127062
  20 H :    0.128429
  21 H :    0.117082
  22 H :    0.116339
  23 H :    0.107814
  24 H :    0.113250
  25 H :    0.129962
  26 H :    0.147675
  27 H :    0.112894
  28 H :    0.106977
  29 H :    0.132852
  30 H :    0.107149
  31 H :    0.107075
  32 H :    0.124386
  33 H :    0.123289
  34 H :    0.107887
  35 H :    0.140083
  36 H :    0.116924
  37 H :    0.129050
Sum of atomic charges:    0.0000000

LOEWDIN ATOMIC CHARGES
----------------------
   0 C :   -0.355766
   1 C :   -0.108601
   2 O :   -0.052243
   3 C :    0.040926
   4 O :   -0.150510
   5 C :   -0.248184
   6 C :   -0.263530
   7 H :    0.146194
   8 C :    0.017656
   9 O :   -0.168150
  10 O :   -0.055574
  11 C :   -0.107877
  12 C :   -0.354323
  13 S :    0.105410
  14 P :    0.582096
  15 S :   -0.317116
  16 O :   -0.273526
  17 C :   -0.215885
  18 O :   -0.251377
  19 C :   -0.219067
  20 H :    0.130981
  21 H :    0.126398
  22 H :    0.132296
  23 H :    0.120408
  24 H :    0.121789
  25 H :    0.143294
  26 H :    0.162148
  27 H :    0.121761
  28 H :    0.117862
  29 H :    0.133496
  30 H :    0.127552
  31 H :    0.119228
  32 H :    0.121364
  33 H :    0.112802
  34 H :    0.108338
  35 H :    0.115632
  36 H :    0.109911
  37 H :    0.124188

  Mayer bond orders larger than 0.100000
B(  0-C ,  1-C ) :   1.1737 B(  0-C , 20-H ) :   0.9458 B(  0-C , 21-H ) :   0.9484
B(  0-C , 22-H ) :   0.9438 B(  1-C ,  2-O ) :   0.9089 B(  1-C , 23-H ) :   0.9368
B(  1-C , 24-H ) :   0.9158 B(  2-O ,  3-C ) :   1.2556 B(  3-C ,  4-O ) :   1.9768
B(  3-C ,  5-C ) :   0.9968 B(  5-C ,  6-C ) :   1.0698 B(  5-C , 25-H ) :   0.9028
B(  5-C , 26-H ) :   0.8703 B(  6-C ,  7-H ) :   0.8549 B(  6-C ,  8-C ) :   0.8629
B(  6-C , 13-S ) :   1.0211 B(  8-C ,  9-O ) :   2.0591 B(  8-C , 10-O ) :   1.2233
B( 10-O , 11-C ) :   0.8976 B( 11-C , 12-C ) :   1.1775 B( 11-C , 27-H ) :   0.9112
B( 11-C , 28-H ) :   0.9297 B( 12-C , 29-H ) :   0.9391 B( 12-C , 30-H ) :   0.9443
B( 12-C , 31-H ) :   0.9492 B( 13-S , 14-P ) :   0.9659 B( 13-S , 15-S ) :   0.1090
B( 14-P , 15-S ) :   1.6374 B( 14-P , 16-O ) :   1.0648 B( 14-P , 18-O ) :   1.0753
B( 16-O , 17-C ) :   0.9346 B( 17-C , 32-H ) :   0.9592 B( 17-C , 33-H ) :   0.9377
B( 17-C , 34-H ) :   0.9492 B( 18-O , 19-C ) :   0.9269 B( 19-C , 35-H ) :   0.9358
B( 19-C , 36-H ) :   0.9406 B( 19-C , 37-H ) :   0.9584

Dispersion correction           -0.053150668
FINAL SINGLE POINT ENERGY     -1979.018680798691

DIPOLE MOMENT
-------------

Method             : SCF
Type of density    : Electron Density
Multiplicity       :   1
Irrep              :   0
Energy             : -1979.1491731312698903 Eh
Relativity type    :
Basis              : AO
                                X                 Y                 Z
Electronic contribution:    -11.354767083       9.421091484     -10.289327636
Nuclear contribution   :     11.682757865     -11.221265265      10.976602097
                        -----------------------------------------
Total Dipole Moment    :      0.327990783      -1.800173781       0.687274461
                        -----------------------------------------
Magnitude (a.u.)       :      1.954622669
Magnitude (Debye)      :      4.968255991

Rotational constants in cm-1:             0.015422             0.006364             0.005936
Rotational constants in MHz :           462.334467           190.775290           177.956277

                             ****ORCA TERMINATED NORMALLY****
TOTAL RUN TIME: 0 days 0 hours 0 minutes 30 seconds 800 msec
