                         Program Version 6.0.0  -   RELEASE  -
|  1> ! pbe def2-sv(p) def2/J RI DEFGRID1 loosescf d4 GCP(DFT/SV(P)) printgap
|  2> %output
|  3>     printlevel normal
|  4> end
|  5> * xyz 0 1
|  6> C -1.2368590347 0.9631399201 -1.256333745
|  7> C -1.0134016806 0.1128076001 -6.7981e-06
|  8> C -1.9497417686 -1.0945299593 4.08554e-05
|  9> C -1.2363056271 0.9628095106 1.256673061
| 10> C 0.4294406097 -0.3691010984 -0.0002108017
| 11> O 0.7797535094 -1.5307893792 -0.0001047382
| 12> O 1.2936166959 0.6400655577 -0.0001886046
| 13> C 2.6841570529 0.3130062017 7.68027e-05
| 14> H -1.0628450609 0.3711368607 -2.1521964523
| 15> H -2.2614836636 1.3241268092 -1.2726424723
| 16> H -0.5617906704 1.814438911 -1.2627601863
| 17> H -2.9836516704 -0.762630715 -0.0018766021
| 18> H -1.7755584186 -1.709074572 0.8799043927
| 19> H -1.772945926 -1.7110919863 -0.8778948137
| 20> H -1.0596726446 0.3712005426 2.1522781716
| 21> H -0.5627873362 1.8153286125 1.2618868441
| 22> H -2.2615553878 1.3218894188 1.274725794
| 23> H 2.9315301282 -0.2661310383 -0.8904569034
| 24> H 2.9287678313 -0.2767913963 0.8843614979
| 25> H 3.2087315168 1.2632004555 0.0064746638
| 26> *
| 27>
| 28>                          ****END OF INPUT****

CARTESIAN COORDINATES (ANGSTROEM)
---------------------------------
  C     -1.236859    0.963140   -1.256334
  C     -1.013402    0.112808   -0.000007
  C     -1.949742   -1.094530    0.000041
  C     -1.236306    0.962810    1.256673
  C      0.429441   -0.369101   -0.000211
  O      0.779754   -1.530789   -0.000105
  O      1.293617    0.640066   -0.000189
  C      2.684157    0.313006    0.000077
  H     -1.062845    0.371137   -2.152196
  H     -2.261484    1.324127   -1.272642
  H     -0.561791    1.814439   -1.262760
  H     -2.983652   -0.762631   -0.001877
  H     -1.775558   -1.709075    0.879904
  H     -1.772946   -1.711092   -0.877895
  H     -1.059673    0.371201    2.152278
  H     -0.562787    1.815329    1.261887
  H     -2.261555    1.321889    1.274726
  H      2.931530   -0.266131   -0.890457
  H      2.928768   -0.276791    0.884361
  H      3.208732    1.263200    0.006475

 Total Charge           Charge          ....    0
 Multiplicity           Mult            ....    1
 Number of Electrons    NEL             ....   64
 Basis Dimension        Dim             ....  136

ORBITAL ENERGIES
----------------

  NO   OCC          E(Eh)            E(eV)
   0   2.0000     -18.800881      -511.5980
   1   2.0000     -18.733461      -509.7634
   2   2.0000     -10.002440      -272.1802
   3   2.0000      -9.943107      -270.5657
   4   2.0000      -9.916024      -269.8287
   5   2.0000      -9.881149      -268.8797
   6   2.0000      -9.881140      -268.8795
   7   2.0000      -9.872874      -268.6545
   8   2.0000      -1.007366       -27.4118
   9   2.0000      -0.909338       -24.7443
  10   2.0000      -0.747580       -20.3427
  11   2.0000      -0.664014       -18.0687
  12   2.0000      -0.620114       -16.8742
  13   2.0000      -0.612669       -16.6716
  14   2.0000      -0.545587       -14.8462
  15   2.0000      -0.494191       -13.4476
  16   2.0000      -0.441143       -12.0041
  17   2.0000      -0.436699       -11.8832
  18   2.0000      -0.416722       -11.3396
  19   2.0000      -0.395721       -10.7681
  20   2.0000      -0.387557       -10.5460
  21   2.0000      -0.380821       -10.3627
  22   2.0000      -0.358150        -9.7458
  23   2.0000      -0.346786        -9.4365
  24   2.0000      -0.331546        -9.0218
  25   2.0000      -0.326595        -8.8871
  26   2.0000      -0.322056        -8.7636
  27   2.0000      -0.301260        -8.1977
  28   2.0000      -0.292316        -7.9543
  29   2.0000      -0.287297        -7.8178
  30   2.0000      -0.258804        -7.0424
  31   2.0000      -0.215031        -5.8513
  32   0.0000      -0.018802        -0.5116
  33   0.0000       0.032927         0.8960
  34   0.0000       0.059537         1.6201
  35   0.0000       0.076388         2.0786
  36   0.0000       0.085834         2.3357

MULLIKEN ATOMIC CHARGES
-----------------------
   0 C :   -0.218577
   1 C :   -0.283755
   2 C :   -0.190641
   3 C :   -0.218560
   4 C :    0.175731
   5 O :   -0.196053
   6 O :   -0.245711
   7 C :   -0.104640
   8 H :    0.101813
   9 H :    0.100248
  10 H :    0.110413
  11 H :    0.091802
  12 H :    0.103862
  13 H :    0.103944
  14 H :    0.101824
  15 H :    0.110392
  16 H :    0.100249
  17 H :    0.118681
  18 H :    0.118792
  19 H :    0.120187
Sum of atomic charges:   -0.0000000

LOEWDIN ATOMIC CHARGES
----------------------
   0 C :   -0.312093
   1 C :   -0.127053
   2 C :   -0.312864
   3 C :   -0.312076
   4 C :    0.051560
   5 O :   -0.161513
   6 O :   -0.068898
   7 C :   -0.201990
   8 H :    0.120801
   9 H :    0.119763
  10 H :    0.121129
  11 H :    0.116793
  12 H :    0.122924
  13 H :    0.122958
  14 H :    0.120800
  15 H :    0.121130
  16 H :    0.119766
  17 H :    0.119519
  18 H :    0.119562
  19 H :    0.119784

  Mayer bond orders larger than 0.100000
B(  0-C ,  1-C ) :   1.0630 B(  0-C ,  8-H ) :   0.9492 B(  0-C ,  9-H ) :   0.9472
B(  0-C , 10-H ) :   0.9438 B(  1-C ,  2-C ) :   1.0943 B(  1-C ,  3-C ) :   1.0629
B(  1-C ,  4-C ) :   0.9012 B(  2-C , 11-H ) :   0.9452 B(  2-C , 12-H ) :   0.9440
B(  2-C , 13-H ) :   0.9439 B(  3-C , 14-H ) :   0.9492 B(  3-C , 15-H ) :   0.9438
B(  3-C , 16-H ) :   0.9472 B(  4-C ,  5-O ) :   2.0829 B(  4-C ,  6-O ) :   1.2098
B(  6-O ,  7-C ) :   0.9415 B(  7-C , 17-H ) :   0.9522 B(  7-C , 18-H ) :   0.9519
B(  7-C , 19-H ) :   0.9589

Dispersion correction           -0.017021445
FINAL SINGLE POINT ENERGY      -385.454616348035

DIPOLE MOMENT
-------------

Method             : SCF
Type of density    : Electron Density
Multiplicity       :   1
Irrep              :   0
Energy             :  -385.5282907960586272 Eh
Relativity type    :
Basis              : AO
                                X                 Y                 Z
Electronic contribution:      5.047094430      -2.623180757      -0.001553012
Nuclear contribution   :     -4.878927200       3.322539498       0.001688041
                        -----------------------------------------
Total Dipole Moment    :      0.168167230       0.699358741       0.000135028
                        -----------------------------------------
Magnitude (a.u.)       :      0.719293323
Magnitude (Debye)      :      1.828298329

Rotational constants in cm-1:             0.105854             0.050609             0.044530
Rotational constants in MHz :          3173.413712          1517.212433          1334.979522

                             ****ORCA TERMINATED NORMALLY****
TOTAL RUN TIME: 0 days 0 hours 0 minutes 41 seconds 42 msec
