                         Program Version 6.0.0  -   RELEASE  -
|  1> ! pbe def2-sv(p) def2/J RI DEFGRID1 loosescf d4 GCP(DFT/SV(P)) printgap
|  2> %output
|  3>     printlevel normal
|  4> end
|  5> * xyz 0 1
|  6> C 4.8623154615 1.1766413878 0.74424426
|  7> C 3.6499284388 1.6231052545 -0.0437730388
|  8> O 2.9178668623 0.495055971 -0.5751329145
|  9> P 2.1160792671 -0.4855479013 0.3672716911
| 10> S 1.3948292983 0.2818768298 2.0239110675
| 11> O 3.1493044045 -1.6665986129 0.6128858959
| 12> C 2.9588795346 -2.6851775003 1.6124529974
| 13> C 4.3234323086 -3.2080379467 2.0153525555
| 14> S 0.7808114839 -1.3482529917 -1.0435917739
| 15> C 0.2513789205 0.1652770134 -1.9010858296
| 16> S -0.5744826175 1.3597718387 -0.8320919456
| 17> P -2.4047631966 0.2719179992 -0.6187978665
| 18> S -2.9091093455 -0.8216084854 -2.1584171535
| 19> O -3.4119633054 1.389324008 -0.1122735739
| 20> C -3.6071629398 2.6752772294 -0.731979724
| 21> C -3.9369848692 2.5736027275 -2.2060345621
| 22> O -2.265814446 -0.6505663892 0.6508444128
| 23> C -2.0837954551 -0.1574955151 1.9992449228
| 24> C -3.4059319862 -0.1294008639 2.7363141643
| 25> H 5.4384251919 2.0465415914 1.0435394731
| 26> H 4.5430487264 0.6392400384 1.636291245
| 27> H 5.4821305458 0.5195082021 0.1400763703
| 28> H 3.9275638794 2.1947528724 -0.9300262016
| 29> H 2.9725402597 2.2108684037 0.5837535525
| 30> H 2.4307291396 -2.2450879533 2.4658014045
| 31> H 2.3413019729 -3.4753540684 1.1769875464
| 32> H 4.914563414 -2.4126038641 2.4602901429
| 33> H 4.1983526875 -4.00782776 2.7378140137
| 34> H 4.8450845798 -3.5891262052 1.1423459918
| 35> H -0.4472786784 -0.1683577607 -2.6711502473
| 36> H 1.1168225284 0.6606327441 -2.3322822638
| 37> H -4.4347042106 3.1081865522 -0.1671800795
| 38> H -2.7015662317 3.2684675001 -0.5771092889
| 39> H -4.7943562932 1.9225086183 -2.3589720193
| 40> H -4.1611987723 3.5621259746 -2.5936185571
| 41> H -3.0913256385 2.1600337864 -2.753547359
| 42> H -1.3835129831 -0.8570035114 2.4602797469
| 43> H -1.6222214545 0.833176006 1.9644115646
| 44> H -4.0900567811 0.5647496948 2.2554468771
| 45> H -3.8519650989 -1.1201647732 2.7334388508
| 46> H -3.2321055483 0.1851818852 3.7604706356
| 47> *
| 48>
| 49>                          ****END OF INPUT****

CARTESIAN COORDINATES (ANGSTROEM)
---------------------------------
  C      4.862315    1.176641    0.744244
  C      3.649928    1.623105   -0.043773
  O      2.917867    0.495056   -0.575133
  P      2.116079   -0.485548    0.367272
  S      1.394829    0.281877    2.023911
  O      3.149304   -1.666599    0.612886
  C      2.958880   -2.685178    1.612453
  C      4.323432   -3.208038    2.015353
  S      0.780811   -1.348253   -1.043592
  C      0.251379    0.165277   -1.901086
  S     -0.574483    1.359772   -0.832092
  P     -2.404763    0.271918   -0.618798
  S     -2.909109   -0.821608   -2.158417
  O     -3.411963    1.389324   -0.112274
  C     -3.607163    2.675277   -0.731980
  C     -3.936985    2.573603   -2.206035
  O     -2.265814   -0.650566    0.650844
  C     -2.083795   -0.157496    1.999245
  C     -3.405932   -0.129401    2.736314
  H      5.438425    2.046542    1.043539
  H      4.543049    0.639240    1.636291
  H      5.482131    0.519508    0.140076
  H      3.927564    2.194753   -0.930026
  H      2.972540    2.210868    0.583754
  H      2.430729   -2.245088    2.465801
  H      2.341302   -3.475354    1.176988
  H      4.914563   -2.412604    2.460290
  H      4.198353   -4.007828    2.737814
  H      4.845085   -3.589126    1.142346
  H     -0.447279   -0.168358   -2.671150
  H      1.116823    0.660633   -2.332282
  H     -4.434704    3.108187   -0.167180
  H     -2.701566    3.268468   -0.577109
  H     -4.794356    1.922509   -2.358972
  H     -4.161199    3.562126   -2.593619
  H     -3.091326    2.160034   -2.753547
  H     -1.383513   -0.857004    2.460280
  H     -1.622221    0.833176    1.964412
  H     -4.090057    0.564750    2.255447
  H     -3.851965   -1.120165    2.733439
  H     -3.232106    0.185182    3.760471

 Total Charge           Charge          ....    0
 Multiplicity           Mult            ....    1
 Number of Electrons    NEL             ....  202
 Basis Dimension        Dim             ....  334

ORBITAL ENERGIES
----------------

  NO   OCC          E(Eh)            E(eV)
   0   2.0000     -88.040171     -2395.6948
   1   2.0000     -88.036370     -2395.5914
   2   2.0000     -87.987698     -2394.2670
   3   2.0000     -87.979439     -2394.0422
   4   2.0000     -76.427936     -2079.7099
   5   2.0000     -76.423035     -2079.5765
   6   2.0000     -18.799269      -511.5541
   7   2.0000     -18.795367      -511.4479
   8   2.0000     -18.793368      -511.3935
   9   2.0000     -18.782532      -511.0987
  10   2.0000      -9.958767      -270.9918
  11   2.0000      -9.957581      -270.9596
  12   2.0000      -9.954525      -270.8764
  13   2.0000      -9.952731      -270.8276
  14   2.0000      -9.941865      -270.5319
  15   2.0000      -9.889848      -269.1164
  16   2.0000      -9.888325      -269.0750
  17   2.0000      -9.882789      -268.9244
  18   2.0000      -9.877315      -268.7754
  19   2.0000      -7.685001      -209.1195
  20   2.0000      -7.681817      -209.0329
  21   2.0000      -7.632603      -207.6937
  22   2.0000      -7.624832      -207.4822
  23   2.0000      -6.425640      -174.8506
  24   2.0000      -6.420247      -174.7038
  25   2.0000      -5.712655      -155.4493
  26   2.0000      -5.709846      -155.3728
  27   2.0000      -5.709513      -155.3637
  28   2.0000      -5.706507      -155.2819
  29   2.0000      -5.702231      -155.1656
  30   2.0000      -5.698421      -155.0619
  31   2.0000      -5.661300      -154.0518
  32   2.0000      -5.653884      -153.8500
  33   2.0000      -5.653297      -153.8340
  34   2.0000      -5.652889      -153.8229
  35   2.0000      -5.645404      -153.6193
  36   2.0000      -5.644836      -153.6038
  37   2.0000      -4.648320      -126.4872
  38   2.0000      -4.647463      -126.4639
  39   2.0000      -4.645906      -126.4215
  40   2.0000      -4.643155      -126.3467
  41   2.0000      -4.642179      -126.3201
  42   2.0000      -4.640292      -126.2688
  43   2.0000      -0.991427       -26.9781
  44   2.0000      -0.985737       -26.8233
  45   2.0000      -0.951170       -25.8826
  46   2.0000      -0.940408       -25.5898
  47   2.0000      -0.761095       -20.7105
  48   2.0000      -0.722079       -19.6488
  49   2.0000      -0.708622       -19.2826
  50   2.0000      -0.692697       -18.8492
  51   2.0000      -0.687687       -18.7129
  52   2.0000      -0.670130       -18.2352
  53   2.0000      -0.650584       -17.7033
  54   2.0000      -0.637150       -17.3377
  55   2.0000      -0.600285       -16.3346
  56   2.0000      -0.588554       -16.0154
  57   2.0000      -0.569655       -15.5011
  58   2.0000      -0.568209       -15.4617
  59   2.0000      -0.563951       -15.3459
  60   2.0000      -0.507967       -13.8225
  61   2.0000      -0.496189       -13.5020
  62   2.0000      -0.483331       -13.1521
  63   2.0000      -0.469133       -12.7658
  64   2.0000      -0.460240       -12.5238
  65   2.0000      -0.448464       -12.2033
  66   2.0000      -0.438854       -11.9418
  67   2.0000      -0.432313       -11.7638
  68   2.0000      -0.428548       -11.6614
  69   2.0000      -0.413072       -11.2403
  70   2.0000      -0.407865       -11.0986
  71   2.0000      -0.402177       -10.9438
  72   2.0000      -0.394023       -10.7219
  73   2.0000      -0.382094       -10.3973
  74   2.0000      -0.379096       -10.3157
  75   2.0000      -0.376518       -10.2456
  76   2.0000      -0.362530        -9.8649
  77   2.0000      -0.359497        -9.7824
  78   2.0000      -0.352375        -9.5886
  79   2.0000      -0.351365        -9.5611
  80   2.0000      -0.347538        -9.4570
  81   2.0000      -0.345531        -9.4024
  82   2.0000      -0.345360        -9.3977
  83   2.0000      -0.335316        -9.1244
  84   2.0000      -0.332441        -9.0462
  85   2.0000      -0.321203        -8.7404
  86   2.0000      -0.312298        -8.4981
  87   2.0000      -0.301020        -8.1912
  88   2.0000      -0.295827        -8.0498
  89   2.0000      -0.290669        -7.9095
  90   2.0000      -0.281645        -7.6640
  91   2.0000      -0.278827        -7.5873
  92   2.0000      -0.273346        -7.4381
  93   2.0000      -0.264095        -7.1864
  94   2.0000      -0.256767        -6.9870
  95   2.0000      -0.238293        -6.4843
  96   2.0000      -0.218799        -5.9538
  97   2.0000      -0.205574        -5.5939
  98   2.0000      -0.198396        -5.3986
  99   2.0000      -0.197847        -5.3837
 100   2.0000      -0.191247        -5.2041
 101   0.0000      -0.045587        -1.2405
 102   0.0000      -0.019095        -0.5196
 103   0.0000      -0.013921        -0.3788
 104   0.0000      -0.000056        -0.0015
 105   0.0000       0.016335         0.4445

MULLIKEN ATOMIC CHARGES
-----------------------
   0 C :   -0.309507
   1 C :   -0.006830
   2 O :   -0.372736
   3 P :    0.619785
   4 S :   -0.329218
   5 O :   -0.375093
   6 C :   -0.011983
   7 C :   -0.285545
   8 S :   -0.076437
   9 C :   -0.357771
  10 S :   -0.111559
  11 P :    0.608801
  12 S :   -0.313582
  13 O :   -0.381536
  14 C :   -0.009740
  15 C :   -0.307753
  16 O :   -0.346324
  17 C :   -0.014712
  18 C :   -0.282633
  19 H :    0.113934
  20 H :    0.125218
  21 H :    0.119640
  22 H :    0.105877
  23 H :    0.115128
  24 H :    0.105391
  25 H :    0.106207
  26 H :    0.119265
  27 H :    0.112748
  28 H :    0.119096
  29 H :    0.194061
  30 H :    0.187742
  31 H :    0.108565
  32 H :    0.113561
  33 H :    0.127761
  34 H :    0.110523
  35 H :    0.123570
  36 H :    0.112540
  37 H :    0.104974
  38 H :    0.115308
  39 H :    0.116159
  40 H :    0.107108
Sum of atomic charges:   -0.0000000

LOEWDIN ATOMIC CHARGES
----------------------
   0 C :   -0.365113
   1 C :   -0.117001
   2 O :   -0.238537
   3 P :    0.569580
   4 S :   -0.313954
   5 O :   -0.246725
   6 C :   -0.120377
   7 C :   -0.350842
   8 S :    0.081098
   9 C :   -0.482139
  10 S :    0.063019
  11 P :    0.572514
  12 S :   -0.306260
  13 O :   -0.243428
  14 C :   -0.114867
  15 C :   -0.369153
  16 O :   -0.228672
  17 C :   -0.117487
  18 C :   -0.359389
  19 H :    0.131651
  20 H :    0.122181
  21 H :    0.127782
  22 H :    0.118716
  23 H :    0.112442
  24 H :    0.105791
  25 H :    0.113564
  26 H :    0.127164
  27 H :    0.131239
  28 H :    0.127869
  29 H :    0.127724
  30 H :    0.132378
  31 H :    0.120744
  32 H :    0.108240
  33 H :    0.130915
  34 H :    0.129765
  35 H :    0.120549
  36 H :    0.116795
  37 H :    0.103620
  38 H :    0.123353
  39 H :    0.127136
  40 H :    0.128114

  Mayer bond orders larger than 0.100000
B(  0-C ,  1-C ) :   1.1662 B(  0-C , 19-H ) :   0.9381 B(  0-C , 20-H ) :   0.9333
B(  0-C , 21-H ) :   0.9457 B(  1-C ,  2-O ) :   0.8976 B(  1-C , 22-H ) :   0.9336
B(  1-C , 23-H ) :   0.9153 B(  2-O ,  3-P ) :   1.1170 B(  3-P ,  4-S ) :   1.6092
B(  3-P ,  5-O ) :   1.1063 B(  3-P ,  8-S ) :   0.9738 B(  4-S ,  8-S ) :   0.1073
B(  5-O ,  6-C ) :   0.9058 B(  6-C ,  7-C ) :   1.1615 B(  6-C , 24-H ) :   0.9046
B(  6-C , 25-H ) :   0.9309 B(  7-C , 26-H ) :   0.9514 B(  7-C , 27-H ) :   0.9414
B(  7-C , 28-H ) :   0.9503 B(  8-S ,  9-C ) :   1.0027 B(  9-C , 10-S ) :   1.0149
B(  9-C , 29-H ) :   0.8665 B(  9-C , 30-H ) :   0.8987 B( 10-S , 11-P ) :   0.9314
B( 10-S , 12-S ) :   0.1113 B( 11-P , 12-S ) :   1.6400 B( 11-P , 13-O ) :   1.0793
B( 11-P , 16-O ) :   1.1536 B( 13-O , 14-C ) :   0.9113 B( 14-C , 15-C ) :   1.1672
B( 14-C , 31-H ) :   0.9329 B( 14-C , 32-H ) :   0.9258 B( 15-C , 33-H ) :   0.9429
B( 15-C , 34-H ) :   0.9348 B( 15-C , 35-H ) :   0.9321 B( 16-O , 17-C ) :   0.8877
B( 17-C , 18-C ) :   1.1556 B( 17-C , 36-H ) :   0.9288 B( 17-C , 37-H ) :   0.9174
B( 18-C , 38-H ) :   0.9429 B( 18-C , 39-H ) :   0.9466 B( 18-C , 40-H ) :   0.9415

Dispersion correction           -0.064318851
FINAL SINGLE POINT ENERGY     -2929.517832869818

DIPOLE MOMENT
-------------

Method             : SCF
Type of density    : Electron Density
Multiplicity       :   1
Irrep              :   0
Energy             : -2929.6376710603722131 Eh
Relativity type    :
Basis              : AO
                                X                 Y                 Z
Electronic contribution:     -7.177799989      -4.810894539     -11.101670526
Nuclear contribution   :      8.182466695       5.829211273      11.715640545
                        -----------------------------------------
Total Dipole Moment    :      1.004666705       1.018316734       0.613970019
                        -----------------------------------------
Magnitude (a.u.)       :      1.556689867
Magnitude (Debye)      :      3.956791191

Rotational constants in cm-1:             0.013125             0.004547             0.004339
Rotational constants in MHz :           393.488707           136.309906           130.070423

                             ****ORCA TERMINATED NORMALLY****
TOTAL RUN TIME: 0 days 0 hours 0 minutes 20 seconds 685 msec
