                         Program Version 6.0.0  -   RELEASE  -
|  1> ! pbe def2-sv(p) def2/J RI DEFGRID1 loosescf d4 GCP(DFT/SV(P)) printgap
|  2> %output
|  3>     printlevel normal
|  4> end
|  5> * xyz 0 1
|  6> C 4.3914943669 -1.1224144677 -2.2566324495
|  7> C 4.9080815538 -0.8657641022 -0.8559044051
|  8> O 3.8751501013 -0.977296815 0.1398718693
|  9> P 2.6464763185 0.0292175619 0.2111440391
| 10> S 3.0607979237 1.9061647275 -0.1468018575
| 11> O 2.1013611612 -0.1690753439 1.6758752094
| 12> C 1.682395898 -1.4372200267 2.2374263446
| 13> C 2.8304552007 -2.1354638731 2.9367846935
| 14> S 1.1773508581 -0.8635318704 -1.0575137645
| 15> C 0.1325457287 0.603547601 -1.1908316005
| 16> S -0.8455721602 0.9103374819 0.3031211742
| 17> P -2.7979399807 0.4201731 -0.4511906493
| 18> S -2.890681212 -0.2306356133 -2.2912850401
| 19> O -3.6157690797 1.7553675417 -0.271653538
| 20> C -3.6660739098 2.5525428864 0.9352986051
| 21> C -4.7524404962 2.0722828014 1.8754699769
| 22> O -3.4432079705 -0.539309673 0.642403436
| 23> C -3.3002021058 -1.9700339607 0.5883854004
| 24> C -1.8755819475 -2.4132064212 0.8515184176
| 25> H 3.7223906494 -0.3189083228 -2.5612408855
| 26> H 5.2291585876 -1.1587820902 -2.9457297342
| 27> H 3.8498933715 -2.0642795361 -2.2956899735
| 28> H 5.3467437646 0.1342913101 -0.7855126739
| 29> H 5.6417067188 -1.6147659728 -0.5545669493
| 30> H 0.8943282244 -1.1641049603 2.9416135555
| 31> H 1.2709671915 -2.0597467773 1.437921112
| 32> H 3.2645669437 -1.4798597552 3.6866903619
| 33> H 2.4561934082 -3.0332971456 3.4187435343
| 34> H 3.6005550029 -2.407600132 2.2204359884
| 35> H -0.5439087782 0.4402916189 -2.0328175507
| 36> H 0.7719903913 1.4723369489 -1.3508434151
| 37> H -2.6838035793 2.5256733234 1.4160114795
| 38> H -3.8707606112 3.5618627152 0.5734725948
| 39> H -4.8210011315 2.7582382621 2.7141486929
| 40> H -5.7066761173 2.0443775913 1.3564181882
| 41> H -4.5234785884 1.0765103885 2.2441845426
| 42> H -3.9823502069 -2.3291786828 1.3602908536
| 43> H -3.6361231942 -2.3139722707 -0.3945995498
| 44> H -1.8469535472 -3.494323505 0.9402794939
| 45> H -1.2321375777 -2.1143778253 0.0243671565
| 46> H -1.5071978063 -1.9653674019 1.7711461511
| 47> *
| 48>
| 49>                          ****END OF INPUT****

CARTESIAN COORDINATES (ANGSTROEM)
---------------------------------
  C      4.391494   -1.122414   -2.256632
  C      4.908082   -0.865764   -0.855904
  O      3.875150   -0.977297    0.139872
  P      2.646476    0.029218    0.211144
  S      3.060798    1.906165   -0.146802
  O      2.101361   -0.169075    1.675875
  C      1.682396   -1.437220    2.237426
  C      2.830455   -2.135464    2.936785
  S      1.177351   -0.863532   -1.057514
  C      0.132546    0.603548   -1.190832
  S     -0.845572    0.910337    0.303121
  P     -2.797940    0.420173   -0.451191
  S     -2.890681   -0.230636   -2.291285
  O     -3.615769    1.755368   -0.271654
  C     -3.666074    2.552543    0.935299
  C     -4.752440    2.072283    1.875470
  O     -3.443208   -0.539310    0.642403
  C     -3.300202   -1.970034    0.588385
  C     -1.875582   -2.413206    0.851518
  H      3.722391   -0.318908   -2.561241
  H      5.229159   -1.158782   -2.945730
  H      3.849893   -2.064280   -2.295690
  H      5.346744    0.134291   -0.785513
  H      5.641707   -1.614766   -0.554567
  H      0.894328   -1.164105    2.941614
  H      1.270967   -2.059747    1.437921
  H      3.264567   -1.479860    3.686690
  H      2.456193   -3.033297    3.418744
  H      3.600555   -2.407600    2.220436
  H     -0.543909    0.440292   -2.032818
  H      0.771990    1.472337   -1.350843
  H     -2.683804    2.525673    1.416011
  H     -3.870761    3.561863    0.573473
  H     -4.821001    2.758238    2.714149
  H     -5.706676    2.044378    1.356418
  H     -4.523479    1.076510    2.244185
  H     -3.982350   -2.329179    1.360291
  H     -3.636123   -2.313972   -0.394600
  H     -1.846954   -3.494324    0.940279
  H     -1.232138   -2.114378    0.024367
  H     -1.507198   -1.965367    1.771146

 Total Charge           Charge          ....    0
 Multiplicity           Mult            ....    1
 Number of Electrons    NEL             ....  202
 Basis Dimension        Dim             ....  334

ORBITAL ENERGIES
----------------

  NO   OCC          E(Eh)            E(eV)
   0   2.0000     -88.045198     -2395.8316
   1   2.0000     -88.041433     -2395.7292
   2   2.0000     -87.991078     -2394.3590
   3   2.0000     -87.988246     -2394.2819
   4   2.0000     -76.428433     -2079.7234
   5   2.0000     -76.428365     -2079.7216
   6   2.0000     -18.798418      -511.5310
   7   2.0000     -18.795583      -511.4538
   8   2.0000     -18.794055      -511.4122
   9   2.0000     -18.792899      -511.3808
  10   2.0000      -9.958540      -270.9856
  11   2.0000      -9.957896      -270.9681
  12   2.0000      -9.956808      -270.9385
  13   2.0000      -9.955863      -270.9128
  14   2.0000      -9.948812      -270.7209
  15   2.0000      -9.888593      -269.0823
  16   2.0000      -9.887743      -269.0592
  17   2.0000      -9.886876      -269.0356
  18   2.0000      -9.886345      -269.0211
  19   2.0000      -7.689609      -209.2449
  20   2.0000      -7.686085      -209.1490
  21   2.0000      -7.636256      -207.7931
  22   2.0000      -7.633483      -207.7176
  23   2.0000      -6.426113      -174.8634
  24   2.0000      -6.426071      -174.8623
  25   2.0000      -5.717203      -155.5730
  26   2.0000      -5.714216      -155.4917
  27   2.0000      -5.713852      -155.4818
  28   2.0000      -5.710699      -155.3960
  29   2.0000      -5.706868      -155.2918
  30   2.0000      -5.703137      -155.1903
  31   2.0000      -5.665186      -154.1575
  32   2.0000      -5.662463      -154.0835
  33   2.0000      -5.656856      -153.9309
  34   2.0000      -5.656379      -153.9179
  35   2.0000      -5.653970      -153.8524
  36   2.0000      -5.653682      -153.8445
  37   2.0000      -4.649017      -126.5062
  38   2.0000      -4.648803      -126.5004
  39   2.0000      -4.647761      -126.4720
  40   2.0000      -4.647635      -126.4686
  41   2.0000      -4.646548      -126.4390
  42   2.0000      -4.646350      -126.4336
  43   2.0000      -0.991476       -26.9794
  44   2.0000      -0.989755       -26.9326
  45   2.0000      -0.949528       -25.8380
  46   2.0000      -0.948000       -25.7964
  47   2.0000      -0.762016       -20.7355
  48   2.0000      -0.723695       -19.6927
  49   2.0000      -0.713861       -19.4251
  50   2.0000      -0.693391       -18.8681
  51   2.0000      -0.692602       -18.8467
  52   2.0000      -0.678453       -18.4616
  53   2.0000      -0.652710       -17.7611
  54   2.0000      -0.640227       -17.4215
  55   2.0000      -0.601419       -16.3654
  56   2.0000      -0.595864       -16.2143
  57   2.0000      -0.579456       -15.7678
  58   2.0000      -0.576893       -15.6981
  59   2.0000      -0.559237       -15.2176
  60   2.0000      -0.505911       -13.7665
  61   2.0000      -0.497194       -13.5293
  62   2.0000      -0.477935       -13.0053
  63   2.0000      -0.477292       -12.9878
  64   2.0000      -0.456051       -12.4098
  65   2.0000      -0.450483       -12.2583
  66   2.0000      -0.450438       -12.2570
  67   2.0000      -0.436152       -11.8683
  68   2.0000      -0.432441       -11.7673
  69   2.0000      -0.429813       -11.6958
  70   2.0000      -0.411488       -11.1972
  71   2.0000      -0.397509       -10.8168
  72   2.0000      -0.395891       -10.7727
  73   2.0000      -0.387858       -10.5542
  74   2.0000      -0.378531       -10.3004
  75   2.0000      -0.372759       -10.1433
  76   2.0000      -0.369085       -10.0433
  77   2.0000      -0.361365        -9.8332
  78   2.0000      -0.357192        -9.7197
  79   2.0000      -0.354756        -9.6534
  80   2.0000      -0.351241        -9.5578
  81   2.0000      -0.350072        -9.5259
  82   2.0000      -0.347623        -9.4593
  83   2.0000      -0.343744        -9.3538
  84   2.0000      -0.340054        -9.2533
  85   2.0000      -0.320324        -8.7165
  86   2.0000      -0.315178        -8.5764
  87   2.0000      -0.300951        -8.1893
  88   2.0000      -0.298266        -8.1162
  89   2.0000      -0.294331        -8.0091
  90   2.0000      -0.292887        -7.9699
  91   2.0000      -0.277439        -7.5495
  92   2.0000      -0.272195        -7.4068
  93   2.0000      -0.266459        -7.2507
  94   2.0000      -0.260135        -7.0786
  95   2.0000      -0.232046        -6.3143
  96   2.0000      -0.220315        -5.9951
  97   2.0000      -0.213939        -5.8216
  98   2.0000      -0.208113        -5.6630
  99   2.0000      -0.205934        -5.6038
 100   2.0000      -0.202357        -5.5064
 101   0.0000      -0.043178        -1.1749
 102   0.0000      -0.032352        -0.8803
 103   0.0000      -0.016114        -0.4385
 104   0.0000       0.003725         0.1014
 105   0.0000       0.014635         0.3982

MULLIKEN ATOMIC CHARGES
-----------------------
   0 C :   -0.319240
   1 C :   -0.001207
   2 O :   -0.381738
   3 P :    0.601736
   4 S :   -0.309728
   5 O :   -0.349673
   6 C :   -0.031139
   7 C :   -0.288230
   8 S :   -0.097290
   9 C :   -0.361407
  10 S :   -0.108192
  11 P :    0.607580
  12 S :   -0.306975
  13 O :   -0.353755
  14 C :   -0.019543
  15 C :   -0.295571
  16 O :   -0.380034
  17 C :    0.008142
  18 C :   -0.340226
  19 H :    0.130682
  20 H :    0.115567
  21 H :    0.118032
  22 H :    0.115077
  23 H :    0.105627
  24 H :    0.115753
  25 H :    0.116458
  26 H :    0.119810
  27 H :    0.108839
  28 H :    0.122667
  29 H :    0.194565
  30 H :    0.197447
  31 H :    0.112790
  32 H :    0.114325
  33 H :    0.111350
  34 H :    0.120813
  35 H :    0.123098
  36 H :    0.103657
  37 H :    0.114048
  38 H :    0.111354
  39 H :    0.135864
  40 H :    0.118664
Sum of atomic charges:   -0.0000000

LOEWDIN ATOMIC CHARGES
----------------------
   0 C :   -0.371194
   1 C :   -0.116360
   2 O :   -0.246757
   3 P :    0.570112
   4 S :   -0.305218
   5 O :   -0.232711
   6 C :   -0.116626
   7 C :   -0.360504
   8 S :    0.087840
   9 C :   -0.491065
  10 S :    0.068418
  11 P :    0.572488
  12 S :   -0.296757
  13 O :   -0.235469
  14 C :   -0.113510
  15 C :   -0.361902
  16 O :   -0.246981
  17 C :   -0.116123
  18 C :   -0.373966
  19 H :    0.122680
  20 H :    0.132446
  21 H :    0.123574
  22 H :    0.114120
  23 H :    0.118678
  24 H :    0.120480
  25 H :    0.105752
  26 H :    0.128981
  27 H :    0.129265
  28 H :    0.125984
  29 H :    0.125505
  30 H :    0.126969
  31 H :    0.105122
  32 H :    0.123882
  33 H :    0.130130
  34 H :    0.129553
  35 H :    0.125136
  36 H :    0.117971
  37 H :    0.112755
  38 H :    0.130152
  39 H :    0.115151
  40 H :    0.121999

  Mayer bond orders larger than 0.100000
B(  0-C ,  1-C ) :   1.1660 B(  0-C , 19-H ) :   0.9344 B(  0-C , 20-H ) :   0.9368
B(  0-C , 21-H ) :   0.9436 B(  1-C ,  2-O ) :   0.9033 B(  1-C , 22-H ) :   0.9187
B(  1-C , 23-H ) :   0.9339 B(  2-O ,  3-P ) :   1.0874 B(  3-P ,  4-S ) :   1.6354
B(  3-P ,  5-O ) :   1.1455 B(  3-P ,  8-S ) :   0.9468 B(  4-S ,  8-S ) :   0.1088
B(  5-O ,  6-C ) :   0.8950 B(  6-C ,  7-C ) :   1.1599 B(  6-C , 24-H ) :   0.9324
B(  6-C , 25-H ) :   0.9082 B(  7-C , 26-H ) :   0.9465 B(  7-C , 27-H ) :   0.9397
B(  7-C , 28-H ) :   0.9399 B(  8-S ,  9-C ) :   1.0075 B(  9-C , 10-S ) :   1.0066
B(  9-C , 29-H ) :   0.8494 B(  9-C , 30-H ) :   0.8661 B( 10-S , 11-P ) :   0.9453
B( 10-S , 12-S ) :   0.1148 B( 11-P , 12-S ) :   1.6255 B( 11-P , 13-O ) :   1.1479
B( 11-P , 16-O ) :   1.0830 B( 12-S , 29-H ) :   0.1162 B( 13-O , 14-C ) :   0.9001
B( 14-C , 15-C ) :   1.1616 B( 14-C , 31-H ) :   0.9132 B( 14-C , 32-H ) :   0.9360
B( 15-C , 33-H ) :   0.9387 B( 15-C , 34-H ) :   0.9469 B( 15-C , 35-H ) :   0.9401
B( 16-O , 17-C ) :   0.9106 B( 17-C , 18-C ) :   1.1619 B( 17-C , 36-H ) :   0.9332
B( 17-C , 37-H ) :   0.9170 B( 18-C , 38-H ) :   0.9370 B( 18-C , 39-H ) :   0.9268
B( 18-C , 40-H ) :   0.9398

Dispersion correction           -0.063371659
FINAL SINGLE POINT ENERGY     -2929.518938430718

DIPOLE MOMENT
-------------

Method             : SCF
Type of density    : Electron Density
Multiplicity       :   1
Irrep              :   0
Energy             : -2929.6407694786530556 Eh
Relativity type    :
Basis              : AO
                                X                 Y                 Z
Electronic contribution:     -1.592043978      11.908570297     -11.448060183
Nuclear contribution   :      1.694133356     -13.120351221      12.708814123
                        -----------------------------------------
Total Dipole Moment    :      0.102089378      -1.211780924       1.260753940
                        -----------------------------------------
Magnitude (a.u.)       :      1.751666563
Magnitude (Debye)      :      4.452382565

Rotational constants in cm-1:             0.012832             0.004194             0.004103
Rotational constants in MHz :           384.684872           125.734394           123.010055

                             ****ORCA TERMINATED NORMALLY****
TOTAL RUN TIME: 0 days 0 hours 0 minutes 20 seconds 811 msec
