                         Program Version 6.0.0  -   RELEASE  -
|  1> ! pbe def2-sv(p) def2/J RI DEFGRID1 loosescf d4 GCP(DFT/SV(P)) printgap
|  2> %output
|  3>     printlevel normal
|  4> end
|  5> * xyz 0 1
|  6> C 5.2787453985 -0.887182087 -1.9587581858
|  7> C 5.0023699567 -0.1634590717 -0.6558751818
|  8> O 3.7358304748 -0.5914800549 -0.1035156378
|  9> P 2.4175736647 0.2669761944 -0.2761766617
| 10> S 2.0393447706 0.9168897245 -2.0919504154
| 11> O 2.6813362422 1.4140742799 0.79524649
| 12> C 1.8622906629 2.5844803798 0.9577540639
| 13> C 0.9474014429 2.4315339787 2.1563948285
| 14> S 1.0816396217 -1.0967881574 0.6012660444
| 15> C 0.1553217959 -1.599709357 -0.8968474944
| 16> S -1.5668599731 -1.9484276697 -0.5094125563
| 17> P -2.103479525 -0.0224437215 0.237405316
| 18> S -1.2810312475 1.5067283843 -0.6717128875
| 19> O -1.8109682297 0.0026379164 1.781199841
| 20> C -1.9198711528 -1.1114558455 2.704039727
| 21> C -3.2827065408 -1.7668816143 2.6779236499
| 22> O -3.6883445141 -0.0484701948 0.1741662886
| 23> C -4.3926548631 0.0580591483 -1.0788813664
| 24> C -5.8350361578 0.4063969001 -0.7720203084
| 25> H 4.5315804122 -0.6169470353 -2.7021181711
| 26> H 6.2609123888 -0.6051605439 -2.3242729432
| 27> H 5.2461471746 -1.9614419041 -1.8012928688
| 28> H 4.9854755913 0.919814379 -0.8021006728
| 29> H 5.7380033723 -0.4183481096 0.1086831041
| 30> H 2.5691437066 3.403800449 1.1029982087
| 31> H 1.2886131355 2.7574868892 0.0407760491
| 32> H 1.5282164899 2.1680687355 3.0357435555
| 33> H 0.4296347872 3.3697278231 2.3279938003
| 34> H 0.2066759493 1.6549804671 1.974776557
| 35> H 0.5763952234 -2.5210660388 -1.2910974686
| 36> H 0.2181885509 -0.7873371563 -1.6270226723
| 37> H -1.1286715069 -1.8261269788 2.4594176152
| 38> H -1.7121488604 -0.6497768314 3.6703184973
| 39> H -4.0594556042 -1.0239682166 2.8383338592
| 40> H -3.451120674 -2.253663914 1.7195439053
| 41> H -3.3292822752 -2.5126949479 3.4654209682
| 42> H -3.9126626768 0.8330607052 -1.6863447831
| 43> H -4.3139584335 -0.901485016 -1.5969118447
| 44> H -6.28060968 -0.3680657844 -0.1549517421
| 45> H -5.8847983044 1.3530457574 -0.241426407
| 46> H -6.3873755191 0.4878820219 -1.7023721403
| 47> *
| 48>
| 49>                          ****END OF INPUT****

CARTESIAN COORDINATES (ANGSTROEM)
---------------------------------
  C      5.278745   -0.887182   -1.958758
  C      5.002370   -0.163459   -0.655875
  O      3.735830   -0.591480   -0.103516
  P      2.417574    0.266976   -0.276177
  S      2.039345    0.916890   -2.091950
  O      2.681336    1.414074    0.795246
  C      1.862291    2.584480    0.957754
  C      0.947401    2.431534    2.156395
  S      1.081640   -1.096788    0.601266
  C      0.155322   -1.599709   -0.896847
  S     -1.566860   -1.948428   -0.509413
  P     -2.103480   -0.022444    0.237405
  S     -1.281031    1.506728   -0.671713
  O     -1.810968    0.002638    1.781200
  C     -1.919871   -1.111456    2.704040
  C     -3.282707   -1.766882    2.677924
  O     -3.688345   -0.048470    0.174166
  C     -4.392655    0.058059   -1.078881
  C     -5.835036    0.406397   -0.772020
  H      4.531580   -0.616947   -2.702118
  H      6.260912   -0.605161   -2.324273
  H      5.246147   -1.961442   -1.801293
  H      4.985476    0.919814   -0.802101
  H      5.738003   -0.418348    0.108683
  H      2.569144    3.403800    1.102998
  H      1.288613    2.757487    0.040776
  H      1.528216    2.168069    3.035744
  H      0.429635    3.369728    2.327994
  H      0.206676    1.654980    1.974777
  H      0.576395   -2.521066   -1.291097
  H      0.218189   -0.787337   -1.627023
  H     -1.128672   -1.826127    2.459418
  H     -1.712149   -0.649777    3.670318
  H     -4.059456   -1.023968    2.838334
  H     -3.451121   -2.253664    1.719544
  H     -3.329282   -2.512695    3.465421
  H     -3.912663    0.833061   -1.686345
  H     -4.313958   -0.901485   -1.596912
  H     -6.280610   -0.368066   -0.154952
  H     -5.884798    1.353046   -0.241426
  H     -6.387376    0.487882   -1.702372

 Total Charge           Charge          ....    0
 Multiplicity           Mult            ....    1
 Number of Electrons    NEL             ....  202
 Basis Dimension        Dim             ....  334

ORBITAL ENERGIES
----------------

  NO   OCC          E(Eh)            E(eV)
   0   2.0000     -88.049032     -2395.9360
   1   2.0000     -88.041134     -2395.7211
   2   2.0000     -87.981807     -2394.1067
   3   2.0000     -87.980031     -2394.0584
   4   2.0000     -76.427442     -2079.6964
   5   2.0000     -76.420730     -2079.5138
   6   2.0000     -18.795743      -511.4582
   7   2.0000     -18.795568      -511.4534
   8   2.0000     -18.784722      -511.1583
   9   2.0000     -18.782307      -511.0926
  10   2.0000      -9.959096      -271.0008
  11   2.0000      -9.954463      -270.8747
  12   2.0000      -9.953904      -270.8595
  13   2.0000      -9.948741      -270.7190
  14   2.0000      -9.938932      -270.4521
  15   2.0000      -9.890997      -269.1477
  16   2.0000      -9.889943      -269.1190
  17   2.0000      -9.877491      -268.7802
  18   2.0000      -9.868265      -268.5291
  19   2.0000      -7.693860      -209.3606
  20   2.0000      -7.686091      -209.1492
  21   2.0000      -7.626774      -207.5351
  22   2.0000      -7.624951      -207.4855
  23   2.0000      -6.424576      -174.8216
  24   2.0000      -6.418496      -174.6561
  25   2.0000      -5.721696      -155.6953
  26   2.0000      -5.718170      -155.5993
  27   2.0000      -5.713955      -155.4846
  28   2.0000      -5.711153      -155.4084
  29   2.0000      -5.710816      -155.3992
  30   2.0000      -5.702842      -155.1822
  31   2.0000      -5.655622      -153.8973
  32   2.0000      -5.654015      -153.8536
  33   2.0000      -5.647584      -153.6786
  34   2.0000      -5.646795      -153.6571
  35   2.0000      -5.645380      -153.6186
  36   2.0000      -5.645130      -153.6118
  37   2.0000      -4.647299      -126.4594
  38   2.0000      -4.646601      -126.4404
  39   2.0000      -4.644677      -126.3881
  40   2.0000      -4.640931      -126.2861
  41   2.0000      -4.640128      -126.2643
  42   2.0000      -4.639190      -126.2388
  43   2.0000      -0.990524       -26.9535
  44   2.0000      -0.979450       -26.6522
  45   2.0000      -0.949260       -25.8307
  46   2.0000      -0.936058       -25.4714
  47   2.0000      -0.763973       -20.7888
  48   2.0000      -0.722177       -19.6514
  49   2.0000      -0.709587       -19.3089
  50   2.0000      -0.695361       -18.9217
  51   2.0000      -0.677133       -18.4257
  52   2.0000      -0.673050       -18.3146
  53   2.0000      -0.647538       -17.6204
  54   2.0000      -0.631459       -17.1829
  55   2.0000      -0.596407       -16.2291
  56   2.0000      -0.589264       -16.0347
  57   2.0000      -0.570595       -15.5267
  58   2.0000      -0.564148       -15.3512
  59   2.0000      -0.561606       -15.2821
  60   2.0000      -0.505910       -13.7665
  61   2.0000      -0.495659       -13.4876
  62   2.0000      -0.479848       -13.0573
  63   2.0000      -0.466577       -12.6962
  64   2.0000      -0.453075       -12.3288
  65   2.0000      -0.448307       -12.1990
  66   2.0000      -0.437993       -11.9184
  67   2.0000      -0.434871       -11.8334
  68   2.0000      -0.428067       -11.6483
  69   2.0000      -0.413705       -11.2575
  70   2.0000      -0.407769       -11.0960
  71   2.0000      -0.401986       -10.9386
  72   2.0000      -0.391291       -10.6476
  73   2.0000      -0.379853       -10.3363
  74   2.0000      -0.376059       -10.2331
  75   2.0000      -0.369960       -10.0671
  76   2.0000      -0.364318        -9.9136
  77   2.0000      -0.359803        -9.7907
  78   2.0000      -0.355104        -9.6629
  79   2.0000      -0.350664        -9.5421
  80   2.0000      -0.349686        -9.5155
  81   2.0000      -0.341388        -9.2896
  82   2.0000      -0.336166        -9.1475
  83   2.0000      -0.335709        -9.1351
  84   2.0000      -0.324064        -8.8182
  85   2.0000      -0.316228        -8.6050
  86   2.0000      -0.305314        -8.3080
  87   2.0000      -0.300801        -8.1852
  88   2.0000      -0.294273        -8.0076
  89   2.0000      -0.286992        -7.8094
  90   2.0000      -0.281538        -7.6610
  91   2.0000      -0.278751        -7.5852
  92   2.0000      -0.269007        -7.3200
  93   2.0000      -0.263843        -7.1795
  94   2.0000      -0.257972        -7.0198
  95   2.0000      -0.236287        -6.4297
  96   2.0000      -0.222544        -6.0557
  97   2.0000      -0.210542        -5.7291
  98   2.0000      -0.198051        -5.3892
  99   2.0000      -0.194703        -5.2981
 100   2.0000      -0.185723        -5.0538
 101   0.0000      -0.047287        -1.2868
 102   0.0000      -0.033814        -0.9201
 103   0.0000      -0.007093        -0.1930
 104   0.0000       0.011529         0.3137
 105   0.0000       0.018389         0.5004

MULLIKEN ATOMIC CHARGES
-----------------------
   0 C :   -0.288464
   1 C :   -0.001546
   2 O :   -0.370735
   3 P :    0.627148
   4 S :   -0.318007
   5 O :   -0.377040
   6 C :   -0.010495
   7 C :   -0.309619
   8 S :   -0.110138
   9 C :   -0.342413
  10 S :   -0.125250
  11 P :    0.594921
  12 S :   -0.302970
  13 O :   -0.350103
  14 C :   -0.001960
  15 C :   -0.307437
  16 O :   -0.374036
  17 C :   -0.011953
  18 C :   -0.280884
  19 H :    0.124621
  20 H :    0.105967
  21 H :    0.110656
  22 H :    0.103301
  23 H :    0.105312
  24 H :    0.097195
  25 H :    0.120548
  26 H :    0.101698
  27 H :    0.105077
  28 H :    0.143109
  29 H :    0.181633
  30 H :    0.215132
  31 H :    0.114130
  32 H :    0.111496
  33 H :    0.124191
  34 H :    0.119130
  35 H :    0.115621
  36 H :    0.109619
  37 H :    0.102170
  38 H :    0.114253
  39 H :    0.122430
  40 H :    0.113693
Sum of atomic charges:   -0.0000000

LOEWDIN ATOMIC CHARGES
----------------------
   0 C :   -0.361171
   1 C :   -0.112279
   2 O :   -0.249282
   3 P :    0.567606
   4 S :   -0.301890
   5 O :   -0.245278
   6 C :   -0.118021
   7 C :   -0.366957
   8 S :    0.081128
   9 C :   -0.476667
  10 S :    0.066630
  11 P :    0.564419
  12 S :   -0.297674
  13 O :   -0.227372
  14 C :   -0.112702
  15 C :   -0.366623
  16 O :   -0.245220
  17 C :   -0.120918
  18 C :   -0.350164
  19 H :    0.124592
  20 H :    0.127612
  21 H :    0.124637
  22 H :    0.110238
  23 H :    0.118162
  24 H :    0.114057
  25 H :    0.108016
  26 H :    0.119424
  27 H :    0.129050
  28 H :    0.121786
  29 H :    0.135007
  30 H :    0.124735
  31 H :    0.105619
  32 H :    0.123597
  33 H :    0.129420
  34 H :    0.117097
  35 H :    0.132568
  36 H :    0.110934
  37 H :    0.108605
  38 H :    0.125554
  39 H :    0.129970
  40 H :    0.131755

  Mayer bond orders larger than 0.100000
B(  0-C ,  1-C ) :   1.1682 B(  0-C , 19-H ) :   0.9354 B(  0-C , 20-H ) :   0.9409
B(  0-C , 21-H ) :   0.9475 B(  1-C ,  2-O ) :   0.8938 B(  1-C , 22-H ) :   0.9156
B(  1-C , 23-H ) :   0.9351 B(  2-O ,  3-P ) :   1.1308 B(  3-P ,  4-S ) :   1.6149
B(  3-P ,  5-O ) :   1.1189 B(  3-P ,  8-S ) :   0.9524 B(  4-S ,  8-S ) :   0.1191
B(  5-O ,  6-C ) :   0.8996 B(  6-C ,  7-C ) :   1.1714 B(  6-C , 24-H ) :   0.9346
B(  6-C , 25-H ) :   0.9039 B(  7-C , 26-H ) :   0.9463 B(  7-C , 27-H ) :   0.9406
B(  7-C , 28-H ) :   0.9256 B(  8-S ,  9-C ) :   0.9927 B(  9-C , 10-S ) :   1.0067
B(  9-C , 29-H ) :   0.9085 B(  9-C , 30-H ) :   0.8460 B( 10-S , 11-P ) :   0.9310
B( 10-S , 12-S ) :   0.1087 B( 11-P , 12-S ) :   1.6521 B( 11-P , 13-O ) :   1.1336
B( 11-P , 16-O ) :   1.0939 B( 13-O , 14-C ) :   0.8938 B( 14-C , 15-C ) :   1.1709
B( 14-C , 31-H ) :   0.9159 B( 14-C , 32-H ) :   0.9337 B( 15-C , 33-H ) :   0.9424
B( 15-C , 34-H ) :   0.9380 B( 15-C , 35-H ) :   0.9358 B( 16-O , 17-C ) :   0.9010
B( 17-C , 18-C ) :   1.1604 B( 17-C , 36-H ) :   0.9088 B( 17-C , 37-H ) :   0.9288
B( 18-C , 38-H ) :   0.9514 B( 18-C , 39-H ) :   0.9507 B( 18-C , 40-H ) :   0.9417

Dispersion correction           -0.065278264
FINAL SINGLE POINT ENERGY     -2929.520399860016

DIPOLE MOMENT
-------------

Method             : SCF
Type of density    : Electron Density
Multiplicity       :   1
Irrep              :   0
Energy             : -2929.6394725413829292 Eh
Relativity type    :
Basis              : AO
                                X                 Y                 Z
Electronic contribution:      6.212892969      -1.065140329      -5.756886214
Nuclear contribution   :     -6.730607401       0.281766785       6.543979170
                        -----------------------------------------
Total Dipole Moment    :     -0.517714432      -0.783373544       0.787092956
                        -----------------------------------------
Magnitude (a.u.)       :      1.225241880
Magnitude (Debye)      :      3.114317360

Rotational constants in cm-1:             0.013982             0.004500             0.004486
Rotational constants in MHz :           419.156213           134.900749           134.474024

                             ****ORCA TERMINATED NORMALLY****
TOTAL RUN TIME: 0 days 0 hours 0 minutes 20 seconds 943 msec
