                         Program Version 6.0.0  -   RELEASE  -
|  1> ! r2scan-3c def2/J RI DEFGRID2 scfconv6 printgap
|  2> %output
|  3>     printlevel normal
|  4> end
|  5> * xyz 0 1
|  6> C -1.4513849558 0.0534962433 -0.0006112184
|  7> C 0.0381360737 -0.0873429648 -0.0029028086
|  8> O 0.6412919264 -1.1403642361 0.0006036924
|  9> O 0.6585467475 1.0838448982 -3.36063e-05
| 10> H -1.7589399801 0.4848754351 0.9490281822
| 11> H -1.748671321 0.736314773 -0.7913857171
| 12> H -1.9155961697 -0.9176896692 -0.1336335149
| 13> H 1.6308355574 0.9969725358 0.0088154116
| 14> *
| 15>
| 16>                          ****END OF INPUT****

CARTESIAN COORDINATES (ANGSTROEM)
---------------------------------
  C     -1.451385    0.053496   -0.000611
  C      0.038136   -0.087343   -0.002903
  O      0.641292   -1.140364    0.000604
  O      0.658547    1.083845   -0.000034
  H     -1.758940    0.484875    0.949028
  H     -1.748671    0.736315   -0.791386
  H     -1.915596   -0.917690   -0.133634
  H      1.630836    0.996973    0.008815

 Total Charge           Charge          ....    0
 Multiplicity           Mult            ....    1
 Number of Electrons    NEL             ....   32
 Basis Dimension        Dim             ....  106

ORBITAL ENERGIES
----------------

  NO   OCC          E(Eh)            E(eV)
   0   2.0000     -19.004833      -517.1478
   1   2.0000     -18.935030      -515.2484
   2   2.0000     -10.166237      -276.6374
   3   2.0000     -10.046019      -273.3661
   4   2.0000      -1.079651       -29.3788
   5   2.0000      -0.979548       -26.6548
   6   2.0000      -0.732087       -19.9211
   7   2.0000      -0.597045       -16.2464
   8   2.0000      -0.459424       -12.5016
   9   2.0000      -0.445056       -12.1106
  10   2.0000      -0.443989       -12.0816
  11   2.0000      -0.385720       -10.4960
  12   2.0000      -0.367494       -10.0000
  13   2.0000      -0.356100        -9.6900
  14   2.0000      -0.294111        -8.0032
  15   2.0000      -0.241796        -6.5796
  16   0.0000      -0.020443        -0.5563
  17   0.0000       0.056290         1.5317
  18   0.0000       0.105402         2.8681
  19   0.0000       0.145050         3.9470
  20   0.0000       0.162150         4.4123

MULLIKEN ATOMIC CHARGES
-----------------------
   0 C :   -0.472377
   1 C :    0.374763
   2 O :   -0.403871
   3 O :   -0.342708
   4 H :    0.169830
   5 H :    0.166291
   6 H :    0.176806
   7 H :    0.331266
Sum of atomic charges:    0.0000000

LOEWDIN ATOMIC CHARGES
----------------------
   0 C :   -0.340946
   1 C :    0.332894
   2 O :   -0.422698
   3 O :   -0.405029
   4 H :    0.181040
   5 H :    0.178502
   6 H :    0.176428
   7 H :    0.299808

  Mayer bond orders larger than 0.100000
B(  0-C ,  1-C ) :   0.9849 B(  0-C ,  4-H ) :   0.9390 B(  0-C ,  5-H ) :   0.9512
B(  0-C ,  6-H ) :   0.9768 B(  1-C ,  2-O ) :   1.9216 B(  1-C ,  3-O ) :   1.0497
B(  3-O ,  7-H ) :   0.8591

Dispersion correction           -0.001208312
FINAL SINGLE POINT ENERGY      -229.050015378072

DIPOLE MOMENT
-------------

Method             : SCF
Type of density    : Electron Density
Multiplicity       :   1
Irrep              :   0
Energy             :  -229.0539159061515875 Eh
Relativity type    :
Basis              : AO
                                X                 Y                 Z
Electronic contribution:      3.257548227      -0.483378102      -0.018773088
Nuclear contribution   :     -3.538619379       1.219231556       0.030803424
                        -----------------------------------------
Total Dipole Moment    :     -0.281071153       0.735853454       0.012030336
                        -----------------------------------------
Magnitude (a.u.)       :      0.787798215
Magnitude (Debye)      :      2.002423928

Rotational constants in cm-1:             0.383847             0.318218             0.179761
Rotational constants in MHz :         11507.456785          9539.944855          5389.107480

                             ****ORCA TERMINATED NORMALLY****
TOTAL RUN TIME: 0 days 0 hours 0 minutes 19 seconds 677 msec
