                         Program Version 6.0.0  -   RELEASE  -
|  1> ! r2scan-3c def2/J RI DEFGRID2 scfconv6 printgap
|  2> %output
|  3>     printlevel normal
|  4> end
|  5> %cpcm
|  6>     smd true
|  7>     smdsolvent "water"
|  8> end
|  9> * xyz 0 1
| 10> C -1.4513849558 0.0534962433 -0.0006112184
| 11> C 0.0381360737 -0.0873429648 -0.0029028086
| 12> O 0.6412919264 -1.1403642361 0.0006036924
| 13> O 0.6585467475 1.0838448982 -3.36063e-05
| 14> H -1.7589399801 0.4848754351 0.9490281822
| 15> H -1.748671321 0.736314773 -0.7913857171
| 16> H -1.9155961697 -0.9176896692 -0.1336335149
| 17> H 1.6308355574 0.9969725358 0.0088154116
| 18> *
| 19>
| 20>                          ****END OF INPUT****

CARTESIAN COORDINATES (ANGSTROEM)
---------------------------------
  C     -1.451385    0.053496   -0.000611
  C      0.038136   -0.087343   -0.002903
  O      0.641292   -1.140364    0.000604
  O      0.658547    1.083845   -0.000034
  H     -1.758940    0.484875    0.949028
  H     -1.748671    0.736315   -0.791386
  H     -1.915596   -0.917690   -0.133634
  H      1.630836    0.996973    0.008815

 Total Charge           Charge          ....    0
 Multiplicity           Mult            ....    1
 Number of Electrons    NEL             ....   32
 Basis Dimension        Dim             ....  106

ORBITAL ENERGIES
----------------

  NO   OCC          E(Eh)            E(eV)
   0   2.0000     -18.999598      -517.0053
   1   2.0000     -18.943770      -515.4862
   2   2.0000     -10.170939      -276.7653
   3   2.0000     -10.031738      -272.9775
   4   2.0000      -1.078236       -29.3403
   5   2.0000      -0.985849       -26.8263
   6   2.0000      -0.721675       -19.6378
   7   2.0000      -0.586548       -15.9608
   8   2.0000      -0.465477       -12.6663
   9   2.0000      -0.445368       -12.1191
  10   2.0000      -0.440094       -11.9756
  11   2.0000      -0.373490       -10.1632
  12   2.0000      -0.357440        -9.7264
  13   2.0000      -0.356608        -9.7038
  14   2.0000      -0.300219        -8.1694
  15   2.0000      -0.253031        -6.8853
  16   0.0000      -0.022259        -0.6057
  17   0.0000       0.077953         2.1212
  18   0.0000       0.125682         3.4200
  19   0.0000       0.158784         4.3207
  20   0.0000       0.171441         4.6651

MULLIKEN ATOMIC CHARGES
-----------------------
   0 C :   -0.508579
   1 C :    0.412793
   2 O :   -0.496141
   3 O :   -0.364786
   4 H :    0.200381
   5 H :    0.192903
   6 H :    0.184187
   7 H :    0.379242
Sum of atomic charges:    0.0000000

LOEWDIN ATOMIC CHARGES
----------------------
   0 C :   -0.341197
   1 C :    0.344900
   2 O :   -0.489803
   3 O :   -0.395919
   4 H :    0.193217
   5 H :    0.189562
   6 H :    0.179562
   7 H :    0.319678

  Mayer bond orders larger than 0.100000
B(  0-C ,  1-C ) :   0.9868 B(  0-C ,  4-H ) :   0.9271 B(  0-C ,  5-H ) :   0.9407
B(  0-C ,  6-H ) :   0.9710 B(  1-C ,  2-O ) :   1.8490 B(  1-C ,  3-O ) :   1.0873
B(  3-O ,  7-H ) :   0.8347

Dispersion correction           -0.001208312
FINAL SINGLE POINT ENERGY      -229.060724544431

DIPOLE MOMENT
-------------

Method             : SCF
Type of density    : Electron Density
Multiplicity       :   1
Irrep              :   0
Energy             :  -229.0646250725104380 Eh
Relativity type    :
Basis              : AO
                                X                 Y                 Z
Electronic contribution:      3.175419848      -0.185066007      -0.011921152
Nuclear contribution   :     -3.538619379       1.219231556       0.030803424
                        -----------------------------------------
Total Dipole Moment    :     -0.363199532       1.034165549       0.018882271
                        -----------------------------------------
Magnitude (a.u.)       :      1.096252171
Magnitude (Debye)      :      2.786451576

Rotational constants in cm-1:             0.383847             0.318218             0.179761
Rotational constants in MHz :         11507.456785          9539.944855          5389.107480

                             ****ORCA TERMINATED NORMALLY****
TOTAL RUN TIME: 0 days 0 hours 0 minutes 23 seconds 152 msec
