                         Program Version 6.0.0  -   RELEASE  -
|  1> ! pbe def2-sv(p) def2/J RI DEFGRID1 loosescf d4 GCP(DFT/SV(P)) printgap
|  2> %output
|  3>     printlevel normal
|  4> end
|  5> * xyz 0 1
|  6> C 5.3808352718 -0.1182043757 -1.4565331474
|  7> C 4.5796789325 -0.6312623042 -0.2762463651
|  8> O 3.5983283345 0.3308752361 0.157434137
|  9> P 2.1300143106 0.4393611788 -0.450979116
| 10> S 1.9800604014 0.8389634123 -2.3586536687
| 11> O 1.5293531998 1.5656684389 0.4681928217
| 12> C 1.6646740532 1.5465929283 1.9131789492
| 13> C 0.6900309023 2.5558732092 2.4807143644
| 14> S 1.3094500518 -1.4347538653 0.1492020956
| 15> C 0.1806272044 -1.773286612 -1.2368957603
| 16> S -1.5205614199 -2.0469891706 -0.6995145229
| 17> P -1.8999022373 -0.0964716916 0.0688976785
| 18> S -1.3369695315 1.3901076492 -1.0742538371
| 19> O -1.2481575721 -0.0410988207 1.4999357065
| 20> C -1.5624564918 -0.9944280937 2.5511383678
| 21> C -2.5620279704 -0.4003790787 3.5205794372
| 22> O -3.4516727485 -0.1660188614 0.3925102903
| 23> C -4.4335323396 -0.1799835792 -0.6641470905
| 24> C -5.7826643013 0.1283283397 -0.0474535393
| 25> H 6.1468589187 -0.8437672353 -1.7101623251
| 26> H 4.73305278 0.0322983957 -2.3173201851
| 27> H 5.8504738606 0.8292431459 -1.206738593
| 28> H 5.2141953263 -0.7754952466 0.6004345739
| 29> H 4.0753456809 -1.570127929 -0.5206762592
| 30> H 1.447000444 0.533893775 2.265381831
| 31> H 2.6984813569 1.8006724024 2.1542171999
| 32> H 0.9108719747 3.545595696 2.0911225114
| 33> H -0.3247449986 2.2911126194 2.1940027402
| 34> H 0.7731993306 2.5636148215 3.5626840551
| 35> H 0.4980525482 -2.6950838126 -1.7177609628
| 36> H 0.2265056111 -0.9294650982 -1.932158793
| 37> H -1.9464150146 -1.9106467356 2.0948525069
| 38> H -0.6049729352 -1.1997708972 3.0337033716
| 39> H -2.1727553248 0.5211527365 3.944338422
| 40> H -3.4962839756 -0.184354787 3.0093672799
| 41> H -2.7456386736 -1.112554776 4.3188474229
| 42> H -4.1501469517 0.5683689394 -1.4115282515
| 43> H -4.4211014563 -1.1703588453 -1.1269531921
| 44> H -5.7652068019 1.1098241499 0.417954288
| 45> H -6.5394140781 0.1151378042 -0.8248066469
| 46> H -6.0267163085 -0.6166066864 0.7042003749
| 47> *
| 48>
| 49>                          ****END OF INPUT****

CARTESIAN COORDINATES (ANGSTROEM)
---------------------------------
  C      5.380835   -0.118204   -1.456533
  C      4.579679   -0.631262   -0.276246
  O      3.598328    0.330875    0.157434
  P      2.130014    0.439361   -0.450979
  S      1.980060    0.838963   -2.358654
  O      1.529353    1.565668    0.468193
  C      1.664674    1.546593    1.913179
  C      0.690031    2.555873    2.480714
  S      1.309450   -1.434754    0.149202
  C      0.180627   -1.773287   -1.236896
  S     -1.520561   -2.046989   -0.699515
  P     -1.899902   -0.096472    0.068898
  S     -1.336970    1.390108   -1.074254
  O     -1.248158   -0.041099    1.499936
  C     -1.562456   -0.994428    2.551138
  C     -2.562028   -0.400379    3.520579
  O     -3.451673   -0.166019    0.392510
  C     -4.433532   -0.179984   -0.664147
  C     -5.782664    0.128328   -0.047454
  H      6.146859   -0.843767   -1.710162
  H      4.733053    0.032298   -2.317320
  H      5.850474    0.829243   -1.206739
  H      5.214195   -0.775495    0.600435
  H      4.075346   -1.570128   -0.520676
  H      1.447000    0.533894    2.265382
  H      2.698481    1.800672    2.154217
  H      0.910872    3.545596    2.091123
  H     -0.324745    2.291113    2.194003
  H      0.773199    2.563615    3.562684
  H      0.498053   -2.695084   -1.717761
  H      0.226506   -0.929465   -1.932159
  H     -1.946415   -1.910647    2.094853
  H     -0.604973   -1.199771    3.033703
  H     -2.172755    0.521153    3.944338
  H     -3.496284   -0.184355    3.009367
  H     -2.745639   -1.112555    4.318847
  H     -4.150147    0.568369   -1.411528
  H     -4.421101   -1.170359   -1.126953
  H     -5.765207    1.109824    0.417954
  H     -6.539414    0.115138   -0.824807
  H     -6.026716   -0.616607    0.704200

 Total Charge           Charge          ....    0
 Multiplicity           Mult            ....    1
 Number of Electrons    NEL             ....  202
 Basis Dimension        Dim             ....  334

ORBITAL ENERGIES
----------------

  NO   OCC          E(Eh)            E(eV)
   0   2.0000     -88.042312     -2395.7531
   1   2.0000     -88.040207     -2395.6958
   2   2.0000     -87.978459     -2394.0156
   3   2.0000     -87.977560     -2393.9911
   4   2.0000     -76.423542     -2079.5903
   5   2.0000     -76.419835     -2079.4894
   6   2.0000     -18.795915      -511.4628
   7   2.0000     -18.795170      -511.4426
   8   2.0000     -18.788458      -511.2599
   9   2.0000     -18.782445      -511.0963
  10   2.0000      -9.958703      -270.9901
  11   2.0000      -9.955774      -270.9104
  12   2.0000      -9.952187      -270.8128
  13   2.0000      -9.951066      -270.7823
  14   2.0000      -9.948028      -270.6996
  15   2.0000      -9.891548      -269.1627
  16   2.0000      -9.890394      -269.1313
  17   2.0000      -9.877201      -268.7723
  18   2.0000      -9.876582      -268.7555
  19   2.0000      -7.687545      -209.1887
  20   2.0000      -7.684830      -209.1149
  21   2.0000      -7.623422      -207.4439
  22   2.0000      -7.622788      -207.4266
  23   2.0000      -6.421145      -174.7282
  24   2.0000      -6.417152      -174.6196
  25   2.0000      -5.715325      -155.5219
  26   2.0000      -5.712607      -155.4479
  27   2.0000      -5.711876      -155.4281
  28   2.0000      -5.709175      -155.3545
  29   2.0000      -5.704802      -155.2355
  30   2.0000      -5.702117      -155.1625
  31   2.0000      -5.652505      -153.8125
  32   2.0000      -5.651861      -153.7949
  33   2.0000      -5.643941      -153.5794
  34   2.0000      -5.643542      -153.5686
  35   2.0000      -5.643282      -153.5615
  36   2.0000      -5.642849      -153.5497
  37   2.0000      -4.644065      -126.3714
  38   2.0000      -4.643021      -126.3430
  39   2.0000      -4.641091      -126.2905
  40   2.0000      -4.639880      -126.2576
  41   2.0000      -4.638999      -126.2336
  42   2.0000      -4.637449      -126.1914
  43   2.0000      -0.991766       -26.9873
  44   2.0000      -0.982436       -26.7335
  45   2.0000      -0.948767       -25.8173
  46   2.0000      -0.936534       -25.4844
  47   2.0000      -0.760416       -20.6920
  48   2.0000      -0.720546       -19.6071
  49   2.0000      -0.709883       -19.3169
  50   2.0000      -0.695882       -18.9359
  51   2.0000      -0.683470       -18.5982
  52   2.0000      -0.673484       -18.3264
  53   2.0000      -0.645748       -17.5717
  54   2.0000      -0.630679       -17.1617
  55   2.0000      -0.589022       -16.0281
  56   2.0000      -0.581504       -15.8235
  57   2.0000      -0.573608       -15.6087
  58   2.0000      -0.566739       -15.4218
  59   2.0000      -0.563238       -15.3265
  60   2.0000      -0.512204       -13.9378
  61   2.0000      -0.501107       -13.6358
  62   2.0000      -0.485186       -13.2026
  63   2.0000      -0.474941       -12.9238
  64   2.0000      -0.449765       -12.2387
  65   2.0000      -0.447601       -12.1798
  66   2.0000      -0.442013       -12.0278
  67   2.0000      -0.434504       -11.8235
  68   2.0000      -0.429741       -11.6938
  69   2.0000      -0.415515       -11.3067
  70   2.0000      -0.405010       -11.0209
  71   2.0000      -0.395600       -10.7648
  72   2.0000      -0.393106       -10.6970
  73   2.0000      -0.384007       -10.4494
  74   2.0000      -0.380547       -10.3552
  75   2.0000      -0.366256        -9.9663
  76   2.0000      -0.360576        -9.8118
  77   2.0000      -0.355665        -9.6781
  78   2.0000      -0.351772        -9.5722
  79   2.0000      -0.350525        -9.5383
  80   2.0000      -0.346740        -9.4353
  81   2.0000      -0.344764        -9.3815
  82   2.0000      -0.341918        -9.3041
  83   2.0000      -0.330619        -8.9966
  84   2.0000      -0.329890        -8.9768
  85   2.0000      -0.318226        -8.6594
  86   2.0000      -0.311750        -8.4831
  87   2.0000      -0.302524        -8.2321
  88   2.0000      -0.297423        -8.0933
  89   2.0000      -0.292861        -7.9691
  90   2.0000      -0.289776        -7.8852
  91   2.0000      -0.277216        -7.5434
  92   2.0000      -0.265878        -7.2349
  93   2.0000      -0.262014        -7.1298
  94   2.0000      -0.255657        -6.9568
  95   2.0000      -0.235919        -6.4197
  96   2.0000      -0.221612        -6.0304
  97   2.0000      -0.209720        -5.7068
  98   2.0000      -0.198545        -5.4027
  99   2.0000      -0.188286        -5.1235
 100   2.0000      -0.180191        -4.9033
 101   0.0000      -0.038383        -1.0445
 102   0.0000      -0.028527        -0.7763
 103   0.0000      -0.004906        -0.1335
 104   0.0000       0.013719         0.3733
 105   0.0000       0.018729         0.5096

MULLIKEN ATOMIC CHARGES
-----------------------
   0 C :   -0.293765
   1 C :   -0.007202
   2 O :   -0.386738
   3 P :    0.610612
   4 S :   -0.286517
   5 O :   -0.346515
   6 C :   -0.013173
   7 C :   -0.289322
   8 S :   -0.131363
   9 C :   -0.344925
  10 S :   -0.113839
  11 P :    0.579964
  12 S :   -0.271501
  13 O :   -0.350084
  14 C :   -0.013449
  15 C :   -0.290263
  16 O :   -0.384608
  17 C :   -0.012606
  18 C :   -0.283812
  19 H :    0.104364
  20 H :    0.129928
  21 H :    0.113376
  22 H :    0.101690
  23 H :    0.097780
  24 H :    0.098930
  25 H :    0.105494
  26 H :    0.118987
  27 H :    0.137227
  28 H :    0.099181
  29 H :    0.179189
  30 H :    0.208990
  31 H :    0.103164
  32 H :    0.110168
  33 H :    0.119188
  34 H :    0.123670
  35 H :    0.110276
  36 H :    0.108635
  37 H :    0.105640
  38 H :    0.123199
  39 H :    0.114904
  40 H :    0.115127
Sum of atomic charges:    0.0000000

LOEWDIN ATOMIC CHARGES
----------------------
   0 C :   -0.365317
   1 C :   -0.117769
   2 O :   -0.249780
   3 P :    0.567488
   4 S :   -0.288675
   5 O :   -0.225802
   6 C :   -0.112482
   7 C :   -0.355085
   8 S :    0.056022
   9 C :   -0.480456
  10 S :    0.058134
  11 P :    0.553955
  12 S :   -0.282798
  13 O :   -0.228614
  14 C :   -0.116485
  15 C :   -0.358563
  16 O :   -0.251326
  17 C :   -0.120141
  18 C :   -0.350857
  19 H :    0.127287
  20 H :    0.123888
  21 H :    0.126142
  22 H :    0.116301
  23 H :    0.102257
  24 H :    0.101982
  25 H :    0.112215
  26 H :    0.129700
  27 H :    0.128851
  28 H :    0.124657
  29 H :    0.135859
  30 H :    0.125634
  31 H :    0.104991
  32 H :    0.115973
  33 H :    0.127341
  34 H :    0.127215
  35 H :    0.129900
  36 H :    0.111540
  37 H :    0.109311
  38 H :    0.129856
  39 H :    0.132370
  40 H :    0.125278

  Mayer bond orders larger than 0.100000
B(  0-C ,  1-C ) :   1.1664 B(  0-C , 19-H ) :   0.9389 B(  0-C , 20-H ) :   0.9293
B(  0-C , 21-H ) :   0.9473 B(  1-C ,  2-O ) :   0.9133 B(  1-C , 22-H ) :   0.9367
B(  1-C , 23-H ) :   0.9129 B(  2-O ,  3-P ) :   1.0690 B(  3-P ,  4-S ) :   1.6528
B(  3-P ,  5-O ) :   1.1440 B(  3-P ,  8-S ) :   0.9408 B(  4-S ,  8-S ) :   0.1172
B(  5-O ,  6-C ) :   0.8920 B(  6-C ,  7-C ) :   1.1659 B(  6-C , 24-H ) :   0.9138
B(  6-C , 25-H ) :   0.9293 B(  7-C , 26-H ) :   0.9476 B(  7-C , 27-H ) :   0.9358
B(  7-C , 28-H ) :   0.9403 B(  8-S ,  9-C ) :   0.9957 B(  9-C , 10-S ) :   0.9999
B(  9-C , 29-H ) :   0.9115 B(  9-C , 30-H ) :   0.8426 B( 10-S , 11-P ) :   0.9411
B( 10-S , 12-S ) :   0.1084 B( 11-P , 12-S ) :   1.6938 B( 11-P , 13-O ) :   1.1195
B( 11-P , 16-O ) :   1.0725 B( 13-O , 14-C ) :   0.8841 B( 14-C , 15-C ) :   1.1653
B( 14-C , 31-H ) :   0.9110 B( 14-C , 32-H ) :   0.9292 B( 15-C , 33-H ) :   0.9473
B( 15-C , 34-H ) :   0.9412 B( 15-C , 35-H ) :   0.9400 B( 16-O , 17-C ) :   0.9038
B( 17-C , 18-C ) :   1.1596 B( 17-C , 36-H ) :   0.9094 B( 17-C , 37-H ) :   0.9285
B( 18-C , 38-H ) :   0.9508 B( 18-C , 39-H ) :   0.9417 B( 18-C , 40-H ) :   0.9508

Dispersion correction           -0.066137446
FINAL SINGLE POINT ENERGY     -2929.518562880097

DIPOLE MOMENT
-------------

Method             : SCF
Type of density    : Electron Density
Multiplicity       :   1
Irrep              :   0
Energy             : -2929.6381596342926059 Eh
Relativity type    :
Basis              : AO
                                X                 Y                 Z
Electronic contribution:      5.063661672      -1.850377582     -15.390646173
Nuclear contribution   :     -5.483698248       0.601779681      17.027391070
                        -----------------------------------------
Total Dipole Moment    :     -0.420036577      -1.248597901       1.636744897
                        -----------------------------------------
Magnitude (a.u.)       :      2.101038149
Magnitude (Debye)      :      5.340414565

Rotational constants in cm-1:             0.013338             0.005083             0.004726
Rotational constants in MHz :           399.859520           152.396592           141.673695

                             ****ORCA TERMINATED NORMALLY****
TOTAL RUN TIME: 0 days 0 hours 0 minutes 21 seconds 444 msec
