                         Program Version 6.0.0  -   RELEASE  -
|  1> ! pbe def2-sv(p) def2/J RI DEFGRID1 loosescf d4 GCP(DFT/SV(P)) printgap
|  2> %output
|  3>     printlevel normal
|  4> end
|  5> * xyz 0 1
|  6> C 4.6748857319 -1.5487466898 -0.7437728199
|  7> C 4.6984077974 -0.1414401606 -0.182908606
|  8> O 3.5053624854 0.1722428893 0.5557031898
|  9> P 2.0827667087 0.3322689752 -0.1386602503
| 10> S 2.1354998598 1.1809239205 -1.9090166907
| 11> O 1.2674658172 1.0584897129 1.0088348441
| 12> C 1.2232705332 2.4913722529 1.145918905
| 13> C 2.5759350183 3.0762174701 1.4906883795
| 14> S 1.2789904264 -1.6070950001 -0.0063473549
| 15> C 0.1436670813 -1.6030793794 -1.4371381834
| 16> S -1.5691423329 -1.9210513705 -0.9654340604
| 17> P -1.9516737105 -0.074369868 0.0172697966
| 18> S -1.3772279468 1.5229636502 -0.9558909738
| 19> O -1.3183888857 -0.1638161771 1.4531771848
| 20> C -1.5665280847 -1.2515725613 2.3816435682
| 21> C -2.6749521769 -0.8900490581 3.3476777292
| 22> O -3.5096171766 -0.1696862794 0.3048599498
| 23> C -4.4710741752 -0.0744539959 -0.7672415477
| 24> C -5.8349389185 0.1552854902 -0.1489926131
| 25> H 4.4491101513 -2.2656457152 0.0415111282
| 26> H 3.9153687036 -1.6258357926 -1.5205277735
| 27> H 5.643713875 -1.7776484163 -1.1759364245
| 28> H 4.8057970298 0.5899979146 -0.9903951256
| 29> H 5.4983041019 -0.0114413 0.5472094427
| 30> H 0.8378303168 2.915523357 0.212314492
| 31> H 0.4925561206 2.6500333802 1.9407974079
| 32> H 3.2593158619 2.9499603209 0.6517383107
| 33> H 2.4637945968 4.1360479347 1.6971011013
| 34> H 2.989483594 2.5758145952 2.3624958314
| 35> H 0.4298834513 -2.4172561795 -2.0976694221
| 36> H 0.2184629641 -0.6369578918 -1.9442916153
| 37> H -1.8122248759 -2.1534565373 1.8138275953
| 38> H -0.6121085105 -1.3891445709 2.8938738091
| 39> H -3.6092669643 -0.7470660232 2.8116801193
| 40> H -2.79201343 -1.6946181515 4.0669067901
| 41> H -2.4282642218 0.0283292209 3.8732848307
| 42> H -4.1802400192 0.753675715 -1.4217706147
| 43> H -4.4398771294 -1.0076909016 -1.3356345371
| 44> H -5.833481659 1.076113959 0.4274842862
| 45> H -6.574420988 0.229483062 -0.9394295515
| 46> H -6.0911926681 -0.6723753367 0.505827937
| 47> *
| 48>
| 49>                          ****END OF INPUT****

CARTESIAN COORDINATES (ANGSTROEM)
---------------------------------
  C      4.674886   -1.548747   -0.743773
  C      4.698408   -0.141440   -0.182909
  O      3.505362    0.172243    0.555703
  P      2.082767    0.332269   -0.138660
  S      2.135500    1.180924   -1.909017
  O      1.267466    1.058490    1.008835
  C      1.223271    2.491372    1.145919
  C      2.575935    3.076217    1.490688
  S      1.278990   -1.607095   -0.006347
  C      0.143667   -1.603079   -1.437138
  S     -1.569142   -1.921051   -0.965434
  P     -1.951674   -0.074370    0.017270
  S     -1.377228    1.522964   -0.955891
  O     -1.318389   -0.163816    1.453177
  C     -1.566528   -1.251573    2.381644
  C     -2.674952   -0.890049    3.347678
  O     -3.509617   -0.169686    0.304860
  C     -4.471074   -0.074454   -0.767242
  C     -5.834939    0.155285   -0.148993
  H      4.449110   -2.265646    0.041511
  H      3.915369   -1.625836   -1.520528
  H      5.643714   -1.777648   -1.175936
  H      4.805797    0.589998   -0.990395
  H      5.498304   -0.011441    0.547209
  H      0.837830    2.915523    0.212314
  H      0.492556    2.650033    1.940797
  H      3.259316    2.949960    0.651738
  H      2.463795    4.136048    1.697101
  H      2.989484    2.575815    2.362496
  H      0.429883   -2.417256   -2.097669
  H      0.218463   -0.636958   -1.944292
  H     -1.812225   -2.153457    1.813828
  H     -0.612109   -1.389145    2.893874
  H     -3.609267   -0.747066    2.811680
  H     -2.792013   -1.694618    4.066907
  H     -2.428264    0.028329    3.873285
  H     -4.180240    0.753676   -1.421771
  H     -4.439877   -1.007691   -1.335635
  H     -5.833482    1.076114    0.427484
  H     -6.574421    0.229483   -0.939430
  H     -6.091193   -0.672375    0.505828

 Total Charge           Charge          ....    0
 Multiplicity           Mult            ....    1
 Number of Electrons    NEL             ....  202
 Basis Dimension        Dim             ....  334

ORBITAL ENERGIES
----------------

  NO   OCC          E(Eh)            E(eV)
   0   2.0000     -88.042918     -2395.7696
   1   2.0000     -88.039722     -2395.6826
   2   2.0000     -87.981796     -2394.1064
   3   2.0000     -87.979239     -2394.0368
   4   2.0000     -76.423191     -2079.5808
   5   2.0000     -76.419968     -2079.4930
   6   2.0000     -18.796116      -511.4683
   7   2.0000     -18.790381      -511.3123
   8   2.0000     -18.787720      -511.2398
   9   2.0000     -18.777800      -510.9699
  10   2.0000      -9.955246      -270.8960
  11   2.0000      -9.954039      -270.8632
  12   2.0000      -9.952506      -270.8215
  13   2.0000      -9.948113      -270.7019
  14   2.0000      -9.937355      -270.4092
  15   2.0000      -9.891068      -269.1496
  16   2.0000      -9.885373      -268.9947
  17   2.0000      -9.880723      -268.8681
  18   2.0000      -9.875082      -268.7147
  19   2.0000      -7.688212      -209.2069
  20   2.0000      -7.684942      -209.1179
  21   2.0000      -7.626688      -207.5327
  22   2.0000      -7.624250      -207.4664
  23   2.0000      -6.420910      -174.7218
  24   2.0000      -6.417520      -174.6296
  25   2.0000      -5.715939      -155.5386
  26   2.0000      -5.712794      -155.4530
  27   2.0000      -5.712537      -155.4460
  28   2.0000      -5.709529      -155.3642
  29   2.0000      -5.705497      -155.2545
  30   2.0000      -5.701774      -155.1531
  31   2.0000      -5.655533      -153.8949
  32   2.0000      -5.653227      -153.8321
  33   2.0000      -5.647541      -153.6774
  34   2.0000      -5.646714      -153.6549
  35   2.0000      -5.644750      -153.6015
  36   2.0000      -5.644431      -153.5928
  37   2.0000      -4.643776      -126.3636
  38   2.0000      -4.642797      -126.3369
  39   2.0000      -4.640915      -126.2857
  40   2.0000      -4.639777      -126.2547
  41   2.0000      -4.639119      -126.2368
  42   2.0000      -4.638430      -126.2181
  43   2.0000      -0.988976       -26.9114
  44   2.0000      -0.979096       -26.6426
  45   2.0000      -0.946120       -25.7452
  46   2.0000      -0.936376       -25.4801
  47   2.0000      -0.761218       -20.7138
  48   2.0000      -0.719954       -19.5909
  49   2.0000      -0.706564       -19.2266
  50   2.0000      -0.692948       -18.8561
  51   2.0000      -0.681765       -18.5518
  52   2.0000      -0.670858       -18.2550
  53   2.0000      -0.647052       -17.6072
  54   2.0000      -0.631376       -17.1806
  55   2.0000      -0.597190       -16.2504
  56   2.0000      -0.587360       -15.9829
  57   2.0000      -0.569714       -15.5027
  58   2.0000      -0.565691       -15.3932
  59   2.0000      -0.561746       -15.2859
  60   2.0000      -0.508128       -13.8269
  61   2.0000      -0.485571       -13.2131
  62   2.0000      -0.480998       -13.0886
  63   2.0000      -0.464585       -12.6420
  64   2.0000      -0.448128       -12.1942
  65   2.0000      -0.446013       -12.1366
  66   2.0000      -0.437571       -11.9069
  67   2.0000      -0.433339       -11.7917
  68   2.0000      -0.432149       -11.7594
  69   2.0000      -0.413528       -11.2527
  70   2.0000      -0.407362       -11.0849
  71   2.0000      -0.390273       -10.6199
  72   2.0000      -0.385845       -10.4994
  73   2.0000      -0.383140       -10.4258
  74   2.0000      -0.381861       -10.3910
  75   2.0000      -0.376305       -10.2398
  76   2.0000      -0.364273        -9.9124
  77   2.0000      -0.356987        -9.7141
  78   2.0000      -0.353298        -9.6137
  79   2.0000      -0.348953        -9.4955
  80   2.0000      -0.345303        -9.3962
  81   2.0000      -0.341943        -9.3047
  82   2.0000      -0.339993        -9.2517
  83   2.0000      -0.334663        -9.1066
  84   2.0000      -0.331208        -9.0126
  85   2.0000      -0.317450        -8.6383
  86   2.0000      -0.307043        -8.3551
  87   2.0000      -0.301247        -8.1974
  88   2.0000      -0.291596        -7.9347
  89   2.0000      -0.289928        -7.8893
  90   2.0000      -0.276079        -7.5125
  91   2.0000      -0.270205        -7.3526
  92   2.0000      -0.263495        -7.1701
  93   2.0000      -0.261940        -7.1278
  94   2.0000      -0.255890        -6.9631
  95   2.0000      -0.236820        -6.4442
  96   2.0000      -0.218397        -5.9429
  97   2.0000      -0.213104        -5.7989
  98   2.0000      -0.202323        -5.5055
  99   2.0000      -0.191672        -5.2157
 100   2.0000      -0.184646        -5.0245
 101   0.0000      -0.038335        -1.0431
 102   0.0000      -0.029013        -0.7895
 103   0.0000      -0.007407        -0.2015
 104   0.0000       0.015931         0.4335
 105   0.0000       0.023026         0.6266

MULLIKEN ATOMIC CHARGES
-----------------------
   0 C :   -0.308734
   1 C :   -0.002790
   2 O :   -0.375634
   3 P :    0.612606
   4 S :   -0.319081
   5 O :   -0.353349
   6 C :   -0.000665
   7 C :   -0.303352
   8 S :   -0.095581
   9 C :   -0.357924
  10 S :   -0.112226
  11 P :    0.594550
  12 S :   -0.299447
  13 O :   -0.340229
  14 C :   -0.009537
  15 C :   -0.290014
  16 O :   -0.383566
  17 C :   -0.013788
  18 C :   -0.282922
  19 H :    0.116312
  20 H :    0.120321
  21 H :    0.110604
  22 H :    0.109014
  23 H :    0.102930
  24 H :    0.122424
  25 H :    0.100078
  26 H :    0.119422
  27 H :    0.108837
  28 H :    0.111865
  29 H :    0.182277
  30 H :    0.211973
  31 H :    0.099941
  32 H :    0.110980
  33 H :    0.121365
  34 H :    0.108781
  35 H :    0.117495
  36 H :    0.108221
  37 H :    0.105525
  38 H :    0.122917
  39 H :    0.114241
  40 H :    0.116163
Sum of atomic charges:   -0.0000000

LOEWDIN ATOMIC CHARGES
----------------------
   0 C :   -0.369189
   1 C :   -0.120068
   2 O :   -0.246000
   3 P :    0.571635
   4 S :   -0.311983
   5 O :   -0.231461
   6 C :   -0.118420
   7 C :   -0.366237
   8 S :    0.083482
   9 C :   -0.478189
  10 S :    0.062908
  11 P :    0.561174
  12 S :   -0.291942
  13 O :   -0.223214
  14 C :   -0.116053
  15 C :   -0.360091
  16 O :   -0.250561
  17 C :   -0.120561
  18 C :   -0.350525
  19 H :    0.123260
  20 H :    0.119534
  21 H :    0.129590
  22 H :    0.109262
  23 H :    0.117506
  24 H :    0.109488
  25 H :    0.117643
  26 H :    0.120756
  27 H :    0.128844
  28 H :    0.123769
  29 H :    0.136564
  30 H :    0.127247
  31 H :    0.102223
  32 H :    0.120403
  33 H :    0.124907
  34 H :    0.129129
  35 H :    0.127604
  36 H :    0.111199
  37 H :    0.108822
  38 H :    0.129898
  39 H :    0.132061
  40 H :    0.125586

  Mayer bond orders larger than 0.100000
B(  0-C ,  1-C ) :   1.1675 B(  0-C , 19-H ) :   0.9440 B(  0-C , 20-H ) :   0.9369
B(  0-C , 21-H ) :   0.9381 B(  1-C ,  2-O ) :   0.9127 B(  1-C , 22-H ) :   0.9143
B(  1-C , 23-H ) :   0.9341 B(  2-O ,  3-P ) :   1.0952 B(  3-P ,  4-S ) :   1.5943
B(  3-P ,  5-O ) :   1.1493 B(  3-P ,  8-S ) :   0.9603 B(  4-S ,  8-S ) :   0.1157
B(  5-O ,  6-C ) :   0.9045 B(  6-C ,  7-C ) :   1.1575 B(  6-C , 24-H ) :   0.9135
B(  6-C , 25-H ) :   0.9361 B(  7-C , 26-H ) :   0.9376 B(  7-C , 27-H ) :   0.9392
B(  7-C , 28-H ) :   0.9447 B(  8-S ,  9-C ) :   0.9933 B(  9-C , 10-S ) :   1.0035
B(  9-C , 29-H ) :   0.9120 B(  9-C , 30-H ) :   0.8473 B( 10-S , 11-P ) :   0.9453
B( 10-S , 12-S ) :   0.1055 B( 11-P , 12-S ) :   1.6610 B( 11-P , 13-O ) :   1.1536
B( 11-P , 16-O ) :   1.0765 B( 13-O , 14-C ) :   0.8892 B( 14-C , 15-C ) :   1.1632
B( 14-C , 31-H ) :   0.9104 B( 14-C , 32-H ) :   0.9329 B( 15-C , 33-H ) :   0.9410
B( 15-C , 34-H ) :   0.9401 B( 15-C , 35-H ) :   0.9474 B( 16-O , 17-C ) :   0.9037
B( 17-C , 18-C ) :   1.1597 B( 17-C , 36-H ) :   0.9099 B( 17-C , 37-H ) :   0.9281
B( 18-C , 38-H ) :   0.9508 B( 18-C , 39-H ) :   0.9417 B( 18-C , 40-H ) :   0.9508

Dispersion correction           -0.066855251
FINAL SINGLE POINT ENERGY     -2929.521093995059

DIPOLE MOMENT
-------------

Method             : SCF
Type of density    : Electron Density
Multiplicity       :   1
Irrep              :   0
Energy             : -2929.6397012753732270 Eh
Relativity type    :
Basis              : AO
                                X                 Y                 Z
Electronic contribution:      2.874060376      -2.084275325     -11.005754661
Nuclear contribution   :     -3.292641709       1.219453034      11.921199682
                        -----------------------------------------
Total Dipole Moment    :     -0.418581333      -0.864822291       0.915445021
                        -----------------------------------------
Magnitude (a.u.)       :      1.327089867
Magnitude (Debye)      :      3.373194369

Rotational constants in cm-1:             0.013308             0.005013             0.004832
Rotational constants in MHz :           398.974636           150.274464           144.871834

                             ****ORCA TERMINATED NORMALLY****
TOTAL RUN TIME: 0 days 0 hours 0 minutes 21 seconds 421 msec
