                         Program Version 6.0.0  -   RELEASE  -
|  1> ! r2scan-3c def2/J RI DEFGRID2 scfconv6 printgap
|  2> %output
|  3>     printlevel normal
|  4> end
|  5> * xyz 0 1
|  6> C 5.7981625111 -0.4077561204 0.171497506
|  7> C 4.4402654005 -0.8105266826 -0.3672340429
|  8> O 3.4436245241 -0.0051300889 0.2918047182
|  9> P 1.9795579764 0.1629753634 -0.3055970067
| 10> S 1.9356976691 0.5891344687 -2.2222719452
| 11> O 1.3574645606 1.1965871714 0.7160297384
| 12> C 1.43144423 2.6214971642 0.5141389903
| 13> C 2.8554814438 3.1289010208 0.5739075558
| 14> S 1.0806239852 -1.6447066472 0.2795417763
| 15> C -0.1986003033 -1.8495453957 -1.0111771278
| 16> S -1.8663127416 -1.9393466866 -0.3295578637
| 17> P -2.0611183246 0.1004054987 0.2366652892
| 18> S -1.3995049649 1.4123758201 -1.0593011001
| 19> O -1.3466972557 0.2578193815 1.632494889
| 20> C -1.3534502842 -0.6906497907 2.7299009132
| 21> C -2.7475462753 -1.0881181431 3.1614427387
| 22> O -3.5976865429 0.2636749097 0.6009890044
| 23> C -4.5979660728 0.6019431986 -0.3749768058
| 24> C -4.8114949368 -0.5028723891 -1.3894476289
| 25> H 5.9980355427 0.6356102961 -0.0555923223
| 26> H 5.823585184 -0.5451247379 1.2484967613
| 27> H 6.5607512401 -1.0267185329 -0.2894232505
| 28> H 4.2230191932 -1.8611356239 -0.1560473965
| 29> H 4.3672257415 -0.6398179113 -1.4468220656
| 30> H 0.969226207 2.8582416099 -0.4503637812
| 31> H 0.814521081 3.0266714319 1.3178529322
| 32> H 3.4223446135 2.7327958886 -0.2680199175
| 33> H 2.8516349044 4.2129906689 0.5180366817
| 34> H 3.3280621832 2.8113048657 1.4996853877
| 35> H -0.0211640208 -2.7987277812 -1.5097166312
| 36> H -0.1206459069 -1.0137779435 -1.7123110239
| 37> H -0.7716377495 -1.5664063631 2.4276454802
| 38> H -0.8215364891 -0.1548285567 3.51755644
| 39> H -3.339829511 -0.2050936283 3.3863521036
| 40> H -3.2407569724 -1.6526897455 2.3730312102
| 41> H -2.6751609942 -1.7092929043 4.0489579248
| 42> H -5.4928970731 0.7777735986 0.2234834037
| 43> H -4.2957477128 1.5283588773 -0.8735740247
| 44> H -4.9896070378 -1.4503200313 -0.8875073397
| 45> H -5.6667680966 -0.2567657778 -2.0105765611
| 46> H -3.9330961165 -0.6008210325 -2.0253036447
| 47> *
| 48>
| 49>                          ****END OF INPUT****

CARTESIAN COORDINATES (ANGSTROEM)
---------------------------------
  C      5.798163   -0.407756    0.171498
  C      4.440265   -0.810527   -0.367234
  O      3.443625   -0.005130    0.291805
  P      1.979558    0.162975   -0.305597
  S      1.935698    0.589134   -2.222272
  O      1.357465    1.196587    0.716030
  C      1.431444    2.621497    0.514139
  C      2.855481    3.128901    0.573908
  S      1.080624   -1.644707    0.279542
  C     -0.198600   -1.849545   -1.011177
  S     -1.866313   -1.939347   -0.329558
  P     -2.061118    0.100405    0.236665
  S     -1.399505    1.412376   -1.059301
  O     -1.346697    0.257819    1.632495
  C     -1.353450   -0.690650    2.729901
  C     -2.747546   -1.088118    3.161443
  O     -3.597687    0.263675    0.600989
  C     -4.597966    0.601943   -0.374977
  C     -4.811495   -0.502872   -1.389448
  H      5.998036    0.635610   -0.055592
  H      5.823585   -0.545125    1.248497
  H      6.560751   -1.026719   -0.289423
  H      4.223019   -1.861136   -0.156047
  H      4.367226   -0.639818   -1.446822
  H      0.969226    2.858242   -0.450364
  H      0.814521    3.026671    1.317853
  H      3.422345    2.732796   -0.268020
  H      2.851635    4.212991    0.518037
  H      3.328062    2.811305    1.499685
  H     -0.021164   -2.798728   -1.509717
  H     -0.120646   -1.013778   -1.712311
  H     -0.771638   -1.566406    2.427645
  H     -0.821536   -0.154829    3.517556
  H     -3.339830   -0.205094    3.386352
  H     -3.240757   -1.652690    2.373031
  H     -2.675161   -1.709293    4.048958
  H     -5.492897    0.777774    0.223483
  H     -4.295748    1.528359   -0.873574
  H     -4.989607   -1.450320   -0.887507
  H     -5.666768   -0.256766   -2.010577
  H     -3.933096   -0.600821   -2.025304

 Total Charge           Charge          ....    0
 Multiplicity           Mult            ....    1
 Number of Electrons    NEL             ....  202
 Basis Dimension        Dim             ....  539

ORBITAL ENERGIES
----------------

  NO   OCC          E(Eh)            E(eV)
   0   2.0000     -88.577200     -2410.3081
   1   2.0000     -88.573280     -2410.2015
   2   2.0000     -88.512849     -2408.5571
   3   2.0000     -88.511701     -2408.5258
   4   2.0000     -76.911510     -2092.8686
   5   2.0000     -76.907618     -2092.7627
   6   2.0000     -18.991298      -516.7795
   7   2.0000     -18.986884      -516.6594
   8   2.0000     -18.985851      -516.6313
   9   2.0000     -18.980147      -516.4760
  10   2.0000     -10.106345      -275.0076
  11   2.0000     -10.098020      -274.7811
  12   2.0000     -10.097583      -274.7692
  13   2.0000     -10.093152      -274.6486
  14   2.0000     -10.085319      -274.4355
  15   2.0000     -10.030542      -272.9449
  16   2.0000     -10.030134      -272.9338
  17   2.0000     -10.028042      -272.8769
  18   2.0000     -10.020125      -272.6615
  19   2.0000      -7.871753      -214.2013
  20   2.0000      -7.867943      -214.0976
  21   2.0000      -7.807565      -212.4546
  22   2.0000      -7.806626      -212.4291
  23   2.0000      -6.589776      -179.3169
  24   2.0000      -6.586113      -179.2172
  25   2.0000      -5.818631      -158.3330
  26   2.0000      -5.815398      -158.2450
  27   2.0000      -5.814726      -158.2268
  28   2.0000      -5.811752      -158.1458
  29   2.0000      -5.809027      -158.0717
  30   2.0000      -5.805125      -157.9655
  31   2.0000      -5.755224      -156.6076
  32   2.0000      -5.754408      -156.5854
  33   2.0000      -5.748064      -156.4128
  34   2.0000      -5.747346      -156.3932
  35   2.0000      -5.746839      -156.3794
  36   2.0000      -5.746534      -156.3711
  37   2.0000      -4.735526      -128.8602
  38   2.0000      -4.734853      -128.8419
  39   2.0000      -4.733161      -128.7959
  40   2.0000      -4.731424      -128.7486
  41   2.0000      -4.731000      -128.7371
  42   2.0000      -4.730051      -128.7112
  43   2.0000      -1.047553       -28.5054
  44   2.0000      -1.042752       -28.3747
  45   2.0000      -1.008095       -27.4316
  46   2.0000      -1.002535       -27.2804
  47   2.0000      -0.799372       -21.7520
  48   2.0000      -0.755768       -20.5655
  49   2.0000      -0.747638       -20.3443
  50   2.0000      -0.733462       -19.9585
  51   2.0000      -0.726167       -19.7600
  52   2.0000      -0.709675       -19.3113
  53   2.0000      -0.682816       -18.5804
  54   2.0000      -0.661247       -17.9934
  55   2.0000      -0.629258       -17.1230
  56   2.0000      -0.621219       -16.9042
  57   2.0000      -0.608075       -16.5466
  58   2.0000      -0.595541       -16.2055
  59   2.0000      -0.590043       -16.0559
  60   2.0000      -0.523751       -14.2520
  61   2.0000      -0.514312       -13.9951
  62   2.0000      -0.488798       -13.3009
  63   2.0000      -0.487157       -13.2562
  64   2.0000      -0.466477       -12.6935
  65   2.0000      -0.464422       -12.6376
  66   2.0000      -0.459233       -12.4964
  67   2.0000      -0.450839       -12.2679
  68   2.0000      -0.444281       -12.0895
  69   2.0000      -0.432633       -11.7726
  70   2.0000      -0.427176       -11.6241
  71   2.0000      -0.414216       -11.2714
  72   2.0000      -0.407520       -11.0892
  73   2.0000      -0.397287       -10.8107
  74   2.0000      -0.393930       -10.7194
  75   2.0000      -0.385615       -10.4931
  76   2.0000      -0.380556       -10.3554
  77   2.0000      -0.373777       -10.1710
  78   2.0000      -0.368412       -10.0250
  79   2.0000      -0.365526        -9.9465
  80   2.0000      -0.360475        -9.8090
  81   2.0000      -0.355498        -9.6736
  82   2.0000      -0.351839        -9.5740
  83   2.0000      -0.349002        -9.4968
  84   2.0000      -0.345839        -9.4108
  85   2.0000      -0.326061        -8.8726
  86   2.0000      -0.320791        -8.7292
  87   2.0000      -0.310970        -8.4619
  88   2.0000      -0.307401        -8.3648
  89   2.0000      -0.304995        -8.2993
  90   2.0000      -0.290935        -7.9168
  91   2.0000      -0.285376        -7.7655
  92   2.0000      -0.277981        -7.5643
  93   2.0000      -0.274891        -7.4802
  94   2.0000      -0.270364        -7.3570
  95   2.0000      -0.249454        -6.7880
  96   2.0000      -0.232871        -6.3367
  97   2.0000      -0.225906        -6.1472
  98   2.0000      -0.213802        -5.8178
  99   2.0000      -0.205260        -5.5854
 100   2.0000      -0.196462        -5.3460
 101   0.0000      -0.042133        -1.1465
 102   0.0000      -0.029923        -0.8143
 103   0.0000      -0.008570        -0.2332
 104   0.0000       0.015447         0.4203
 105   0.0000       0.022743         0.6189

MULLIKEN ATOMIC CHARGES
-----------------------
   0 C :   -0.442432
   1 C :   -0.159085
   2 O :   -0.278702
   3 P :    0.671547
   4 S :   -0.466175
   5 O :   -0.268646
   6 C :   -0.150111
   7 C :   -0.452030
   8 S :   -0.159703
   9 C :   -0.219719
  10 S :   -0.153725
  11 P :    0.651332
  12 S :   -0.427510
  13 O :   -0.256803
  14 C :   -0.137598
  15 C :   -0.441027
  16 O :   -0.281370
  17 C :   -0.166994
  18 C :   -0.456538
  19 H :    0.154946
  20 H :    0.152723
  21 H :    0.145875
  22 H :    0.150756
  23 H :    0.172415
  24 H :    0.180680
  25 H :    0.155058
  26 H :    0.168185
  27 H :    0.146180
  28 H :    0.154184
  29 H :    0.196761
  30 H :    0.220150
  31 H :    0.166988
  32 H :    0.153536
  33 H :    0.160839
  34 H :    0.158921
  35 H :    0.149037
  36 H :    0.147594
  37 H :    0.176649
  38 H :    0.152580
  39 H :    0.148565
  40 H :    0.182666
Sum of atomic charges:    0.0000000

LOEWDIN ATOMIC CHARGES
----------------------
   0 C :   -0.386735
   1 C :    0.015674
   2 O :   -0.671459
   3 P :    0.367385
   4 S :   -0.128798
   5 O :   -0.662546
   6 C :    0.013796
   7 C :   -0.401903
   8 S :    0.159951
   9 C :   -0.412223
  10 S :    0.131063
  11 P :    0.383624
  12 S :   -0.074369
  13 O :   -0.651745
  14 C :    0.019117
  15 C :   -0.400655
  16 O :   -0.670945
  17 C :    0.020495
  18 C :   -0.408790
  19 H :    0.159923
  20 H :    0.159330
  21 H :    0.159259
  22 H :    0.171177
  23 H :    0.180904
  24 H :    0.184506
  25 H :    0.183050
  26 H :    0.164967
  27 H :    0.158777
  28 H :    0.160138
  29 H :    0.180753
  30 H :    0.203043
  31 H :    0.177915
  32 H :    0.183469
  33 H :    0.163728
  34 H :    0.163123
  35 H :    0.159413
  36 H :    0.179005
  37 H :    0.181474
  38 H :    0.158461
  39 H :    0.159648
  40 H :    0.167002

  Mayer bond orders larger than 0.100000
B(  0-C ,  1-C ) :   0.9548 B(  0-C , 19-H ) :   0.9717 B(  0-C , 20-H ) :   0.9720
B(  0-C , 21-H ) :   0.9653 B(  1-C ,  2-O ) :   0.7885 B(  1-C , 22-H ) :   0.9466
B(  1-C , 23-H ) :   0.9504 B(  2-O ,  3-P ) :   1.0751 B(  3-P ,  4-S ) :   1.7526
B(  3-P ,  5-O ) :   1.1918 B(  3-P ,  8-S ) :   1.0927 B(  5-O ,  6-C ) :   0.8042
B(  6-C ,  7-C ) :   0.9104 B(  6-C , 24-H ) :   0.9635 B(  6-C , 25-H ) :   0.9619
B(  7-C , 26-H ) :   0.9625 B(  7-C , 27-H ) :   0.9608 B(  7-C , 28-H ) :   0.9719
B(  8-S ,  9-C ) :   0.8942 B(  9-C , 10-S ) :   0.9107 B(  9-C , 29-H ) :   0.9128
B(  9-C , 30-H ) :   0.9055 B( 10-S , 11-P ) :   1.0097 B( 11-P , 12-S ) :   1.8136
B( 11-P , 13-O ) :   1.1485 B( 11-P , 16-O ) :   1.0503 B( 13-O , 14-C ) :   0.8112
B( 14-C , 15-C ) :   0.9159 B( 14-C , 31-H ) :   0.9606 B( 14-C , 32-H ) :   0.9586
B( 15-C , 33-H ) :   0.9704 B( 15-C , 34-H ) :   0.9624 B( 15-C , 35-H ) :   0.9582
B( 16-O , 17-C ) :   0.8141 B( 17-C , 18-C ) :   0.9100 B( 17-C , 36-H ) :   0.9616
B( 17-C , 37-H ) :   0.9669 B( 18-C , 38-H ) :   0.9693 B( 18-C , 39-H ) :   0.9577
B( 18-C , 40-H ) :   0.9628

Dispersion correction           -0.022130548
FINAL SINGLE POINT ENERGY     -2932.458269672348

DIPOLE MOMENT
-------------

Method             : SCF
Type of density    : Electron Density
Multiplicity       :   1
Irrep              :   0
Energy             : -2932.4827256516737179 Eh
Relativity type    :
Basis              : AO
                                X                 Y                 Z
Electronic contribution:     -3.125487041      -3.418616056      -7.393289596
Nuclear contribution   :      2.882693715       2.746268760       8.533098851
                        -----------------------------------------
Total Dipole Moment    :     -0.242793326      -0.672347296       1.139809255
                        -----------------------------------------
Magnitude (a.u.)       :      1.345423585
Magnitude (Debye)      :      3.419794977

Rotational constants in cm-1:             0.013712             0.004990             0.004840
Rotational constants in MHz :           411.089872           149.591805           145.097409

                             ****ORCA TERMINATED NORMALLY****
TOTAL RUN TIME: 0 days 0 hours 1 minutes 24 seconds 779 msec
