                         Program Version 6.0.0  -   RELEASE  -
|  1> ! r2scan-3c def2/J RI DEFGRID2 scfconv6 printgap
|  2> %output
|  3>     printlevel normal
|  4> end
|  5> %cpcm
|  6>     smd true
|  7>     smdsolvent "water"
|  8> end
|  9> * xyz 0 1
| 10> C 5.7981625111 -0.4077561204 0.171497506
| 11> C 4.4402654005 -0.8105266826 -0.3672340429
| 12> O 3.4436245241 -0.0051300889 0.2918047182
| 13> P 1.9795579764 0.1629753634 -0.3055970067
| 14> S 1.9356976691 0.5891344687 -2.2222719452
| 15> O 1.3574645606 1.1965871714 0.7160297384
| 16> C 1.43144423 2.6214971642 0.5141389903
| 17> C 2.8554814438 3.1289010208 0.5739075558
| 18> S 1.0806239852 -1.6447066472 0.2795417763
| 19> C -0.1986003033 -1.8495453957 -1.0111771278
| 20> S -1.8663127416 -1.9393466866 -0.3295578637
| 21> P -2.0611183246 0.1004054987 0.2366652892
| 22> S -1.3995049649 1.4123758201 -1.0593011001
| 23> O -1.3466972557 0.2578193815 1.632494889
| 24> C -1.3534502842 -0.6906497907 2.7299009132
| 25> C -2.7475462753 -1.0881181431 3.1614427387
| 26> O -3.5976865429 0.2636749097 0.6009890044
| 27> C -4.5979660728 0.6019431986 -0.3749768058
| 28> C -4.8114949368 -0.5028723891 -1.3894476289
| 29> H 5.9980355427 0.6356102961 -0.0555923223
| 30> H 5.823585184 -0.5451247379 1.2484967613
| 31> H 6.5607512401 -1.0267185329 -0.2894232505
| 32> H 4.2230191932 -1.8611356239 -0.1560473965
| 33> H 4.3672257415 -0.6398179113 -1.4468220656
| 34> H 0.969226207 2.8582416099 -0.4503637812
| 35> H 0.814521081 3.0266714319 1.3178529322
| 36> H 3.4223446135 2.7327958886 -0.2680199175
| 37> H 2.8516349044 4.2129906689 0.5180366817
| 38> H 3.3280621832 2.8113048657 1.4996853877
| 39> H -0.0211640208 -2.7987277812 -1.5097166312
| 40> H -0.1206459069 -1.0137779435 -1.7123110239
| 41> H -0.7716377495 -1.5664063631 2.4276454802
| 42> H -0.8215364891 -0.1548285567 3.51755644
| 43> H -3.339829511 -0.2050936283 3.3863521036
| 44> H -3.2407569724 -1.6526897455 2.3730312102
| 45> H -2.6751609942 -1.7092929043 4.0489579248
| 46> H -5.4928970731 0.7777735986 0.2234834037
| 47> H -4.2957477128 1.5283588773 -0.8735740247
| 48> H -4.9896070378 -1.4503200313 -0.8875073397
| 49> H -5.6667680966 -0.2567657778 -2.0105765611
| 50> H -3.9330961165 -0.6008210325 -2.0253036447
| 51> *
| 52>
| 53>                          ****END OF INPUT****

CARTESIAN COORDINATES (ANGSTROEM)
---------------------------------
  C      5.798163   -0.407756    0.171498
  C      4.440265   -0.810527   -0.367234
  O      3.443625   -0.005130    0.291805
  P      1.979558    0.162975   -0.305597
  S      1.935698    0.589134   -2.222272
  O      1.357465    1.196587    0.716030
  C      1.431444    2.621497    0.514139
  C      2.855481    3.128901    0.573908
  S      1.080624   -1.644707    0.279542
  C     -0.198600   -1.849545   -1.011177
  S     -1.866313   -1.939347   -0.329558
  P     -2.061118    0.100405    0.236665
  S     -1.399505    1.412376   -1.059301
  O     -1.346697    0.257819    1.632495
  C     -1.353450   -0.690650    2.729901
  C     -2.747546   -1.088118    3.161443
  O     -3.597687    0.263675    0.600989
  C     -4.597966    0.601943   -0.374977
  C     -4.811495   -0.502872   -1.389448
  H      5.998036    0.635610   -0.055592
  H      5.823585   -0.545125    1.248497
  H      6.560751   -1.026719   -0.289423
  H      4.223019   -1.861136   -0.156047
  H      4.367226   -0.639818   -1.446822
  H      0.969226    2.858242   -0.450364
  H      0.814521    3.026671    1.317853
  H      3.422345    2.732796   -0.268020
  H      2.851635    4.212991    0.518037
  H      3.328062    2.811305    1.499685
  H     -0.021164   -2.798728   -1.509717
  H     -0.120646   -1.013778   -1.712311
  H     -0.771638   -1.566406    2.427645
  H     -0.821536   -0.154829    3.517556
  H     -3.339830   -0.205094    3.386352
  H     -3.240757   -1.652690    2.373031
  H     -2.675161   -1.709293    4.048958
  H     -5.492897    0.777774    0.223483
  H     -4.295748    1.528359   -0.873574
  H     -4.989607   -1.450320   -0.887507
  H     -5.666768   -0.256766   -2.010577
  H     -3.933096   -0.600821   -2.025304

 Total Charge           Charge          ....    0
 Multiplicity           Mult            ....    1
 Number of Electrons    NEL             ....  202
 Basis Dimension        Dim             ....  539

ORBITAL ENERGIES
----------------

  NO   OCC          E(Eh)            E(eV)
   0   2.0000     -88.580280     -2410.3919
   1   2.0000     -88.578768     -2410.3508
   2   2.0000     -88.524931     -2408.8858
   3   2.0000     -88.522150     -2408.8102
   4   2.0000     -76.918405     -2093.0562
   5   2.0000     -76.917503     -2093.0317
   6   2.0000     -18.994113      -516.8561
   7   2.0000     -18.993339      -516.8350
   8   2.0000     -18.992475      -516.8115
   9   2.0000     -18.991062      -516.7731
  10   2.0000     -10.105980      -274.9977
  11   2.0000     -10.091326      -274.5989
  12   2.0000     -10.089463      -274.5482
  13   2.0000     -10.088048      -274.5097
  14   2.0000     -10.087121      -274.4845
  15   2.0000     -10.019712      -272.6502
  16   2.0000     -10.019078      -272.6330
  17   2.0000     -10.018350      -272.6132
  18   2.0000     -10.017691      -272.5952
  19   2.0000      -7.874721      -214.2821
  20   2.0000      -7.873365      -214.2451
  21   2.0000      -7.819975      -212.7923
  22   2.0000      -7.817407      -212.7225
  23   2.0000      -6.596746      -179.5066
  24   2.0000      -6.596056      -179.4878
  25   2.0000      -5.821636      -158.4148
  26   2.0000      -5.820150      -158.3743
  27   2.0000      -5.818391      -158.3265
  28   2.0000      -5.817178      -158.2935
  29   2.0000      -5.811952      -158.1513
  30   2.0000      -5.810555      -158.1132
  31   2.0000      -5.767561      -156.9433
  32   2.0000      -5.765084      -156.8759
  33   2.0000      -5.760461      -156.7501
  34   2.0000      -5.759780      -156.7316
  35   2.0000      -5.757698      -156.6749
  36   2.0000      -5.757278      -156.6635
  37   2.0000      -4.742470      -129.0492
  38   2.0000      -4.741771      -129.0301
  39   2.0000      -4.741335      -129.0183
  40   2.0000      -4.740947      -129.0077
  41   2.0000      -4.740239      -128.9885
  42   2.0000      -4.740049      -128.9833
  43   2.0000      -1.052138       -28.6301
  44   2.0000      -1.050881       -28.5959
  45   2.0000      -1.012284       -27.5457
  46   2.0000      -1.010490       -27.4968
  47   2.0000      -0.801926       -21.8215
  48   2.0000      -0.756063       -20.5735
  49   2.0000      -0.745085       -20.2748
  50   2.0000      -0.726072       -19.7574
  51   2.0000      -0.723441       -19.6858
  52   2.0000      -0.711084       -19.3496
  53   2.0000      -0.688477       -18.7344
  54   2.0000      -0.669428       -18.2161
  55   2.0000      -0.631602       -17.1868
  56   2.0000      -0.621730       -16.9181
  57   2.0000      -0.604033       -16.4366
  58   2.0000      -0.593112       -16.1394
  59   2.0000      -0.589666       -16.0456
  60   2.0000      -0.525284       -14.2937
  61   2.0000      -0.512572       -13.9478
  62   2.0000      -0.491822       -13.3832
  63   2.0000      -0.486618       -13.2416
  64   2.0000      -0.469932       -12.7875
  65   2.0000      -0.465492       -12.6667
  66   2.0000      -0.456947       -12.4341
  67   2.0000      -0.447616       -12.1803
  68   2.0000      -0.443063       -12.0564
  69   2.0000      -0.434801       -11.8315
  70   2.0000      -0.425238       -11.5713
  71   2.0000      -0.413505       -11.2520
  72   2.0000      -0.406453       -11.0602
  73   2.0000      -0.399681       -10.8759
  74   2.0000      -0.393005       -10.6942
  75   2.0000      -0.386868       -10.5272
  76   2.0000      -0.380656       -10.3582
  77   2.0000      -0.370954       -10.0942
  78   2.0000      -0.361801        -9.8451
  79   2.0000      -0.358995        -9.7687
  80   2.0000      -0.353236        -9.6120
  81   2.0000      -0.352602        -9.5948
  82   2.0000      -0.350782        -9.5453
  83   2.0000      -0.346614        -9.4318
  84   2.0000      -0.343355        -9.3432
  85   2.0000      -0.323456        -8.8017
  86   2.0000      -0.322083        -8.7643
  87   2.0000      -0.311074        -8.4648
  88   2.0000      -0.308051        -8.3825
  89   2.0000      -0.302586        -8.2338
  90   2.0000      -0.296655        -8.0724
  91   2.0000      -0.287949        -7.8355
  92   2.0000      -0.284069        -7.7299
  93   2.0000      -0.276541        -7.5251
  94   2.0000      -0.273915        -7.4536
  95   2.0000      -0.253831        -6.9071
  96   2.0000      -0.240803        -6.5526
  97   2.0000      -0.237187        -6.4542
  98   2.0000      -0.225274        -6.1300
  99   2.0000      -0.215289        -5.8583
 100   2.0000      -0.208612        -5.6766
 101   0.0000      -0.046954        -1.2777
 102   0.0000      -0.036903        -1.0042
 103   0.0000      -0.012706        -0.3458
 104   0.0000       0.010068         0.2740
 105   0.0000       0.015960         0.4343

MULLIKEN ATOMIC CHARGES
-----------------------
   0 C :   -0.484301
   1 C :   -0.149726
   2 O :   -0.306809
   3 P :    0.702804
   4 S :   -0.521934
   5 O :   -0.298804
   6 C :   -0.147675
   7 C :   -0.494691
   8 S :   -0.155576
   9 C :   -0.219714
  10 S :   -0.146839
  11 P :    0.665755
  12 S :   -0.478770
  13 O :   -0.294878
  14 C :   -0.130465
  15 C :   -0.481810
  16 O :   -0.302827
  17 C :   -0.160721
  18 C :   -0.492020
  19 H :    0.165600
  20 H :    0.165537
  21 H :    0.169117
  22 H :    0.170315
  23 H :    0.172403
  24 H :    0.180114
  25 H :    0.177768
  26 H :    0.169635
  27 H :    0.171789
  28 H :    0.169498
  29 H :    0.238562
  30 H :    0.213081
  31 H :    0.173865
  32 H :    0.178513
  33 H :    0.171376
  34 H :    0.164988
  35 H :    0.175322
  36 H :    0.175163
  37 H :    0.178381
  38 H :    0.170030
  39 H :    0.172951
  40 H :    0.174991
Sum of atomic charges:   -0.0000000

LOEWDIN ATOMIC CHARGES
----------------------
   0 C :   -0.389981
   1 C :    0.020694
   2 O :   -0.684842
   3 P :    0.370746
   4 S :   -0.164150
   5 O :   -0.682701
   6 C :    0.014476
   7 C :   -0.403668
   8 S :    0.165248
   9 C :   -0.406224
  10 S :    0.143512
  11 P :    0.384989
  12 S :   -0.111516
  13 O :   -0.675659
  14 C :    0.024260
  15 C :   -0.401717
  16 O :   -0.679549
  17 C :    0.025506
  18 C :   -0.411287
  19 H :    0.162231
  20 H :    0.162996
  21 H :    0.168519
  22 H :    0.179099
  23 H :    0.181363
  24 H :    0.183427
  25 H :    0.191037
  26 H :    0.163315
  27 H :    0.168591
  28 H :    0.164265
  29 H :    0.197510
  30 H :    0.200005
  31 H :    0.181082
  32 H :    0.193427
  33 H :    0.165722
  34 H :    0.163339
  35 H :    0.169861
  36 H :    0.190768
  37 H :    0.181513
  38 H :    0.163495
  39 H :    0.168484
  40 H :    0.161816

  Mayer bond orders larger than 0.100000
B(  0-C ,  1-C ) :   0.9513 B(  0-C , 19-H ) :   0.9694 B(  0-C , 20-H ) :   0.9691
B(  0-C , 21-H ) :   0.9589 B(  1-C ,  2-O ) :   0.7810 B(  1-C , 22-H ) :   0.9376
B(  1-C , 23-H ) :   0.9474 B(  2-O ,  3-P ) :   1.0827 B(  3-P ,  4-S ) :   1.6996
B(  3-P ,  5-O ) :   1.1868 B(  3-P ,  8-S ) :   1.1238 B(  5-O ,  6-C ) :   0.7890
B(  6-C ,  7-C ) :   0.9075 B(  6-C , 24-H ) :   0.9597 B(  6-C , 25-H ) :   0.9499
B(  7-C , 26-H ) :   0.9617 B(  7-C , 27-H ) :   0.9541 B(  7-C , 28-H ) :   0.9701
B(  8-S ,  9-C ) :   0.8877 B(  9-C , 10-S ) :   0.9048 B(  9-C , 29-H ) :   0.8965
B(  9-C , 30-H ) :   0.9100 B( 10-S , 11-P ) :   1.0303 B( 11-P , 12-S ) :   1.7913
B( 11-P , 13-O ) :   1.1446 B( 11-P , 16-O ) :   1.0589 B( 13-O , 14-C ) :   0.7996
B( 14-C , 15-C ) :   0.9102 B( 14-C , 31-H ) :   0.9527 B( 14-C , 32-H ) :   0.9469
B( 15-C , 33-H ) :   0.9697 B( 15-C , 34-H ) :   0.9598 B( 15-C , 35-H ) :   0.9512
B( 16-O , 17-C ) :   0.8031 B( 17-C , 18-C ) :   0.8995 B( 17-C , 36-H ) :   0.9512
B( 17-C , 37-H ) :   0.9651 B( 18-C , 38-H ) :   0.9660 B( 18-C , 39-H ) :   0.9525
B( 18-C , 40-H ) :   0.9647

Dispersion correction           -0.022130548
FINAL SINGLE POINT ENERGY     -2932.467586027555

DIPOLE MOMENT
-------------

Method             : SCF
Type of density    : Electron Density
Multiplicity       :   1
Irrep              :   0
Energy             : -2932.4920420068806379 Eh
Relativity type    :
Basis              : AO
                                X                 Y                 Z
Electronic contribution:     -3.254095724      -3.957312608      -7.046665928
Nuclear contribution   :      2.882693715       2.746268760       8.533098851
                        -----------------------------------------
Total Dipole Moment    :     -0.371402008      -1.211043848       1.486432923
                        -----------------------------------------
Magnitude (a.u.)       :      1.952959161
Magnitude (Debye)      :      4.964027691

Rotational constants in cm-1:             0.013712             0.004990             0.004840
Rotational constants in MHz :           411.089872           149.591805           145.097409

                             ****ORCA TERMINATED NORMALLY****
TOTAL RUN TIME: 0 days 0 hours 1 minutes 50 seconds 954 msec
