                         Program Version 6.0.0  -   RELEASE  -
|  1> ! pbe def2-sv(p) def2/J RI DEFGRID1 loosescf d4 GCP(DFT/SV(P)) printgap
|  2> %output
|  3>     printlevel normal
|  4> end
|  5> * xyz 0 1
|  6> C 1.3323535802 3.2945329552 0.2818333674
|  7> C 1.2496829213 2.0011809343 1.0659156408
|  8> O 2.0674799792 1.0290001485 0.3838790658
|  9> P 2.268534777 -0.4216667753 0.985826079
| 10> S 2.7353238692 -0.5132159644 2.8843039644
| 11> O 3.3695663449 -0.8896143207 -0.0537562188
| 12> C 4.2911772264 -1.9483936719 0.2628970575
| 13> C 3.6156752325 -3.3055947155 0.261486156
| 14> S 0.4968572994 -1.4857640023 0.4555737873
| 15> C 0.4863434046 -1.0912675902 -1.3186309133
| 16> S -0.2436615921 0.5168432019 -1.722956506
| 17> P -2.1667593688 0.1308219895 -0.9484687577
| 18> S -2.9073941853 -1.6530816943 -1.2337976941
| 19> O -3.0958646346 1.254125179 -1.5665545063
| 20> C -2.8280336114 2.6740100362 -1.4357758001
| 21> C -2.1810106717 3.2171128002 -2.6938036712
| 22> O -1.9176901224 0.5486601242 0.5842417447
| 23> C -2.6835507077 -0.0262525755 1.6566408105
| 24> C -4.0940843393 0.5258940956 1.6830114754
| 25> H 0.7302429791 4.0506398337 0.7747195362
| 26> H 2.3636050692 3.630613889 0.2318841659
| 27> H 0.9651855402 3.1350033854 -0.7283675948
| 28> H 0.2208511733 1.6295850454 1.1128146277
| 29> H 1.627674061 2.1166982963 2.086977515
| 30> H 5.0537172339 -1.874875377 -0.5137574534
| 31> H 4.7361380624 -1.74296181 1.2415973377
| 32> H 4.3593705367 -4.0763252059 0.4369205545
| 33> H 2.8694969609 -3.3494903536 1.0546147422
| 34> H 3.1270586222 -3.4903472799 -0.6919351844
| 35> H -0.1025871239 -1.8748875423 -1.7938855971
| 36> H 1.5066837886 -1.0689605275 -1.694704511
| 37> H -3.810887338 3.1203039389 -1.2748370686
| 38> H -2.1972629261 2.839425555 -0.559033287
| 39> H -1.201808735 2.7682821559 -2.8462685762
| 40> H -2.8035613885 2.9958492719 -3.5561909957
| 41> H -2.0694743842 4.2925909106 -2.5984931983
| 42> H -2.6927008565 -1.1139851932 1.5327920916
| 43> H -2.1249723263 0.2322588089 2.5580002899
| 44> H -4.6081289086 0.2602860088 0.7592897717
| 45> H -4.6325247901 0.0966581387 2.5219544595
| 46> H -4.0768738452 1.60824658 1.781527737
| 47> *
| 48>
| 49>                          ****END OF INPUT****

CARTESIAN COORDINATES (ANGSTROEM)
---------------------------------
  C      1.332354    3.294533    0.281833
  C      1.249683    2.001181    1.065916
  O      2.067480    1.029000    0.383879
  P      2.268535   -0.421667    0.985826
  S      2.735324   -0.513216    2.884304
  O      3.369566   -0.889614   -0.053756
  C      4.291177   -1.948394    0.262897
  C      3.615675   -3.305595    0.261486
  S      0.496857   -1.485764    0.455574
  C      0.486343   -1.091268   -1.318631
  S     -0.243662    0.516843   -1.722957
  P     -2.166759    0.130822   -0.948469
  S     -2.907394   -1.653082   -1.233798
  O     -3.095865    1.254125   -1.566555
  C     -2.828034    2.674010   -1.435776
  C     -2.181011    3.217113   -2.693804
  O     -1.917690    0.548660    0.584242
  C     -2.683551   -0.026253    1.656641
  C     -4.094084    0.525894    1.683011
  H      0.730243    4.050640    0.774720
  H      2.363605    3.630614    0.231884
  H      0.965186    3.135003   -0.728368
  H      0.220851    1.629585    1.112815
  H      1.627674    2.116698    2.086978
  H      5.053717   -1.874875   -0.513757
  H      4.736138   -1.742962    1.241597
  H      4.359371   -4.076325    0.436921
  H      2.869497   -3.349490    1.054615
  H      3.127059   -3.490347   -0.691935
  H     -0.102587   -1.874888   -1.793886
  H      1.506684   -1.068961   -1.694705
  H     -3.810887    3.120304   -1.274837
  H     -2.197263    2.839426   -0.559033
  H     -1.201809    2.768282   -2.846269
  H     -2.803561    2.995849   -3.556191
  H     -2.069474    4.292591   -2.598493
  H     -2.692701   -1.113985    1.532792
  H     -2.124972    0.232259    2.558000
  H     -4.608129    0.260286    0.759290
  H     -4.632525    0.096658    2.521954
  H     -4.076874    1.608247    1.781528

 Total Charge           Charge          ....    0
 Multiplicity           Mult            ....    1
 Number of Electrons    NEL             ....  202
 Basis Dimension        Dim             ....  334

ORBITAL ENERGIES
----------------

  NO   OCC          E(Eh)            E(eV)
   0   2.0000     -88.047550     -2395.8957
   1   2.0000     -88.043257     -2395.7788
   2   2.0000     -87.991785     -2394.3782
   3   2.0000     -87.987778     -2394.2692
   4   2.0000     -76.431315     -2079.8018
   5   2.0000     -76.426119     -2079.6604
   6   2.0000     -18.801811      -511.6233
   7   2.0000     -18.795641      -511.4554
   8   2.0000     -18.794855      -511.4340
   9   2.0000     -18.789402      -511.2856
  10   2.0000      -9.966502      -271.2023
  11   2.0000      -9.959746      -271.0185
  12   2.0000      -9.954588      -270.8781
  13   2.0000      -9.951330      -270.7895
  14   2.0000      -9.947552      -270.6867
  15   2.0000      -9.896118      -269.2871
  16   2.0000      -9.887420      -269.0504
  17   2.0000      -9.885997      -269.0117
  18   2.0000      -9.885526      -268.9989
  19   2.0000      -7.692583      -209.3258
  20   2.0000      -7.687833      -209.1966
  21   2.0000      -7.637025      -207.8140
  22   2.0000      -7.633012      -207.7048
  23   2.0000      -6.429089      -174.9444
  24   2.0000      -6.423755      -174.7993
  25   2.0000      -5.720384      -155.6596
  26   2.0000      -5.717171      -155.5721
  27   2.0000      -5.715984      -155.5398
  28   2.0000      -5.712155      -155.4357
  29   2.0000      -5.709500      -155.3634
  30   2.0000      -5.704817      -155.2360
  31   2.0000      -5.666081      -154.1819
  32   2.0000      -5.661941      -154.0693
  33   2.0000      -5.657623      -153.9517
  34   2.0000      -5.657024      -153.9355
  35   2.0000      -5.653563      -153.8413
  36   2.0000      -5.653249      -153.8327
  37   2.0000      -4.652011      -126.5877
  38   2.0000      -4.650504      -126.5467
  39   2.0000      -4.649576      -126.5214
  40   2.0000      -4.646138      -126.4278
  41   2.0000      -4.645925      -126.4221
  42   2.0000      -4.643978      -126.3691
  43   2.0000      -0.991197       -26.9718
  44   2.0000      -0.990435       -26.9511
  45   2.0000      -0.949743       -25.8438
  46   2.0000      -0.946579       -25.7577
  47   2.0000      -0.766750       -20.8643
  48   2.0000      -0.725454       -19.7406
  49   2.0000      -0.714804       -19.4508
  50   2.0000      -0.695762       -18.9326
  51   2.0000      -0.685275       -18.6473
  52   2.0000      -0.678016       -18.4498
  53   2.0000      -0.656693       -17.8695
  54   2.0000      -0.641042       -17.4436
  55   2.0000      -0.599592       -16.3157
  56   2.0000      -0.594278       -16.1711
  57   2.0000      -0.584965       -15.9177
  58   2.0000      -0.566352       -15.4112
  59   2.0000      -0.561659       -15.2835
  60   2.0000      -0.507754       -13.8167
  61   2.0000      -0.503027       -13.6881
  62   2.0000      -0.483145       -13.1470
  63   2.0000      -0.472316       -12.8524
  64   2.0000      -0.463824       -12.6213
  65   2.0000      -0.453743       -12.3470
  66   2.0000      -0.440421       -11.9845
  67   2.0000      -0.439771       -11.9668
  68   2.0000      -0.429377       -11.6839
  69   2.0000      -0.422411       -11.4944
  70   2.0000      -0.411234       -11.1902
  71   2.0000      -0.402940       -10.9646
  72   2.0000      -0.396599       -10.7920
  73   2.0000      -0.382927       -10.4200
  74   2.0000      -0.380911       -10.3651
  75   2.0000      -0.377513       -10.2726
  76   2.0000      -0.370402       -10.0791
  77   2.0000      -0.365384        -9.9426
  78   2.0000      -0.363863        -9.9012
  79   2.0000      -0.356505        -9.7010
  80   2.0000      -0.352599        -9.5947
  81   2.0000      -0.349139        -9.5006
  82   2.0000      -0.346709        -9.4344
  83   2.0000      -0.341364        -9.2890
  84   2.0000      -0.334646        -9.1062
  85   2.0000      -0.321047        -8.7361
  86   2.0000      -0.318859        -8.6766
  87   2.0000      -0.311023        -8.4634
  88   2.0000      -0.304623        -8.2892
  89   2.0000      -0.292238        -7.9522
  90   2.0000      -0.285074        -7.7573
  91   2.0000      -0.279373        -7.6021
  92   2.0000      -0.272808        -7.4235
  93   2.0000      -0.269523        -7.3341
  94   2.0000      -0.257607        -7.0099
  95   2.0000      -0.232936        -6.3385
  96   2.0000      -0.221294        -6.0217
  97   2.0000      -0.212014        -5.7692
  98   2.0000      -0.206737        -5.6256
  99   2.0000      -0.206563        -5.6209
 100   2.0000      -0.204974        -5.5776
 101   0.0000      -0.044791        -1.2188
 102   0.0000      -0.025344        -0.6896
 103   0.0000      -0.010556        -0.2872
 104   0.0000      -0.003333        -0.0907
 105   0.0000       0.005356         0.1457

MULLIKEN ATOMIC CHARGES
-----------------------
   0 C :   -0.285752
   1 C :   -0.031880
   2 O :   -0.365800
   3 P :    0.574044
   4 S :   -0.322754
   5 O :   -0.366835
   6 C :   -0.004532
   7 C :   -0.312155
   8 S :   -0.070762
   9 C :   -0.344307
  10 S :   -0.103013
  11 P :    0.616445
  12 S :   -0.305115
  13 O :   -0.365611
  14 C :   -0.034883
  15 C :   -0.300927
  16 O :   -0.380010
  17 C :   -0.006972
  18 C :   -0.311311
  19 H :    0.105401
  20 H :    0.117194
  21 H :    0.117594
  22 H :    0.124752
  23 H :    0.106500
  24 H :    0.107267
  25 H :    0.115353
  26 H :    0.113996
  27 H :    0.129881
  28 H :    0.113407
  29 H :    0.195514
  30 H :    0.189804
  31 H :    0.114447
  32 H :    0.113662
  33 H :    0.137839
  34 H :    0.126456
  35 H :    0.114303
  36 H :    0.117224
  37 H :    0.107865
  38 H :    0.128751
  39 H :    0.116046
  40 H :    0.108874
Sum of atomic charges:   -0.0000000

LOEWDIN ATOMIC CHARGES
----------------------
   0 C :   -0.353321
   1 C :   -0.130614
   2 O :   -0.239818
   3 P :    0.564648
   4 S :   -0.322683
   5 O :   -0.238343
   6 C :   -0.118592
   7 C :   -0.366555
   8 S :    0.088456
   9 C :   -0.478965
  10 S :    0.096083
  11 P :    0.568479
  12 S :   -0.302586
  13 O :   -0.241741
  14 C :   -0.117499
  15 C :   -0.360823
  16 O :   -0.251553
  17 C :   -0.123182
  18 C :   -0.364973
  19 H :    0.127130
  20 H :    0.127937
  21 H :    0.119099
  22 H :    0.106712
  23 H :    0.109175
  24 H :    0.119240
  25 H :    0.112212
  26 H :    0.131530
  27 H :    0.123285
  28 H :    0.123369
  29 H :    0.134585
  30 H :    0.134236
  31 H :    0.123018
  32 H :    0.109610
  33 H :    0.119335
  34 H :    0.132586
  35 H :    0.132404
  36 H :    0.110610
  37 H :    0.118459
  38 H :    0.125157
  39 H :    0.132609
  40 H :    0.121287

  Mayer bond orders larger than 0.100000
B(  0-C ,  1-C ) :   1.1647 B(  0-C , 19-H ) :   0.9422 B(  0-C , 20-H ) :   0.9485
B(  0-C , 21-H ) :   0.9444 B(  1-C ,  2-O ) :   0.8930 B(  1-C , 22-H ) :   0.9008
B(  1-C , 23-H ) :   0.9167 B(  2-O ,  3-P ) :   1.1172 B(  3-P ,  4-S ) :   1.6537
B(  3-P ,  5-O ) :   1.0945 B(  3-P ,  8-S ) :   0.9692 B(  5-O ,  6-C ) :   0.9055
B(  6-C ,  7-C ) :   1.1625 B(  6-C , 24-H ) :   0.9345 B(  6-C , 25-H ) :   0.9145
B(  7-C , 26-H ) :   0.9387 B(  7-C , 27-H ) :   0.9359 B(  7-C , 28-H ) :   0.9472
B(  8-S ,  9-C ) :   0.9876 B(  9-C , 10-S ) :   0.9964 B(  9-C , 29-H ) :   0.8854
B(  9-C , 30-H ) :   0.8901 B( 10-S , 11-P ) :   0.9676 B( 10-S , 12-S ) :   0.1031
B( 11-P , 12-S ) :   1.6409 B( 11-P , 13-O ) :   1.1253 B( 11-P , 16-O ) :   1.0535
B( 13-O , 14-C ) :   0.8967 B( 14-C , 15-C ) :   1.1681 B( 14-C , 31-H ) :   0.9330
B( 14-C , 32-H ) :   0.9142 B( 15-C , 33-H ) :   0.9327 B( 15-C , 34-H ) :   0.9446
B( 15-C , 35-H ) :   0.9382 B( 16-O , 17-C ) :   0.8995 B( 17-C , 18-C ) :   1.1614
B( 17-C , 36-H ) :   0.9130 B( 17-C , 37-H ) :   0.9324 B( 18-C , 38-H ) :   0.9358
B( 18-C , 39-H ) :   0.9405 B( 18-C , 40-H ) :   0.9474

Dispersion correction           -0.065933221
FINAL SINGLE POINT ENERGY     -2929.522892584481

DIPOLE MOMENT
-------------

Method             : SCF
Type of density    : Electron Density
Multiplicity       :   1
Irrep              :   0
Energy             : -2929.6432926773063627 Eh
Relativity type    :
Basis              : AO
                                X                 Y                 Z
Electronic contribution:      2.649213646     -12.529188502      -0.153397299
Nuclear contribution   :     -2.677079099      13.686990885      -0.208345539
                        -----------------------------------------
Total Dipole Moment    :     -0.027865453       1.157802384      -0.361742838
                        -----------------------------------------
Magnitude (a.u.)       :      1.213318064
Magnitude (Debye)      :      3.084009428

Rotational constants in cm-1:             0.011994             0.005077             0.004753
Rotational constants in MHz :           359.561320           152.213589           142.479914

                             ****ORCA TERMINATED NORMALLY****
TOTAL RUN TIME: 0 days 0 hours 0 minutes 21 seconds 598 msec
