                         Program Version 6.0.0  -   RELEASE  -
|  1> ! pbe def2-sv(p) def2/J RI DEFGRID1 loosescf d4 GCP(DFT/SV(P)) printgap
|  2> %output
|  3>     printlevel normal
|  4> end
|  5> * xyz 0 1
|  6> C 5.731598879 -0.7483418874 -1.50412899
|  7> C 4.3084194413 -0.9667481064 -1.9794501261
|  8> O 3.4831217821 -1.4310191169 -0.891144836
|  9> P 2.517835818 -0.4475226888 -0.1181292084
| 10> S 3.2375115646 1.3416075371 0.257474893
| 11> O 2.2520939828 -1.4388338209 1.0833378592
| 12> C 1.2512016595 -1.2981185517 2.1059559979
| 13> C 1.5482065682 -0.1569493765 3.0587827684
| 14> S 0.7522268991 -0.4465902797 -1.326854725
| 15> C 0.1944930965 1.2477435646 -1.0091585589
| 16> S -0.6783347371 1.430833466 0.5704363845
| 17> P -2.3704320956 0.2882776115 0.036499776
| 18> S -3.0330288706 0.4710807257 -1.8036827509
| 19> O -3.4329192738 0.5919660073 1.1766091179
| 20> C -4.3881288019 1.6625972552 1.0767399457
| 21> C -3.7291979694 3.0243593493 1.1601649056
| 22> O -1.8584730447 -1.1547619765 0.4541152911
| 23> C -2.437430605 -2.358752592 -0.0885307431
| 24> C -3.8495118955 -2.5762481171 0.4122001216
| 25> H 6.3526659351 -0.4655096365 -2.3478972405
| 26> H 5.758398292 0.0455788625 -0.7607955517
| 27> H 6.1186864771 -1.6599114236 -1.0581785594
| 28> H 4.2546798862 -1.7553260383 -2.7321256195
| 29> H 3.8907051148 -0.0420228272 -2.3893508571
| 30> H 0.2705577645 -1.1704948294 1.6371885853
| 31> H 1.281830995 -2.2599397834 2.622084185
| 32> H 0.8308346966 -0.1780277555 3.8729075604
| 33> H 2.553463544 -0.2566816433 3.4602612373
| 34> H 1.4691287334 0.8010816043 2.5481723024
| 35> H -0.476332566 1.5126505889 -1.8255076454
| 36> H 1.0585916176 1.9120782043 -0.9635915656
| 37> H -4.9303877341 1.5555293047 0.1316493301
| 38> H -5.0638519253 1.4896912715 1.9153462111
| 39> H -4.4948256129 3.792267113 1.2052146569
| 40> H -3.1011958466 3.0870323088 2.0453431552
| 41> H -3.1106112924 3.1949169585 0.2799230042
| 42> H -2.416470876 -2.2896393753 -1.1809884646
| 43> H -1.7616104406 -3.148478648 0.2423535882
| 44> H -3.8713904824 -2.545128402 1.4983257934
| 45> H -4.503715201 -1.7965174732 0.0238835489
| 46> H -4.2087491327 -3.5412790907 0.0687866279
| 47> *
| 48>
| 49>                          ****END OF INPUT****

CARTESIAN COORDINATES (ANGSTROEM)
---------------------------------
  C      5.731599   -0.748342   -1.504129
  C      4.308419   -0.966748   -1.979450
  O      3.483122   -1.431019   -0.891145
  P      2.517836   -0.447523   -0.118129
  S      3.237512    1.341608    0.257475
  O      2.252094   -1.438834    1.083338
  C      1.251202   -1.298119    2.105956
  C      1.548207   -0.156949    3.058783
  S      0.752227   -0.446590   -1.326855
  C      0.194493    1.247744   -1.009159
  S     -0.678335    1.430833    0.570436
  P     -2.370432    0.288278    0.036500
  S     -3.033029    0.471081   -1.803683
  O     -3.432919    0.591966    1.176609
  C     -4.388129    1.662597    1.076740
  C     -3.729198    3.024359    1.160165
  O     -1.858473   -1.154762    0.454115
  C     -2.437431   -2.358753   -0.088531
  C     -3.849512   -2.576248    0.412200
  H      6.352666   -0.465510   -2.347897
  H      5.758398    0.045579   -0.760796
  H      6.118686   -1.659911   -1.058179
  H      4.254680   -1.755326   -2.732126
  H      3.890705   -0.042023   -2.389351
  H      0.270558   -1.170495    1.637189
  H      1.281831   -2.259940    2.622084
  H      0.830835   -0.178028    3.872908
  H      2.553464   -0.256682    3.460261
  H      1.469129    0.801082    2.548172
  H     -0.476333    1.512651   -1.825508
  H      1.058592    1.912078   -0.963592
  H     -4.930388    1.555529    0.131649
  H     -5.063852    1.489691    1.915346
  H     -4.494826    3.792267    1.205215
  H     -3.101196    3.087032    2.045343
  H     -3.110611    3.194917    0.279923
  H     -2.416471   -2.289639   -1.180988
  H     -1.761610   -3.148479    0.242354
  H     -3.871390   -2.545128    1.498326
  H     -4.503715   -1.796517    0.023884
  H     -4.208749   -3.541279    0.068787

 Total Charge           Charge          ....    0
 Multiplicity           Mult            ....    1
 Number of Electrons    NEL             ....  202
 Basis Dimension        Dim             ....  334

ORBITAL ENERGIES
----------------

  NO   OCC          E(Eh)            E(eV)
   0   2.0000     -88.047214     -2395.8865
   1   2.0000     -88.041428     -2395.7290
   2   2.0000     -87.995712     -2394.4851
   3   2.0000     -87.990165     -2394.3341
   4   2.0000     -76.432210     -2079.8262
   5   2.0000     -76.426941     -2079.6828
   6   2.0000     -18.800503      -511.5877
   7   2.0000     -18.796125      -511.4686
   8   2.0000     -18.789173      -511.2794
   9   2.0000     -18.787923      -511.2454
  10   2.0000      -9.958131      -270.9745
  11   2.0000      -9.954452      -270.8744
  12   2.0000      -9.953129      -270.8384
  13   2.0000      -9.951905      -270.8051
  14   2.0000      -9.946992      -270.6714
  15   2.0000      -9.888383      -269.0766
  16   2.0000      -9.887548      -269.0539
  17   2.0000      -9.879467      -268.8340
  18   2.0000      -9.874553      -268.7002
  19   2.0000      -7.692078      -209.3121
  20   2.0000      -7.686276      -209.1542
  21   2.0000      -7.640560      -207.9102
  22   2.0000      -7.635046      -207.7602
  23   2.0000      -6.429878      -174.9659
  24   2.0000      -6.424138      -174.8097
  25   2.0000      -5.719849      -155.6450
  26   2.0000      -5.716723      -155.5599
  27   2.0000      -5.714103      -155.4887
  28   2.0000      -5.710707      -155.3962
  29   2.0000      -5.709018      -155.3503
  30   2.0000      -5.703461      -155.1991
  31   2.0000      -5.669317      -154.2700
  32   2.0000      -5.663808      -154.1200
  33   2.0000      -5.661230      -154.0499
  34   2.0000      -5.660884      -154.0405
  35   2.0000      -5.655617      -153.8972
  36   2.0000      -5.655418      -153.8917
  37   2.0000      -4.652277      -126.5949
  38   2.0000      -4.651627      -126.5772
  39   2.0000      -4.650473      -126.5458
  40   2.0000      -4.646425      -126.4357
  41   2.0000      -4.646212      -126.4299
  42   2.0000      -4.644599      -126.3860
  43   2.0000      -0.993385       -27.0314
  44   2.0000      -0.987496       -26.8711
  45   2.0000      -0.952421       -25.9167
  46   2.0000      -0.942032       -25.6340
  47   2.0000      -0.765212       -20.8225
  48   2.0000      -0.722878       -19.6705
  49   2.0000      -0.710401       -19.3310
  50   2.0000      -0.691585       -18.8190
  51   2.0000      -0.679276       -18.4840
  52   2.0000      -0.677124       -18.4255
  53   2.0000      -0.654505       -17.8100
  54   2.0000      -0.641889       -17.4667
  55   2.0000      -0.606277       -16.4976
  56   2.0000      -0.593889       -16.1605
  57   2.0000      -0.577046       -15.7022
  58   2.0000      -0.564875       -15.3710
  59   2.0000      -0.561610       -15.2822
  60   2.0000      -0.502755       -13.6806
  61   2.0000      -0.494974       -13.4689
  62   2.0000      -0.478518       -13.0211
  63   2.0000      -0.468740       -12.7551
  64   2.0000      -0.460077       -12.5193
  65   2.0000      -0.445009       -12.1093
  66   2.0000      -0.441636       -12.0175
  67   2.0000      -0.435670       -11.8552
  68   2.0000      -0.423625       -11.5274
  69   2.0000      -0.418258       -11.3814
  70   2.0000      -0.406536       -11.0624
  71   2.0000      -0.403492       -10.9796
  72   2.0000      -0.397460       -10.8154
  73   2.0000      -0.391055       -10.6412
  74   2.0000      -0.381025       -10.3682
  75   2.0000      -0.378209       -10.2916
  76   2.0000      -0.368148       -10.0178
  77   2.0000      -0.360377        -9.8064
  78   2.0000      -0.355786        -9.6814
  79   2.0000      -0.352698        -9.5974
  80   2.0000      -0.349091        -9.4993
  81   2.0000      -0.344434        -9.3725
  82   2.0000      -0.339919        -9.2497
  83   2.0000      -0.333692        -9.0802
  84   2.0000      -0.332086        -9.0365
  85   2.0000      -0.322167        -8.7666
  86   2.0000      -0.313175        -8.5219
  87   2.0000      -0.300667        -8.1816
  88   2.0000      -0.295228        -8.0336
  89   2.0000      -0.291358        -7.9282
  90   2.0000      -0.286979        -7.8091
  91   2.0000      -0.278431        -7.5765
  92   2.0000      -0.270032        -7.3479
  93   2.0000      -0.267054        -7.2669
  94   2.0000      -0.257477        -7.0063
  95   2.0000      -0.238691        -6.4951
  96   2.0000      -0.220945        -6.0122
  97   2.0000      -0.217761        -5.9256
  98   2.0000      -0.209666        -5.7053
  99   2.0000      -0.206160        -5.6099
 100   2.0000      -0.202455        -5.5091
 101   0.0000      -0.047862        -1.3024
 102   0.0000      -0.029190        -0.7943
 103   0.0000      -0.003827        -0.1041
 104   0.0000      -0.003370        -0.0917
 105   0.0000       0.012203         0.3321

MULLIKEN ATOMIC CHARGES
-----------------------
   0 C :   -0.286543
   1 C :   -0.004522
   2 O :   -0.359468
   3 P :    0.602712
   4 S :   -0.331982
   5 O :   -0.353054
   6 C :   -0.037512
   7 C :   -0.307153
   8 S :   -0.092876
   9 C :   -0.365115
  10 S :   -0.079218
  11 P :    0.614517
  12 S :   -0.331103
  13 O :   -0.369725
  14 C :   -0.007039
  15 C :   -0.316439
  16 O :   -0.357010
  17 C :   -0.000657
  18 C :   -0.307673
  19 H :    0.107125
  20 H :    0.124820
  21 H :    0.114533
  22 H :    0.106999
  23 H :    0.099258
  24 H :    0.137757
  25 H :    0.101298
  26 H :    0.104588
  27 H :    0.114614
  28 H :    0.132388
  29 H :    0.192138
  30 H :    0.194827
  31 H :    0.112549
  32 H :    0.107845
  33 H :    0.115661
  34 H :    0.120320
  35 H :    0.128451
  36 H :    0.114797
  37 H :    0.106483
  38 H :    0.116872
  39 H :    0.122263
  40 H :    0.114272
Sum of atomic charges:    0.0000000

LOEWDIN ATOMIC CHARGES
----------------------
   0 C :   -0.359735
   1 C :   -0.116574
   2 O :   -0.237214
   3 P :    0.569751
   4 S :   -0.309027
   5 O :   -0.230126
   6 C :   -0.122452
   7 C :   -0.367988
   8 S :    0.072070
   9 C :   -0.488484
  10 S :    0.105701
  11 P :    0.573266
  12 S :   -0.319309
  13 O :   -0.241947
  14 C :   -0.118881
  15 C :   -0.369140
  16 O :   -0.236064
  17 C :   -0.117004
  18 C :   -0.364539
  19 H :    0.128491
  20 H :    0.125502
  21 H :    0.126253
  22 H :    0.118384
  23 H :    0.106693
  24 H :    0.106731
  25 H :    0.117947
  26 H :    0.127907
  27 H :    0.125660
  28 H :    0.115004
  29 H :    0.129743
  30 H :    0.126921
  31 H :    0.111237
  32 H :    0.119948
  33 H :    0.132468
  34 H :    0.125583
  35 H :    0.121918
  36 H :    0.111909
  37 H :    0.119141
  38 H :    0.126468
  39 H :    0.122389
  40 H :    0.131400

  Mayer bond orders larger than 0.100000
B(  0-C ,  1-C ) :   1.1663 B(  0-C , 19-H ) :   0.9404 B(  0-C , 20-H ) :   0.9378
B(  0-C , 21-H ) :   0.9476 B(  1-C ,  2-O ) :   0.9031 B(  1-C , 22-H ) :   0.9353
B(  1-C , 23-H ) :   0.9108 B(  2-O ,  3-P ) :   1.1320 B(  3-P ,  4-S ) :   1.5938
B(  3-P ,  5-O ) :   1.1427 B(  3-P ,  8-S ) :   0.9367 B(  4-S ,  8-S ) :   0.1219
B(  5-O ,  6-C ) :   0.9091 B(  6-C ,  7-C ) :   1.1647 B(  6-C , 24-H ) :   0.8985
B(  6-C , 25-H ) :   0.9347 B(  7-C , 26-H ) :   0.9384 B(  7-C , 27-H ) :   0.9451
B(  7-C , 28-H ) :   0.9303 B(  8-S ,  9-C ) :   1.0131 B(  9-C , 10-S ) :   0.9971
B(  9-C , 29-H ) :   0.8770 B(  9-C , 30-H ) :   0.8639 B( 10-S , 11-P ) :   0.9637
B( 10-S , 12-S ) :   0.1076 B( 11-P , 12-S ) :   1.5937 B( 11-P , 13-O ) :   1.1138
B( 11-P , 16-O ) :   1.1146 B( 13-O , 14-C ) :   0.9054 B( 14-C , 15-C ) :   1.1664
B( 14-C , 31-H ) :   0.9163 B( 14-C , 32-H ) :   0.9337 B( 15-C , 33-H ) :   0.9375
B( 15-C , 34-H ) :   0.9446 B( 15-C , 35-H ) :   0.9357 B( 16-O , 17-C ) :   0.8998
B( 17-C , 18-C ) :   1.1633 B( 17-C , 36-H ) :   0.9172 B( 17-C , 37-H ) :   0.9341
B( 18-C , 38-H ) :   0.9459 B( 18-C , 39-H ) :   0.9370 B( 18-C , 40-H ) :   0.9393

Dispersion correction           -0.065411005
FINAL SINGLE POINT ENERGY     -2929.528222410475

DIPOLE MOMENT
-------------

Method             : SCF
Type of density    : Electron Density
Multiplicity       :   1
Irrep              :   0
Energy             : -2929.6473295918913209 Eh
Relativity type    :
Basis              : AO
                                X                 Y                 Z
Electronic contribution:      3.212464610       2.963974419      -7.558365731
Nuclear contribution   :     -3.979318448      -3.477760703       7.946851500
                        -----------------------------------------
Total Dipole Moment    :     -0.766853838      -0.513786284       0.388485769
                        -----------------------------------------
Magnitude (a.u.)       :      1.001480078
Magnitude (Debye)      :      2.545560060

Rotational constants in cm-1:             0.013888             0.004444             0.004320
Rotational constants in MHz :           416.361531           133.226504           129.499908

                             ****ORCA TERMINATED NORMALLY****
TOTAL RUN TIME: 0 days 0 hours 0 minutes 21 seconds 45 msec
