                         Program Version 6.0.0  -   RELEASE  -
|  1> ! pbe def2-sv(p) def2/J RI DEFGRID1 loosescf d4 GCP(DFT/SV(P)) printgap
|  2> %output
|  3>     printlevel normal
|  4> end
|  5> * xyz 0 1
|  6> C -0.5835847386 -0.0092752673 -0.4918585545
|  7> C 0.5835864671 0.0092076674 0.4918674588
|  8> O 1.7838339381 -0.0187385989 -0.2480367182
|  9> O -1.7838335521 0.0187988881 0.2480298301
| 10> H -0.513921246 -0.9173957536 -1.1036777931
| 11> H -0.5023643481 0.8637007424 -1.1516709084
| 12> H 0.5024179752 -0.8638230329 1.1516100895
| 13> H 0.5138295527 0.9172707318 1.1037640063
| 14> H 2.5338452048 -0.0046408955 0.3623761351
| 15> H -2.5338338632 0.0047367451 -0.362398297
| 16> *
| 17>
| 18>                          ****END OF INPUT****

CARTESIAN COORDINATES (ANGSTROEM)
---------------------------------
  C     -0.583585   -0.009275   -0.491859
  C      0.583586    0.009208    0.491867
  O      1.783834   -0.018739   -0.248037
  O     -1.783834    0.018799    0.248030
  H     -0.513921   -0.917396   -1.103678
  H     -0.502364    0.863701   -1.151671
  H      0.502418   -0.863823    1.151610
  H      0.513830    0.917271    1.103764
  H      2.533845   -0.004641    0.362376
  H     -2.533834    0.004737   -0.362398

 Total Charge           Charge          ....    0
 Multiplicity           Mult            ....    1
 Number of Electrons    NEL             ....   34
 Basis Dimension        Dim             ....   68

ORBITAL ENERGIES
----------------

  NO   OCC          E(Eh)            E(eV)
   0   2.0000     -18.743397      -510.0338
   1   2.0000     -18.743320      -510.0317
   2   2.0000      -9.926180      -270.1051
   3   2.0000      -9.926126      -270.1036
   4   2.0000      -0.923566       -25.1315
   5   2.0000      -0.913113       -24.8471
   6   2.0000      -0.658103       -17.9079
   7   2.0000      -0.536999       -14.6125
   8   2.0000      -0.483375       -13.1533
   9   2.0000      -0.427463       -11.6319
  10   2.0000      -0.425972       -11.5913
  11   2.0000      -0.365640        -9.9496
  12   2.0000      -0.343305        -9.3418
  13   2.0000      -0.295293        -8.0353
  14   2.0000      -0.267398        -7.2763
  15   2.0000      -0.214714        -5.8427
  16   2.0000      -0.211059        -5.7432
  17   0.0000       0.020622         0.5612
  18   0.0000       0.037437         1.0187
  19   0.0000       0.089316         2.4304
  20   0.0000       0.095087         2.5874
  21   0.0000       0.105299         2.8653

MULLIKEN ATOMIC CHARGES
-----------------------
   0 C :   -0.015076
   1 C :   -0.015072
   2 O :   -0.441836
   3 O :   -0.441836
   4 H :    0.077403
   5 H :    0.077374
   6 H :    0.077373
   7 H :    0.077405
   8 H :    0.302132
   9 H :    0.302131
Sum of atomic charges:   -0.0000000

LOEWDIN ATOMIC CHARGES
----------------------
   0 C :   -0.133069
   1 C :   -0.133069
   2 O :   -0.348668
   3 O :   -0.348668
   4 H :    0.097156
   5 H :    0.097128
   6 H :    0.097128
   7 H :    0.097157
   8 H :    0.287452
   9 H :    0.287452

  Mayer bond orders larger than 0.100000
B(  0-C ,  1-C ) :   1.1152 B(  0-C ,  3-O ) :   1.0818 B(  0-C ,  4-H ) :   0.9216
B(  0-C ,  5-H ) :   0.9215 B(  1-C ,  2-O ) :   1.0818 B(  1-C ,  6-H ) :   0.9215
B(  1-C ,  7-H ) :   0.9216 B(  2-O ,  8-H ) :   0.8532 B(  3-O ,  9-H ) :   0.8532

Dispersion correction           -0.004655415
FINAL SINGLE POINT ENERGY      -229.722603181742

DIPOLE MOMENT
-------------

Method             : SCF
Type of density    : Electron Density
Multiplicity       :   1
Irrep              :   0
Energy             :  -229.7730253420839688 Eh
Relativity type    :
Basis              : AO
                                X                 Y                 Z
Electronic contribution:      0.000033866       0.000122932      -0.000004257
Nuclear contribution   :     -0.000025067      -0.000141203       0.000002930
                        -----------------------------------------
Total Dipole Moment    :      0.000008799      -0.000018270      -0.000001327
                        -----------------------------------------
Magnitude (a.u.)       :      0.000020322
Magnitude (Debye)      :      0.000051654

Rotational constants in cm-1:             1.034521             0.132446             0.122893
Rotational constants in MHz :         31014.169232          3970.642847          3684.226262

                             ****ORCA TERMINATED NORMALLY****
TOTAL RUN TIME: 0 days 0 hours 0 minutes 4 seconds 336 msec
