                         Program Version 6.0.1  -  RELEASE   -
|  1> ! pbe def2-sv(p) def2/J RI DEFGRID1 loosescf d4 GCP(DFT/SV(P)) printgap
|  2> %output
|  3>     printlevel normal
|  4> end
|  5> * xyz 0 1
|  6> C 5.6627869929 -1.4983849746 -0.2591589347
|  7> C 4.8169519763 -1.6725957539 -1.5102612692
|  8> O 3.4757026575 -2.0802072929 -1.1711962793
|  9> C 2.5920150656 -1.1540355137 -0.8722018647
| 10> O 2.8050558455 0.0415268399 -0.8994478688
| 11> C 1.2605340889 -1.7537887132 -0.4746550503
| 12> C 0.1960349107 -0.6712081511 -0.5358919752
| 13> H -0.0469827425 -0.3826769411 -1.5629132382
| 14> C 0.599406236 0.5802563804 0.2213569006
| 15> O 0.3735690113 1.6968653352 -0.192781075
| 16> O 1.0842730627 0.2960992967 1.4122302193
| 17> C 1.5091893314 1.3825695192 2.2574960623
| 18> C 3.011618725 1.5797159031 2.1414305996
| 19> S -1.3419344568 -1.2447705802 0.2632065051
| 20> P -2.4975903443 0.5019536753 -0.1000236359
| 21> S -2.3790331247 1.2554604749 -1.8985547551
| 22> O -3.9563737112 0.0110999331 0.3231656243
| 23> C -4.6940081823 -0.9056865186 -0.4961508873
| 24> O -2.1848693101 1.5224491787 1.068877333
| 25> C -2.4050527617 1.1819115013 2.4552585813
| 26> H 5.2723303364 -0.6826753152 0.3452752946
| 27> H 5.6548315078 -2.4124291903 0.3277858923
| 28> H 6.682709101 -1.2649473964 -0.5460696026
| 29> H 5.1941801571 -2.4799492989 -2.137636206
| 30> H 4.7654890249 -0.7392071197 -2.0780972502
| 31> H 1.3519706478 -2.12750114 0.548158983
| 32> H 1.0158606595 -2.5915864003 -1.1259199571
| 33> H 0.9708729325 2.2857870487 1.9557246438
| 34> H 1.2226186951 1.0817247486 3.266170456
| 35> H 3.5338533432 0.6890722747 2.4799474419
| 36> H 3.2762741414 1.7698433802 1.1028150328
| 37> H 3.3133732283 2.4271817298 2.747702592
| 38> H -5.7207304401 -0.8513030258 -0.1436518972
| 39> H -4.2944482113 -1.9113222001 -0.3715487379
| 40> H -4.6320255251 -0.604691332 -1.5429191378
| 41> H -1.9575343755 1.9948072512 3.0214053897
| 42> H -1.9231776394 0.2317405678 2.6889803671
| 43> H -3.4736296782 1.115953491 2.6482296091
| 44> *
| 45>
| 46>                          ****END OF INPUT****

CARTESIAN COORDINATES (ANGSTROEM)
---------------------------------
  C      5.662787   -1.498385   -0.259159
  C      4.816952   -1.672596   -1.510261
  O      3.475703   -2.080207   -1.171196
  C      2.592015   -1.154036   -0.872202
  O      2.805056    0.041527   -0.899448
  C      1.260534   -1.753789   -0.474655
  C      0.196035   -0.671208   -0.535892
  H     -0.046983   -0.382677   -1.562913
  C      0.599406    0.580256    0.221357
  O      0.373569    1.696865   -0.192781
  O      1.084273    0.296099    1.412230
  C      1.509189    1.382570    2.257496
  C      3.011619    1.579716    2.141431
  S     -1.341934   -1.244771    0.263207
  P     -2.497590    0.501954   -0.100024
  S     -2.379033    1.255460   -1.898555
  O     -3.956374    0.011100    0.323166
  C     -4.694008   -0.905687   -0.496151
  O     -2.184869    1.522449    1.068877
  C     -2.405053    1.181912    2.455259
  H      5.272330   -0.682675    0.345275
  H      5.654832   -2.412429    0.327786
  H      6.682709   -1.264947   -0.546070
  H      5.194180   -2.479949   -2.137636
  H      4.765489   -0.739207   -2.078097
  H      1.351971   -2.127501    0.548159
  H      1.015861   -2.591586   -1.125920
  H      0.970873    2.285787    1.955725
  H      1.222619    1.081725    3.266170
  H      3.533853    0.689072    2.479947
  H      3.276274    1.769843    1.102815
  H      3.313373    2.427182    2.747703
  H     -5.720730   -0.851303   -0.143652
  H     -4.294448   -1.911322   -0.371549
  H     -4.632026   -0.604691   -1.542919
  H     -1.957534    1.994807    3.021405
  H     -1.923178    0.231741    2.688980
  H     -3.473630    1.115953    2.648230

 Total Charge           Charge          ....    0
 Multiplicity           Mult            ....    1
 Number of Electrons    NEL             ....  174
 Basis Dimension        Dim             ....  316

ORBITAL ENERGIES
----------------

  NO   OCC          E(Eh)            E(eV)
   0   2.0000     -88.039619     -2395.6798
   1   2.0000     -87.973497     -2393.8806
   2   2.0000     -76.419874     -2079.4905
   3   2.0000     -18.815236      -511.9886
   4   2.0000     -18.796193      -511.4704
   5   2.0000     -18.792167      -511.3609
   6   2.0000     -18.789207      -511.2803
   7   2.0000     -18.752684      -510.2865
   8   2.0000     -18.717984      -509.3422
   9   2.0000     -10.023749      -272.7601
  10   2.0000     -10.002134      -272.1719
  11   2.0000      -9.957674      -270.9621
  12   2.0000      -9.946585      -270.6603
  13   2.0000      -9.944493      -270.6034
  14   2.0000      -9.942653      -270.5533
  15   2.0000      -9.939427      -270.4656
  16   2.0000      -9.918704      -269.9017
  17   2.0000      -9.895923      -269.2818
  18   2.0000      -9.881444      -268.8878
  19   2.0000      -7.684335      -209.1014
  20   2.0000      -7.618908      -207.3210
  21   2.0000      -6.417137      -174.6192
  22   2.0000      -5.711831      -155.4268
  23   2.0000      -5.709022      -155.3504
  24   2.0000      -5.701580      -155.1479
  25   2.0000      -5.648074      -153.6919
  26   2.0000      -5.639199      -153.4504
  27   2.0000      -5.639097      -153.4476
  28   2.0000      -4.640058      -126.2624
  29   2.0000      -4.639016      -126.2341
  30   2.0000      -4.637198      -126.1846
  31   2.0000      -1.023943       -27.8629
  32   2.0000      -1.002515       -27.2798
  33   2.0000      -0.984619       -26.7929
  34   2.0000      -0.940315       -25.5873
  35   2.0000      -0.929693       -25.2982
  36   2.0000      -0.901203       -24.5230
  37   2.0000      -0.765952       -20.8426
  38   2.0000      -0.720745       -19.6125
  39   2.0000      -0.700306       -19.0563
  40   2.0000      -0.690702       -18.7950
  41   2.0000      -0.662757       -18.0345
  42   2.0000      -0.636636       -17.3238
  43   2.0000      -0.620112       -16.8741
  44   2.0000      -0.610371       -16.6090
  45   2.0000      -0.598025       -16.2731
  46   2.0000      -0.562173       -15.2975
  47   2.0000      -0.513066       -13.9612
  48   2.0000      -0.509056       -13.8521
  49   2.0000      -0.495726       -13.4894
  50   2.0000      -0.478825       -13.0295
  51   2.0000      -0.473778       -12.8922
  52   2.0000      -0.463162       -12.6033
  53   2.0000      -0.442973       -12.0539
  54   2.0000      -0.439284       -11.9535
  55   2.0000      -0.429939       -11.6992
  56   2.0000      -0.429233       -11.6800
  57   2.0000      -0.419423       -11.4131
  58   2.0000      -0.413591       -11.2544
  59   2.0000      -0.410897       -11.1811
  60   2.0000      -0.402883       -10.9630
  61   2.0000      -0.398956       -10.8561
  62   2.0000      -0.391437       -10.6515
  63   2.0000      -0.383011       -10.4223
  64   2.0000      -0.375084       -10.2066
  65   2.0000      -0.367795       -10.0082
  66   2.0000      -0.360702        -9.8152
  67   2.0000      -0.358652        -9.7594
  68   2.0000      -0.345038        -9.3890
  69   2.0000      -0.339167        -9.2292
  70   2.0000      -0.333458        -9.0739
  71   2.0000      -0.329270        -8.9599
  72   2.0000      -0.320178        -8.7125
  73   2.0000      -0.314932        -8.5697
  74   2.0000      -0.305474        -8.3124
  75   2.0000      -0.300513        -8.1774
  76   2.0000      -0.295773        -8.0484
  77   2.0000      -0.286556        -7.7976
  78   2.0000      -0.272481        -7.4146
  79   2.0000      -0.269572        -7.3354
  80   2.0000      -0.259391        -7.0584
  81   2.0000      -0.247905        -6.7458
  82   2.0000      -0.236960        -6.4480
  83   2.0000      -0.230230        -6.2649
  84   2.0000      -0.211521        -5.7558
  85   2.0000      -0.190529        -5.1845
  86   2.0000      -0.184041        -5.0080
  87   0.0000      -0.042060        -1.1445
  88   0.0000      -0.033303        -0.9062
  89   0.0000      -0.011268        -0.3066
  90   0.0000       0.012500         0.3401
  91   0.0000       0.026615         0.7242

MULLIKEN ATOMIC CHARGES
-----------------------
   0 C :   -0.313286
   1 C :   -0.014962
   2 O :   -0.224445
   3 C :    0.127287
   4 O :   -0.194919
   5 C :   -0.056852
   6 C :   -0.292234
   7 H :    0.146822
   8 C :    0.170900
   9 O :   -0.169463
  10 O :   -0.246992
  11 C :   -0.023878
  12 C :   -0.306698
  13 S :   -0.115550
  14 P :    0.603737
  15 S :   -0.282352
  16 O :   -0.392290
  17 C :   -0.100711
  18 O :   -0.356741
  19 C :   -0.107600
  20 H :    0.132542
  21 H :    0.116503
  22 H :    0.117862
  23 H :    0.108021
  24 H :    0.116636
  25 H :    0.127136
  26 H :    0.123549
  27 H :    0.119084
  28 H :    0.094179
  29 H :    0.107515
  30 H :    0.144298
  31 H :    0.107912
  32 H :    0.125489
  33 H :    0.115700
  34 H :    0.120113
  35 H :    0.130324
  36 H :    0.117425
  37 H :    0.125939
Sum of atomic charges:   -0.0000000

LOEWDIN ATOMIC CHARGES
----------------------
   0 C :   -0.356555
   1 C :   -0.108880
   2 O :   -0.053416
   3 C :    0.045643
   4 O :   -0.145547
   5 C :   -0.254188
   6 C :   -0.258860
   7 H :    0.139278
   8 C :   -0.010443
   9 O :   -0.146668
  10 O :   -0.065834
  11 C :   -0.111582
  12 C :   -0.357312
  13 S :    0.086256
  14 P :    0.570908
  15 S :   -0.290208
  16 O :   -0.260021
  17 C :   -0.214990
  18 O :   -0.233958
  19 C :   -0.211650
  20 H :    0.130885
  21 H :    0.126130
  22 H :    0.133411
  23 H :    0.120519
  24 H :    0.123385
  25 H :    0.148354
  26 H :    0.143761
  27 H :    0.122951
  28 H :    0.111852
  29 H :    0.119280
  30 H :    0.136035
  31 H :    0.127949
  32 H :    0.122550
  33 H :    0.110097
  34 H :    0.112714
  35 H :    0.123997
  36 H :    0.107264
  37 H :    0.116894

  Mayer bond orders larger than 0.100000
B(  0-C ,  1-C ) :   1.1747 B(  0-C , 20-H ) :   0.9431 B(  0-C , 21-H ) :   0.9483
B(  0-C , 22-H ) :   0.9429 B(  1-C ,  2-O ) :   0.9081 B(  1-C , 23-H ) :   0.9368
B(  1-C , 24-H ) :   0.9149 B(  2-O ,  3-C ) :   1.2561 B(  3-C ,  4-O ) :   1.9811
B(  3-C ,  5-C ) :   1.0173 B(  5-C ,  6-C ) :   1.0347 B(  5-C , 25-H ) :   0.8688
B(  5-C , 26-H ) :   0.8958 B(  6-C ,  7-H ) :   0.8685 B(  6-C ,  8-C ) :   0.9032
B(  6-C , 13-S ) :   1.0157 B(  8-C ,  9-O ) :   2.0562 B(  8-C , 10-O ) :   1.2003
B( 10-O , 11-C ) :   0.9194 B( 11-C , 12-C ) :   1.1784 B( 11-C , 27-H ) :   0.9053
B( 11-C , 28-H ) :   0.9360 B( 12-C , 29-H ) :   0.9478 B( 12-C , 30-H ) :   0.9385
B( 12-C , 31-H ) :   0.9428 B( 13-S , 14-P ) :   0.9497 B( 13-S , 15-S ) :   0.1136
B( 14-P , 15-S ) :   1.6953 B( 14-P , 16-O ) :   1.0656 B( 14-P , 18-O ) :   1.1101
B( 16-O , 17-C ) :   0.9296 B( 17-C , 32-H ) :   0.9587 B( 17-C , 33-H ) :   0.9507
B( 17-C , 34-H ) :   0.9316 B( 18-O , 19-C ) :   0.9188 B( 19-C , 35-H ) :   0.9569
B( 19-C , 36-H ) :   0.9335 B( 19-C , 37-H ) :   0.9492

Dispersion correction           -0.051807327
FINAL SINGLE POINT ENERGY     -1979.014785445105

DIPOLE MOMENT
-------------

Method             : SCF
Type of density    : Electron Density
Multiplicity       :   1
Irrep              :   0
Energy             : -1979.1464860620048967 Eh
Relativity type    :
Basis              : AO
                                X                 Y                 Z
Electronic contribution:    -20.459121725       2.951417379      -9.695992507
Nuclear contribution   :     21.319522555      -4.603679962      11.049501031
                        -----------------------------------------
Total Dipole Moment    :      0.860400830      -1.652262582       1.353508524
                        -----------------------------------------
Magnitude (a.u.)       :      2.302660755
Magnitude (Debye)      :      5.852898503

Rotational constants in cm-1:             0.017853             0.005625             0.005008
Rotational constants in MHz :           535.213111           168.645020           150.142361

                             ****ORCA TERMINATED NORMALLY****
TOTAL RUN TIME: 0 days 0 hours 0 minutes 41 seconds 807 msec
