                         Program Version 6.0.0  -   RELEASE  -
|  1> ! pbe def2-sv(p) def2/J RI DEFGRID1 loosescf d4 GCP(DFT/SV(P)) printgap
|  2> %output
|  3>     printlevel normal
|  4> end
|  5> * xyz 0 1
|  6> C 1.9502661412 -0.0001342089 0.7075624529
|  7> N 1.1001751925 -1.22643e-05 -0.4658701376
|  8> C 0.2718669363 1.1866807541 -0.5983027246
|  9> C -0.937062167 1.1961973398 0.3465206937
| 10> N -1.727023586 -3.9528e-06 0.0994587493
| 11> C -0.936964456 -1.1960959224 0.3465948256
| 12> C 0.2718427405 -1.1866279985 -0.5983951487
| 13> H 1.4099606974 -0.0008613427 1.6648325642
| 14> H 2.5847459044 0.8843574473 0.6733057453
| 15> H 2.5854159049 -0.8841246993 0.6726053534
| 16> H 0.889481717 2.0696561428 -0.4267664553
| 17> H -0.0970623292 1.2068465638 -1.6271342131
| 18> H -0.5883718111 1.2574853646 1.3940635365
| 19> H -1.5555158205 2.0716052199 0.1412069162
| 20> H -2.5539134044 3.80425e-05 0.6878028562
| 21> H -0.5881726655 -1.2572350082 1.3941158303
| 22> H -1.5553378042 -2.0715967395 0.1414834144
| 23> H 0.8894507604 -2.0696759969 -0.4271625143
| 24> H -0.0972684961 -1.2065075352 -1.6271669787
| 25> *
| 26>
| 27>                          ****END OF INPUT****

CARTESIAN COORDINATES (ANGSTROEM)
---------------------------------
  C      1.950266   -0.000134    0.707562
  N      1.100175   -0.000012   -0.465870
  C      0.271867    1.186681   -0.598303
  C     -0.937062    1.196197    0.346521
  N     -1.727024   -0.000004    0.099459
  C     -0.936964   -1.196096    0.346595
  C      0.271843   -1.186628   -0.598395
  H      1.409961   -0.000861    1.664833
  H      2.584746    0.884357    0.673306
  H      2.585416   -0.884125    0.672605
  H      0.889482    2.069656   -0.426766
  H     -0.097062    1.206847   -1.627134
  H     -0.588372    1.257485    1.394064
  H     -1.555516    2.071605    0.141207
  H     -2.553913    0.000038    0.687803
  H     -0.588173   -1.257235    1.394116
  H     -1.555338   -2.071597    0.141483
  H      0.889451   -2.069676   -0.427163
  H     -0.097268   -1.206508   -1.627167

 Total Charge           Charge          ....    0
 Multiplicity           Mult            ....    1
 Number of Electrons    NEL             ....   56
 Basis Dimension        Dim             ....  122

ORBITAL ENERGIES
----------------

  NO   OCC          E(Eh)            E(eV)
   0   2.0000     -13.974689      -380.2706
   1   2.0000     -13.969226      -380.1220
   2   2.0000      -9.903693      -269.4932
   3   2.0000      -9.903687      -269.4930
   4   2.0000      -9.901476      -269.4329
   5   2.0000      -9.901468      -269.4327
   6   2.0000      -9.897079      -269.3132
   7   2.0000      -0.850460       -23.1422
   8   2.0000      -0.799448       -21.7541
   9   2.0000      -0.678294       -18.4573
  10   2.0000      -0.638390       -17.3715
  11   2.0000      -0.567677       -15.4473
  12   2.0000      -0.567362       -15.4387
  13   2.0000      -0.487456       -13.2643
  14   2.0000      -0.462394       -12.5824
  15   2.0000      -0.417636       -11.3645
  16   2.0000      -0.404167       -10.9979
  17   2.0000      -0.398664       -10.8482
  18   2.0000      -0.393522       -10.7083
  19   2.0000      -0.372043       -10.1238
  20   2.0000      -0.340979        -9.2785
  21   2.0000      -0.328515        -8.9394
  22   2.0000      -0.324225        -8.8226
  23   2.0000      -0.302870        -8.2415
  24   2.0000      -0.300406        -8.1745
  25   2.0000      -0.289646        -7.8817
  26   2.0000      -0.184745        -5.0272
  27   2.0000      -0.152846        -4.1591
  28   0.0000       0.028353         0.7715
  29   0.0000       0.061857         1.6832
  30   0.0000       0.065934         1.7942
  31   0.0000       0.075498         2.0544
  32   0.0000       0.090362         2.4589

MULLIKEN ATOMIC CHARGES
-----------------------
   0 C :   -0.177477
   1 N :   -0.288273
   2 C :   -0.053867
   3 C :   -0.075534
   4 N :   -0.359745
   5 C :   -0.075574
   6 C :   -0.053821
   7 H :    0.081890
   8 H :    0.099840
   9 H :    0.099832
  10 H :    0.080606
  11 H :    0.078805
  12 H :    0.058795
  13 H :    0.081581
  14 H :    0.203147
  15 H :    0.058813
  16 H :    0.081576
  17 H :    0.080607
  18 H :    0.078796
Sum of atomic charges:    0.0000000

LOEWDIN ATOMIC CHARGES
----------------------
   0 C :   -0.261508
   1 N :   -0.148313
   2 C :   -0.163879
   3 C :   -0.185464
   4 N :   -0.267944
   5 C :   -0.185467
   6 C :   -0.163882
   7 H :    0.085092
   8 H :    0.113485
   9 H :    0.113476
  10 H :    0.111423
  11 H :    0.114189
  12 H :    0.089118
  13 H :    0.113861
  14 H :    0.207220
  15 H :    0.089120
  16 H :    0.113860
  17 H :    0.111422
  18 H :    0.114192

  Mayer bond orders larger than 0.100000
B(  0-C ,  1-N ) :   1.0467 B(  0-C ,  7-H ) :   0.9224 B(  0-C ,  8-H ) :   0.9544
B(  0-C ,  9-H ) :   0.9544 B(  1-N ,  2-C ) :   1.0696 B(  1-N ,  6-C ) :   1.0696
B(  2-C ,  3-C ) :   1.1236 B(  2-C , 10-H ) :   0.9250 B(  2-C , 11-H ) :   0.9076
B(  3-C ,  4-N ) :   1.0638 B(  3-C , 12-H ) :   0.8917 B(  3-C , 13-H ) :   0.9220
B(  4-N ,  5-C ) :   1.0638 B(  4-N , 14-H ) :   0.8796 B(  5-C ,  6-C ) :   1.1235
B(  5-C , 15-H ) :   0.8917 B(  5-C , 16-H ) :   0.9220 B(  6-C , 17-H ) :   0.9250
B(  6-C , 18-H ) :   0.9076

Dispersion correction           -0.017132989
FINAL SINGLE POINT ENERGY      -306.498720097326

DIPOLE MOMENT
-------------

Method             : SCF
Type of density    : Electron Density
Multiplicity       :   1
Irrep              :   0
Energy             :  -306.5726924210213156 Eh
Relativity type    :
Basis              : AO
                                X                 Y                 Z
Electronic contribution:     -1.429401126       0.000063783      -1.935292092
Nuclear contribution   :      1.238148971      -0.000011854       2.494626723
                        -----------------------------------------
Total Dipole Moment    :     -0.191252155       0.000051929       0.559334631
                        -----------------------------------------
Magnitude (a.u.)       :      0.591128259
Magnitude (Debye)      :      1.502528626

Rotational constants in cm-1:             0.132087             0.088238             0.067488
Rotational constants in MHz :          3959.869129          2645.323578          2023.246965

                             ****ORCA TERMINATED NORMALLY****
TOTAL RUN TIME: 0 days 0 hours 0 minutes 8 seconds 576 msec
