                         Program Version 6.0.0  -   RELEASE  -
|  1> ! wb97x-v def2-tzvp def2/J RIJCOSX DEFGRID2 scfconv7 GCP(DFT/TZ) printgap
|  2> %output
|  3>     printlevel normal
|  4> end
|  5> * xyz 0 1
|  6> C -1.8422449830167313 -1.4508060647657555 -5.7283683969693715e-05
|  7> C -0.5306962020795539 -0.7213556490994657 -4.2803743156381055e-05
|  8> C 0.6892253748095551 -1.4012551506185669 -5.5243891457926364e-05
|  9> C 1.9068593153841835 -0.7243049860489613 -2.3051209184847622e-05
| 10> C 1.916749146494685 0.6684212687372081 2.19285258333191e-05
| 11> C 0.717862242376335 1.3740151798929896 3.526740616651717e-05
| 12> C -0.4906538786527518 0.6815237371753694 8.33796317240555e-06
| 13> O -1.6442476384878506 1.4400632399803746 4.136738160989379e-05
| 14> H -1.679445181440132 -2.530532047932978 -0.00023590363724902022
| 15> H -2.443689257401916 -1.203973885667092 0.884163933692029
| 16> H -2.4438278078267963 -1.2037086243095296 -0.8841095022009074
| 17> H 0.6750953627521354 -2.4878866457422792 -9.553040490259586e-05
| 18> H 2.83822265722156 -1.2809469041876884 -3.11219605411083e-05
| 19> H 2.8567739584208844 1.211306448831494 4.6289359194209915e-05
| 20> H 0.7060595616608868 2.4593885154350517 7.157465559049257e-05
| 21> H -2.4150627858407927 0.8560437642522665 3.799456316062996e-05
| 22> *
| 23>
| 24>                          ****END OF INPUT****

CARTESIAN COORDINATES (ANGSTROEM)
---------------------------------
  C     -1.842245   -1.450806   -0.000057
  C     -0.530696   -0.721356   -0.000043
  C      0.689225   -1.401255   -0.000055
  C      1.906859   -0.724305   -0.000023
  C      1.916749    0.668421    0.000022
  C      0.717862    1.374015    0.000035
  C     -0.490654    0.681524    0.000008
  O     -1.644248    1.440063    0.000041
  H     -1.679445   -2.530532   -0.000236
  H     -2.443689   -1.203974    0.884164
  H     -2.443828   -1.203709   -0.884110
  H      0.675095   -2.487887   -0.000096
  H      2.838223   -1.280947   -0.000031
  H      2.856774    1.211306    0.000046
  H      0.706060    2.459389    0.000072
  H     -2.415063    0.856044    0.000038

 Total Charge           Charge          ....    0
 Multiplicity           Mult            ....    1
 Number of Electrons    NEL             ....   58
 Basis Dimension        Dim             ....  296

ORBITAL ENERGIES
----------------

  NO   OCC          E(Eh)            E(eV)
   0   2.0000     -21.701557      -590.5294
   1   2.0000     -12.110128      -329.5333
   2   2.0000     -12.060505      -328.1830
   3   2.0000     -12.058642      -328.1323
   4   2.0000     -12.052043      -327.9528
   5   2.0000     -12.050771      -327.9181
   6   2.0000     -12.044528      -327.7483
   7   2.0000     -12.042914      -327.7043
   8   2.0000      -1.713554       -46.6282
   9   2.0000      -1.385740       -37.7079
  10   2.0000      -1.299635       -35.3649
  11   2.0000      -1.277470       -34.7617
  12   2.0000      -1.207334       -32.8532
  13   2.0000      -1.141953       -31.0741
  14   2.0000      -1.110687       -30.2233
  15   2.0000      -1.053918       -28.6786
  16   2.0000      -1.001460       -27.2511
  17   2.0000      -0.944951       -25.7134
  18   2.0000      -0.943133       -25.6640
  19   2.0000      -0.938602       -25.5406
  20   2.0000      -0.896106       -24.3843
  21   2.0000      -0.874789       -23.8042
  22   2.0000      -0.851539       -23.1716
  23   2.0000      -0.844032       -22.9673
  24   2.0000      -0.823555       -22.4101
  25   2.0000      -0.808098       -21.9895
  26   2.0000      -0.760544       -20.6955
  27   2.0000      -0.637716       -17.3531
  28   2.0000      -0.632591       -17.2137
  29   0.0000      -0.244489        -6.6529
  30   0.0000      -0.238200        -6.4818
  31   0.0000      -0.148875        -4.0511
  32   0.0000      -0.071454        -1.9444
  33   0.0000      -0.068948        -1.8762

MULLIKEN ATOMIC CHARGES
-----------------------
   0 C :   -0.459799
   1 C :    0.114772
   2 C :   -0.178009
   3 C :   -0.134382
   4 C :   -0.104826
   5 C :   -0.209695
   6 C :    0.176801
   7 O :   -0.388925
   8 H :    0.126425
   9 H :    0.138341
  10 H :    0.138330
  11 H :    0.110829
  12 H :    0.114415
  13 H :    0.116460
  14 H :    0.120301
  15 H :    0.318960
Sum of atomic charges:   -0.0000000

LOEWDIN ATOMIC CHARGES
----------------------
   0 C :   -0.265346
   1 C :   -0.170040
   2 C :   -0.117351
   3 C :   -0.159137
   4 C :   -0.139714
   5 C :   -0.122378
   6 C :   -0.228181
   7 O :    0.066445
   8 H :    0.130727
   9 H :    0.125164
  10 H :    0.125160
  11 H :    0.143215
  12 H :    0.139986
  13 H :    0.141986
  14 H :    0.147365
  15 H :    0.182103

  Mayer bond orders larger than 0.100000
B(  0-C ,  1-C ) :   0.8832 B(  0-C ,  8-H ) :   0.9818 B(  0-C ,  9-H ) :   0.9826
B(  0-C , 10-H ) :   0.9826 B(  1-C ,  2-C ) :   1.3864 B(  1-C ,  6-C ) :   1.2970
B(  2-C ,  3-C ) :   1.4508 B(  2-C , 11-H ) :   0.9605 B(  3-C ,  4-C ) :   1.4300
B(  3-C , 12-H ) :   0.9761 B(  4-C ,  5-C ) :   1.4364 B(  4-C , 13-H ) :   0.9750
B(  5-C ,  6-C ) :   1.4410 B(  5-C , 14-H ) :   0.9724 B(  6-C ,  7-O ) :   1.1591
B(  7-O , 15-H ) :   0.8861

FINAL SINGLE POINT ENERGY      -346.804143382248

DIPOLE MOMENT
-------------

Method             : SCF
Type of density    : Electron Density
Multiplicity       :   1
Irrep              :   0
Energy             :  -346.8132010570479906 Eh
Relativity type    :
Basis              : AO
                                X                 Y                 Z
Electronic contribution:      1.475190877       3.322330076       0.000081606
Nuclear contribution   :     -1.826536180      -3.895241096      -0.000083334
                        -----------------------------------------
Total Dipole Moment    :     -0.351345303      -0.572911020      -0.000001728
                        -----------------------------------------
Magnitude (a.u.)       :      0.672064400
Magnitude (Debye)      :      1.708251949

Rotational constants in cm-1:             0.108529             0.073396             0.044146
Rotational constants in MHz :          3253.606022          2200.360370          1323.476459

                             ****ORCA TERMINATED NORMALLY****
TOTAL RUN TIME: 0 days 0 hours 2 minutes 15 seconds 948 msec
