                         Program Version 6.0.0  -   RELEASE  -
|  1> ! wb97x-v def2-tzvp def2/J RIJCOSX DEFGRID2 scfconv7 GCP(DFT/TZ) printgap
|  2> %output
|  3>     printlevel normal
|  4> end
|  5> %cpcm
|  6>     smd true
|  7>     smdsolvent "water"
|  8> end
|  9> * xyz 0 1
| 10> C -1.8422449830167313 -1.4508060647657555 -5.7283683969693715e-05
| 11> C -0.5306962020795539 -0.7213556490994657 -4.2803743156381055e-05
| 12> C 0.6892253748095551 -1.4012551506185669 -5.5243891457926364e-05
| 13> C 1.9068593153841835 -0.7243049860489613 -2.3051209184847622e-05
| 14> C 1.916749146494685 0.6684212687372081 2.19285258333191e-05
| 15> C 0.717862242376335 1.3740151798929896 3.526740616651717e-05
| 16> C -0.4906538786527518 0.6815237371753694 8.33796317240555e-06
| 17> O -1.6442476384878506 1.4400632399803746 4.136738160989379e-05
| 18> H -1.679445181440132 -2.530532047932978 -0.00023590363724902022
| 19> H -2.443689257401916 -1.203973885667092 0.884163933692029
| 20> H -2.4438278078267963 -1.2037086243095296 -0.8841095022009074
| 21> H 0.6750953627521354 -2.4878866457422792 -9.553040490259586e-05
| 22> H 2.83822265722156 -1.2809469041876884 -3.11219605411083e-05
| 23> H 2.8567739584208844 1.211306448831494 4.6289359194209915e-05
| 24> H 0.7060595616608868 2.4593885154350517 7.157465559049257e-05
| 25> H -2.4150627858407927 0.8560437642522665 3.799456316062996e-05
| 26> *
| 27>
| 28>                          ****END OF INPUT****

CARTESIAN COORDINATES (ANGSTROEM)
---------------------------------
  C     -1.842245   -1.450806   -0.000057
  C     -0.530696   -0.721356   -0.000043
  C      0.689225   -1.401255   -0.000055
  C      1.906859   -0.724305   -0.000023
  C      1.916749    0.668421    0.000022
  C      0.717862    1.374015    0.000035
  C     -0.490654    0.681524    0.000008
  O     -1.644248    1.440063    0.000041
  H     -1.679445   -2.530532   -0.000236
  H     -2.443689   -1.203974    0.884164
  H     -2.443828   -1.203709   -0.884110
  H      0.675095   -2.487887   -0.000096
  H      2.838223   -1.280947   -0.000031
  H      2.856774    1.211306    0.000046
  H      0.706060    2.459389    0.000072
  H     -2.415063    0.856044    0.000038

 Total Charge           Charge          ....    0
 Multiplicity           Mult            ....    1
 Number of Electrons    NEL             ....   58
 Basis Dimension        Dim             ....  296

ORBITAL ENERGIES
----------------

  NO   OCC          E(Eh)            E(eV)
   0   2.0000     -21.700900      -590.5115
   1   2.0000     -12.109964      -329.5289
   2   2.0000     -12.057777      -328.1088
   3   2.0000     -12.049472      -327.8828
   4   2.0000     -12.048547      -327.8576
   5   2.0000     -12.044654      -327.7517
   6   2.0000     -12.041530      -327.6667
   7   2.0000     -12.039252      -327.6047
   8   2.0000      -1.713211       -46.6188
   9   2.0000      -1.385324       -37.6966
  10   2.0000      -1.295249       -35.2455
  11   2.0000      -1.277500       -34.7625
  12   2.0000      -1.197732       -32.5919
  13   2.0000      -1.139379       -31.0041
  14   2.0000      -1.108456       -30.1626
  15   2.0000      -1.051522       -28.6134
  16   2.0000      -1.003170       -27.2976
  17   2.0000      -0.947073       -25.7712
  18   2.0000      -0.941713       -25.6253
  19   2.0000      -0.935649       -25.4603
  20   2.0000      -0.891118       -24.2486
  21   2.0000      -0.869476       -23.6596
  22   2.0000      -0.834485       -22.7075
  23   2.0000      -0.834086       -22.6966
  24   2.0000      -0.813616       -22.1396
  25   2.0000      -0.801062       -21.7980
  26   2.0000      -0.760597       -20.6969
  27   2.0000      -0.638392       -17.3715
  28   2.0000      -0.633117       -17.2280
  29   0.0000      -0.244940        -6.6652
  30   0.0000      -0.238553        -6.4914
  31   0.0000      -0.146068        -3.9747
  32   0.0000      -0.070631        -1.9220
  33   0.0000      -0.042392        -1.1535

MULLIKEN ATOMIC CHARGES
-----------------------
   0 C :   -0.448661
   1 C :    0.058020
   2 C :   -0.219330
   3 C :   -0.183823
   4 C :   -0.160578
   5 C :   -0.262880
   6 C :    0.208984
   7 O :   -0.462099
   8 H :    0.148875
   9 H :    0.155894
  10 H :    0.155894
  11 H :    0.159940
  12 H :    0.158759
  13 H :    0.160020
  14 H :    0.153684
  15 H :    0.377299
Sum of atomic charges:   -0.0000000

LOEWDIN ATOMIC CHARGES
----------------------
   0 C :   -0.259020
   1 C :   -0.169513
   2 C :   -0.123481
   3 C :   -0.172365
   4 C :   -0.153979
   5 C :   -0.139048
   6 C :   -0.239266
   7 O :    0.041796
   8 H :    0.135006
   9 H :    0.133982
  10 H :    0.133980
  11 H :    0.154312
  12 H :    0.148675
  13 H :    0.151063
  14 H :    0.153626
  15 H :    0.204230

  Mayer bond orders larger than 0.100000
B(  0-C ,  1-C ) :   0.9320 B(  0-C ,  8-H ) :   0.9765 B(  0-C ,  9-H ) :   0.9709
B(  0-C , 10-H ) :   0.9709 B(  1-C ,  2-C ) :   1.3625 B(  1-C ,  6-C ) :   1.2901
B(  2-C ,  3-C ) :   1.4174 B(  2-C , 11-H ) :   0.9643 B(  3-C ,  4-C ) :   1.4115
B(  3-C , 12-H ) :   0.9790 B(  4-C ,  5-C ) :   1.4223 B(  4-C , 13-H ) :   0.9765
B(  5-C ,  6-C ) :   1.4102 B(  5-C , 14-H ) :   0.9820 B(  6-C ,  7-O ) :   1.1241
B(  7-O , 15-H ) :   0.8481

FINAL SINGLE POINT ENERGY      -346.812992336710

DIPOLE MOMENT
-------------

Method             : SCF
Type of density    : Electron Density
Multiplicity       :   1
Irrep              :   0
Energy             :  -346.8220500115096456 Eh
Relativity type    :
Basis              : AO
                                X                 Y                 Z
Electronic contribution:      1.272555722       3.072652729       0.000078829
Nuclear contribution   :     -1.826536180      -3.895241096      -0.000083334
                        -----------------------------------------
Total Dipole Moment    :     -0.553980459      -0.822588366      -0.000004505
                        -----------------------------------------
Magnitude (a.u.)       :      0.991738862
Magnitude (Debye)      :      2.520799855

Rotational constants in cm-1:             0.108529             0.073396             0.044146
Rotational constants in MHz :          3253.606022          2200.360370          1323.476459

                             ****ORCA TERMINATED NORMALLY****
TOTAL RUN TIME: 0 days 0 hours 2 minutes 30 seconds 887 msec
