                         Program Version 6.0.0  -   RELEASE  -
|  1> ! wb97x-v def2-tzvp def2/J RIJCOSX DEFGRID2 scfconv7 GCP(DFT/TZ) printgap
|  2> %output
|  3>     printlevel normal
|  4> end
|  5> * xyz 0 1
|  6> C 3.5804722808168825 0.6960026047858656 0.0019117830278526375
|  7> C 3.580472035757546 -0.6960161386009543 0.0021106200669389055
|  8> C 2.3745995881439073 -1.3942610472170713 0.0007214876315316235
|  9> C 1.1764176323468476 -0.6968442054807625 -0.0009194381241668315
| 10> C 1.176417288609609 0.6968360055888463 -0.0010024255564393286
| 11> C 2.374601910686947 1.3942497031260142 0.00039689766245269486
| 12> O 1.0791491833272587e-05 1.4324576955843062 -0.0026032660704514267
| 13> C -1.1763967873863375 0.6968360238185197 -0.0008668382798079468
| 14> C -2.374576289167258 1.3942544655252789 0.000830803114445822
| 15> C -3.5804538002226844 0.6960165038140138 0.002230752409685133
| 16> C -3.580457014097414 -0.6960002711529013 0.0019822562834720123
| 17> C -2.374586075202944 -1.3942512914806597 0.00041857577105696423
| 18> C -1.1763977376288175 -0.6968449443236304 -0.0009829354182738965
| 19> O 8.25568193180391e-06 -1.4324676160814658 -0.002611448196941451
| 20> H 4.515438072321794 1.245796115166466 0.002969774528507592
| 21> H 4.515435011363357 -1.245816427950696 0.003372873907919225
| 22> H 2.3471075579048835 -2.4792096757695026 0.0008318517249737207
| 23> H 2.3471219199749123 2.479198359606947 0.00024090920879855273
| 24> H -2.3470752028778947 2.479203187896702 0.0009692529516076034
| 25> H -4.515408619258295 1.2458327804640117 0.0035375876175921485
| 26> H -4.515412873957477 -1.2458105827929975 0.003036474802781179
| 27> H -2.347118922677694 -2.479199300409848 0.00022709289391129652
| 28> *
| 29>
| 30>                          ****END OF INPUT****

CARTESIAN COORDINATES (ANGSTROEM)
---------------------------------
  C      3.580472    0.696003    0.001912
  C      3.580472   -0.696016    0.002111
  C      2.374600   -1.394261    0.000721
  C      1.176418   -0.696844   -0.000919
  C      1.176417    0.696836   -0.001002
  C      2.374602    1.394250    0.000397
  O      0.000011    1.432458   -0.002603
  C     -1.176397    0.696836   -0.000867
  C     -2.374576    1.394254    0.000831
  C     -3.580454    0.696017    0.002231
  C     -3.580457   -0.696000    0.001982
  C     -2.374586   -1.394251    0.000419
  C     -1.176398   -0.696845   -0.000983
  O      0.000008   -1.432468   -0.002611
  H      4.515438    1.245796    0.002970
  H      4.515435   -1.245816    0.003373
  H      2.347108   -2.479210    0.000832
  H      2.347122    2.479198    0.000241
  H     -2.347075    2.479203    0.000969
  H     -4.515409    1.245833    0.003538
  H     -4.515413   -1.245811    0.003036
  H     -2.347119   -2.479199    0.000227

 Total Charge           Charge          ....    0
 Multiplicity           Mult            ....    1
 Number of Electrons    NEL             ....   96
 Basis Dimension        Dim             ....  482

ORBITAL ENERGIES
----------------

  NO   OCC          E(Eh)            E(eV)
   0   2.0000     -21.728379      -591.2592
   1   2.0000     -21.728336      -591.2581
   2   2.0000     -12.125255      -329.9450
   3   2.0000     -12.124818      -329.9331
   4   2.0000     -12.122965      -329.8827
   5   2.0000     -12.122798      -329.8781
   6   2.0000     -12.061172      -328.2012
   7   2.0000     -12.061126      -328.1999
   8   2.0000     -12.061048      -328.1978
   9   2.0000     -12.061018      -328.1970
  10   2.0000     -12.058741      -328.1350
  11   2.0000     -12.058691      -328.1337
  12   2.0000     -12.056756      -328.0810
  13   2.0000     -12.056725      -328.0802
  14   2.0000      -1.757043       -47.8116
  15   2.0000      -1.740699       -47.3668
  16   2.0000      -1.419514       -38.6269
  17   2.0000      -1.388757       -37.7900
  18   2.0000      -1.324693       -36.0467
  19   2.0000      -1.313589       -35.7446
  20   2.0000      -1.280953       -34.8565
  21   2.0000      -1.275259       -34.7016
  22   2.0000      -1.209665       -32.9167
  23   2.0000      -1.159915       -31.5629
  24   2.0000      -1.148254       -31.2456
  25   2.0000      -1.112681       -30.2776
  26   2.0000      -1.090291       -29.6683
  27   2.0000      -1.038180       -28.2503
  28   2.0000      -1.025125       -27.8951
  29   2.0000      -1.022857       -27.8334
  30   2.0000      -1.003922       -27.3181
  31   2.0000      -0.976667       -26.5765
  32   2.0000      -0.966296       -26.2943
  33   2.0000      -0.953221       -25.9385
  34   2.0000      -0.933758       -25.4088
  35   2.0000      -0.923716       -25.1356
  36   2.0000      -0.902271       -24.5520
  37   2.0000      -0.900601       -24.5066
  38   2.0000      -0.854949       -23.2644
  39   2.0000      -0.845919       -23.0186
  40   2.0000      -0.834756       -22.7149
  41   2.0000      -0.828615       -22.5477
  42   2.0000      -0.796917       -21.6852
  43   2.0000      -0.771402       -20.9909
  44   2.0000      -0.664504       -18.0821
  45   2.0000      -0.660867       -17.9831
  46   2.0000      -0.645636       -17.5687
  47   2.0000      -0.639894       -17.4124
  48   0.0000      -0.266362        -7.2481
  49   0.0000      -0.257427        -7.0049
  50   0.0000      -0.251217        -6.8360
  51   0.0000      -0.250575        -6.8185
  52   0.0000      -0.247719        -6.7408

MULLIKEN ATOMIC CHARGES
-----------------------
   0 C :   -0.096928
   1 C :   -0.096966
   2 C :   -0.254101
   3 C :    0.224232
   4 C :    0.224600
   5 C :   -0.254492
   6 O :   -0.237519
   7 C :    0.224570
   8 C :   -0.253758
   9 C :   -0.097703
  10 C :   -0.096486
  11 C :   -0.254680
  12 C :    0.224662
  13 O :   -0.237503
  14 H :    0.120500
  15 H :    0.120539
  16 H :    0.125062
  17 H :    0.125011
  18 H :    0.125033
  19 H :    0.120362
  20 H :    0.120559
  21 H :    0.125005
Sum of atomic charges:    0.0000000

LOEWDIN ATOMIC CHARGES
----------------------
   0 C :   -0.143919
   1 C :   -0.143920
   2 C :   -0.108552
   3 C :   -0.194977
   4 C :   -0.194978
   5 C :   -0.108553
   6 O :    0.306521
   7 C :   -0.194979
   8 C :   -0.108552
   9 C :   -0.143923
  10 C :   -0.143920
  11 C :   -0.108555
  12 C :   -0.194978
  13 O :    0.306519
  14 H :    0.143389
  15 H :    0.143390
  16 H :    0.150802
  17 H :    0.150801
  18 H :    0.150802
  19 H :    0.143391
  20 H :    0.143390
  21 H :    0.150802

  Mayer bond orders larger than 0.100000
B(  0-C ,  1-C ) :   1.4300 B(  0-C ,  5-C ) :   1.4099 B(  0-C , 14-H ) :   0.9772
B(  1-C ,  2-C ) :   1.4097 B(  1-C , 15-H ) :   0.9772 B(  2-C ,  3-C ) :   1.4046
B(  2-C , 16-H ) :   0.9741 B(  3-C ,  4-C ) :   1.3525 B(  3-C , 13-O ) :   1.0226
B(  4-C ,  5-C ) :   1.4047 B(  4-C ,  6-O ) :   1.0226 B(  5-C , 17-H ) :   0.9741
B(  6-O ,  7-C ) :   1.0227 B(  7-C ,  8-C ) :   1.4040 B(  7-C , 12-C ) :   1.3524
B(  8-C ,  9-C ) :   1.4088 B(  8-C , 18-H ) :   0.9743 B(  9-C , 10-C ) :   1.4294
B(  9-C , 19-H ) :   0.9782 B( 10-C , 11-C ) :   1.4092 B( 10-C , 20-H ) :   0.9772
B( 11-C , 12-C ) :   1.4039 B( 11-C , 21-H ) :   0.9745 B( 12-C , 13-O ) :   1.0227

FINAL SINGLE POINT ENERGY      -612.565380319430

DIPOLE MOMENT
-------------

Method             : SCF
Type of density    : Electron Density
Multiplicity       :   1
Irrep              :   0
Energy             :  -612.5766917297301006 Eh
Relativity type    :
Basis              : AO
                                X                 Y                 Z
Electronic contribution:      0.000001202      -0.000010359      -0.011876698
Nuclear contribution   :      0.000010260       0.000012474       0.013599978
                        -----------------------------------------
Total Dipole Moment    :      0.000011462       0.000002114       0.001723280
                        -----------------------------------------
Magnitude (a.u.)       :      0.001723320
Magnitude (Debye)      :      0.004380331

Rotational constants in cm-1:             0.071220             0.015938             0.013023
Rotational constants in MHz :          2135.128941           477.797949           390.428474

                             ****ORCA TERMINATED NORMALLY****
TOTAL RUN TIME: 0 days 0 hours 7 minutes 5 seconds 852 msec
