                         Program Version 6.0.0  -   RELEASE  -
|  1> ! wb97x-v def2-tzvp def2/J RIJCOSX DEFGRID2 scfconv7 GCP(DFT/TZ) printgap
|  2> %output
|  3>     printlevel normal
|  4> end
|  5> %cpcm
|  6>     smd true
|  7>     smdsolvent "water"
|  8> end
|  9> * xyz 0 1
| 10> C 3.5804722808168825 0.6960026047858656 0.0019117830278526375
| 11> C 3.580472035757546 -0.6960161386009543 0.0021106200669389055
| 12> C 2.3745995881439073 -1.3942610472170713 0.0007214876315316235
| 13> C 1.1764176323468476 -0.6968442054807625 -0.0009194381241668315
| 14> C 1.176417288609609 0.6968360055888463 -0.0010024255564393286
| 15> C 2.374601910686947 1.3942497031260142 0.00039689766245269486
| 16> O 1.0791491833272587e-05 1.4324576955843062 -0.0026032660704514267
| 17> C -1.1763967873863375 0.6968360238185197 -0.0008668382798079468
| 18> C -2.374576289167258 1.3942544655252789 0.000830803114445822
| 19> C -3.5804538002226844 0.6960165038140138 0.002230752409685133
| 20> C -3.580457014097414 -0.6960002711529013 0.0019822562834720123
| 21> C -2.374586075202944 -1.3942512914806597 0.00041857577105696423
| 22> C -1.1763977376288175 -0.6968449443236304 -0.0009829354182738965
| 23> O 8.25568193180391e-06 -1.4324676160814658 -0.002611448196941451
| 24> H 4.515438072321794 1.245796115166466 0.002969774528507592
| 25> H 4.515435011363357 -1.245816427950696 0.003372873907919225
| 26> H 2.3471075579048835 -2.4792096757695026 0.0008318517249737207
| 27> H 2.3471219199749123 2.479198359606947 0.00024090920879855273
| 28> H -2.3470752028778947 2.479203187896702 0.0009692529516076034
| 29> H -4.515408619258295 1.2458327804640117 0.0035375876175921485
| 30> H -4.515412873957477 -1.2458105827929975 0.003036474802781179
| 31> H -2.347118922677694 -2.479199300409848 0.00022709289391129652
| 32> *
| 33>
| 34>                          ****END OF INPUT****

CARTESIAN COORDINATES (ANGSTROEM)
---------------------------------
  C      3.580472    0.696003    0.001912
  C      3.580472   -0.696016    0.002111
  C      2.374600   -1.394261    0.000721
  C      1.176418   -0.696844   -0.000919
  C      1.176417    0.696836   -0.001002
  C      2.374602    1.394250    0.000397
  O      0.000011    1.432458   -0.002603
  C     -1.176397    0.696836   -0.000867
  C     -2.374576    1.394254    0.000831
  C     -3.580454    0.696017    0.002231
  C     -3.580457   -0.696000    0.001982
  C     -2.374586   -1.394251    0.000419
  C     -1.176398   -0.696845   -0.000983
  O      0.000008   -1.432468   -0.002611
  H      4.515438    1.245796    0.002970
  H      4.515435   -1.245816    0.003373
  H      2.347108   -2.479210    0.000832
  H      2.347122    2.479198    0.000241
  H     -2.347075    2.479203    0.000969
  H     -4.515409    1.245833    0.003538
  H     -4.515413   -1.245811    0.003036
  H     -2.347119   -2.479199    0.000227

 Total Charge           Charge          ....    0
 Multiplicity           Mult            ....    1
 Number of Electrons    NEL             ....   96
 Basis Dimension        Dim             ....  482

ORBITAL ENERGIES
----------------

  NO   OCC          E(Eh)            E(eV)
   0   2.0000     -21.731585      -591.3465
   1   2.0000     -21.731545      -591.3454
   2   2.0000     -12.125601      -329.9544
   3   2.0000     -12.125167      -329.9426
   4   2.0000     -12.123314      -329.8921
   5   2.0000     -12.123146      -329.8876
   6   2.0000     -12.058259      -328.1219
   7   2.0000     -12.058209      -328.1205
   8   2.0000     -12.058067      -328.1167
   9   2.0000     -12.058046      -328.1161
  10   2.0000     -12.054850      -328.0292
  11   2.0000     -12.054809      -328.0280
  12   2.0000     -12.052824      -327.9740
  13   2.0000     -12.052798      -327.9733
  14   2.0000      -1.760247       -47.8988
  15   2.0000      -1.744126       -47.4601
  16   2.0000      -1.419549       -38.6279
  17   2.0000      -1.387876       -37.7660
  18   2.0000      -1.324952       -36.0538
  19   2.0000      -1.312426       -35.7129
  20   2.0000      -1.279219       -34.8093
  21   2.0000      -1.274612       -34.6839
  22   2.0000      -1.209235       -32.9050
  23   2.0000      -1.159451       -31.5503
  24   2.0000      -1.148726       -31.2584
  25   2.0000      -1.111455       -30.2442
  26   2.0000      -1.088007       -29.6062
  27   2.0000      -1.036348       -28.2005
  28   2.0000      -1.027644       -27.9636
  29   2.0000      -1.024473       -27.8773
  30   2.0000      -1.007861       -27.4253
  31   2.0000      -0.981131       -26.6979
  32   2.0000      -0.964119       -26.2350
  33   2.0000      -0.950958       -25.8769
  34   2.0000      -0.929302       -25.2876
  35   2.0000      -0.921878       -25.0856
  36   2.0000      -0.897362       -24.4185
  37   2.0000      -0.895923       -24.3793
  38   2.0000      -0.849384       -23.1129
  39   2.0000      -0.840602       -22.8740
  40   2.0000      -0.829800       -22.5800
  41   2.0000      -0.824408       -22.4333
  42   2.0000      -0.797230       -21.6937
  43   2.0000      -0.771606       -20.9965
  44   2.0000      -0.663953       -18.0671
  45   2.0000      -0.660378       -17.9698
  46   2.0000      -0.644991       -17.5511
  47   2.0000      -0.640293       -17.4233
  48   0.0000      -0.266187        -7.2433
  49   0.0000      -0.256052        -6.9675
  50   0.0000      -0.251082        -6.8323
  51   0.0000      -0.249874        -6.7994
  52   0.0000      -0.247428        -6.7329

MULLIKEN ATOMIC CHARGES
-----------------------
   0 C :   -0.141779
   1 C :   -0.141752
   2 C :   -0.293601
   3 C :    0.241720
   4 C :    0.242025
   5 C :   -0.293908
   6 O :   -0.268254
   7 C :    0.242014
   8 C :   -0.293254
   9 C :   -0.142478
  10 C :   -0.141359
  11 C :   -0.294128
  12 C :    0.242122
  13 O :   -0.268239
  14 H :    0.164867
  15 H :    0.164912
  16 H :    0.162882
  17 H :    0.162833
  18 H :    0.162863
  19 H :    0.164751
  20 H :    0.164933
  21 H :    0.162831
Sum of atomic charges:    0.0000000

LOEWDIN ATOMIC CHARGES
----------------------
   0 C :   -0.148407
   1 C :   -0.148407
   2 C :   -0.112815
   3 C :   -0.200081
   4 C :   -0.200082
   5 C :   -0.112816
   6 O :    0.293737
   7 C :   -0.200082
   8 C :   -0.112815
   9 C :   -0.148410
  10 C :   -0.148407
  11 C :   -0.112817
  12 C :   -0.200082
  13 O :    0.293735
  14 H :    0.153866
  15 H :    0.153867
  16 H :    0.160570
  17 H :    0.160570
  18 H :    0.160570
  19 H :    0.153868
  20 H :    0.153867
  21 H :    0.160570

  Mayer bond orders larger than 0.100000
B(  0-C ,  1-C ) :   1.4081 B(  0-C ,  5-C ) :   1.3962 B(  0-C , 14-H ) :   0.9790
B(  1-C ,  2-C ) :   1.3960 B(  1-C , 15-H ) :   0.9790 B(  2-C ,  3-C ) :   1.3591
B(  2-C , 16-H ) :   0.9843 B(  3-C ,  4-C ) :   1.3500 B(  3-C , 13-O ) :   1.0046
B(  4-C ,  5-C ) :   1.3592 B(  4-C ,  6-O ) :   1.0046 B(  5-C , 17-H ) :   0.9844
B(  6-O ,  7-C ) :   1.0047 B(  7-C ,  8-C ) :   1.3586 B(  7-C , 12-C ) :   1.3498
B(  8-C ,  9-C ) :   1.3952 B(  8-C , 18-H ) :   0.9845 B(  9-C , 10-C ) :   1.4076
B(  9-C , 19-H ) :   0.9798 B( 10-C , 11-C ) :   1.3956 B( 10-C , 20-H ) :   0.9789
B( 11-C , 12-C ) :   1.3585 B( 11-C , 21-H ) :   0.9847 B( 12-C , 13-O ) :   1.0047

FINAL SINGLE POINT ENERGY      -612.569261095048

DIPOLE MOMENT
-------------

Method             : SCF
Type of density    : Electron Density
Multiplicity       :   1
Irrep              :   0
Energy             :  -612.5805725053481865 Eh
Relativity type    :
Basis              : AO
                                X                 Y                 Z
Electronic contribution:      0.000005471      -0.000008047      -0.011126066
Nuclear contribution   :      0.000010260       0.000012474       0.013599978
                        -----------------------------------------
Total Dipole Moment    :      0.000015731       0.000004427       0.002473912
                        -----------------------------------------
Magnitude (a.u.)       :      0.002473966
Magnitude (Debye)      :      0.006288321

Rotational constants in cm-1:             0.071220             0.015938             0.013023
Rotational constants in MHz :          2135.128941           477.797949           390.428474

                             ****ORCA TERMINATED NORMALLY****
TOTAL RUN TIME: 0 days 0 hours 7 minutes 59 seconds 274 msec
