                         Program Version 6.0.0  -   RELEASE  -
|  1> ! pbe def2-sv(p) def2/J RI DEFGRID1 loosescf d4 GCP(DFT/SV(P)) printgap
|  2> %output
|  3>     printlevel normal
|  4> end
|  5> * xyz 0 1
|  6> C 5.2132820865 -1.2984786148 -1.890240886
|  7> C 3.731196165 -1.3601945362 -1.5809240943
|  8> O 3.3938369999 -0.201164539 -0.7958086359
|  9> P 1.873521411 0.1901286196 -0.5097781428
| 10> S 0.8018865479 0.3973695049 -2.1298402745
| 11> O 2.0403871663 1.5167951504 0.3062236644
| 12> C 2.6736770498 1.6025333182 1.607590405
| 13> C 4.1278598111 2.001617202 1.4728842519
| 14> S 1.258632899 -1.3511768492 0.837902448
| 15> C -0.1285291005 -2.0762047773 -0.0881022202
| 16> S -1.7253988665 -1.9599460675 0.7659308799
| 17> P -2.199465994 0.0520168518 0.4106648882
| 18> S -0.9954934792 1.4821636666 1.028943981
| 19> O -3.67531095 0.2038557077 0.9826976748
| 20> C -3.9384054642 0.611638018 2.3366580983
| 21> C -3.487133609 -0.4331777005 3.3362215908
| 22> O -2.4598556734 -0.0242151602 -1.1474278016
| 23> C -2.7388859465 1.1559634631 -1.9316772607
| 24> C -2.6747017202 0.7634844287 -3.3920479107
| 25> H 5.4408486198 -0.3905871604 -2.4416767098
| 26> H 5.7871448447 -1.3045058862 -0.968157336
| 27> H 5.4874311414 -2.1603214499 -2.4895518056
| 28> H 3.4816735899 -2.2523498762 -0.9988641281
| 29> H 3.1293735403 -1.3473845416 -2.495875447
| 30> H 2.0896897873 2.3582447622 2.1369630887
| 31> H 2.5685244699 0.6401275255 2.1165176268
| 32> H 4.678640635 1.2387257156 0.9293277254
| 33> H 4.206614075 2.9421788698 0.9346586524
| 34> H 4.5545312819 2.1175590639 2.4641800378
| 35> H 0.0665815629 -3.1405140772 -0.18867666
| 36> H -0.1967452117 -1.5851254733 -1.0629279465
| 37> H -3.4267901248 1.562975302 2.5154883772
| 38> H -5.0189227811 0.7580608126 2.3607955686
| 39> H -2.4010145154 -0.5196690938 3.3142575825
| 40> H -3.7970921191 -0.1368477721 4.3330975656
| 41> H -3.9193924533 -1.4005029988 3.0930160234
| 42> H -3.7298221182 1.5222787374 -1.6520882851
| 43> H -1.9907737711 1.9189946022 -1.6899979555
| 44> H -1.6676188362 0.4363959243 -3.640134412
| 45> H -3.3711689814 -0.0461957944 -3.5880575589
| 46> H -2.9320559656 1.6224359522 -4.0027522309
| 47> *
| 48>
| 49>                          ****END OF INPUT****

CARTESIAN COORDINATES (ANGSTROEM)
---------------------------------
  C      5.213282   -1.298479   -1.890241
  C      3.731196   -1.360195   -1.580924
  O      3.393837   -0.201165   -0.795809
  P      1.873521    0.190129   -0.509778
  S      0.801887    0.397370   -2.129840
  O      2.040387    1.516795    0.306224
  C      2.673677    1.602533    1.607590
  C      4.127860    2.001617    1.472884
  S      1.258633   -1.351177    0.837902
  C     -0.128529   -2.076205   -0.088102
  S     -1.725399   -1.959946    0.765931
  P     -2.199466    0.052017    0.410665
  S     -0.995493    1.482164    1.028944
  O     -3.675311    0.203856    0.982698
  C     -3.938405    0.611638    2.336658
  C     -3.487134   -0.433178    3.336222
  O     -2.459856   -0.024215   -1.147428
  C     -2.738886    1.155963   -1.931677
  C     -2.674702    0.763484   -3.392048
  H      5.440849   -0.390587   -2.441677
  H      5.787145   -1.304506   -0.968157
  H      5.487431   -2.160321   -2.489552
  H      3.481674   -2.252350   -0.998864
  H      3.129374   -1.347385   -2.495875
  H      2.089690    2.358245    2.136963
  H      2.568524    0.640128    2.116518
  H      4.678641    1.238726    0.929328
  H      4.206614    2.942179    0.934659
  H      4.554531    2.117559    2.464180
  H      0.066582   -3.140514   -0.188677
  H     -0.196745   -1.585125   -1.062928
  H     -3.426790    1.562975    2.515488
  H     -5.018923    0.758061    2.360796
  H     -2.401015   -0.519669    3.314258
  H     -3.797092   -0.136848    4.333098
  H     -3.919392   -1.400503    3.093016
  H     -3.729822    1.522279   -1.652088
  H     -1.990774    1.918995   -1.689998
  H     -1.667619    0.436396   -3.640134
  H     -3.371169   -0.046196   -3.588058
  H     -2.932056    1.622436   -4.002752

 Total Charge           Charge          ....    0
 Multiplicity           Mult            ....    1
 Number of Electrons    NEL             ....  202
 Basis Dimension        Dim             ....  334

ORBITAL ENERGIES
----------------

  NO   OCC          E(Eh)            E(eV)
   0   2.0000     -88.039715     -2395.6824
   1   2.0000     -88.039631     -2395.6802
   2   2.0000     -87.984111     -2394.1694
   3   2.0000     -87.976917     -2393.9736
   4   2.0000     -76.423729     -2079.5954
   5   2.0000     -76.418401     -2079.4504
   6   2.0000     -18.790001      -511.3019
   7   2.0000     -18.787038      -511.2213
   8   2.0000     -18.786076      -511.1951
   9   2.0000     -18.780590      -511.0458
  10   2.0000      -9.955456      -270.9017
  11   2.0000      -9.954767      -270.8830
  12   2.0000      -9.950247      -270.7600
  13   2.0000      -9.947804      -270.6935
  14   2.0000      -9.940169      -270.4857
  15   2.0000      -9.888135      -269.0698
  16   2.0000      -9.885068      -268.9864
  17   2.0000      -9.881690      -268.8945
  18   2.0000      -9.875353      -268.7220
  19   2.0000      -7.685429      -209.1312
  20   2.0000      -7.684559      -209.1075
  21   2.0000      -7.629152      -207.5998
  22   2.0000      -7.621627      -207.3950
  23   2.0000      -6.421125      -174.7277
  24   2.0000      -6.416219      -174.5942
  25   2.0000      -5.713297      -155.4667
  26   2.0000      -5.712430      -155.4431
  27   2.0000      -5.709906      -155.3744
  28   2.0000      -5.709066      -155.3516
  29   2.0000      -5.702290      -155.1672
  30   2.0000      -5.701603      -155.1485
  31   2.0000      -5.658002      -153.9621
  32   2.0000      -5.650464      -153.7569
  33   2.0000      -5.650003      -153.7444
  34   2.0000      -5.649050      -153.7185
  35   2.0000      -5.642170      -153.5313
  36   2.0000      -5.641993      -153.5264
  37   2.0000      -4.643776      -126.3636
  38   2.0000      -4.642879      -126.3392
  39   2.0000      -4.641531      -126.3025
  40   2.0000      -4.638792      -126.2280
  41   2.0000      -4.637965      -126.2055
  42   2.0000      -4.636634      -126.1692
  43   2.0000      -0.985785       -26.8246
  44   2.0000      -0.979566       -26.6553
  45   2.0000      -0.942046       -25.6344
  46   2.0000      -0.937774       -25.5181
  47   2.0000      -0.759294       -20.6614
  48   2.0000      -0.719724       -19.5847
  49   2.0000      -0.706838       -19.2340
  50   2.0000      -0.690498       -18.7894
  51   2.0000      -0.682196       -18.5635
  52   2.0000      -0.670734       -18.2516
  53   2.0000      -0.646637       -17.5959
  54   2.0000      -0.631936       -17.1959
  55   2.0000      -0.592873       -16.1329
  56   2.0000      -0.586964       -15.9721
  57   2.0000      -0.568343       -15.4654
  58   2.0000      -0.564057       -15.3488
  59   2.0000      -0.557171       -15.1614
  60   2.0000      -0.506303       -13.7772
  61   2.0000      -0.496173       -13.5015
  62   2.0000      -0.480344       -13.0708
  63   2.0000      -0.467320       -12.7164
  64   2.0000      -0.448765       -12.2115
  65   2.0000      -0.442836       -12.0502
  66   2.0000      -0.439403       -11.9568
  67   2.0000      -0.432117       -11.7585
  68   2.0000      -0.424691       -11.5564
  69   2.0000      -0.421215       -11.4618
  70   2.0000      -0.409760       -11.1501
  71   2.0000      -0.389520       -10.5994
  72   2.0000      -0.387305       -10.5391
  73   2.0000      -0.383797       -10.4436
  74   2.0000      -0.377110       -10.2617
  75   2.0000      -0.365333        -9.9412
  76   2.0000      -0.362827        -9.8730
  77   2.0000      -0.355330        -9.6690
  78   2.0000      -0.352020        -9.5790
  79   2.0000      -0.349382        -9.5072
  80   2.0000      -0.345213        -9.3937
  81   2.0000      -0.343815        -9.3557
  82   2.0000      -0.340787        -9.2733
  83   2.0000      -0.332036        -9.0352
  84   2.0000      -0.326384        -8.8814
  85   2.0000      -0.314733        -8.5643
  86   2.0000      -0.309768        -8.4292
  87   2.0000      -0.297998        -8.1089
  88   2.0000      -0.292017        -7.9462
  89   2.0000      -0.287082        -7.8119
  90   2.0000      -0.281832        -7.6690
  91   2.0000      -0.273171        -7.4334
  92   2.0000      -0.265350        -7.2205
  93   2.0000      -0.257974        -7.0198
  94   2.0000      -0.254792        -6.9332
  95   2.0000      -0.237782        -6.4704
  96   2.0000      -0.219966        -5.9856
  97   2.0000      -0.204863        -5.5746
  98   2.0000      -0.202208        -5.5024
  99   2.0000      -0.190300        -5.1783
 100   2.0000      -0.185446        -5.0462
 101   0.0000      -0.037135        -1.0105
 102   0.0000      -0.029780        -0.8103
 103   0.0000      -0.011205        -0.3049
 104   0.0000       0.001610         0.0438
 105   0.0000       0.020772         0.5652

MULLIKEN ATOMIC CHARGES
-----------------------
   0 C :   -0.282024
   1 C :   -0.006213
   2 O :   -0.381521
   3 P :    0.614588
   4 S :   -0.312096
   5 O :   -0.342665
   6 C :   -0.016902
   7 C :   -0.289647
   8 S :   -0.111697
   9 C :   -0.346189
  10 S :   -0.084884
  11 P :    0.612948
  12 S :   -0.331545
  13 O :   -0.377436
  14 C :   -0.000639
  15 C :   -0.324481
  16 O :   -0.369556
  17 C :   -0.003122
  18 C :   -0.286667
  19 H :    0.121676
  20 H :    0.115661
  21 H :    0.110963
  22 H :    0.093036
  23 H :    0.100897
  24 H :    0.117263
  25 H :    0.111170
  26 H :    0.121962
  27 H :    0.121058
  28 H :    0.109709
  29 H :    0.180172
  30 H :    0.200070
  31 H :    0.109901
  32 H :    0.103257
  33 H :    0.129982
  34 H :    0.113058
  35 H :    0.118849
  36 H :    0.097335
  37 H :    0.115315
  38 H :    0.130765
  39 H :    0.111122
  40 H :    0.106531
Sum of atomic charges:   -0.0000000

LOEWDIN ATOMIC CHARGES
----------------------
   0 C :   -0.350344
   1 C :   -0.125072
   2 O :   -0.253629
   3 P :    0.573690
   4 S :   -0.291730
   5 O :   -0.220572
   6 C :   -0.109111
   7 C :   -0.359971
   8 S :    0.061140
   9 C :   -0.480326
  10 S :    0.089899
  11 P :    0.565343
  12 S :   -0.321001
  13 O :   -0.247042
  14 C :   -0.120969
  15 C :   -0.371658
  16 O :   -0.241488
  17 C :   -0.117570
  18 C :   -0.352431
  19 H :    0.129195
  20 H :    0.125156
  21 H :    0.130280
  22 H :    0.102743
  23 H :    0.106853
  24 H :    0.123568
  25 H :    0.106188
  26 H :    0.125478
  27 H :    0.129725
  28 H :    0.129452
  29 H :    0.136711
  30 H :    0.123808
  31 H :    0.109468
  32 H :    0.117772
  33 H :    0.122340
  34 H :    0.131174
  35 H :    0.124095
  36 H :    0.109114
  37 H :    0.111585
  38 H :    0.124594
  39 H :    0.124666
  40 H :    0.128879

  Mayer bond orders larger than 0.100000
B(  0-C ,  1-C ) :   1.1604 B(  0-C , 19-H ) :   0.9514 B(  0-C , 20-H ) :   0.9512
B(  0-C , 21-H ) :   0.9423 B(  1-C ,  2-O ) :   0.9135 B(  1-C , 22-H ) :   0.9202
B(  1-C , 23-H ) :   0.9113 B(  2-O ,  3-P ) :   1.0659 B(  3-P ,  4-S ) :   1.6215
B(  3-P ,  5-O ) :   1.1620 B(  3-P ,  8-S ) :   0.9449 B(  4-S ,  8-S ) :   0.1163
B(  4-S , 30-H ) :   0.1118 B(  5-O ,  6-C ) :   0.8892 B(  6-C ,  7-C ) :   1.1632
B(  6-C , 24-H ) :   0.9331 B(  6-C , 25-H ) :   0.9162 B(  7-C , 26-H ) :   0.9399
B(  7-C , 27-H ) :   0.9467 B(  7-C , 28-H ) :   0.9396 B(  8-S ,  9-C ) :   1.0005
B(  9-C , 10-S ) :   0.9978 B(  9-C , 29-H ) :   0.9121 B(  9-C , 30-H ) :   0.8467
B( 10-S , 11-P ) :   0.9690 B( 10-S , 12-S ) :   0.1170 B( 11-P , 12-S ) :   1.6280
B( 11-P , 13-O ) :   1.0986 B( 11-P , 16-O ) :   1.1293 B( 13-O , 14-C ) :   0.9104
B( 14-C , 15-C ) :   1.1639 B( 14-C , 31-H ) :   0.9126 B( 14-C , 32-H ) :   0.9331
B( 15-C , 33-H ) :   0.9330 B( 15-C , 34-H ) :   0.9382 B( 15-C , 35-H ) :   0.9444
B( 16-O , 17-C ) :   0.8919 B( 17-C , 18-C ) :   1.1650 B( 17-C , 36-H ) :   0.9301
B( 17-C , 37-H ) :   0.9104 B( 18-C , 38-H ) :   0.9449 B( 18-C , 39-H ) :   0.9493
B( 18-C , 40-H ) :   0.9414

Dispersion correction           -0.065551528
FINAL SINGLE POINT ENERGY     -2929.518567455499

DIPOLE MOMENT
-------------

Method             : SCF
Type of density    : Electron Density
Multiplicity       :   1
Irrep              :   0
Energy             : -2929.6371141985137001 Eh
Relativity type    :
Basis              : AO
                                X                 Y                 Z
Electronic contribution:     -8.348245608      -3.000761574       1.363764395
Nuclear contribution   :      8.780718967       2.505981302      -0.893055920
                        -----------------------------------------
Total Dipole Moment    :      0.432473358      -0.494780272       0.470708475
                        -----------------------------------------
Magnitude (a.u.)       :      0.808336064
Magnitude (Debye)      :      2.054626990

Rotational constants in cm-1:             0.011925             0.005182             0.004747
Rotational constants in MHz :           357.488813           155.337699           142.313263

                             ****ORCA TERMINATED NORMALLY****
TOTAL RUN TIME: 0 days 0 hours 0 minutes 21 seconds 15 msec
