                         Program Version 6.0.1  -  RELEASE   -
|  1> ! r2scan-3c def2/J RI DEFGRID2 scfconv6 printgap
|  2> %output
|  3>     printlevel normal
|  4> end
|  5> * xyz 0 1
|  6> C 4.9578417308 -3.5983953144 -1.4345972911
|  7> C 4.2375670553 -2.5305430547 -0.6357517718
|  8> O 3.2364410191 -1.9368407289 -1.4878769657
|  9> C 2.3880109085 -1.0937680587 -0.9473188153
| 10> O 2.3875882042 -0.7817701961 0.22667201
| 11> C 1.4103794323 -0.5378702549 -1.9606819857
| 12> C 0.3091804633 0.2262218926 -1.2384160677
| 13> H -0.2996117924 0.7959838034 -1.948425488
| 14> C 0.9266748415 1.2190067853 -0.2662040251
| 15> O 1.8393714808 1.945725682 -0.5886493804
| 16> O 0.3046037951 1.2464867746 0.8934851938
| 17> C 0.7955259149 2.123717348 1.925754696
| 18> C 1.6305296639 1.3344734443 2.9195261725
| 19> S -0.8016061011 -0.9405675783 -0.3830823138
| 20> P -2.2613186558 0.44744854 0.2935893871
| 21> S -2.3737204599 2.1484704807 -0.6701046291
| 22> O -3.59860894 -0.4336467166 0.2087420953
| 23> C -4.1592985914 -0.8117872442 -1.0532161242
| 24> O -2.1581037093 0.6184694449 1.8603423935
| 25> C -2.0782748876 -0.5117501281 2.7504873275
| 26> H 4.2548165405 -4.3603427516 -1.7569077529
| 27> H 5.4224606795 -3.156553163 -2.3107145697
| 28> H 5.7223619519 -4.0546654034 -0.814822155
| 29> H 4.9186773654 -1.7395053045 -0.3070186008
| 30> H 3.7379068534 -2.9441574264 0.2456101435
| 31> H 1.0043497617 -1.3479742422 -2.5652484875
| 32> H 1.9593668344 0.1476411299 -2.6101854824
| 33> H 1.3829847418 2.9124518409 1.4475423358
| 34> H -0.0992534841 2.5460078582 2.3870259594
| 35> H 2.4409027974 0.8314326983 2.396002033
| 36> H 2.0437687721 2.0123522351 3.6586523223
| 37> H 1.0196433986 0.5859241478 3.4157235551
| 38> H -4.2466625167 0.0620324868 -1.700840883
| 39> H -5.1423829163 -1.2164255641 -0.8268506247
| 40> H -3.5306905734 -1.5660763166 -1.5260360109
| 41> H -2.969687086 -1.1281432978 2.6518069545
| 42> H -2.0130082184 -0.0837368254 3.7474745336
| 43> H -1.1890265773 -1.099699802 2.5221705232
| 44> *
| 45>
| 46>                          ****END OF INPUT****

CARTESIAN COORDINATES (ANGSTROEM)
---------------------------------
  C      4.957842   -3.598395   -1.434597
  C      4.237567   -2.530543   -0.635752
  O      3.236441   -1.936841   -1.487877
  C      2.388011   -1.093768   -0.947319
  O      2.387588   -0.781770    0.226672
  C      1.410379   -0.537870   -1.960682
  C      0.309180    0.226222   -1.238416
  H     -0.299612    0.795984   -1.948425
  C      0.926675    1.219007   -0.266204
  O      1.839371    1.945726   -0.588649
  O      0.304604    1.246487    0.893485
  C      0.795526    2.123717    1.925755
  C      1.630530    1.334473    2.919526
  S     -0.801606   -0.940568   -0.383082
  P     -2.261319    0.447449    0.293589
  S     -2.373720    2.148470   -0.670105
  O     -3.598609   -0.433647    0.208742
  C     -4.159299   -0.811787   -1.053216
  O     -2.158104    0.618469    1.860342
  C     -2.078275   -0.511750    2.750487
  H      4.254817   -4.360343   -1.756908
  H      5.422461   -3.156553   -2.310715
  H      5.722362   -4.054665   -0.814822
  H      4.918677   -1.739505   -0.307019
  H      3.737907   -2.944157    0.245610
  H      1.004350   -1.347974   -2.565248
  H      1.959367    0.147641   -2.610185
  H      1.382985    2.912452    1.447542
  H     -0.099253    2.546008    2.387026
  H      2.440903    0.831433    2.396002
  H      2.043769    2.012352    3.658652
  H      1.019643    0.585924    3.415724
  H     -4.246663    0.062032   -1.700841
  H     -5.142383   -1.216426   -0.826851
  H     -3.530691   -1.566076   -1.526036
  H     -2.969687   -1.128143    2.651807
  H     -2.013008   -0.083737    3.747475
  H     -1.189027   -1.099700    2.522171

 Total Charge           Charge          ....    0
 Multiplicity           Mult            ....    1
 Number of Electrons    NEL             ....  174
 Basis Dimension        Dim             ....  510

ORBITAL ENERGIES
----------------

  NO   OCC          E(Eh)            E(eV)
   0   2.0000     -88.571510     -2410.1533
   1   2.0000     -88.514113     -2408.5915
   2   2.0000     -76.911207     -2092.8603
   3   2.0000     -19.011745      -517.3359
   4   2.0000     -18.991846      -516.7944
   5   2.0000     -18.990890      -516.7684
   6   2.0000     -18.987743      -516.6828
   7   2.0000     -18.943826      -515.4877
   8   2.0000     -18.924103      -514.9510
   9   2.0000     -10.167990      -276.6851
  10   2.0000     -10.154956      -276.3304
  11   2.0000     -10.102460      -274.9019
  12   2.0000     -10.096371      -274.7362
  13   2.0000     -10.091936      -274.6156
  14   2.0000     -10.089061      -274.5373
  15   2.0000     -10.081745      -274.3382
  16   2.0000     -10.066798      -273.9315
  17   2.0000     -10.039733      -273.1950
  18   2.0000     -10.020296      -272.6661
  19   2.0000      -7.865867      -214.0411
  20   2.0000      -7.808821      -212.4888
  21   2.0000      -6.589327      -179.3047
  22   2.0000      -5.812668      -158.1707
  23   2.0000      -5.809812      -158.0930
  24   2.0000      -5.802963      -157.9066
  25   2.0000      -5.756706      -156.6479
  26   2.0000      -5.749074      -156.4403
  27   2.0000      -5.748626      -156.4281
  28   2.0000      -4.735050      -128.8473
  29   2.0000      -4.734408      -128.8298
  30   2.0000      -4.732792      -128.7858
  31   2.0000      -1.089558       -29.6484
  32   2.0000      -1.070264       -29.1234
  33   2.0000      -1.048106       -28.5204
  34   2.0000      -1.005893       -27.3717
  35   2.0000      -0.992723       -27.0134
  36   2.0000      -0.975051       -26.5325
  37   2.0000      -0.809867       -22.0376
  38   2.0000      -0.763602       -20.7787
  39   2.0000      -0.735612       -20.0170
  40   2.0000      -0.732923       -19.9438
  41   2.0000      -0.698823       -19.0159
  42   2.0000      -0.673955       -18.3392
  43   2.0000      -0.656286       -17.8584
  44   2.0000      -0.644883       -17.5482
  45   2.0000      -0.627176       -17.0663
  46   2.0000      -0.592618       -16.1259
  47   2.0000      -0.546617       -14.8742
  48   2.0000      -0.538350       -14.6492
  49   2.0000      -0.519111       -14.1257
  50   2.0000      -0.501964       -13.6591
  51   2.0000      -0.491933       -13.3862
  52   2.0000      -0.486629       -13.2419
  53   2.0000      -0.473269       -12.8783
  54   2.0000      -0.454404       -12.3650
  55   2.0000      -0.452605       -12.3160
  56   2.0000      -0.446350       -12.1458
  57   2.0000      -0.438596       -11.9348
  58   2.0000      -0.435852       -11.8601
  59   2.0000      -0.429754       -11.6942
  60   2.0000      -0.424219       -11.5436
  61   2.0000      -0.416776       -11.3410
  62   2.0000      -0.407754       -11.0955
  63   2.0000      -0.397210       -10.8086
  64   2.0000      -0.389266       -10.5925
  65   2.0000      -0.383184       -10.4270
  66   2.0000      -0.377722       -10.2783
  67   2.0000      -0.370913       -10.0931
  68   2.0000      -0.360194        -9.8014
  69   2.0000      -0.354874        -9.6566
  70   2.0000      -0.345767        -9.4088
  71   2.0000      -0.337847        -9.1933
  72   2.0000      -0.333536        -9.0760
  73   2.0000      -0.332764        -9.0550
  74   2.0000      -0.327201        -8.9036
  75   2.0000      -0.317820        -8.6483
  76   2.0000      -0.312988        -8.5168
  77   2.0000      -0.300964        -8.1897
  78   2.0000      -0.286673        -7.8008
  79   2.0000      -0.284296        -7.7361
  80   2.0000      -0.274376        -7.4661
  81   2.0000      -0.265632        -7.2282
  82   2.0000      -0.255020        -6.9395
  83   2.0000      -0.249184        -6.7807
  84   2.0000      -0.221441        -6.0257
  85   2.0000      -0.213238        -5.8025
  86   2.0000      -0.209656        -5.7050
  87   0.0000      -0.041297        -1.1238
  88   0.0000      -0.024274        -0.6605
  89   0.0000      -0.008970        -0.2441
  90   0.0000       0.008069         0.2196
  91   0.0000       0.019176         0.5218

MULLIKEN ATOMIC CHARGES
-----------------------
   0 C :   -0.441692
   1 C :   -0.151121
   2 O :   -0.141411
   3 C :    0.371248
   4 O :   -0.385789
   5 C :   -0.460417
   6 C :    0.036492
   7 H :    0.247857
   8 C :    0.229257
   9 O :   -0.386953
  10 O :   -0.100795
  11 C :   -0.161788
  12 C :   -0.467901
  13 S :   -0.229456
  14 P :    0.782661
  15 S :   -0.445913
  16 O :   -0.356004
  17 C :   -0.296998
  18 O :   -0.308908
  19 C :   -0.304522
  20 H :    0.153395
  21 H :    0.154846
  22 H :    0.150300
  23 H :    0.157425
  24 H :    0.162706
  25 H :    0.189786
  26 H :    0.200983
  27 H :    0.180047
  28 H :    0.165757
  29 H :    0.181374
  30 H :    0.146720
  31 H :    0.142941
  32 H :    0.175011
  33 H :    0.150796
  34 H :    0.157071
  35 H :    0.168046
  36 H :    0.157167
  37 H :    0.177785
Sum of atomic charges:   -0.0000000

LOEWDIN ATOMIC CHARGES
----------------------
   0 C :   -0.384292
   1 C :    0.037609
   2 O :   -0.575815
   3 C :    0.366377
   4 O :   -0.426050
   5 C :   -0.207650
   6 C :   -0.197063
   7 H :    0.208387
   8 C :    0.352812
   9 O :   -0.422094
  10 O :   -0.625153
  11 C :    0.036351
  12 C :   -0.385330
  13 S :    0.207128
  14 P :    0.399338
  15 S :   -0.086419
  16 O :   -0.687781
  17 C :   -0.062118
  18 O :   -0.647536
  19 C :   -0.054936
  20 H :    0.160051
  21 H :    0.160920
  22 H :    0.160992
  23 H :    0.179863
  24 H :    0.182757
  25 H :    0.189896
  26 H :    0.205614
  27 H :    0.195738
  28 H :    0.184210
  29 H :    0.172606
  30 H :    0.156795
  31 H :    0.153925
  32 H :    0.176538
  33 H :    0.176385
  34 H :    0.168202
  35 H :    0.174320
  36 H :    0.180019
  37 H :    0.175409

  Mayer bond orders larger than 0.100000
B(  0-C ,  1-C ) :   0.9463 B(  0-C , 20-H ) :   0.9736 B(  0-C , 21-H ) :   0.9700
B(  0-C , 22-H ) :   0.9678 B(  1-C ,  2-O ) :   0.7798 B(  1-C , 23-H ) :   0.9463
B(  1-C , 24-H ) :   0.9556 B(  2-O ,  3-C ) :   1.1765 B(  3-C ,  4-O ) :   1.7707
B(  3-C ,  5-C ) :   0.9706 B(  4-O ,  8-C ) :   0.1271 B(  5-C ,  6-C ) :   0.9109
B(  5-C ,  9-O ) :   0.1168 B(  5-C , 25-H ) :   0.9761 B(  5-C , 26-H ) :   0.9156
B(  6-C ,  7-H ) :   0.9181 B(  6-C ,  8-C ) :   0.8183 B(  6-C , 13-S ) :   0.8660
B(  8-C ,  9-O ) :   1.8955 B(  8-C , 10-O ) :   1.1479 B( 10-O , 11-C ) :   0.7523
B( 11-C , 12-C ) :   0.9204 B( 11-C , 27-H ) :   0.9629 B( 11-C , 28-H ) :   0.9594
B( 12-C , 29-H ) :   0.9686 B( 12-C , 30-H ) :   0.9725 B( 12-C , 31-H ) :   0.9749
B( 13-S , 14-P ) :   0.9858 B( 14-P , 15-S ) :   1.8070 B( 14-P , 16-O ) :   1.0282
B( 14-P , 18-O ) :   1.1564 B( 16-O , 17-C ) :   0.8327 B( 17-C , 32-H ) :   0.9593
B( 17-C , 33-H ) :   0.9678 B( 17-C , 34-H ) :   0.9568 B( 18-O , 19-C ) :   0.7875
B( 19-C , 35-H ) :   0.9603 B( 19-C , 36-H ) :   0.9649 B( 19-C , 37-H ) :   0.9567

Dispersion correction           -0.017528509
FINAL SINGLE POINT ENERGY     -1981.453665196182

DIPOLE MOMENT
-------------

Method             : SCF
Type of density    : Electron Density
Multiplicity       :   1
Irrep              :   0
Energy             : -1981.4737141850773696 Eh
Relativity type    :
Basis              : AO
                                X                 Y                 Z
Electronic contribution:    -15.181447526      10.353300498      -5.204171132
Nuclear contribution   :     15.667749524     -12.436847531       5.512140745
                        -----------------------------------------
Total Dipole Moment    :      0.486301998      -2.083547033       0.307969613
                        -----------------------------------------
Magnitude (a.u.)       :      2.161597362
Magnitude (Debye)      :      5.494343852

Rotational constants in cm-1:             0.015222             0.006124             0.005522
Rotational constants in MHz :           456.353150           183.593030           165.542817

                             ****ORCA TERMINATED NORMALLY****
TOTAL RUN TIME: 0 days 0 hours 1 minutes 36 seconds 256 msec
