                         Program Version 6.0.1  -  RELEASE   -
|  1> ! r2scan-3c def2/J RI DEFGRID2 scfconv6 printgap
|  2> %output
|  3>     printlevel normal
|  4> end
|  5> %cpcm
|  6>     smd true
|  7>     smdsolvent "water"
|  8> end
|  9> * xyz 0 1
| 10> C 4.9578417308 -3.5983953144 -1.4345972911
| 11> C 4.2375670553 -2.5305430547 -0.6357517718
| 12> O 3.2364410191 -1.9368407289 -1.4878769657
| 13> C 2.3880109085 -1.0937680587 -0.9473188153
| 14> O 2.3875882042 -0.7817701961 0.22667201
| 15> C 1.4103794323 -0.5378702549 -1.9606819857
| 16> C 0.3091804633 0.2262218926 -1.2384160677
| 17> H -0.2996117924 0.7959838034 -1.948425488
| 18> C 0.9266748415 1.2190067853 -0.2662040251
| 19> O 1.8393714808 1.945725682 -0.5886493804
| 20> O 0.3046037951 1.2464867746 0.8934851938
| 21> C 0.7955259149 2.123717348 1.925754696
| 22> C 1.6305296639 1.3344734443 2.9195261725
| 23> S -0.8016061011 -0.9405675783 -0.3830823138
| 24> P -2.2613186558 0.44744854 0.2935893871
| 25> S -2.3737204599 2.1484704807 -0.6701046291
| 26> O -3.59860894 -0.4336467166 0.2087420953
| 27> C -4.1592985914 -0.8117872442 -1.0532161242
| 28> O -2.1581037093 0.6184694449 1.8603423935
| 29> C -2.0782748876 -0.5117501281 2.7504873275
| 30> H 4.2548165405 -4.3603427516 -1.7569077529
| 31> H 5.4224606795 -3.156553163 -2.3107145697
| 32> H 5.7223619519 -4.0546654034 -0.814822155
| 33> H 4.9186773654 -1.7395053045 -0.3070186008
| 34> H 3.7379068534 -2.9441574264 0.2456101435
| 35> H 1.0043497617 -1.3479742422 -2.5652484875
| 36> H 1.9593668344 0.1476411299 -2.6101854824
| 37> H 1.3829847418 2.9124518409 1.4475423358
| 38> H -0.0992534841 2.5460078582 2.3870259594
| 39> H 2.4409027974 0.8314326983 2.396002033
| 40> H 2.0437687721 2.0123522351 3.6586523223
| 41> H 1.0196433986 0.5859241478 3.4157235551
| 42> H -4.2466625167 0.0620324868 -1.700840883
| 43> H -5.1423829163 -1.2164255641 -0.8268506247
| 44> H -3.5306905734 -1.5660763166 -1.5260360109
| 45> H -2.969687086 -1.1281432978 2.6518069545
| 46> H -2.0130082184 -0.0837368254 3.7474745336
| 47> H -1.1890265773 -1.099699802 2.5221705232
| 48> *
| 49>
| 50>                          ****END OF INPUT****

CARTESIAN COORDINATES (ANGSTROEM)
---------------------------------
  C      4.957842   -3.598395   -1.434597
  C      4.237567   -2.530543   -0.635752
  O      3.236441   -1.936841   -1.487877
  C      2.388011   -1.093768   -0.947319
  O      2.387588   -0.781770    0.226672
  C      1.410379   -0.537870   -1.960682
  C      0.309180    0.226222   -1.238416
  H     -0.299612    0.795984   -1.948425
  C      0.926675    1.219007   -0.266204
  O      1.839371    1.945726   -0.588649
  O      0.304604    1.246487    0.893485
  C      0.795526    2.123717    1.925755
  C      1.630530    1.334473    2.919526
  S     -0.801606   -0.940568   -0.383082
  P     -2.261319    0.447449    0.293589
  S     -2.373720    2.148470   -0.670105
  O     -3.598609   -0.433647    0.208742
  C     -4.159299   -0.811787   -1.053216
  O     -2.158104    0.618469    1.860342
  C     -2.078275   -0.511750    2.750487
  H      4.254817   -4.360343   -1.756908
  H      5.422461   -3.156553   -2.310715
  H      5.722362   -4.054665   -0.814822
  H      4.918677   -1.739505   -0.307019
  H      3.737907   -2.944157    0.245610
  H      1.004350   -1.347974   -2.565248
  H      1.959367    0.147641   -2.610185
  H      1.382985    2.912452    1.447542
  H     -0.099253    2.546008    2.387026
  H      2.440903    0.831433    2.396002
  H      2.043769    2.012352    3.658652
  H      1.019643    0.585924    3.415724
  H     -4.246663    0.062032   -1.700841
  H     -5.142383   -1.216426   -0.826851
  H     -3.530691   -1.566076   -1.526036
  H     -2.969687   -1.128143    2.651807
  H     -2.013008   -0.083737    3.747475
  H     -1.189027   -1.099700    2.522171

 Total Charge           Charge          ....    0
 Multiplicity           Mult            ....    1
 Number of Electrons    NEL             ....  174
 Basis Dimension        Dim             ....  510

ORBITAL ENERGIES
----------------

  NO   OCC          E(Eh)            E(eV)
   0   2.0000     -88.577679     -2410.3212
   1   2.0000     -88.528141     -2408.9732
   2   2.0000     -76.920196     -2093.1049
   3   2.0000     -19.010461      -517.3010
   4   2.0000     -19.005896      -517.1767
   5   2.0000     -18.996946      -516.9332
   6   2.0000     -18.992691      -516.8174
   7   2.0000     -18.952683      -515.7287
   8   2.0000     -18.947346      -515.5835
   9   2.0000     -10.173925      -276.8466
  10   2.0000     -10.172842      -276.8171
  11   2.0000     -10.096011      -274.7264
  12   2.0000     -10.087741      -274.5014
  13   2.0000     -10.085453      -274.4391
  14   2.0000     -10.084713      -274.4190
  15   2.0000     -10.080745      -274.3110
  16   2.0000     -10.061118      -273.7769
  17   2.0000     -10.020012      -272.6584
  18   2.0000     -10.019100      -272.6336
  19   2.0000      -7.871973      -214.2073
  20   2.0000      -7.823230      -212.8809
  21   2.0000      -6.598418      -179.5521
  22   2.0000      -5.818824      -158.3383
  23   2.0000      -5.815948      -158.2600
  24   2.0000      -5.808996      -158.0708
  25   2.0000      -5.770974      -157.0362
  26   2.0000      -5.763513      -156.8332
  27   2.0000      -5.763073      -156.8212
  28   2.0000      -4.744090      -129.0932
  29   2.0000      -4.743447      -129.0758
  30   2.0000      -4.742023      -129.0370
  31   2.0000      -1.091291       -29.6955
  32   2.0000      -1.085923       -29.5495
  33   2.0000      -1.053016       -28.6540
  34   2.0000      -1.009956       -27.4823
  35   2.0000      -1.000650       -27.2291
  36   2.0000      -0.995451       -27.0876
  37   2.0000      -0.813221       -22.1289
  38   2.0000      -0.755740       -20.5647
  39   2.0000      -0.737765       -20.0756
  40   2.0000      -0.733608       -19.9625
  41   2.0000      -0.696474       -18.9520
  42   2.0000      -0.669349       -18.2139
  43   2.0000      -0.659611       -17.9489
  44   2.0000      -0.650229       -17.6936
  45   2.0000      -0.623007       -16.9529
  46   2.0000      -0.590265       -16.0619
  47   2.0000      -0.540175       -14.6989
  48   2.0000      -0.539292       -14.6749
  49   2.0000      -0.525550       -14.3009
  50   2.0000      -0.506119       -13.7722
  51   2.0000      -0.491542       -13.3755
  52   2.0000      -0.487491       -13.2653
  53   2.0000      -0.470484       -12.8025
  54   2.0000      -0.464697       -12.6451
  55   2.0000      -0.459783       -12.5113
  56   2.0000      -0.448269       -12.1980
  57   2.0000      -0.442445       -12.0395
  58   2.0000      -0.438055       -11.9201
  59   2.0000      -0.429772       -11.6947
  60   2.0000      -0.425879       -11.5888
  61   2.0000      -0.410257       -11.1636
  62   2.0000      -0.406986       -11.0747
  63   2.0000      -0.401010       -10.9120
  64   2.0000      -0.390997       -10.6396
  65   2.0000      -0.378058       -10.2875
  66   2.0000      -0.372152       -10.1268
  67   2.0000      -0.363845        -9.9007
  68   2.0000      -0.357013        -9.7148
  69   2.0000      -0.352955        -9.6044
  70   2.0000      -0.351184        -9.5562
  71   2.0000      -0.342092        -9.3088
  72   2.0000      -0.335658        -9.1337
  73   2.0000      -0.328995        -8.9524
  74   2.0000      -0.321012        -8.7352
  75   2.0000      -0.319205        -8.6860
  76   2.0000      -0.315467        -8.5843
  77   2.0000      -0.306438        -8.3386
  78   2.0000      -0.287591        -7.8257
  79   2.0000      -0.286537        -7.7971
  80   2.0000      -0.281232        -7.6527
  81   2.0000      -0.277426        -7.5491
  82   2.0000      -0.269221        -7.3259
  83   2.0000      -0.261116        -7.1053
  84   2.0000      -0.236052        -6.4233
  85   2.0000      -0.227856        -6.2003
  86   2.0000      -0.223644        -6.0857
  87   0.0000      -0.048382        -1.3165
  88   0.0000      -0.028264        -0.7691
  89   0.0000      -0.025286        -0.6881
  90   0.0000       0.003738         0.1017
  91   0.0000       0.011474         0.3122

MULLIKEN ATOMIC CHARGES
-----------------------
   0 C :   -0.490969
   1 C :   -0.151457
   2 O :   -0.147714
   3 C :    0.408068
   4 O :   -0.452812
   5 C :   -0.496729
   6 C :    0.051460
   7 H :    0.272615
   8 C :    0.217720
   9 O :   -0.454094
  10 O :   -0.118898
  11 C :   -0.142192
  12 C :   -0.511090
  13 S :   -0.219925
  14 P :    0.802017
  15 S :   -0.505947
  16 O :   -0.384131
  17 C :   -0.305836
  18 O :   -0.347024
  19 C :   -0.302718
  20 H :    0.166474
  21 H :    0.165750
  22 H :    0.171521
  23 H :    0.176221
  24 H :    0.175387
  25 H :    0.226541
  26 H :    0.235324
  27 H :    0.181783
  28 H :    0.180694
  29 H :    0.171843
  30 H :    0.173608
  31 H :    0.172027
  32 H :    0.176527
  33 H :    0.178935
  34 H :    0.174636
  35 H :    0.184667
  36 H :    0.185011
  37 H :    0.182707
Sum of atomic charges:   -0.0000000

LOEWDIN ATOMIC CHARGES
----------------------
   0 C :   -0.387803
   1 C :    0.041180
   2 O :   -0.574073
   3 C :    0.373984
   4 O :   -0.472824
   5 C :   -0.198884
   6 C :   -0.192835
   7 H :    0.216878
   8 C :    0.352911
   9 O :   -0.474130
  10 O :   -0.631589
  11 C :    0.040357
  12 C :   -0.387458
  13 S :    0.220239
  14 P :    0.401136
  15 S :   -0.131411
  16 O :   -0.697995
  17 C :   -0.056583
  18 O :   -0.667414
  19 C :   -0.045079
  20 H :    0.163282
  21 H :    0.163435
  22 H :    0.169372
  23 H :    0.186155
  24 H :    0.187737
  25 H :    0.205420
  26 H :    0.215974
  27 H :    0.196006
  28 H :    0.191283
  29 H :    0.166673
  30 H :    0.167905
  31 H :    0.162845
  32 H :    0.177240
  33 H :    0.188369
  34 H :    0.175831
  35 H :    0.181863
  36 H :    0.192201
  37 H :    0.179801

  Mayer bond orders larger than 0.100000
B(  0-C ,  1-C ) :   0.9418 B(  0-C , 20-H ) :   0.9720 B(  0-C , 21-H ) :   0.9682
B(  0-C , 22-H ) :   0.9617 B(  1-C ,  2-O ) :   0.7685 B(  1-C , 23-H ) :   0.9387
B(  1-C , 24-H ) :   0.9490 B(  2-O ,  3-C ) :   1.1940 B(  3-C ,  4-O ) :   1.7181
B(  3-C ,  5-C ) :   0.9443 B(  4-O ,  8-C ) :   0.1287 B(  5-C ,  6-C ) :   0.8869
B(  5-C , 25-H ) :   0.9644 B(  5-C , 26-H ) :   0.9241 B(  6-C ,  7-H ) :   0.9055
B(  6-C ,  8-C ) :   0.8182 B(  6-C , 13-S ) :   0.8638 B(  8-C ,  9-O ) :   1.8350
B(  8-C , 10-O ) :   1.1573 B( 10-O , 11-C ) :   0.7416 B( 11-C , 12-C ) :   0.9077
B( 11-C , 27-H ) :   0.9564 B( 11-C , 28-H ) :   0.9504 B( 12-C , 29-H ) :   0.9706
B( 12-C , 30-H ) :   0.9641 B( 12-C , 31-H ) :   0.9709 B( 13-S , 14-P ) :   1.0031
B( 14-P , 15-S ) :   1.7771 B( 14-P , 16-O ) :   1.0358 B( 14-P , 18-O ) :   1.1611
B( 16-O , 17-C ) :   0.8247 B( 17-C , 32-H ) :   0.9556 B( 17-C , 33-H ) :   0.9575
B( 17-C , 34-H ) :   0.9501 B( 18-O , 19-C ) :   0.7811 B( 19-C , 35-H ) :   0.9518
B( 19-C , 36-H ) :   0.9538 B( 19-C , 37-H ) :   0.9486

Dispersion correction           -0.017528509
FINAL SINGLE POINT ENERGY     -1981.469172808544

DIPOLE MOMENT
-------------

Method             : SCF
Type of density    : Electron Density
Multiplicity       :   1
Irrep              :   0
Energy             : -1981.4892217974388586 Eh
Relativity type    :
Basis              : AO
                                X                 Y                 Z
Electronic contribution:    -15.241503680       9.523270249      -5.238708171
Nuclear contribution   :     15.667749524     -12.436847531       5.512140745
                        -----------------------------------------
Total Dipole Moment    :      0.426245844      -2.913577281       0.273432574
                        -----------------------------------------
Magnitude (a.u.)       :      2.957259452
Magnitude (Debye)      :      7.516756161

Rotational constants in cm-1:             0.015222             0.006124             0.005522
Rotational constants in MHz :           456.353150           183.593030           165.542817

                             ****ORCA TERMINATED NORMALLY****
TOTAL RUN TIME: 0 days 0 hours 2 minutes 2 seconds 348 msec
