                         Program Version 6.0.0  -   RELEASE  -
|  1> ! pbe def2-sv(p) def2/J RI DEFGRID1 loosescf d4 GCP(DFT/SV(P)) printgap
|  2> %output
|  3>     printlevel normal
|  4> end
|  5> * xyz 0 1
|  6> C 2.9074118632 -2.3992671876 1.7775544631
|  7> C 1.6239748181 -1.9096278253 1.1374543935
|  8> O 1.6832794458 -0.4911521542 0.9196075061
|  9> P 2.2222504863 0.1880003826 -0.4224944081
| 10> S 2.7927584345 -1.0363374504 -1.8307554354
| 11> O 3.3978456509 1.1453364569 0.0201566994
| 12> C 3.2786917366 2.2372102182 0.9648818469
| 13> C 3.5372911586 1.7687190007 2.3824524672
| 14> S 0.6584549754 1.5559190479 -0.8927415421
| 15> C -0.2462627126 0.4597190929 -2.0107357329
| 16> S -0.7918407036 -1.0740166541 -1.2190580444
| 17> P -2.2147741503 -0.2130723022 0.0872502548
| 18> S -3.1792600361 1.3769619175 -0.5448393665
| 19> O -1.3819723438 0.0072646974 1.4154708733
| 20> C -1.6990562473 1.0105953353 2.406989827
| 21> C -0.6094224414 2.0627505671 2.453986972
| 22> O -3.0929068178 -1.4623654247 0.5317719964
| 23> C -3.7466735459 -2.3973439878 -0.3461781759
| 24> C -4.5787642103 -1.7244347387 -1.4178939012
| 25> H 3.0859198832 -1.8831992941 2.7168659627
| 26> H 2.8324498093 -3.466236256 1.9611601507
| 27> H 3.7438907308 -2.2121738932 1.1058306078
| 28> H 0.7578314832 -2.0565914382 1.7857504955
| 29> H 1.4546352921 -2.4137047247 0.1805040707
| 30> H 4.0356964351 2.9521653642 0.6378602903
| 31> H 2.2859654172 2.6843560768 0.8652383379
| 32> H 3.5033282246 2.6243862517 3.0495646594
| 33> H 2.7840494298 1.047070327 2.6872908362
| 34> H 4.5162957862 1.301475912 2.4469898994
| 35> H 0.3977002321 0.1640261873 -2.838067232
| 36> H -1.1132537753 1.0232245504 -2.3560550942
| 37> H -2.6661282295 1.4615392016 2.1652252877
| 38> H -1.7733341459 0.4680542525 3.3510485419
| 39> H -0.6042032685 2.6396440087 1.5317785119
| 40> H -0.7924609833 2.728630449 3.2909297034
| 41> H 0.3589673057 1.5855161401 2.5762752009
| 42> H -2.9782202268 -3.0329750295 -0.7950736542
| 43> H -4.3686145955 -2.9891216545 0.3279648969
| 44> H -5.1160109335 -2.4795684992 -1.9826868281
| 45> H -5.2910090352 -1.0352939426 -0.9700848293
| 46> H -3.9372906321 -1.1644976452 -2.0971991002
| 47> *
| 48>
| 49>                          ****END OF INPUT****

CARTESIAN COORDINATES (ANGSTROEM)
---------------------------------
  C      2.907412   -2.399267    1.777554
  C      1.623975   -1.909628    1.137454
  O      1.683279   -0.491152    0.919608
  P      2.222250    0.188000   -0.422494
  S      2.792758   -1.036337   -1.830755
  O      3.397846    1.145336    0.020157
  C      3.278692    2.237210    0.964882
  C      3.537291    1.768719    2.382452
  S      0.658455    1.555919   -0.892742
  C     -0.246263    0.459719   -2.010736
  S     -0.791841   -1.074017   -1.219058
  P     -2.214774   -0.213072    0.087250
  S     -3.179260    1.376962   -0.544839
  O     -1.381972    0.007265    1.415471
  C     -1.699056    1.010595    2.406990
  C     -0.609422    2.062751    2.453987
  O     -3.092907   -1.462365    0.531772
  C     -3.746674   -2.397344   -0.346178
  C     -4.578764   -1.724435   -1.417894
  H      3.085920   -1.883199    2.716866
  H      2.832450   -3.466236    1.961160
  H      3.743891   -2.212174    1.105831
  H      0.757831   -2.056591    1.785750
  H      1.454635   -2.413705    0.180504
  H      4.035696    2.952165    0.637860
  H      2.285965    2.684356    0.865238
  H      3.503328    2.624386    3.049565
  H      2.784049    1.047070    2.687291
  H      4.516296    1.301476    2.446990
  H      0.397700    0.164026   -2.838067
  H     -1.113254    1.023225   -2.356055
  H     -2.666128    1.461539    2.165225
  H     -1.773334    0.468054    3.351049
  H     -0.604203    2.639644    1.531779
  H     -0.792461    2.728630    3.290930
  H      0.358967    1.585516    2.576275
  H     -2.978220   -3.032975   -0.795074
  H     -4.368615   -2.989122    0.327965
  H     -5.116011   -2.479568   -1.982687
  H     -5.291009   -1.035294   -0.970085
  H     -3.937291   -1.164498   -2.097199

 Total Charge           Charge          ....    0
 Multiplicity           Mult            ....    1
 Number of Electrons    NEL             ....  202
 Basis Dimension        Dim             ....  334

ORBITAL ENERGIES
----------------

  NO   OCC          E(Eh)            E(eV)
   0   2.0000     -88.047970     -2395.9071
   1   2.0000     -88.040429     -2395.7019
   2   2.0000     -87.988171     -2394.2798
   3   2.0000     -87.987425     -2394.2596
   4   2.0000     -76.428214     -2079.7174
   5   2.0000     -76.426905     -2079.6818
   6   2.0000     -18.795404      -511.4489
   7   2.0000     -18.792267      -511.3636
   8   2.0000     -18.788237      -511.2539
   9   2.0000     -18.787348      -511.2297
  10   2.0000      -9.963418      -271.1184
  11   2.0000      -9.958525      -270.9853
  12   2.0000      -9.956651      -270.9343
  13   2.0000      -9.950981      -270.7800
  14   2.0000      -9.945957      -270.6433
  15   2.0000      -9.892419      -269.1864
  16   2.0000      -9.883962      -268.9563
  17   2.0000      -9.882030      -268.9037
  18   2.0000      -9.881941      -268.9013
  19   2.0000      -7.692545      -209.3248
  20   2.0000      -7.685391      -209.1301
  21   2.0000      -7.633154      -207.7087
  22   2.0000      -7.632697      -207.6962
  23   2.0000      -6.425447      -174.8453
  24   2.0000      -6.424370      -174.8160
  25   2.0000      -5.720347      -155.6586
  26   2.0000      -5.717036      -155.5685
  27   2.0000      -5.713206      -155.4642
  28   2.0000      -5.710074      -155.3790
  29   2.0000      -5.709650      -155.3675
  30   2.0000      -5.702227      -155.1655
  31   2.0000      -5.661975      -154.0702
  32   2.0000      -5.661776      -154.0648
  33   2.0000      -5.654010      -153.8534
  34   2.0000      -5.653332      -153.8350
  35   2.0000      -5.653195      -153.8313
  36   2.0000      -5.652619      -153.8156
  37   2.0000      -4.647915      -126.4762
  38   2.0000      -4.647374      -126.4615
  39   2.0000      -4.647175      -126.4561
  40   2.0000      -4.645892      -126.4211
  41   2.0000      -4.645887      -126.4210
  42   2.0000      -4.644900      -126.3942
  43   2.0000      -0.985648       -26.8208
  44   2.0000      -0.984830       -26.7986
  45   2.0000      -0.944670       -25.7058
  46   2.0000      -0.942779       -25.6543
  47   2.0000      -0.767213       -20.8769
  48   2.0000      -0.723557       -19.6890
  49   2.0000      -0.712509       -19.3884
  50   2.0000      -0.691372       -18.8132
  51   2.0000      -0.686302       -18.6752
  52   2.0000      -0.673658       -18.3312
  53   2.0000      -0.652346       -17.7512
  54   2.0000      -0.642210       -17.4754
  55   2.0000      -0.598060       -16.2740
  56   2.0000      -0.592226       -16.1153
  57   2.0000      -0.579512       -15.7693
  58   2.0000      -0.574324       -15.6281
  59   2.0000      -0.561419       -15.2770
  60   2.0000      -0.505928       -13.7670
  61   2.0000      -0.497706       -13.5433
  62   2.0000      -0.480982       -13.0882
  63   2.0000      -0.469688       -12.7809
  64   2.0000      -0.458109       -12.4658
  65   2.0000      -0.448094       -12.1933
  66   2.0000      -0.438326       -11.9274
  67   2.0000      -0.436310       -11.8726
  68   2.0000      -0.429049       -11.6750
  69   2.0000      -0.417549       -11.3621
  70   2.0000      -0.408957       -11.1283
  71   2.0000      -0.397414       -10.8142
  72   2.0000      -0.393407       -10.7052
  73   2.0000      -0.386739       -10.5237
  74   2.0000      -0.382115       -10.3979
  75   2.0000      -0.375449       -10.2165
  76   2.0000      -0.372217       -10.1285
  77   2.0000      -0.357652        -9.7322
  78   2.0000      -0.355661        -9.6780
  79   2.0000      -0.351035        -9.5522
  80   2.0000      -0.349462        -9.5093
  81   2.0000      -0.346394        -9.4259
  82   2.0000      -0.343544        -9.3483
  83   2.0000      -0.339866        -9.2482
  84   2.0000      -0.337409        -9.1814
  85   2.0000      -0.319571        -8.6960
  86   2.0000      -0.310344        -8.4449
  87   2.0000      -0.304302        -8.2805
  88   2.0000      -0.298908        -8.1337
  89   2.0000      -0.288372        -7.8470
  90   2.0000      -0.283260        -7.7079
  91   2.0000      -0.278123        -7.5681
  92   2.0000      -0.274950        -7.4818
  93   2.0000      -0.265807        -7.2330
  94   2.0000      -0.254539        -6.9264
  95   2.0000      -0.233058        -6.3418
  96   2.0000      -0.216953        -5.9036
  97   2.0000      -0.215138        -5.8542
  98   2.0000      -0.205349        -5.5878
  99   2.0000      -0.200860        -5.4657
 100   2.0000      -0.199039        -5.4161
 101   0.0000      -0.048040        -1.3072
 102   0.0000      -0.026899        -0.7319
 103   0.0000      -0.007262        -0.1976
 104   0.0000      -0.000138        -0.0038
 105   0.0000       0.007082         0.1927

MULLIKEN ATOMIC CHARGES
-----------------------
   0 C :   -0.292919
   1 C :   -0.012181
   2 O :   -0.381754
   3 P :    0.623659
   4 S :   -0.314320
   5 O :   -0.362598
   6 C :   -0.026935
   7 C :   -0.317113
   8 S :   -0.107932
   9 C :   -0.342886
  10 S :   -0.093707
  11 P :    0.616849
  12 S :   -0.335459
  13 O :   -0.359329
  14 C :   -0.001585
  15 C :   -0.314181
  16 O :   -0.375048
  17 C :   -0.006964
  18 C :   -0.311801
  19 H :    0.110538
  20 H :    0.109136
  21 H :    0.120385
  22 H :    0.102238
  23 H :    0.115925
  24 H :    0.116424
  25 H :    0.121324
  26 H :    0.112126
  27 H :    0.148663
  28 H :    0.121600
  29 H :    0.193855
  30 H :    0.191230
  31 H :    0.108270
  32 H :    0.101237
  33 H :    0.132009
  34 H :    0.103901
  35 H :    0.123980
  36 H :    0.112014
  37 H :    0.108461
  38 H :    0.111763
  39 H :    0.127503
  40 H :    0.123621
Sum of atomic charges:    0.0000000

LOEWDIN ATOMIC CHARGES
----------------------
   0 C :   -0.360282
   1 C :   -0.125460
   2 O :   -0.246087
   3 P :    0.571997
   4 S :   -0.307591
   5 O :   -0.241131
   6 C :   -0.111267
   7 C :   -0.362611
   8 S :    0.080589
   9 C :   -0.477701
  10 S :    0.097792
  11 P :    0.570638
  12 S :   -0.321041
  13 O :   -0.238882
  14 C :   -0.112295
  15 C :   -0.364410
  16 O :   -0.249094
  17 C :   -0.113727
  18 C :   -0.370045
  19 H :    0.121070
  20 H :    0.129338
  21 H :    0.125218
  22 H :    0.114504
  23 H :    0.104066
  24 H :    0.124855
  25 H :    0.107181
  26 H :    0.131051
  27 H :    0.125448
  28 H :    0.129851
  29 H :    0.132724
  30 H :    0.130561
  31 H :    0.107901
  32 H :    0.115374
  33 H :    0.122328
  34 H :    0.126477
  35 H :    0.122106
  36 H :    0.109290
  37 H :    0.121193
  38 H :    0.130125
  39 H :    0.129658
  40 H :    0.120290

  Mayer bond orders larger than 0.100000
B(  0-C ,  1-C ) :   1.1608 B(  0-C , 19-H ) :   0.9478 B(  0-C , 20-H ) :   0.9415
B(  0-C , 21-H ) :   0.9415 B(  1-C ,  2-O ) :   0.8970 B(  1-C , 22-H ) :   0.9305
B(  1-C , 23-H ) :   0.9051 B(  2-O ,  3-P ) :   1.0767 B(  3-P ,  4-S ) :   1.6257
B(  3-P ,  5-O ) :   1.1384 B(  3-P ,  8-S ) :   0.9464 B(  4-S ,  8-S ) :   0.1010
B(  5-O ,  6-C ) :   0.9009 B(  6-C ,  7-C ) :   1.1660 B(  6-C , 24-H ) :   0.9347
B(  6-C , 25-H ) :   0.9128 B(  7-C , 26-H ) :   0.9385 B(  7-C , 27-H ) :   0.9272
B(  7-C , 28-H ) :   0.9439 B(  8-S ,  9-C ) :   1.0162 B(  9-C , 10-S ) :   1.0029
B(  9-C , 29-H ) :   0.8857 B(  9-C , 30-H ) :   0.8804 B( 10-S , 11-P ) :   0.9440
B( 10-S , 12-S ) :   0.1070 B( 11-P , 12-S ) :   1.5951 B( 11-P , 13-O ) :   1.1331
B( 11-P , 16-O ) :   1.1169 B( 13-O , 14-C ) :   0.9007 B( 14-C , 15-C ) :   1.1703
B( 14-C , 31-H ) :   0.9059 B( 14-C , 32-H ) :   0.9337 B( 15-C , 33-H ) :   0.9366
B( 15-C , 34-H ) :   0.9367 B( 15-C , 35-H ) :   0.9362 B( 16-O , 17-C ) :   0.9155
B( 17-C , 18-C ) :   1.1644 B( 17-C , 36-H ) :   0.9286 B( 17-C , 37-H ) :   0.9343
B( 18-C , 38-H ) :   0.9348 B( 18-C , 39-H ) :   0.9419 B( 18-C , 40-H ) :   0.9345

Dispersion correction           -0.067749730
FINAL SINGLE POINT ENERGY     -2929.520494571423

DIPOLE MOMENT
-------------

Method             : SCF
Type of density    : Electron Density
Multiplicity       :   1
Irrep              :   0
Energy             : -2929.6383043309838285 Eh
Relativity type    :
Basis              : AO
                                X                 Y                 Z
Electronic contribution:     -1.289381089       1.700650699     -17.512767873
Nuclear contribution   :      1.064539018      -1.939593183      18.898933393
                        -----------------------------------------
Total Dipole Moment    :     -0.224842071      -0.238942484       1.386165521
                        -----------------------------------------
Magnitude (a.u.)       :      1.424465625
Magnitude (Debye)      :      3.620703878

Rotational constants in cm-1:             0.012021             0.005581             0.005116
Rotational constants in MHz :           360.374150           167.317362           153.382253

                             ****ORCA TERMINATED NORMALLY****
TOTAL RUN TIME: 0 days 0 hours 0 minutes 22 seconds 66 msec
