                         Program Version 6.0.0  -   RELEASE  -
|  1> ! pbe def2-sv(p) def2/J RI DEFGRID1 loosescf d4 GCP(DFT/SV(P)) printgap
|  2> %output
|  3>     printlevel normal
|  4> end
|  5> * xyz 0 1
|  6> C 5.6165528987 0.571192791 -0.749656608
|  7> C 4.3151293021 1.3038340443 -1.0119179396
|  8> O 3.2453254249 0.3710494487 -1.2762753689
|  9> P 2.2507124199 -0.1287528225 -0.1408615835
| 10> S 3.0815281256 -0.8561086965 1.4822221802
| 11> O 1.3348504675 -1.1210788541 -0.9539400949
| 12> C 1.5806874668 -2.5438798399 -1.0419100968
| 13> C 0.3434274928 -3.2912759498 -0.5886599956
| 14> S 0.9797188808 1.5287366471 0.1330409959
| 15> C 0.2865151336 1.0206550878 1.7292414141
| 16> S -0.8431423298 -0.3955036058 1.6151812353
| 17> P -2.1564133835 0.2923166525 0.091165716
| 18> S -1.7658242504 -0.1333189319 -1.7862201444
| 19> O -2.2192933248 1.8244000781 0.4816255598
| 20> C -2.5945534629 2.8353520977 -0.4769829319
| 21> C -4.0675177988 2.7589983354 -0.8182751259
| 22> O -3.5840691997 -0.2261424156 0.5659327261
| 23> C -4.1003257134 -1.5131783705 0.1958830863
| 24> C -3.4441096832 -2.6223526283 0.9927991815
| 25> H 5.5357692184 -0.0298967832 0.1533368914
| 26> H 5.8518043069 -0.0813381462 -1.5857716703
| 27> H 6.4143126576 1.2957743497 -0.6225339575
| 28> H 4.3757032131 1.9142259175 -1.9148319932
| 29> H 4.0412850645 1.9357052607 -0.162236445
| 30> H 1.8090953779 -2.7454825113 -2.0898423105
| 31> H 2.4449546758 -2.7957894816 -0.4187850391
| 32> H 0.4875175635 -4.3545258977 -0.7493626424
| 33> H 0.1624093486 -3.1079083623 0.468660324
| 34> H -0.5165053237 -2.9526346542 -1.1621199269
| 35> H -0.2420464492 1.8799883257 2.1324279962
| 36> H 1.0949759671 0.7014968677 2.3893425564
| 37> H -2.3378329431 3.7732443806 0.017070608
| 38> H -1.9793274942 2.7093351964 -1.3739073998
| 39> H -4.2768532669 1.826656316 -1.3411175121
| 40> H -4.6651363365 2.7954139294 0.0886136348
| 41> H -4.331798924 3.5921687525 -1.4618099874
| 42> H -5.1688562419 -1.4440710205 0.4041757309
| 43> H -3.9389958033 -1.6564554475 -0.878379723
| 44> H -3.5717624498 -2.4480844118 2.0577216193
| 45> H -3.8890049088 -3.5751268476 0.7249210338
| 46> H -2.3772104479 -2.6534628116 0.7728413358
| 47> *
| 48>
| 49>                          ****END OF INPUT****

CARTESIAN COORDINATES (ANGSTROEM)
---------------------------------
  C      5.616553    0.571193   -0.749657
  C      4.315129    1.303834   -1.011918
  O      3.245325    0.371049   -1.276275
  P      2.250712   -0.128753   -0.140862
  S      3.081528   -0.856109    1.482222
  O      1.334850   -1.121079   -0.953940
  C      1.580687   -2.543880   -1.041910
  C      0.343427   -3.291276   -0.588660
  S      0.979719    1.528737    0.133041
  C      0.286515    1.020655    1.729241
  S     -0.843142   -0.395504    1.615181
  P     -2.156413    0.292317    0.091166
  S     -1.765824   -0.133319   -1.786220
  O     -2.219293    1.824400    0.481626
  C     -2.594553    2.835352   -0.476983
  C     -4.067518    2.758998   -0.818275
  O     -3.584069   -0.226142    0.565933
  C     -4.100326   -1.513178    0.195883
  C     -3.444110   -2.622353    0.992799
  H      5.535769   -0.029897    0.153337
  H      5.851804   -0.081338   -1.585772
  H      6.414313    1.295774   -0.622534
  H      4.375703    1.914226   -1.914832
  H      4.041285    1.935705   -0.162236
  H      1.809095   -2.745483   -2.089842
  H      2.444955   -2.795789   -0.418785
  H      0.487518   -4.354526   -0.749363
  H      0.162409   -3.107908    0.468660
  H     -0.516505   -2.952635   -1.162120
  H     -0.242046    1.879988    2.132428
  H      1.094976    0.701497    2.389343
  H     -2.337833    3.773244    0.017071
  H     -1.979327    2.709335   -1.373907
  H     -4.276853    1.826656   -1.341118
  H     -4.665136    2.795414    0.088614
  H     -4.331799    3.592169   -1.461810
  H     -5.168856   -1.444071    0.404176
  H     -3.938996   -1.656455   -0.878380
  H     -3.571762   -2.448084    2.057722
  H     -3.889005   -3.575127    0.724921
  H     -2.377210   -2.653463    0.772841

 Total Charge           Charge          ....    0
 Multiplicity           Mult            ....    1
 Number of Electrons    NEL             ....  202
 Basis Dimension        Dim             ....  334

ORBITAL ENERGIES
----------------

  NO   OCC          E(Eh)            E(eV)
   0   2.0000     -88.043042     -2395.7730
   1   2.0000     -88.038482     -2395.6489
   2   2.0000     -87.986220     -2394.2268
   3   2.0000     -87.983543     -2394.1539
   4   2.0000     -76.425523     -2079.6442
   5   2.0000     -76.424097     -2079.6054
   6   2.0000     -18.795478      -511.4510
   7   2.0000     -18.790578      -511.3176
   8   2.0000     -18.789828      -511.2972
   9   2.0000     -18.783125      -511.1148
  10   2.0000      -9.955162      -270.8937
  11   2.0000      -9.953512      -270.8488
  12   2.0000      -9.953039      -270.8359
  13   2.0000      -9.951743      -270.8007
  14   2.0000      -9.944852      -270.6132
  15   2.0000      -9.887167      -269.0435
  16   2.0000      -9.884369      -268.9674
  17   2.0000      -9.879711      -268.8406
  18   2.0000      -9.873688      -268.6767
  19   2.0000      -7.688259      -209.2082
  20   2.0000      -7.683504      -209.0788
  21   2.0000      -7.631225      -207.6562
  22   2.0000      -7.628495      -207.5819
  23   2.0000      -6.423036      -174.7797
  24   2.0000      -6.421801      -174.7461
  25   2.0000      -5.716100      -155.5430
  26   2.0000      -5.712728      -155.4512
  27   2.0000      -5.711674      -155.4226
  28   2.0000      -5.708023      -155.3232
  29   2.0000      -5.705239      -155.2474
  30   2.0000      -5.700157      -155.1092
  31   2.0000      -5.659918      -154.0142
  32   2.0000      -5.657291      -153.9427
  33   2.0000      -5.652019      -153.7992
  34   2.0000      -5.651431      -153.7833
  35   2.0000      -5.649359      -153.7269
  36   2.0000      -5.648547      -153.7048
  37   2.0000      -4.645653      -126.4146
  38   2.0000      -4.644837      -126.3924
  39   2.0000      -4.644211      -126.3754
  40   2.0000      -4.643560      -126.3577
  41   2.0000      -4.643403      -126.3534
  42   2.0000      -4.642403      -126.3262
  43   2.0000      -0.988483       -26.8980
  44   2.0000      -0.982078       -26.7237
  45   2.0000      -0.948264       -25.8036
  46   2.0000      -0.940093       -25.5812
  47   2.0000      -0.763292       -20.7702
  48   2.0000      -0.720075       -19.5942
  49   2.0000      -0.706668       -19.2294
  50   2.0000      -0.688318       -18.7301
  51   2.0000      -0.681625       -18.5480
  52   2.0000      -0.670737       -18.2517
  53   2.0000      -0.650627       -17.7045
  54   2.0000      -0.637514       -17.3476
  55   2.0000      -0.599687       -16.3183
  56   2.0000      -0.588325       -16.0091
  57   2.0000      -0.573504       -15.6058
  58   2.0000      -0.569045       -15.4845
  59   2.0000      -0.556602       -15.1459
  60   2.0000      -0.502343       -13.6694
  61   2.0000      -0.493947       -13.4410
  62   2.0000      -0.476067       -12.9544
  63   2.0000      -0.473930       -12.8963
  64   2.0000      -0.458844       -12.4858
  65   2.0000      -0.440247       -11.9797
  66   2.0000      -0.436614       -11.8809
  67   2.0000      -0.434148       -11.8138
  68   2.0000      -0.423825       -11.5329
  69   2.0000      -0.413992       -11.2653
  70   2.0000      -0.404595       -11.0096
  71   2.0000      -0.395074       -10.7505
  72   2.0000      -0.392974       -10.6934
  73   2.0000      -0.389834       -10.6079
  74   2.0000      -0.379789       -10.3346
  75   2.0000      -0.371061       -10.0971
  76   2.0000      -0.369406       -10.0521
  77   2.0000      -0.357596        -9.7307
  78   2.0000      -0.352662        -9.5964
  79   2.0000      -0.348879        -9.4935
  80   2.0000      -0.347146        -9.4463
  81   2.0000      -0.344618        -9.3775
  82   2.0000      -0.339813        -9.2468
  83   2.0000      -0.331797        -9.0287
  84   2.0000      -0.328958        -8.9514
  85   2.0000      -0.320760        -8.7283
  86   2.0000      -0.304317        -8.2809
  87   2.0000      -0.296344        -8.0639
  88   2.0000      -0.295015        -8.0278
  89   2.0000      -0.285726        -7.7750
  90   2.0000      -0.284196        -7.7334
  91   2.0000      -0.275522        -7.4973
  92   2.0000      -0.270056        -7.3486
  93   2.0000      -0.261665        -7.1203
  94   2.0000      -0.261290        -7.1101
  95   2.0000      -0.235390        -6.4053
  96   2.0000      -0.219110        -5.9623
  97   2.0000      -0.207776        -5.6539
  98   2.0000      -0.202519        -5.5108
  99   2.0000      -0.198044        -5.3890
 100   2.0000      -0.191919        -5.2224
 101   0.0000      -0.046600        -1.2680
 102   0.0000      -0.021017        -0.5719
 103   0.0000      -0.019834        -0.5397
 104   0.0000       0.003549         0.0966
 105   0.0000       0.021326         0.5803

MULLIKEN ATOMIC CHARGES
-----------------------
   0 C :   -0.290529
   1 C :   -0.007163
   2 O :   -0.372188
   3 P :    0.618379
   4 S :   -0.343653
   5 O :   -0.346838
   6 C :    0.003502
   7 C :   -0.316058
   8 S :   -0.085015
   9 C :   -0.343151
  10 S :   -0.101041
  11 P :    0.618075
  12 S :   -0.308971
  13 O :   -0.377480
  14 C :   -0.006355
  15 C :   -0.303659
  16 O :   -0.366900
  17 C :   -0.005532
  18 C :   -0.336029
  19 H :    0.128490
  20 H :    0.112343
  21 H :    0.106558
  22 H :    0.107634
  23 H :    0.099302
  24 H :    0.103904
  25 H :    0.102639
  26 H :    0.101674
  27 H :    0.133957
  28 H :    0.128905
  29 H :    0.186404
  30 H :    0.192862
  31 H :    0.102814
  32 H :    0.116800
  33 H :    0.123214
  34 H :    0.117095
  35 H :    0.112385
  36 H :    0.105561
  37 H :    0.106964
  38 H :    0.122121
  39 H :    0.115185
  40 H :    0.143791
Sum of atomic charges:   -0.0000000

LOEWDIN ATOMIC CHARGES
----------------------
   0 C :   -0.362761
   1 C :   -0.115346
   2 O :   -0.247790
   3 P :    0.570597
   4 S :   -0.325653
   5 O :   -0.228768
   6 C :   -0.110737
   7 C :   -0.363266
   8 S :    0.090473
   9 C :   -0.477856
  10 S :    0.083087
  11 P :    0.570594
  12 S :   -0.305536
  13 O :   -0.241062
  14 C :   -0.118096
  15 C :   -0.364203
  16 O :   -0.243341
  17 C :   -0.122367
  18 C :   -0.367771
  19 H :    0.124618
  20 H :    0.125407
  21 H :    0.128253
  22 H :    0.118930
  23 H :    0.106373
  24 H :    0.116701
  25 H :    0.105269
  26 H :    0.125712
  27 H :    0.122577
  28 H :    0.123297
  29 H :    0.133789
  30 H :    0.129414
  31 H :    0.117321
  32 H :    0.112398
  33 H :    0.123324
  34 H :    0.126810
  35 H :    0.130820
  36 H :    0.118860
  37 H :    0.106750
  38 H :    0.127915
  39 H :    0.132461
  40 H :    0.122804

  Mayer bond orders larger than 0.100000
B(  0-C ,  1-C ) :   1.1673 B(  0-C , 19-H ) :   0.9325 B(  0-C , 20-H ) :   0.9475
B(  0-C , 21-H ) :   0.9398 B(  1-C ,  2-O ) :   0.9033 B(  1-C , 22-H ) :   0.9359
B(  1-C , 23-H ) :   0.9150 B(  2-O ,  3-P ) :   1.1165 B(  3-P ,  4-S ) :   1.5895
B(  3-P ,  5-O ) :   1.1634 B(  3-P ,  8-S ) :   0.9591 B(  4-S ,  8-S ) :   0.1091
B(  5-O ,  6-C ) :   0.8946 B(  6-C ,  7-C ) :   1.1682 B(  6-C , 24-H ) :   0.9324
B(  6-C , 25-H ) :   0.9060 B(  7-C , 26-H ) :   0.9363 B(  7-C , 27-H ) :   0.9365
B(  7-C , 28-H ) :   0.9354 B(  8-S ,  9-C ) :   1.0119 B(  9-C , 10-S ) :   1.0015
B(  9-C , 29-H ) :   0.9023 B(  9-C , 30-H ) :   0.8738 B( 10-S , 11-P ) :   0.9524
B( 10-S , 12-S ) :   0.1039 B( 11-P , 12-S ) :   1.6284 B( 11-P , 13-O ) :   1.1092
B( 11-P , 16-O ) :   1.0988 B( 13-O , 14-C ) :   0.8990 B( 14-C , 15-C ) :   1.1654
B( 14-C , 31-H ) :   0.9343 B( 14-C , 32-H ) :   0.9148 B( 15-C , 33-H ) :   0.9355
B( 15-C , 34-H ) :   0.9459 B( 15-C , 35-H ) :   0.9389 B( 16-O , 17-C ) :   0.9147
B( 17-C , 18-C ) :   1.1634 B( 17-C , 36-H ) :   0.9322 B( 17-C , 37-H ) :   0.9085
B( 18-C , 38-H ) :   0.9441 B( 18-C , 39-H ) :   0.9391 B( 18-C , 40-H ) :   0.9275

Dispersion correction           -0.066618195
FINAL SINGLE POINT ENERGY     -2929.522892561165

DIPOLE MOMENT
-------------

Method             : SCF
Type of density    : Electron Density
Multiplicity       :   1
Irrep              :   0
Energy             : -2929.6402098291164293 Eh
Relativity type    :
Basis              : AO
                                X                 Y                 Z
Electronic contribution:      4.432488004       5.659899198       4.134003290
Nuclear contribution   :     -4.907982086      -5.223356299      -4.285088703
                        -----------------------------------------
Total Dipole Moment    :     -0.475494082       0.436542899      -0.151085413
                        -----------------------------------------
Magnitude (a.u.)       :      0.662941269
Magnitude (Debye)      :      1.685062793

Rotational constants in cm-1:             0.012956             0.005214             0.004584
Rotational constants in MHz :           388.416945           156.302208           137.418616

                             ****ORCA TERMINATED NORMALLY****
TOTAL RUN TIME: 0 days 0 hours 0 minutes 21 seconds 306 msec
