                         Program Version 6.0.1  -  RELEASE   -
|  1> ! pbe def2-sv(p) def2/J RI DEFGRID1 loosescf d4 GCP(DFT/SV(P)) printgap
|  2> %output
|  3>     printlevel normal
|  4> end
|  5> * xyz 0 1
|  6> C 3.3675224087 -3.3670154203 0.2256736983
|  7> C 2.929443737 -2.0278638661 0.795734766
|  8> O 2.7528820977 -1.0526710764 -0.2504581882
|  9> C 1.6248720717 -1.0396428255 -0.9273904209
| 10> O 0.685114922 -1.7836192331 -0.7216280279
| 11> C 1.619371585 0.0414413804 -1.9875232175
| 12> C 0.4392927632 0.9927409722 -1.7726496386
| 13> H 0.4138474749 1.7302174892 -2.5795749742
| 14> C 0.5138111922 1.7221694567 -0.4453139902
| 15> O -0.447903197 1.7991882051 0.2992833968
| 16> O 1.6925903476 2.2144589832 -0.2034477946
| 17> C 1.9068697382 2.9144947073 1.043652645
| 18> C 1.4582692483 4.3619307762 0.93748331
| 19> S -1.1851048651 0.1579527057 -1.8460108257
| 20> P -1.5599924778 -0.3985134796 0.1650285748
| 21> S -0.4441828121 -0.6488282333 1.7777526298
| 22> O -2.9120631207 0.3890532987 0.5331382804
| 23> C -3.0221447899 1.4848921728 1.437159812
| 24> O -2.2243846398 -1.7725149991 -0.3207894854
| 25> C -2.7866532964 -2.7104628315 0.5972713232
| 26> H 3.5609925537 -4.0549629149 1.0418940886
| 27> H 2.5825208254 -3.7803609062 -0.4038772631
| 28> H 4.2711949827 -3.2444073218 -0.3649871605
| 29> H 3.6973826189 -1.5954643973 1.4366773031
| 30> H 1.9900921521 -2.1223457711 1.3489262865
| 31> H 1.5036390143 -0.4352853001 -2.9614082387
| 32> H 2.5571927197 0.5938866777 -1.9400159291
| 33> H 1.3650250539 2.388275752 1.8347111621
| 34> H 2.981824322 2.8388890671 1.2048750931
| 35> H 1.9709227165 4.8535396812 0.1155811721
| 36> H 0.3848842073 4.4130484668 0.7705214724
| 37> H 1.6928760862 4.8747382788 1.864208667
| 38> H -2.8586769671 2.418375678 0.90216067
| 39> H -2.2855676412 1.3859720097 2.2364825445
| 40> H -4.0317262132 1.4389987589 1.8391513128
| 41> H -2.1143931155 -2.8561425656 1.4459934836
| 42> H -2.897775631 -3.6371949869 0.0399676171
| 43> H -3.7540660232 -2.3521827224 0.9500486638
| 44> *
| 45>
| 46>                          ****END OF INPUT****

CARTESIAN COORDINATES (ANGSTROEM)
---------------------------------
  C      3.367522   -3.367015    0.225674
  C      2.929444   -2.027864    0.795735
  O      2.752882   -1.052671   -0.250458
  C      1.624872   -1.039643   -0.927390
  O      0.685115   -1.783619   -0.721628
  C      1.619372    0.041441   -1.987523
  C      0.439293    0.992741   -1.772650
  H      0.413847    1.730217   -2.579575
  C      0.513811    1.722169   -0.445314
  O     -0.447903    1.799188    0.299283
  O      1.692590    2.214459   -0.203448
  C      1.906870    2.914495    1.043653
  C      1.458269    4.361931    0.937483
  S     -1.185105    0.157953   -1.846011
  P     -1.559992   -0.398513    0.165029
  S     -0.444183   -0.648828    1.777753
  O     -2.912063    0.389053    0.533138
  C     -3.022145    1.484892    1.437160
  O     -2.224385   -1.772515   -0.320789
  C     -2.786653   -2.710463    0.597271
  H      3.560993   -4.054963    1.041894
  H      2.582521   -3.780361   -0.403877
  H      4.271195   -3.244407   -0.364987
  H      3.697383   -1.595464    1.436677
  H      1.990092   -2.122346    1.348926
  H      1.503639   -0.435285   -2.961408
  H      2.557193    0.593887   -1.940016
  H      1.365025    2.388276    1.834711
  H      2.981824    2.838889    1.204875
  H      1.970923    4.853540    0.115581
  H      0.384884    4.413048    0.770521
  H      1.692876    4.874738    1.864209
  H     -2.858677    2.418376    0.902161
  H     -2.285568    1.385972    2.236483
  H     -4.031726    1.438999    1.839151
  H     -2.114393   -2.856143    1.445993
  H     -2.897776   -3.637195    0.039968
  H     -3.754066   -2.352183    0.950049

 Total Charge           Charge          ....    0
 Multiplicity           Mult            ....    1
 Number of Electrons    NEL             ....  174
 Basis Dimension        Dim             ....  316

ORBITAL ENERGIES
----------------

  NO   OCC          E(Eh)            E(eV)
   0   2.0000     -88.023691     -2395.2464
   1   2.0000     -87.963051     -2393.5963
   2   2.0000     -76.410699     -2079.2408
   3   2.0000     -18.826581      -512.2973
   4   2.0000     -18.799985      -511.5736
   5   2.0000     -18.765221      -510.6276
   6   2.0000     -18.764047      -510.5957
   7   2.0000     -18.759858      -510.4817
   8   2.0000     -18.732008      -509.7239
   9   2.0000     -10.032142      -272.9885
  10   2.0000     -10.006205      -272.2827
  11   2.0000      -9.960917      -271.0503
  12   2.0000      -9.954421      -270.8736
  13   2.0000      -9.939054      -270.4554
  14   2.0000      -9.921213      -269.9699
  15   2.0000      -9.920646      -269.9545
  16   2.0000      -9.912729      -269.7391
  17   2.0000      -9.898198      -269.3437
  18   2.0000      -9.881486      -268.8889
  19   2.0000      -7.669084      -208.6864
  20   2.0000      -7.607916      -207.0219
  21   2.0000      -6.405443      -174.3010
  22   2.0000      -5.697588      -155.0392
  23   2.0000      -5.694075      -154.9437
  24   2.0000      -5.684803      -154.6914
  25   2.0000      -5.637202      -153.3961
  26   2.0000      -5.628580      -153.1614
  27   2.0000      -5.627604      -153.1349
  28   2.0000      -4.628141      -125.9381
  29   2.0000      -4.627687      -125.9258
  30   2.0000      -4.625973      -125.8791
  31   2.0000      -1.037430       -28.2299
  32   2.0000      -1.006228       -27.3809
  33   2.0000      -0.957080       -26.0435
  34   2.0000      -0.942001       -25.6332
  35   2.0000      -0.912887       -24.8409
  36   2.0000      -0.909912       -24.7600
  37   2.0000      -0.765994       -20.8438
  38   2.0000      -0.716491       -19.4967
  39   2.0000      -0.705104       -19.1869
  40   2.0000      -0.681127       -18.5344
  41   2.0000      -0.646230       -17.5848
  42   2.0000      -0.626732       -17.0542
  43   2.0000      -0.610075       -16.6010
  44   2.0000      -0.608121       -16.5478
  45   2.0000      -0.593285       -16.1441
  46   2.0000      -0.566933       -15.4270
  47   2.0000      -0.515263       -14.0210
  48   2.0000      -0.499217       -13.5844
  49   2.0000      -0.494204       -13.4480
  50   2.0000      -0.480860       -13.0849
  51   2.0000      -0.461031       -12.5453
  52   2.0000      -0.452455       -12.3119
  53   2.0000      -0.449193       -12.2232
  54   2.0000      -0.435971       -11.8634
  55   2.0000      -0.428705       -11.6656
  56   2.0000      -0.422236       -11.4896
  57   2.0000      -0.417443       -11.3592
  58   2.0000      -0.402788       -10.9604
  59   2.0000      -0.399473       -10.8702
  60   2.0000      -0.391152       -10.6438
  61   2.0000      -0.387510       -10.5447
  62   2.0000      -0.382838       -10.4176
  63   2.0000      -0.380494       -10.3538
  64   2.0000      -0.377802       -10.2805
  65   2.0000      -0.369302       -10.0492
  66   2.0000      -0.364225        -9.9111
  67   2.0000      -0.354124        -9.6362
  68   2.0000      -0.351005        -9.5513
  69   2.0000      -0.342425        -9.3178
  70   2.0000      -0.335764        -9.1366
  71   2.0000      -0.328380        -8.9357
  72   2.0000      -0.318457        -8.6657
  73   2.0000      -0.311872        -8.4865
  74   2.0000      -0.295735        -8.0474
  75   2.0000      -0.288795        -7.8585
  76   2.0000      -0.283222        -7.7069
  77   2.0000      -0.280962        -7.6454
  78   2.0000      -0.266262        -7.2454
  79   2.0000      -0.256322        -6.9749
  80   2.0000      -0.253281        -6.8921
  81   2.0000      -0.246510        -6.7079
  82   2.0000      -0.240080        -6.5329
  83   2.0000      -0.222251        -6.0477
  84   2.0000      -0.191016        -5.1978
  85   2.0000      -0.179394        -4.8816
  86   2.0000      -0.171985        -4.6800
  87   0.0000      -0.051006        -1.3879
  88   0.0000      -0.043215        -1.1760
  89   0.0000      -0.026273        -0.7149
  90   0.0000       0.012251         0.3334
  91   0.0000       0.035211         0.9581

MULLIKEN ATOMIC CHARGES
-----------------------
   0 C :   -0.308011
   1 C :   -0.023833
   2 O :   -0.226386
   3 C :    0.088476
   4 O :   -0.189649
   5 C :   -0.012640
   6 C :   -0.336457
   7 H :    0.154247
   8 C :    0.224158
   9 O :   -0.196025
  10 O :   -0.213625
  11 C :   -0.013572
  12 C :   -0.312062
  13 S :   -0.053227
  14 P :    0.658187
  15 S :   -0.359470
  16 O :   -0.392974
  17 C :   -0.083127
  18 O :   -0.384922
  19 C :   -0.090612
  20 H :    0.112248
  21 H :    0.129494
  22 H :    0.107526
  23 H :    0.095640
  24 H :    0.132803
  25 H :    0.123663
  26 H :    0.111134
  27 H :    0.128407
  28 H :    0.109955
  29 H :    0.116435
  30 H :    0.130583
  31 H :    0.120856
  32 H :    0.104272
  33 H :    0.108126
  34 H :    0.109236
  35 H :    0.111498
  36 H :    0.116223
  37 H :    0.103424
Sum of atomic charges:   -0.0000000

LOEWDIN ATOMIC CHARGES
----------------------
   0 C :   -0.357207
   1 C :   -0.115069
   2 O :   -0.051996
   3 C :    0.020820
   4 O :   -0.163320
   5 C :   -0.249667
   6 C :   -0.263391
   7 H :    0.152025
   8 C :    0.021015
   9 O :   -0.150790
  10 O :   -0.030556
  11 C :   -0.105435
  12 C :   -0.356235
  13 S :    0.128319
  14 P :    0.604546
  15 S :   -0.333268
  16 O :   -0.262642
  17 C :   -0.215178
  18 O :   -0.258185
  19 C :   -0.214563
  20 H :    0.130629
  21 H :    0.131148
  22 H :    0.121418
  23 H :    0.115425
  24 H :    0.121063
  25 H :    0.147032
  26 H :    0.136823
  27 H :    0.128397
  28 H :    0.122242
  29 H :    0.126066
  30 H :    0.131298
  31 H :    0.135107
  32 H :    0.106786
  33 H :    0.103265
  34 H :    0.112633
  35 H :    0.106249
  36 H :    0.117835
  37 H :    0.107361

  Mayer bond orders larger than 0.100000
B(  0-C ,  1-C ) :   1.1676 B(  0-C , 20-H ) :   0.9446 B(  0-C , 21-H ) :   0.9455
B(  0-C , 22-H ) :   0.9482 B(  1-C ,  2-O ) :   0.9091 B(  1-C , 23-H ) :   0.9388
B(  1-C , 24-H ) :   0.9037 B(  2-O ,  3-C ) :   1.2475 B(  3-C ,  4-O ) :   1.9867
B(  3-C ,  5-C ) :   0.9987 B(  5-C ,  6-C ) :   1.0113 B(  5-C , 25-H ) :   0.8880
B(  5-C , 26-H ) :   0.8852 B(  6-C ,  7-H ) :   0.8733 B(  6-C ,  8-C ) :   0.9019
B(  6-C , 13-S ) :   1.0660 B(  8-C ,  9-O ) :   1.9060 B(  8-C , 10-O ) :   1.2868
B(  9-O , 14-P ) :   0.1238 B( 10-O , 11-C ) :   0.8941 B( 11-C , 12-C ) :   1.1723
B( 11-C , 27-H ) :   0.9131 B( 11-C , 28-H ) :   0.9362 B( 12-C , 29-H ) :   0.9474
B( 12-C , 30-H ) :   0.9450 B( 12-C , 31-H ) :   0.9432 B( 13-S , 14-P ) :   0.9127
B( 13-S , 15-S ) :   0.1164 B( 14-P , 15-S ) :   1.4958 B( 14-P , 16-O ) :   1.0802
B( 14-P , 18-O ) :   1.0871 B( 16-O , 17-C ) :   0.9437 B( 17-C , 32-H ) :   0.9525
B( 17-C , 33-H ) :   0.9297 B( 17-C , 34-H ) :   0.9566 B( 18-O , 19-C ) :   0.9438
B( 19-C , 35-H ) :   0.9309 B( 19-C , 36-H ) :   0.9603 B( 19-C , 37-H ) :   0.9515

Dispersion correction           -0.055122303
FINAL SINGLE POINT ENERGY     -1978.994909410070

DIPOLE MOMENT
-------------

Method             : SCF
Type of density    : Electron Density
Multiplicity       :   1
Irrep              :   0
Energy             : -1979.1238005227191934 Eh
Relativity type    :
Basis              : AO
                                X                 Y                 Z
Electronic contribution:    -10.512607803      -1.952817465      -8.052045656
Nuclear contribution   :     11.782516112       3.048145902       8.083086917
                        -----------------------------------------
Total Dipole Moment    :      1.269908309       1.095328437       0.031041262
                        -----------------------------------------
Magnitude (a.u.)       :      1.677311855
Magnitude (Debye)      :      4.263387918

Rotational constants in cm-1:             0.010820             0.010092             0.007075
Rotational constants in MHz :           324.372480           302.559550           212.111530

                             ****ORCA TERMINATED NORMALLY****
TOTAL RUN TIME: 0 days 0 hours 1 minutes 35 seconds 249 msec
