                         Program Version 6.0.0  -   RELEASE  -
|  1> ! r2scan-3c def2/J RI DEFGRID2 scfconv6 printgap
|  2> %output
|  3>     printlevel normal
|  4> end
|  5> * xyz 0 1
|  6> C -2.2762896674 -0.3325347955 -0.2635643407
|  7> C -1.2360777931 0.038381397 0.4614933086
|  8> C -0.0864014096 0.8072909983 -0.0828605083
|  9> Cl 1.4096626658 -0.2183270105 -0.0320902242
| 10> H -3.0935334476 -0.8861642131 0.1633064168
| 11> H -2.3524866434 -0.088654476 -1.3097010721
| 12> H -1.1653491873 -0.224158416 1.5075927525
| 13> H -0.2314058967 1.0808931462 -1.1256705277
| 14> H 0.1431551472 1.6828323651 0.5220334151
| 15> *
| 16>
| 17>                          ****END OF INPUT****

CARTESIAN COORDINATES (ANGSTROEM)
---------------------------------
  C     -2.276290   -0.332535   -0.263564
  C     -1.236078    0.038381    0.461493
  C     -0.086401    0.807291   -0.082861
  Cl     1.409663   -0.218327   -0.032090
  H     -3.093533   -0.886164    0.163306
  H     -2.352487   -0.088654   -1.309701
  H     -1.165349   -0.224158    1.507593
  H     -0.231406    1.080893   -1.125671
  H      0.143155    1.682832    0.522033

 Total Charge           Charge          ....    0
 Multiplicity           Mult            ....    1
 Number of Electrons    NEL             ....   40
 Basis Dimension        Dim             ....  109

ORBITAL ENERGIES
----------------

  NO   OCC          E(Eh)            E(eV)
   0   2.0000    -101.201974     -2753.8457
   1   2.0000     -10.100680      -274.8535
   2   2.0000     -10.053659      -273.5740
   3   2.0000     -10.041623      -273.2465
   4   2.0000      -9.357776      -254.6380
   5   2.0000      -7.104170      -193.3143
   6   2.0000      -7.093853      -193.0335
   7   2.0000      -7.093659      -193.0283
   8   2.0000      -0.825797       -22.4711
   9   2.0000      -0.751065       -20.4375
  10   2.0000      -0.645873       -17.5751
  11   2.0000      -0.545645       -14.8478
  12   2.0000      -0.465027       -12.6540
  13   2.0000      -0.426836       -11.6148
  14   2.0000      -0.408291       -11.1102
  15   2.0000      -0.376264       -10.2387
  16   2.0000      -0.344217        -9.3666
  17   2.0000      -0.276690        -7.5291
  18   2.0000      -0.267485        -7.2786
  19   2.0000      -0.256477        -6.9791
  20   0.0000      -0.048497        -1.3197
  21   0.0000       0.021580         0.5872
  22   0.0000       0.098024         2.6674
  23   0.0000       0.122460         3.3323
  24   0.0000       0.125207         3.4071

MULLIKEN ATOMIC CHARGES
-----------------------
   0 C :   -0.329269
   1 C :   -0.086696
   2 C :   -0.163956
   3 Cl:   -0.196263
   4 H :    0.148246
   5 H :    0.143336
   6 H :    0.165424
   7 H :    0.158830
   8 H :    0.160348
Sum of atomic charges:   -0.0000000

LOEWDIN ATOMIC CHARGES
----------------------
   0 C :   -0.285288
   1 C :   -0.220218
   2 C :   -0.303648
   3 Cl:   -0.003822
   4 H :    0.161589
   5 H :    0.158356
   6 H :    0.166871
   7 H :    0.162079
   8 H :    0.164081

  Mayer bond orders larger than 0.100000
B(  0-C ,  1-C ) :   1.9085 B(  0-C ,  4-H ) :   0.9567 B(  0-C ,  5-H ) :   0.9795
B(  1-C ,  2-C ) :   0.9784 B(  1-C ,  6-H ) :   0.9235 B(  2-C ,  3-Cl) :   0.9530
B(  2-C ,  7-H ) :   0.9802 B(  2-C ,  8-H ) :   0.9457

Dispersion correction           -0.001865018
FINAL SINGLE POINT ENERGY      -577.438363344472

DIPOLE MOMENT
-------------

Method             : SCF
Type of density    : Electron Density
Multiplicity       :   1
Irrep              :   0
Energy             :  -577.4418629304902879 Eh
Relativity type    :
Basis              : AO
                                X                 Y                 Z
Electronic contribution:      7.469478082      -1.366562053       0.179884266
Nuclear contribution   :     -8.177430127       1.761040801      -0.184379442
                        -----------------------------------------
Total Dipole Moment    :     -0.707952045       0.394478747      -0.004495177
                        -----------------------------------------
Magnitude (a.u.)       :      0.810450361
Magnitude (Debye)      :      2.060001106

Rotational constants in cm-1:             0.678205             0.095292             0.091847
Rotational constants in MHz :         20332.063835          2856.780352          2753.497204

                             ****ORCA TERMINATED NORMALLY****
TOTAL RUN TIME: 0 days 0 hours 0 minutes 9 seconds 769 msec
