                         Program Version 6.0.1  -  RELEASE   -
|  1> ! pbe def2-sv(p) def2/J RI DEFGRID1 loosescf d4 GCP(DFT/SV(P)) printgap
|  2> %output
|  3>     printlevel normal
|  4> end
|  5> * xyz 0 1
|  6> C 5.5552347952 -3.1985651424 -1.9761208652
|  7> C 4.8349518365 -2.2066753235 -1.0848858828
|  8> O 3.4212566447 -2.3114313255 -1.3555387123
|  9> C 2.6134765098 -1.4686945221 -0.7557290256
| 10> O 2.9791927964 -0.5953494476 0.0063561453
| 11> C 1.1641120141 -1.7246637423 -1.1038367471
| 12> C 0.3207895239 -0.5274507119 -0.6879893716
| 13> H 0.4771172328 0.3404001593 -1.3332795744
| 14> C 0.61994868 -0.1410227315 0.7507227949
| 15> O 0.5577217185 -0.9267825907 1.6729388958
| 16> O 0.8618435292 1.1440129372 0.8590518472
| 17> C 1.1971819233 1.6787358593 2.1540960276
| 18> C 0.6408305309 3.0853259465 2.2625276379
| 19> S -1.4449944958 -0.9888037195 -0.7522618148
| 20> P -2.2150838014 0.8469513558 -0.0064144515
| 21> S -1.5563841454 2.4764449001 -0.8555977336
| 22> O -3.7884906637 0.6059579417 -0.1267685085
| 23> C -4.435839987 0.5954078926 -1.406550041
| 24> O -2.0299529247 0.8495010443 1.5660232815
| 25> C -2.5131348404 -0.2076464068 2.4220394045
| 26> H 5.2056701531 -4.2053624863 -1.7694765463
| 27> H 5.3652232277 -2.9682319753 -3.0199263212
| 28> H 6.621567283 -3.142410205 -1.7849420025
| 29> H 5.1472092431 -1.1761815535 -1.280284472
| 30> H 4.9962727952 -2.4188650335 -0.0235482192
| 31> H 0.8459425584 -2.606840339 -0.5406817415
| 32> H 1.0599302832 -1.9398724124 -2.1661501158
| 33> H 0.7842580026 1.0141515218 2.9190078341
| 34> H 2.2890623094 1.6697660065 2.2193204057
| 35> H 1.0345262899 3.7027157598 1.4602648033
| 36> H -0.4434219698 3.0662008012 2.1801952947
| 37> H 0.9226164025 3.5092931104 3.220293369
| 38> H -5.4998637679 0.6645350613 -1.1953412293
| 39> H -4.2038569804 -0.3319351078 -1.9290271877
| 40> H -4.106893161 1.4505056413 -1.9985972644
| 41> H -2.7019866934 0.262032827 3.3839377353
| 42> H -1.7372843212 -0.9687711332 2.514614126
| 43> H -3.4267092644 -0.6379352449 2.0185280083
| 44> *
| 45>
| 46>                          ****END OF INPUT****

CARTESIAN COORDINATES (ANGSTROEM)
---------------------------------
  C      5.555235   -3.198565   -1.976121
  C      4.834952   -2.206675   -1.084886
  O      3.421257   -2.311431   -1.355539
  C      2.613477   -1.468695   -0.755729
  O      2.979193   -0.595349    0.006356
  C      1.164112   -1.724664   -1.103837
  C      0.320790   -0.527451   -0.687989
  H      0.477117    0.340400   -1.333280
  C      0.619949   -0.141023    0.750723
  O      0.557722   -0.926783    1.672939
  O      0.861844    1.144013    0.859052
  C      1.197182    1.678736    2.154096
  C      0.640831    3.085326    2.262528
  S     -1.444994   -0.988804   -0.752262
  P     -2.215084    0.846951   -0.006414
  S     -1.556384    2.476445   -0.855598
  O     -3.788491    0.605958   -0.126769
  C     -4.435840    0.595408   -1.406550
  O     -2.029953    0.849501    1.566023
  C     -2.513135   -0.207646    2.422039
  H      5.205670   -4.205362   -1.769477
  H      5.365223   -2.968232   -3.019926
  H      6.621567   -3.142410   -1.784942
  H      5.147209   -1.176182   -1.280284
  H      4.996273   -2.418865   -0.023548
  H      0.845943   -2.606840   -0.540682
  H      1.059930   -1.939872   -2.166150
  H      0.784258    1.014152    2.919008
  H      2.289062    1.669766    2.219320
  H      1.034526    3.702716    1.460265
  H     -0.443422    3.066201    2.180195
  H      0.922616    3.509293    3.220293
  H     -5.499864    0.664535   -1.195341
  H     -4.203857   -0.331935   -1.929027
  H     -4.106893    1.450506   -1.998597
  H     -2.701987    0.262033    3.383938
  H     -1.737284   -0.968771    2.514614
  H     -3.426709   -0.637935    2.018528

 Total Charge           Charge          ....    0
 Multiplicity           Mult            ....    1
 Number of Electrons    NEL             ....  174
 Basis Dimension        Dim             ....  316

ORBITAL ENERGIES
----------------

  NO   OCC          E(Eh)            E(eV)
   0   2.0000     -88.039350     -2395.6725
   1   2.0000     -87.979610     -2394.0469
   2   2.0000     -76.424654     -2079.6206
   3   2.0000     -18.812615      -511.9173
   4   2.0000     -18.795979      -511.4646
   5   2.0000     -18.794911      -511.4355
   6   2.0000     -18.788968      -511.2738
   7   2.0000     -18.749989      -510.2131
   8   2.0000     -18.722602      -509.4679
   9   2.0000     -10.020263      -272.6652
  10   2.0000     -10.003779      -272.2167
  11   2.0000      -9.956471      -270.9294
  12   2.0000      -9.948066      -270.7006
  13   2.0000      -9.941397      -270.5192
  14   2.0000      -9.940568      -270.4966
  15   2.0000      -9.930795      -270.2307
  16   2.0000      -9.918046      -269.8837
  17   2.0000      -9.895585      -269.2726
  18   2.0000      -9.868213      -268.5277
  19   2.0000      -7.684265      -209.0995
  20   2.0000      -7.625014      -207.4872
  21   2.0000      -6.421855      -174.7476
  22   2.0000      -5.711879      -155.4281
  23   2.0000      -5.709095      -155.3524
  24   2.0000      -5.701238      -155.1386
  25   2.0000      -5.654103      -153.8560
  26   2.0000      -5.645398      -153.6191
  27   2.0000      -5.645159      -153.6126
  28   2.0000      -4.644779      -126.3908
  29   2.0000      -4.643735      -126.3625
  30   2.0000      -4.641932      -126.3134
  31   2.0000      -1.021984       -27.8096
  32   2.0000      -0.998633       -27.1742
  33   2.0000      -0.987491       -26.8710
  34   2.0000      -0.944404       -25.6985
  35   2.0000      -0.926041       -25.1989
  36   2.0000      -0.903250       -24.5787
  37   2.0000      -0.763446       -20.7744
  38   2.0000      -0.722077       -19.6487
  39   2.0000      -0.699264       -19.0279
  40   2.0000      -0.689150       -18.7527
  41   2.0000      -0.662638       -18.0313
  42   2.0000      -0.638817       -17.3831
  43   2.0000      -0.618872       -16.8404
  44   2.0000      -0.608666       -16.5626
  45   2.0000      -0.588829       -16.0228
  46   2.0000      -0.547602       -14.9010
  47   2.0000      -0.517845       -14.0913
  48   2.0000      -0.513891       -13.9837
  49   2.0000      -0.491223       -13.3669
  50   2.0000      -0.475710       -12.9447
  51   2.0000      -0.473730       -12.8908
  52   2.0000      -0.465047       -12.6546
  53   2.0000      -0.447964       -12.1897
  54   2.0000      -0.439556       -11.9609
  55   2.0000      -0.432546       -11.7702
  56   2.0000      -0.428232       -11.6528
  57   2.0000      -0.420656       -11.4466
  58   2.0000      -0.415031       -11.2936
  59   2.0000      -0.405102       -11.0234
  60   2.0000      -0.399686       -10.8760
  61   2.0000      -0.396442       -10.7877
  62   2.0000      -0.393482       -10.7072
  63   2.0000      -0.381012       -10.3679
  64   2.0000      -0.366390        -9.9700
  65   2.0000      -0.363073        -9.8797
  66   2.0000      -0.352548        -9.5933
  67   2.0000      -0.347278        -9.4499
  68   2.0000      -0.344210        -9.3664
  69   2.0000      -0.337881        -9.1942
  70   2.0000      -0.337116        -9.1734
  71   2.0000      -0.320823        -8.7300
  72   2.0000      -0.316456        -8.6112
  73   2.0000      -0.309985        -8.4351
  74   2.0000      -0.308033        -8.3820
  75   2.0000      -0.304354        -8.2819
  76   2.0000      -0.296900        -8.0791
  77   2.0000      -0.284394        -7.7388
  78   2.0000      -0.271077        -7.3764
  79   2.0000      -0.270544        -7.3619
  80   2.0000      -0.261068        -7.1040
  81   2.0000      -0.245175        -6.6716
  82   2.0000      -0.233388        -6.3508
  83   2.0000      -0.229786        -6.2528
  84   2.0000      -0.211696        -5.7605
  85   2.0000      -0.197248        -5.3674
  86   2.0000      -0.193952        -5.2777
  87   0.0000      -0.041593        -1.1318
  88   0.0000      -0.030056        -0.8179
  89   0.0000      -0.020077        -0.5463
  90   0.0000       0.005330         0.1450
  91   0.0000       0.025448         0.6925

MULLIKEN ATOMIC CHARGES
-----------------------
   0 C :   -0.273059
   1 C :   -0.032608
   2 O :   -0.227038
   3 C :    0.125026
   4 O :   -0.202897
   5 C :   -0.060302
   6 C :   -0.283054
   7 H :    0.137695
   8 C :    0.162181
   9 O :   -0.209632
  10 O :   -0.206499
  11 C :   -0.020173
  12 C :   -0.282134
  13 S :   -0.100642
  14 P :    0.600254
  15 S :   -0.298225
  16 O :   -0.384817
  17 C :   -0.101848
  18 O :   -0.365278
  19 C :   -0.122107
  20 H :    0.118139
  21 H :    0.117496
  22 H :    0.114836
  23 H :    0.112420
  24 H :    0.112254
  25 H :    0.131463
  26 H :    0.125873
  27 H :    0.103937
  28 H :    0.104101
  29 H :    0.113476
  30 H :    0.125744
  31 H :    0.099316
  32 H :    0.128037
  33 H :    0.118556
  34 H :    0.121412
  35 H :    0.125711
  36 H :    0.153144
  37 H :    0.119244
Sum of atomic charges:    0.0000000

LOEWDIN ATOMIC CHARGES
----------------------
   0 C :   -0.350205
   1 C :   -0.104592
   2 O :   -0.057149
   3 C :    0.043592
   4 O :   -0.148113
   5 C :   -0.250175
   6 C :   -0.260953
   7 H :    0.134855
   8 C :   -0.006242
   9 O :   -0.181722
  10 O :   -0.037220
  11 C :   -0.105547
  12 C :   -0.354192
  13 S :    0.090819
  14 P :    0.567418
  15 S :   -0.301321
  16 O :   -0.257740
  17 C :   -0.213430
  18 O :   -0.236235
  19 C :   -0.214581
  20 H :    0.128349
  21 H :    0.127979
  22 H :    0.132571
  23 H :    0.119607
  24 H :    0.119973
  25 H :    0.152113
  26 H :    0.143793
  27 H :    0.115088
  28 H :    0.117890
  29 H :    0.126075
  30 H :    0.126147
  31 H :    0.123972
  32 H :    0.123819
  33 H :    0.111148
  34 H :    0.113674
  35 H :    0.124031
  36 H :    0.124405
  37 H :    0.112098

  Mayer bond orders larger than 0.100000
B(  0-C ,  1-C ) :   1.1536 B(  0-C , 20-H ) :   0.9490 B(  0-C , 21-H ) :   0.9503
B(  0-C , 22-H ) :   0.9433 B(  1-C ,  2-O ) :   0.8980 B(  1-C , 23-H ) :   0.9303
B(  1-C , 24-H ) :   0.9333 B(  2-O ,  3-C ) :   1.2541 B(  3-C ,  4-O ) :   1.9970
B(  3-C ,  5-C ) :   1.0290 B(  5-C ,  6-C ) :   1.0458 B(  5-C , 25-H ) :   0.8663
B(  5-C , 26-H ) :   0.9007 B(  6-C ,  7-H ) :   0.8697 B(  6-C ,  8-C ) :   0.8824
B(  6-C , 13-S ) :   1.0234 B(  8-C ,  9-O ) :   2.0282 B(  8-C , 10-O ) :   1.2433
B( 10-O , 11-C ) :   0.9099 B( 11-C , 12-C ) :   1.1633 B( 11-C , 27-H ) :   0.9141
B( 11-C , 28-H ) :   0.9337 B( 12-C , 29-H ) :   0.9471 B( 12-C , 30-H ) :   0.9425
B( 12-C , 31-H ) :   0.9428 B( 13-S , 14-P ) :   0.9614 B( 13-S , 15-S ) :   0.1134
B( 14-P , 15-S ) :   1.6826 B( 14-P , 16-O ) :   1.0766 B( 14-P , 18-O ) :   1.1071
B( 16-O , 17-C ) :   0.9273 B( 17-C , 32-H ) :   0.9586 B( 17-C , 33-H ) :   0.9501
B( 17-C , 34-H ) :   0.9334 B( 18-O , 19-C ) :   0.9028 B( 19-C , 35-H ) :   0.9580
B( 19-C , 36-H ) :   0.9312 B( 19-C , 37-H ) :   0.9417

Dispersion correction           -0.051913107
FINAL SINGLE POINT ENERGY     -1979.019638703119

DIPOLE MOMENT
-------------

Method             : SCF
Type of density    : Electron Density
Multiplicity       :   1
Irrep              :   0
Energy             : -1979.1516376063573261 Eh
Relativity type    :
Basis              : AO
                                X                 Y                 Z
Electronic contribution:    -13.715634238       4.108298440      -3.122458045
Nuclear contribution   :     13.944242976      -5.243269700       2.788265120
                        -----------------------------------------
Total Dipole Moment    :      0.228608738      -1.134971260      -0.334192926
                        -----------------------------------------
Magnitude (a.u.)       :      1.205033870
Magnitude (Debye)      :      3.062952680

Rotational constants in cm-1:             0.016553             0.005577             0.004933
Rotational constants in MHz :           496.257911           167.182331           147.883256

                             ****ORCA TERMINATED NORMALLY****
TOTAL RUN TIME: 0 days 0 hours 0 minutes 37 seconds 322 msec
