                         Program Version 6.0.0  -   RELEASE  -
|  1> ! pbe def2-sv(p) def2/J RI DEFGRID1 loosescf d4 GCP(DFT/SV(P)) printgap
|  2> %output
|  3>     printlevel normal
|  4> end
|  5> * xyz 0 1
|  6> C 5.3194420164 -2.0132958604 -1.6199489531
|  7> C 4.2158400687 -0.9751404731 -1.6396061709
|  8> O 3.2876832672 -1.294520115 -0.5830357904
|  9> P 2.2538529679 -0.2222296587 -0.0357511532
| 10> S 3.0180823674 1.5300066683 0.4162596354
| 11> O 1.5612660524 -1.0164832693 1.1461243078
| 12> C 2.0081936413 -0.8891605848 2.5127209101
| 13> C 3.3715327322 -1.5160504402 2.7106489327
| 14> S 0.7283050206 -0.2297770715 -1.4945123983
| 15> C -0.0715575208 1.309910231 -0.9609380643
| 16> S -0.840219423 1.1802702889 0.6732618885
| 17> P -2.6914694774 0.2795084034 0.0934218525
| 18> S -3.1539881932 0.4502074834 -1.8091576936
| 19> O -3.7622373102 0.874581032 1.0913514235
| 20> C -4.5348283771 2.0430867466 0.7651113122
| 21> C -3.6914311563 3.302684361 0.7700420619
| 22> O -2.6844028231 -1.1629656441 0.7467352149
| 23> C -1.7099611996 -2.1918674179 0.5086394391
| 24> C -1.8482583949 -2.8116508792 -0.8682513884
| 25> H 4.896165527 -3.0048789415 -1.7503267654
| 26> H 6.0140003497 -1.8090576317 -2.4281431912
| 27> H 5.8513405659 -1.9785506021 -0.6734606304
| 28> H 3.6714997847 -0.9887718532 -2.587728155
| 29> H 4.608325413 0.0327783442 -1.4667539636
| 30> H 2.0247350988 0.1739861528 2.7733809674
| 31> H 1.2362142941 -1.3987679226 3.090641245
| 32> H 3.6347359856 -1.48406849 3.7632585055
| 33> H 3.363855154 -2.5472795372 2.3678145916
| 34> H 4.1167171382 -0.9609137492 2.1419544824
| 35> H -0.8344670373 1.5351731881 -1.7075745618
| 36> H 0.6768773806 2.0986229285 -0.8950083363
| 37> H -4.9983361766 1.8938400505 -0.2156135276
| 38> H -5.3044697889 2.0714115604 1.5375186519
| 39> H -3.1452425068 3.3875710444 1.7061203742
| 40> H -2.977907445 3.2771594941 -0.0524982117
| 41> H -4.3359879382 4.1673084853 0.6485520435
| 42> H -0.705435695 -1.7809072353 0.6519924801
| 43> H -1.9153399355 -2.923597288 1.2925498438
| 44> H -1.6106670391 -2.0839731236 -1.642301066
| 45> H -1.1612299862 -3.647491982 -0.9532643192
| 46> H -2.8657470183 -3.1624432819 -1.0203153883
| 47> *
| 48>
| 49>                          ****END OF INPUT****

CARTESIAN COORDINATES (ANGSTROEM)
---------------------------------
  C      5.319442   -2.013296   -1.619949
  C      4.215840   -0.975140   -1.639606
  O      3.287683   -1.294520   -0.583036
  P      2.253853   -0.222230   -0.035751
  S      3.018082    1.530007    0.416260
  O      1.561266   -1.016483    1.146124
  C      2.008194   -0.889161    2.512721
  C      3.371533   -1.516050    2.710649
  S      0.728305   -0.229777   -1.494512
  C     -0.071558    1.309910   -0.960938
  S     -0.840219    1.180270    0.673262
  P     -2.691469    0.279508    0.093422
  S     -3.153988    0.450207   -1.809158
  O     -3.762237    0.874581    1.091351
  C     -4.534828    2.043087    0.765111
  C     -3.691431    3.302684    0.770042
  O     -2.684403   -1.162966    0.746735
  C     -1.709961   -2.191867    0.508639
  C     -1.848258   -2.811651   -0.868251
  H      4.896166   -3.004879   -1.750327
  H      6.014000   -1.809058   -2.428143
  H      5.851341   -1.978551   -0.673461
  H      3.671500   -0.988772   -2.587728
  H      4.608325    0.032778   -1.466754
  H      2.024735    0.173986    2.773381
  H      1.236214   -1.398768    3.090641
  H      3.634736   -1.484068    3.763259
  H      3.363855   -2.547280    2.367815
  H      4.116717   -0.960914    2.141954
  H     -0.834467    1.535173   -1.707575
  H      0.676877    2.098623   -0.895008
  H     -4.998336    1.893840   -0.215614
  H     -5.304470    2.071412    1.537519
  H     -3.145243    3.387571    1.706120
  H     -2.977907    3.277159   -0.052498
  H     -4.335988    4.167308    0.648552
  H     -0.705436   -1.780907    0.651992
  H     -1.915340   -2.923597    1.292550
  H     -1.610667   -2.083973   -1.642301
  H     -1.161230   -3.647492   -0.953264
  H     -2.865747   -3.162443   -1.020315

 Total Charge           Charge          ....    0
 Multiplicity           Mult            ....    1
 Number of Electrons    NEL             ....  202
 Basis Dimension        Dim             ....  334

ORBITAL ENERGIES
----------------

  NO   OCC          E(Eh)            E(eV)
   0   2.0000     -88.046456     -2395.8659
   1   2.0000     -88.043223     -2395.7779
   2   2.0000     -87.994462     -2394.4510
   3   2.0000     -87.990157     -2394.3339
   4   2.0000     -76.431782     -2079.8145
   5   2.0000     -76.426569     -2079.6727
   6   2.0000     -18.800501      -511.5876
   7   2.0000     -18.798308      -511.5280
   8   2.0000     -18.789394      -511.2854
   9   2.0000     -18.786612      -511.2097
  10   2.0000      -9.958399      -270.9818
  11   2.0000      -9.955958      -270.9154
  12   2.0000      -9.953635      -270.8522
  13   2.0000      -9.949980      -270.7527
  14   2.0000      -9.945795      -270.6388
  15   2.0000      -9.893220      -269.2082
  16   2.0000      -9.888172      -269.0709
  17   2.0000      -9.881874      -268.8995
  18   2.0000      -9.873762      -268.6787
  19   2.0000      -7.691541      -209.2975
  20   2.0000      -7.687853      -209.1971
  21   2.0000      -7.639355      -207.8774
  22   2.0000      -7.635038      -207.7599
  23   2.0000      -6.429610      -174.9586
  24   2.0000      -6.423788      -174.8001
  25   2.0000      -5.719301      -155.6301
  26   2.0000      -5.716124      -155.5436
  27   2.0000      -5.715692      -155.5319
  28   2.0000      -5.712370      -155.4415
  29   2.0000      -5.708539      -155.3372
  30   2.0000      -5.704939      -155.2393
  31   2.0000      -5.668115      -154.2373
  32   2.0000      -5.663801      -154.1199
  33   2.0000      -5.659985      -154.0160
  34   2.0000      -5.659700      -154.0083
  35   2.0000      -5.655630      -153.8975
  36   2.0000      -5.655398      -153.8912
  37   2.0000      -4.651999      -126.5873
  38   2.0000      -4.651401      -126.5710
  39   2.0000      -4.650139      -126.5367
  40   2.0000      -4.646020      -126.4246
  41   2.0000      -4.645858      -126.4202
  42   2.0000      -4.644277      -126.3772
  43   2.0000      -0.994343       -27.0575
  44   2.0000      -0.986994       -26.8575
  45   2.0000      -0.953437       -25.9443
  46   2.0000      -0.941713       -25.6253
  47   2.0000      -0.765621       -20.8336
  48   2.0000      -0.724220       -19.7070
  49   2.0000      -0.710884       -19.3441
  50   2.0000      -0.693808       -18.8795
  51   2.0000      -0.680084       -18.5060
  52   2.0000      -0.675841       -18.3906
  53   2.0000      -0.653303       -17.7773
  54   2.0000      -0.641419       -17.4539
  55   2.0000      -0.604548       -16.4506
  56   2.0000      -0.596486       -16.2312
  57   2.0000      -0.571465       -15.5504
  58   2.0000      -0.567160       -15.4332
  59   2.0000      -0.562266       -15.3000
  60   2.0000      -0.509825       -13.8730
  61   2.0000      -0.492910       -13.4128
  62   2.0000      -0.483001       -13.1431
  63   2.0000      -0.465978       -12.6799
  64   2.0000      -0.460624       -12.5342
  65   2.0000      -0.447128       -12.1670
  66   2.0000      -0.440848       -11.9961
  67   2.0000      -0.434753       -11.8302
  68   2.0000      -0.422341       -11.4925
  69   2.0000      -0.417365       -11.3571
  70   2.0000      -0.410553       -11.1717
  71   2.0000      -0.404896       -11.0178
  72   2.0000      -0.398674       -10.8485
  73   2.0000      -0.386374       -10.5138
  74   2.0000      -0.381167       -10.3721
  75   2.0000      -0.377501       -10.2723
  76   2.0000      -0.370236       -10.0746
  77   2.0000      -0.362399        -9.8614
  78   2.0000      -0.358079        -9.7438
  79   2.0000      -0.352509        -9.5923
  80   2.0000      -0.349355        -9.5064
  81   2.0000      -0.345014        -9.3883
  82   2.0000      -0.339432        -9.2364
  83   2.0000      -0.337328        -9.1792
  84   2.0000      -0.331729        -9.0268
  85   2.0000      -0.321558        -8.7500
  86   2.0000      -0.311956        -8.4888
  87   2.0000      -0.305966        -8.3258
  88   2.0000      -0.296390        -8.0652
  89   2.0000      -0.291476        -7.9315
  90   2.0000      -0.284933        -7.7534
  91   2.0000      -0.280423        -7.6307
  92   2.0000      -0.268045        -7.2939
  93   2.0000      -0.267160        -7.2698
  94   2.0000      -0.257994        -7.0204
  95   2.0000      -0.239433        -6.5153
  96   2.0000      -0.219615        -5.9760
  97   2.0000      -0.217561        -5.9201
  98   2.0000      -0.208411        -5.6712
  99   2.0000      -0.206800        -5.6273
 100   2.0000      -0.203674        -5.5423
 101   0.0000      -0.048184        -1.3111
 102   0.0000      -0.029297        -0.7972
 103   0.0000      -0.005531        -0.1505
 104   0.0000      -0.001649        -0.0449
 105   0.0000       0.012034         0.3274

MULLIKEN ATOMIC CHARGES
-----------------------
   0 C :   -0.281464
   1 C :   -0.014330
   2 O :   -0.374886
   3 P :    0.614882
   4 S :   -0.331841
   5 O :   -0.355797
   6 C :   -0.001773
   7 C :   -0.308678
   8 S :   -0.086182
   9 C :   -0.364277
  10 S :   -0.093788
  11 P :    0.604926
  12 S :   -0.331774
  13 O :   -0.357039
  14 C :   -0.004461
  15 C :   -0.309554
  16 O :   -0.352559
  17 C :   -0.042162
  18 C :   -0.305588
  19 H :    0.118356
  20 H :    0.114655
  21 H :    0.120127
  22 H :    0.106067
  23 H :    0.108283
  24 H :    0.115992
  25 H :    0.106825
  26 H :    0.114697
  27 H :    0.116978
  28 H :    0.123822
  29 H :    0.193887
  30 H :    0.194816
  31 H :    0.113966
  32 H :    0.106813
  33 H :    0.118245
  34 H :    0.120429
  35 H :    0.111730
  36 H :    0.139286
  37 H :    0.100984
  38 H :    0.132137
  39 H :    0.103979
  40 H :    0.114270
Sum of atomic charges:    0.0000000

LOEWDIN ATOMIC CHARGES
----------------------
   0 C :   -0.349968
   1 C :   -0.120102
   2 O :   -0.246184
   3 P :    0.569797
   4 S :   -0.319484
   5 O :   -0.233985
   6 C :   -0.116075
   7 C :   -0.364943
   8 S :    0.093516
   9 C :   -0.487160
  10 S :    0.081903
  11 P :    0.572446
  12 S :   -0.309306
  13 O :   -0.233744
  14 C :   -0.119055
  15 C :   -0.367694
  16 O :   -0.231710
  17 C :   -0.124917
  18 C :   -0.367480
  19 H :    0.127852
  20 H :    0.132265
  21 H :    0.128240
  22 H :    0.111628
  23 H :    0.109454
  24 H :    0.112551
  25 H :    0.119282
  26 H :    0.131747
  27 H :    0.126492
  28 H :    0.122124
  29 H :    0.126228
  30 H :    0.130102
  31 H :    0.110499
  32 H :    0.119653
  33 H :    0.125186
  34 H :    0.119281
  35 H :    0.130142
  36 H :    0.105434
  37 H :    0.117605
  38 H :    0.115269
  39 H :    0.127627
  40 H :    0.125484

  Mayer bond orders larger than 0.100000
B(  0-C ,  1-C ) :   1.1613 B(  0-C , 19-H ) :   0.9502 B(  0-C , 20-H ) :   0.9415
B(  0-C , 21-H ) :   0.9514 B(  1-C ,  2-O ) :   0.9007 B(  1-C , 22-H ) :   0.9289
B(  1-C , 23-H ) :   0.9103 B(  2-O ,  3-P ) :   1.1122 B(  3-P ,  4-S ) :   1.6038
B(  3-P ,  5-O ) :   1.1220 B(  3-P ,  8-S ) :   0.9679 B(  4-S ,  8-S ) :   0.1087
B(  5-O ,  6-C ) :   0.8969 B(  6-C ,  7-C ) :   1.1642 B(  6-C , 24-H ) :   0.9169
B(  6-C , 25-H ) :   0.9336 B(  7-C , 26-H ) :   0.9388 B(  7-C , 27-H ) :   0.9459
B(  7-C , 28-H ) :   0.9350 B(  8-S ,  9-C ) :   0.9991 B(  9-C , 10-S ) :   1.0129
B(  9-C , 29-H ) :   0.8637 B(  9-C , 30-H ) :   0.8759 B( 10-S , 11-P ) :   0.9301
B( 10-S , 12-S ) :   0.1206 B( 11-P , 12-S ) :   1.5954 B( 11-P , 13-O ) :   1.1329
B( 11-P , 16-O ) :   1.1398 B( 13-O , 14-C ) :   0.9119 B( 14-C , 15-C ) :   1.1634
B( 14-C , 31-H ) :   0.9147 B( 14-C , 32-H ) :   0.9339 B( 15-C , 33-H ) :   0.9448
B( 15-C , 34-H ) :   0.9383 B( 15-C , 35-H ) :   0.9385 B( 16-O , 17-C ) :   0.9120
B( 17-C , 18-C ) :   1.1636 B( 17-C , 36-H ) :   0.8969 B( 17-C , 37-H ) :   0.9347
B( 18-C , 38-H ) :   0.9306 B( 18-C , 39-H ) :   0.9387 B( 18-C , 40-H ) :   0.9452

Dispersion correction           -0.064824354
FINAL SINGLE POINT ENERGY     -2929.528298252435

DIPOLE MOMENT
-------------

Method             : SCF
Type of density    : Electron Density
Multiplicity       :   1
Irrep              :   0
Energy             : -2929.6478825498129481 Eh
Relativity type    :
Basis              : AO
                                X                 Y                 Z
Electronic contribution:     -9.231120622       8.171045619      -3.857246794
Nuclear contribution   :      9.981062103      -8.742694856       4.345699037
                        -----------------------------------------
Total Dipole Moment    :      0.749941481      -0.571649237       0.488452243
                        -----------------------------------------
Magnitude (a.u.)       :      1.061970183
Magnitude (Debye)      :      2.699313687

Rotational constants in cm-1:             0.013594             0.004445             0.004302
Rotational constants in MHz :           407.522944           133.271936           128.982288

                             ****ORCA TERMINATED NORMALLY****
TOTAL RUN TIME: 0 days 0 hours 0 minutes 20 seconds 881 msec
