                         Program Version 6.0.0  -   RELEASE  -
|  1> ! r2scan-3c def2/J RI DEFGRID2 scfconv6 printgap
|  2> %output
|  3>     printlevel normal
|  4> end
|  5> * xyz 0 1
|  6> C -0.5167389954 -0.0003212992 -0.5533712145
|  7> C 0.5167348929 0.0003402195 0.5533559201
|  8> Cl 2.1533690226 -0.0002201265 -0.1815052011
|  9> Cl -2.1533686177 0.0002149701 0.1815098044
| 10> H -0.4443550878 -0.8947834004 -1.1697782746
| 11> H -0.4442940293 0.8932152779 -1.1709945975
| 12> H 0.4444072112 0.8947485288 1.1698035046
| 13> H 0.4442765508 -0.8932244944 1.1709896996
| 14> *
| 15>
| 16>                          ****END OF INPUT****

CARTESIAN COORDINATES (ANGSTROEM)
---------------------------------
  C     -0.516739   -0.000321   -0.553371
  C      0.516735    0.000340    0.553356
  Cl     2.153369   -0.000220   -0.181505
  Cl    -2.153369    0.000215    0.181510
  H     -0.444355   -0.894783   -1.169778
  H     -0.444294    0.893215   -1.170995
  H      0.444407    0.894749    1.169804
  H      0.444277   -0.893224    1.170990

 Total Charge           Charge          ....    0
 Multiplicity           Mult            ....    1
 Number of Electrons    NEL             ....   50
 Basis Dimension        Dim             ....  112

ORBITAL ENERGIES
----------------

  NO   OCC          E(Eh)            E(eV)
   0   2.0000    -101.218015     -2754.2822
   1   2.0000    -101.218011     -2754.2821
   2   2.0000     -10.113551      -275.2037
   3   2.0000     -10.113408      -275.1998
   4   2.0000      -9.373859      -255.0757
   5   2.0000      -9.373854      -255.0755
   6   2.0000      -7.120232      -193.7514
   7   2.0000      -7.120231      -193.7513
   8   2.0000      -7.109924      -193.4709
   9   2.0000      -7.109923      -193.4709
  10   2.0000      -7.109735      -193.4657
  11   2.0000      -7.109734      -193.4657
  12   2.0000      -0.856639       -23.3103
  13   2.0000      -0.813532       -22.1373
  14   2.0000      -0.693112       -18.8605
  15   2.0000      -0.601886       -16.3782
  16   2.0000      -0.480143       -13.0654
  17   2.0000      -0.437922       -11.9165
  18   2.0000      -0.422675       -11.5016
  19   2.0000      -0.389423       -10.5967
  20   2.0000      -0.374947       -10.2028
  21   2.0000      -0.294825        -8.0226
  22   2.0000      -0.283238        -7.7073
  23   2.0000      -0.280218        -7.6251
  24   2.0000      -0.278855        -7.5880
  25   0.0000      -0.025437        -0.6922
  26   0.0000       0.013866         0.3773
  27   0.0000       0.095142         2.5890
  28   0.0000       0.096721         2.6319
  29   0.0000       0.130526         3.5518

MULLIKEN ATOMIC CHARGES
-----------------------
   0 C :   -0.161818
   1 C :   -0.161827
   2 Cl:   -0.182257
   3 Cl:   -0.182255
   4 H :    0.172035
   5 H :    0.172044
   6 H :    0.172038
   7 H :    0.172041
Sum of atomic charges:   -0.0000000

LOEWDIN ATOMIC CHARGES
----------------------
   0 C :   -0.345047
   1 C :   -0.345052
   2 Cl:    0.016669
   3 Cl:    0.016671
   4 H :    0.164195
   5 H :    0.164186
   6 H :    0.164189
   7 H :    0.164189

  Mayer bond orders larger than 0.100000
B(  0-C ,  1-C ) :   0.9536 B(  0-C ,  3-Cl) :   0.9614 B(  0-C ,  4-H ) :   0.9510
B(  0-C ,  5-H ) :   0.9510 B(  1-C ,  2-Cl) :   0.9614 B(  1-C ,  6-H ) :   0.9510
B(  1-C ,  7-H ) :   0.9510

Dispersion correction           -0.001826602
FINAL SINGLE POINT ENERGY      -998.948779571713

DIPOLE MOMENT
-------------

Method             : SCF
Type of density    : Electron Density
Multiplicity       :   1
Irrep              :   0
Energy             :  -998.9554153942685844 Eh
Relativity type    :
Basis              : AO
                                X                 Y                 Z
Electronic contribution:     -0.000035427       0.000039843      -0.000011024
Nuclear contribution   :      0.000031960      -0.000034441       0.000012897
                        -----------------------------------------
Total Dipole Moment    :     -0.000003467       0.000005401       0.000001873
                        -----------------------------------------
Magnitude (a.u.)       :      0.000006686
Magnitude (Debye)      :      0.000016995

Rotational constants in cm-1:             0.971881             0.049535             0.047998
Rotational constants in MHz :         29136.251817          1485.031230          1438.941382

                             ****ORCA TERMINATED NORMALLY****
TOTAL RUN TIME: 0 days 0 hours 0 minutes 36 seconds 797 msec
