                         Program Version 6.0.0  -   RELEASE  -
|  1> ! r2scan-3c def2/J RI DEFGRID2 scfconv6 printgap
|  2> %output
|  3>     printlevel normal
|  4> end
|  5> %cpcm
|  6>     smd true
|  7>     smdsolvent "water"
|  8> end
|  9> * xyz 0 1
| 10> C -0.5167389954 -0.0003212992 -0.5533712145
| 11> C 0.5167348929 0.0003402195 0.5533559201
| 12> Cl 2.1533690226 -0.0002201265 -0.1815052011
| 13> Cl -2.1533686177 0.0002149701 0.1815098044
| 14> H -0.4443550878 -0.8947834004 -1.1697782746
| 15> H -0.4442940293 0.8932152779 -1.1709945975
| 16> H 0.4444072112 0.8947485288 1.1698035046
| 17> H 0.4442765508 -0.8932244944 1.1709896996
| 18> *
| 19>
| 20>                          ****END OF INPUT****

CARTESIAN COORDINATES (ANGSTROEM)
---------------------------------
  C     -0.516739   -0.000321   -0.553371
  C      0.516735    0.000340    0.553356
  Cl     2.153369   -0.000220   -0.181505
  Cl    -2.153369    0.000215    0.181510
  H     -0.444355   -0.894783   -1.169778
  H     -0.444294    0.893215   -1.170995
  H      0.444407    0.894749    1.169804
  H      0.444277   -0.893224    1.170990

 Total Charge           Charge          ....    0
 Multiplicity           Mult            ....    1
 Number of Electrons    NEL             ....   50
 Basis Dimension        Dim             ....  112

ORBITAL ENERGIES
----------------

  NO   OCC          E(Eh)            E(eV)
   0   2.0000    -101.211068     -2754.0932
   1   2.0000    -101.211064     -2754.0931
   2   2.0000     -10.096656      -274.7440
   3   2.0000     -10.096512      -274.7401
   4   2.0000      -9.367171      -254.8937
   5   2.0000      -9.367166      -254.8935
   6   2.0000      -7.113259      -193.5616
   7   2.0000      -7.113258      -193.5616
   8   2.0000      -7.103354      -193.2921
   9   2.0000      -7.103353      -193.2921
  10   2.0000      -7.103171      -193.2871
  11   2.0000      -7.103171      -193.2871
  12   2.0000      -0.845061       -22.9953
  13   2.0000      -0.805600       -21.9215
  14   2.0000      -0.681210       -18.5367
  15   2.0000      -0.584762       -15.9122
  16   2.0000      -0.461102       -12.5472
  17   2.0000      -0.427791       -11.6408
  18   2.0000      -0.407347       -11.0845
  19   2.0000      -0.371705       -10.1146
  20   2.0000      -0.364152        -9.9091
  21   2.0000      -0.289265        -7.8713
  22   2.0000      -0.274595        -7.4721
  23   2.0000      -0.274035        -7.4569
  24   2.0000      -0.272094        -7.4041
  25   0.0000      -0.016530        -0.4498
  26   0.0000       0.025487         0.6935
  27   0.0000       0.112818         3.0699
  28   0.0000       0.114324         3.1109
  29   0.0000       0.154555         4.2057

MULLIKEN ATOMIC CHARGES
-----------------------
   0 C :   -0.172595
   1 C :   -0.172602
   2 Cl:   -0.221713
   3 Cl:   -0.221711
   4 H :    0.197151
   5 H :    0.197161
   6 H :    0.197153
   7 H :    0.197157
Sum of atomic charges:   -0.0000000

LOEWDIN ATOMIC CHARGES
----------------------
   0 C :   -0.339804
   1 C :   -0.339808
   2 Cl:   -0.006871
   3 Cl:   -0.006870
   4 H :    0.173344
   5 H :    0.173334
   6 H :    0.173338
   7 H :    0.173337

  Mayer bond orders larger than 0.100000
B(  0-C ,  1-C ) :   0.9406 B(  0-C ,  3-Cl) :   0.9342 B(  0-C ,  4-H ) :   0.9458
B(  0-C ,  5-H ) :   0.9458 B(  1-C ,  2-Cl) :   0.9342 B(  1-C ,  6-H ) :   0.9458
B(  1-C ,  7-H ) :   0.9458

Dispersion correction           -0.001826602
FINAL SINGLE POINT ENERGY      -998.953049386019

DIPOLE MOMENT
-------------

Method             : SCF
Type of density    : Electron Density
Multiplicity       :   1
Irrep              :   0
Energy             :  -998.9596852085750243 Eh
Relativity type    :
Basis              : AO
                                X                 Y                 Z
Electronic contribution:     -0.000034534       0.000038829      -0.000010670
Nuclear contribution   :      0.000031960      -0.000034441       0.000012897
                        -----------------------------------------
Total Dipole Moment    :     -0.000002574       0.000004388       0.000002227
                        -----------------------------------------
Magnitude (a.u.)       :      0.000005553
Magnitude (Debye)      :      0.000014115

Rotational constants in cm-1:             0.971881             0.049535             0.047998
Rotational constants in MHz :         29136.251817          1485.031230          1438.941382

                             ****ORCA TERMINATED NORMALLY****
TOTAL RUN TIME: 0 days 0 hours 0 minutes 36 seconds 469 msec
