                         Program Version 6.0.0  -   RELEASE  -
|  1> ! pbe def2-sv(p) def2/J RI DEFGRID1 loosescf d4 GCP(DFT/SV(P)) printgap
|  2> %output
|  3>     printlevel normal
|  4> end
|  5> * xyz 0 1
|  6> C 4.4350437704 1.1902585496 -1.8325814338
|  7> C 4.6267963683 0.3269091874 -0.6038788992
|  8> O 3.5535110319 0.4594112073 0.3477044112
|  9> P 2.0108109343 0.2585571309 0.0260976086
| 10> S 1.0698842323 1.7294056967 -0.8557881605
| 11> O 1.4074733346 0.0157357857 1.4612384111
| 12> C 1.8983171785 -0.9941942447 2.3789513942
| 13> C 2.8032080389 -0.3701470059 3.4209615248
| 14> S 2.0076664808 -1.6187719758 -0.9829343243
| 15> C 0.2611669036 -1.6746918224 -1.4253110997
| 16> S -0.8304011749 -1.8696831783 0.0225682016
| 17> P -1.9723303455 -0.1044373139 -0.1066718756
| 18> S -2.1722817315 0.5922528632 -1.9347595942
| 19> O -1.3222073931 0.7683879471 1.0376547965
| 20> C -1.9713849577 1.8692772245 1.7098020586
| 21> C -2.4120204314 2.9526757468 0.7488037147
| 22> O -3.3512395289 -0.5093874384 0.575302795
| 23> C -4.4005058659 -1.1848450522 -0.1455128296
| 24> C -5.7277302561 -0.7988258216 0.4763448119
| 25> H 5.3094752712 1.1098353628 -2.4701535307
| 26> H 3.5581754887 0.8633584407 -2.389892927
| 27> H 4.2895986766 2.2298193371 -1.5480294004
| 28> H 5.5092549574 0.6312043884 -0.0382411447
| 29> H 4.706289768 -0.727735898 -0.881111082
| 30> H 0.9974034946 -1.4173762783 2.8283064186
| 31> H 2.4215062781 -1.7688013959 1.8109646214
| 32> H 3.6780673509 0.0658752841 2.9459910402
| 33> H 2.2720693175 0.4107469755 3.9580225774
| 34> H 3.1180502951 -1.1374729661 4.1212178732
| 35> H 0.1392551634 -2.5486229482 -2.0600157794
| 36> H -0.0244363305 -0.7602144047 -1.9542145766
| 37> H -2.8184184295 1.4707456163 2.2728521708
| 38> H -1.2013821079 2.2326595554 2.3927717545
| 39> H -3.1889296133 2.57481665 0.0849675424
| 40> H -2.7994708713 3.799041808 1.3069490633
| 41> H -1.5693447521 3.2762677289 0.1396656423
| 42> H -4.348662795 -0.8862580581 -1.1981818592
| 43> H -4.2195910322 -2.2593816862 -0.0660938778
| 44> H -5.7347378071 -1.0614854103 1.5302742122
| 45> H -5.8930222441 0.2705642377 0.3770780301
| 46> H -6.5247017991 -1.3309484506 -0.0323805019
| 47> *
| 48>
| 49>                          ****END OF INPUT****

CARTESIAN COORDINATES (ANGSTROEM)
---------------------------------
  C      4.435044    1.190259   -1.832581
  C      4.626796    0.326909   -0.603879
  O      3.553511    0.459411    0.347704
  P      2.010811    0.258557    0.026098
  S      1.069884    1.729406   -0.855788
  O      1.407473    0.015736    1.461238
  C      1.898317   -0.994194    2.378951
  C      2.803208   -0.370147    3.420962
  S      2.007666   -1.618772   -0.982934
  C      0.261167   -1.674692   -1.425311
  S     -0.830401   -1.869683    0.022568
  P     -1.972330   -0.104437   -0.106672
  S     -2.172282    0.592253   -1.934760
  O     -1.322207    0.768388    1.037655
  C     -1.971385    1.869277    1.709802
  C     -2.412020    2.952676    0.748804
  O     -3.351240   -0.509387    0.575303
  C     -4.400506   -1.184845   -0.145513
  C     -5.727730   -0.798826    0.476345
  H      5.309475    1.109835   -2.470154
  H      3.558175    0.863358   -2.389893
  H      4.289599    2.229819   -1.548029
  H      5.509255    0.631204   -0.038241
  H      4.706290   -0.727736   -0.881111
  H      0.997403   -1.417376    2.828306
  H      2.421506   -1.768801    1.810965
  H      3.678067    0.065875    2.945991
  H      2.272069    0.410747    3.958023
  H      3.118050   -1.137473    4.121218
  H      0.139255   -2.548623   -2.060016
  H     -0.024436   -0.760214   -1.954215
  H     -2.818418    1.470746    2.272852
  H     -1.201382    2.232660    2.392772
  H     -3.188930    2.574817    0.084968
  H     -2.799471    3.799042    1.306949
  H     -1.569345    3.276268    0.139666
  H     -4.348663   -0.886258   -1.198182
  H     -4.219591   -2.259382   -0.066094
  H     -5.734738   -1.061485    1.530274
  H     -5.893022    0.270564    0.377078
  H     -6.524702   -1.330948   -0.032381

 Total Charge           Charge          ....    0
 Multiplicity           Mult            ....    1
 Number of Electrons    NEL             ....  202
 Basis Dimension        Dim             ....  334

ORBITAL ENERGIES
----------------

  NO   OCC          E(Eh)            E(eV)
   0   2.0000     -88.042582     -2395.7605
   1   2.0000     -88.037693     -2395.6274
   2   2.0000     -87.977914     -2394.0008
   3   2.0000     -87.974128     -2393.8977
   4   2.0000     -76.420811     -2079.5160
   5   2.0000     -76.420209     -2079.4996
   6   2.0000     -18.792796      -511.3780
   7   2.0000     -18.790187      -511.3070
   8   2.0000     -18.783828      -511.1339
   9   2.0000     -18.778652      -510.9931
  10   2.0000      -9.958172      -270.9756
  11   2.0000      -9.952219      -270.8137
  12   2.0000      -9.949143      -270.7299
  13   2.0000      -9.948280      -270.7065
  14   2.0000      -9.946128      -270.6479
  15   2.0000      -9.886781      -269.0330
  16   2.0000      -9.883463      -268.9427
  17   2.0000      -9.880895      -268.8728
  18   2.0000      -9.872699      -268.6498
  19   2.0000      -7.687613      -209.1906
  20   2.0000      -7.683020      -209.0656
  21   2.0000      -7.622890      -207.4294
  22   2.0000      -7.619257      -207.3305
  23   2.0000      -6.417967      -174.6418
  24   2.0000      -6.417474      -174.6284
  25   2.0000      -5.715333      -155.5221
  26   2.0000      -5.711900      -155.4287
  27   2.0000      -5.710882      -155.4010
  28   2.0000      -5.707516      -155.3094
  29   2.0000      -5.704992      -155.2407
  30   2.0000      -5.699950      -155.1035
  31   2.0000      -5.651773      -153.7926
  32   2.0000      -5.648378      -153.7002
  33   2.0000      -5.643700      -153.5729
  34   2.0000      -5.642882      -153.5506
  35   2.0000      -5.639789      -153.4665
  36   2.0000      -5.639252      -153.4519
  37   2.0000      -4.640828      -126.2833
  38   2.0000      -4.640289      -126.2687
  39   2.0000      -4.640105      -126.2637
  40   2.0000      -4.639016      -126.2340
  41   2.0000      -4.637949      -126.2050
  42   2.0000      -4.637851      -126.2023
  43   2.0000      -0.984888       -26.8002
  44   2.0000      -0.981350       -26.7039
  45   2.0000      -0.940916       -25.6036
  46   2.0000      -0.936232       -25.4762
  47   2.0000      -0.760084       -20.6829
  48   2.0000      -0.717840       -19.5334
  49   2.0000      -0.707621       -19.2554
  50   2.0000      -0.688605       -18.7379
  51   2.0000      -0.684472       -18.6254
  52   2.0000      -0.670887       -18.2558
  53   2.0000      -0.646564       -17.5939
  54   2.0000      -0.629406       -17.1270
  55   2.0000      -0.589869       -16.0511
  56   2.0000      -0.584694       -15.9103
  57   2.0000      -0.570777       -15.5316
  58   2.0000      -0.567644       -15.4464
  59   2.0000      -0.563084       -15.3223
  60   2.0000      -0.502884       -13.6842
  61   2.0000      -0.495860       -13.4930
  62   2.0000      -0.471510       -12.8304
  63   2.0000      -0.465951       -12.6792
  64   2.0000      -0.450115       -12.2483
  65   2.0000      -0.444876       -12.1057
  66   2.0000      -0.434616       -11.8265
  67   2.0000      -0.434273       -11.8172
  68   2.0000      -0.428998       -11.6736
  69   2.0000      -0.408382       -11.1126
  70   2.0000      -0.406641       -11.0653
  71   2.0000      -0.402920       -10.9640
  72   2.0000      -0.394095       -10.7239
  73   2.0000      -0.383062       -10.4237
  74   2.0000      -0.380802       -10.3621
  75   2.0000      -0.365268        -9.9395
  76   2.0000      -0.356660        -9.7052
  77   2.0000      -0.353454        -9.6180
  78   2.0000      -0.351723        -9.5709
  79   2.0000      -0.344574        -9.3763
  80   2.0000      -0.341760        -9.2998
  81   2.0000      -0.338685        -9.2161
  82   2.0000      -0.336204        -9.1486
  83   2.0000      -0.335126        -9.1192
  84   2.0000      -0.328092        -8.9278
  85   2.0000      -0.317411        -8.6372
  86   2.0000      -0.311830        -8.4853
  87   2.0000      -0.296062        -8.0563
  88   2.0000      -0.294711        -8.0195
  89   2.0000      -0.287453        -7.8220
  90   2.0000      -0.276382        -7.5207
  91   2.0000      -0.271561        -7.3895
  92   2.0000      -0.267892        -7.2897
  93   2.0000      -0.259773        -7.0688
  94   2.0000      -0.253557        -6.8996
  95   2.0000      -0.235083        -6.3969
  96   2.0000      -0.220434        -5.9983
  97   2.0000      -0.208909        -5.6847
  98   2.0000      -0.193867        -5.2754
  99   2.0000      -0.186505        -5.0751
 100   2.0000      -0.178166        -4.8481
 101   0.0000      -0.036750        -1.0000
 102   0.0000      -0.027939        -0.7603
 103   0.0000      -0.009435        -0.2567
 104   0.0000       0.014722         0.4006
 105   0.0000       0.021370         0.5815

MULLIKEN ATOMIC CHARGES
-----------------------
   0 C :   -0.307000
   1 C :   -0.014695
   2 O :   -0.380369
   3 P :    0.582025
   4 S :   -0.286327
   5 O :   -0.339306
   6 C :   -0.007809
   7 C :   -0.283697
   8 S :   -0.121178
   9 C :   -0.349238
  10 S :   -0.104659
  11 P :    0.629019
  12 S :   -0.314536
  13 O :   -0.348617
  14 C :    0.007872
  15 C :   -0.322181
  16 O :   -0.389273
  17 C :   -0.005732
  18 C :   -0.285345
  19 H :    0.109863
  20 H :    0.128386
  21 H :    0.126806
  22 H :    0.108258
  23 H :    0.113670
  24 H :    0.107143
  25 H :    0.094898
  26 H :    0.118340
  27 H :    0.116043
  28 H :    0.106840
  29 H :    0.180860
  30 H :    0.209452
  31 H :    0.102201
  32 H :    0.105505
  33 H :    0.121879
  34 H :    0.105164
  35 H :    0.137636
  36 H :    0.104966
  37 H :    0.098933
  38 H :    0.114465
  39 H :    0.118002
  40 H :    0.111735
Sum of atomic charges:   -0.0000000

LOEWDIN ATOMIC CHARGES
----------------------
   0 C :   -0.369558
   1 C :   -0.115535
   2 O :   -0.248033
   3 P :    0.559502
   4 S :   -0.291399
   5 O :   -0.226062
   6 C :   -0.118154
   7 C :   -0.358386
   8 S :    0.060764
   9 C :   -0.479310
  10 S :    0.071628
  11 P :    0.570385
  12 S :   -0.303401
  13 O :   -0.227712
  14 C :   -0.107233
  15 C :   -0.369558
  16 O :   -0.252508
  17 C :   -0.122633
  18 C :   -0.351612
  19 H :    0.129336
  20 H :    0.122614
  21 H :    0.130672
  22 H :    0.120524
  23 H :    0.107420
  24 H :    0.117626
  25 H :    0.100586
  26 H :    0.125354
  27 H :    0.126793
  28 H :    0.127947
  29 H :    0.136755
  30 H :    0.126381
  31 H :    0.109221
  32 H :    0.120777
  33 H :    0.118603
  34 H :    0.126694
  35 H :    0.132388
  36 H :    0.105677
  37 H :    0.110558
  38 H :    0.125291
  39 H :    0.126857
  40 H :    0.130740

  Mayer bond orders larger than 0.100000
B(  0-C ,  1-C ) :   1.1674 B(  0-C , 19-H ) :   0.9345 B(  0-C , 20-H ) :   0.9315
B(  0-C , 21-H ) :   0.9427 B(  1-C ,  2-O ) :   0.9149 B(  1-C , 22-H ) :   0.9333
B(  1-C , 23-H ) :   0.9260 B(  2-O ,  3-P ) :   1.0722 B(  3-P ,  4-S ) :   1.6722
B(  3-P ,  5-O ) :   1.1397 B(  3-P ,  8-S ) :   0.9330 B(  4-S ,  8-S ) :   0.1073
B(  5-O ,  6-C ) :   0.8936 B(  6-C ,  7-C ) :   1.1628 B(  6-C , 24-H ) :   0.9320
B(  6-C , 25-H ) :   0.9112 B(  7-C , 26-H ) :   0.9432 B(  7-C , 27-H ) :   0.9478
B(  7-C , 28-H ) :   0.9409 B(  8-S ,  9-C ) :   1.0013 B(  9-C , 10-S ) :   0.9978
B(  9-C , 29-H ) :   0.9120 B(  9-C , 30-H ) :   0.8439 B( 10-S , 11-P ) :   0.9603
B( 10-S , 12-S ) :   0.1216 B( 11-P , 12-S ) :   1.6084 B( 11-P , 13-O ) :   1.1501
B( 11-P , 16-O ) :   1.0781 B( 13-O , 14-C ) :   0.9057 B( 14-C , 15-C ) :   1.1672
B( 14-C , 31-H ) :   0.9313 B( 14-C , 32-H ) :   0.9324 B( 15-C , 33-H ) :   0.9347
B( 15-C , 34-H ) :   0.9357 B( 15-C , 35-H ) :   0.9402 B( 16-O , 17-C ) :   0.9066
B( 17-C , 18-C ) :   1.1595 B( 17-C , 36-H ) :   0.9009 B( 17-C , 37-H ) :   0.9313
B( 18-C , 38-H ) :   0.9509 B( 18-C , 39-H ) :   0.9512 B( 18-C , 40-H ) :   0.9422

Dispersion correction           -0.066950913
FINAL SINGLE POINT ENERGY     -2929.513410153450

DIPOLE MOMENT
-------------

Method             : SCF
Type of density    : Electron Density
Multiplicity       :   1
Irrep              :   0
Energy             : -2929.6316524946123536 Eh
Relativity type    :
Basis              : AO
                                X                 Y                 Z
Electronic contribution:      2.523645903      -5.498656280      -9.607551827
Nuclear contribution   :     -2.212181955       4.632173128      10.673803402
                        -----------------------------------------
Total Dipole Moment    :      0.311463947      -0.866483152       1.066251575
                        -----------------------------------------
Magnitude (a.u.)       :      1.408792130
Magnitude (Debye)      :      3.580865019

Rotational constants in cm-1:             0.013207             0.005021             0.004990
Rotational constants in MHz :           395.947220           150.536252           149.591007

                             ****ORCA TERMINATED NORMALLY****
TOTAL RUN TIME: 0 days 0 hours 0 minutes 21 seconds 147 msec
