                         Program Version 6.0.0  -   RELEASE  -
|  1> ! pbe def2-sv(p) def2/J RI DEFGRID1 loosescf d4 GCP(DFT/SV(P)) printgap
|  2> %output
|  3>     printlevel normal
|  4> end
|  5> * xyz 0 1
|  6> C 1.7445591124 -1.2361728364 -2.8481286763
|  7> C 3.1747110499 -1.0400297091 -2.3898906579
|  8> O 3.3123645473 -1.1799120736 -0.9644498591
|  9> P 2.6888532848 -0.1412685217 0.0662877863
| 10> S 2.8084976021 1.7495225075 -0.4191311099
| 11> O 3.5122357729 -0.439661024 1.3788402232
| 12> C 3.6421517346 -1.7714325617 1.9489741169
| 13> C 2.8618113327 -1.8638583895 3.2452367739
| 14> S 0.7488977726 -0.9064824725 0.4655502334
| 15> C 0.1599220587 0.6040553853 1.3050048398
| 16> S -1.5940049878 0.5070033962 1.6715598668
| 17> P -2.3749888989 0.7473004024 -0.3101484413
| 18> S -1.0616678506 1.3337245722 -1.6423356336
| 19> O -3.5460886208 1.7935943654 -0.2217986175
| 20> C -4.855796838 1.5510061281 0.3509829626
| 21> C -4.7952082636 1.2627057496 1.8356634968
| 22> O -3.1791643383 -0.5981631456 -0.5795431554
| 23> C -2.5886739294 -1.9099568617 -0.6340106382
| 24> C -2.06763123 -2.2235044773 -2.0220257249
| 25> H 1.7149681171 -1.2627989108 -3.9326233505
| 26> H 1.3460126716 -2.1671617235 -2.4523022046
| 27> H 1.1235562007 -0.4072207553 -2.5072894442
| 28> H 3.5393468074 -0.0492309999 -2.6778763291
| 29> H 3.8356433401 -1.810996191 -2.7888351208
| 30> H 3.2966731086 -2.5075117725 1.220538533
| 31> H 4.712253652 -1.8968767535 2.1189972886
| 32> H 1.7933312991 -1.7906864297 3.0572699257
| 33> H 3.0713099663 -2.8197164251 3.714762167
| 34> H 3.1603385786 -1.0634074899 3.916755224
| 35> H 0.3543616283 1.4536566744 0.6455560171
| 36> H 0.6763957232 0.7195102739 2.2558318704
| 37> H -5.3910557922 2.4786926686 0.1428150916
| 38> H -5.3166316275 0.7246865791 -0.1924512306
| 39> H -4.2706508018 0.3270548206 2.0216077801
| 40> H -4.2746177046 2.0618682852 2.356922476
| 41> H -5.806725414 1.1836579616 2.2218098469
| 42> H -1.7859160605 -1.976916369 0.1074137313
| 43> H -3.4039396374 -2.5801587677 -0.3547597877
| 44> H -2.8694662209 -2.1481998416 -2.7511809827
| 45> H -1.2838794242 -1.5212721733 -2.2954474977
| 46> H -1.6629766974 -3.2300589949 -2.0329332228
| 47> *
| 48>
| 49>                          ****END OF INPUT****

CARTESIAN COORDINATES (ANGSTROEM)
---------------------------------
  C      1.744559   -1.236173   -2.848129
  C      3.174711   -1.040030   -2.389891
  O      3.312365   -1.179912   -0.964450
  P      2.688853   -0.141269    0.066288
  S      2.808498    1.749523   -0.419131
  O      3.512236   -0.439661    1.378840
  C      3.642152   -1.771433    1.948974
  C      2.861811   -1.863858    3.245237
  S      0.748898   -0.906482    0.465550
  C      0.159922    0.604055    1.305005
  S     -1.594005    0.507003    1.671560
  P     -2.374989    0.747300   -0.310148
  S     -1.061668    1.333725   -1.642336
  O     -3.546089    1.793594   -0.221799
  C     -4.855797    1.551006    0.350983
  C     -4.795208    1.262706    1.835663
  O     -3.179164   -0.598163   -0.579543
  C     -2.588674   -1.909957   -0.634011
  C     -2.067631   -2.223504   -2.022026
  H      1.714968   -1.262799   -3.932623
  H      1.346013   -2.167162   -2.452302
  H      1.123556   -0.407221   -2.507289
  H      3.539347   -0.049231   -2.677876
  H      3.835643   -1.810996   -2.788835
  H      3.296673   -2.507512    1.220539
  H      4.712254   -1.896877    2.118997
  H      1.793331   -1.790686    3.057270
  H      3.071310   -2.819716    3.714762
  H      3.160339   -1.063407    3.916755
  H      0.354362    1.453657    0.645556
  H      0.676396    0.719510    2.255832
  H     -5.391056    2.478693    0.142815
  H     -5.316632    0.724687   -0.192451
  H     -4.270651    0.327055    2.021608
  H     -4.274618    2.061868    2.356922
  H     -5.806725    1.183658    2.221810
  H     -1.785916   -1.976916    0.107414
  H     -3.403940   -2.580159   -0.354760
  H     -2.869466   -2.148200   -2.751181
  H     -1.283879   -1.521272   -2.295447
  H     -1.662977   -3.230059   -2.032933

 Total Charge           Charge          ....    0
 Multiplicity           Mult            ....    1
 Number of Electrons    NEL             ....  202
 Basis Dimension        Dim             ....  334

ORBITAL ENERGIES
----------------

  NO   OCC          E(Eh)            E(eV)
   0   2.0000     -88.048310     -2395.9163
   1   2.0000     -88.040679     -2395.7087
   2   2.0000     -87.982436     -2394.1238
   3   2.0000     -87.980866     -2394.0811
   4   2.0000     -76.427163     -2079.6888
   5   2.0000     -76.422961     -2079.5745
   6   2.0000     -18.795489      -511.4512
   7   2.0000     -18.792659      -511.3742
   8   2.0000     -18.791813      -511.3512
   9   2.0000     -18.787885      -511.2443
  10   2.0000      -9.959634      -271.0154
  11   2.0000      -9.957110      -270.9467
  12   2.0000      -9.956449      -270.9288
  13   2.0000      -9.951002      -270.7805
  14   2.0000      -9.950448      -270.7655
  15   2.0000      -9.894490      -269.2428
  16   2.0000      -9.888117      -269.0693
  17   2.0000      -9.882001      -268.9029
  18   2.0000      -9.878502      -268.8077
  19   2.0000      -7.692838      -209.3328
  20   2.0000      -7.685035      -209.1204
  21   2.0000      -7.627139      -207.5450
  22   2.0000      -7.626094      -207.5166
  23   2.0000      -6.424448      -174.8181
  24   2.0000      -6.420456      -174.7095
  25   2.0000      -5.720757      -155.6697
  26   2.0000      -5.717185      -155.5725
  27   2.0000      -5.712736      -155.4514
  28   2.0000      -5.710075      -155.3791
  29   2.0000      -5.709898      -155.3742
  30   2.0000      -5.701958      -155.1582
  31   2.0000      -5.656356      -153.9173
  32   2.0000      -5.655148      -153.8844
  33   2.0000      -5.647470      -153.6755
  34   2.0000      -5.647300      -153.6708
  35   2.0000      -5.646613      -153.6522
  36   2.0000      -5.646197      -153.6408
  37   2.0000      -4.647328      -126.4602
  38   2.0000      -4.646222      -126.4301
  39   2.0000      -4.644645      -126.3872
  40   2.0000      -4.643372      -126.3526
  41   2.0000      -4.642161      -126.3196
  42   2.0000      -4.640659      -126.2788
  43   2.0000      -0.990697       -26.9582
  44   2.0000      -0.985646       -26.8208
  45   2.0000      -0.945854       -25.7380
  46   2.0000      -0.942506       -25.6469
  47   2.0000      -0.762978       -20.7617
  48   2.0000      -0.722080       -19.6488
  49   2.0000      -0.712923       -19.3996
  50   2.0000      -0.694112       -18.8878
  51   2.0000      -0.687378       -18.7045
  52   2.0000      -0.678305       -18.4576
  53   2.0000      -0.650087       -17.6898
  54   2.0000      -0.633549       -17.2398
  55   2.0000      -0.594438       -16.1755
  56   2.0000      -0.588018       -16.0008
  57   2.0000      -0.581638       -15.8272
  58   2.0000      -0.575353       -15.6561
  59   2.0000      -0.559710       -15.2305
  60   2.0000      -0.503710       -13.7066
  61   2.0000      -0.499737       -13.5985
  62   2.0000      -0.477003       -12.9799
  63   2.0000      -0.470597       -12.8056
  64   2.0000      -0.453217       -12.3327
  65   2.0000      -0.448701       -12.2098
  66   2.0000      -0.444432       -12.0936
  67   2.0000      -0.438607       -11.9351
  68   2.0000      -0.429953       -11.6996
  69   2.0000      -0.425459       -11.5773
  70   2.0000      -0.413909       -11.2630
  71   2.0000      -0.400353       -10.8942
  72   2.0000      -0.395346       -10.7579
  73   2.0000      -0.387197       -10.5362
  74   2.0000      -0.384076       -10.4512
  75   2.0000      -0.365884        -9.9562
  76   2.0000      -0.363292        -9.8857
  77   2.0000      -0.358141        -9.7455
  78   2.0000      -0.356020        -9.6878
  79   2.0000      -0.354342        -9.6421
  80   2.0000      -0.349359        -9.5066
  81   2.0000      -0.346508        -9.4290
  82   2.0000      -0.346158        -9.4194
  83   2.0000      -0.334629        -9.1057
  84   2.0000      -0.332783        -9.0555
  85   2.0000      -0.318497        -8.6667
  86   2.0000      -0.311935        -8.4882
  87   2.0000      -0.301691        -8.2094
  88   2.0000      -0.299353        -8.1458
  89   2.0000      -0.294168        -8.0047
  90   2.0000      -0.289698        -7.8831
  91   2.0000      -0.279100        -7.5947
  92   2.0000      -0.269539        -7.3345
  93   2.0000      -0.264176        -7.1886
  94   2.0000      -0.258257        -7.0275
  95   2.0000      -0.234905        -6.3921
  96   2.0000      -0.220808        -6.0085
  97   2.0000      -0.204134        -5.5548
  98   2.0000      -0.201007        -5.4697
  99   2.0000      -0.193787        -5.2732
 100   2.0000      -0.191148        -5.2014
 101   0.0000      -0.047482        -1.2921
 102   0.0000      -0.033078        -0.9001
 103   0.0000      -0.009109        -0.2479
 104   0.0000       0.005509         0.1499
 105   0.0000       0.013861         0.3772

MULLIKEN ATOMIC CHARGES
-----------------------
   0 C :   -0.363490
   1 C :    0.013286
   2 O :   -0.380893
   3 P :    0.603750
   4 S :   -0.299763
   5 O :   -0.362428
   6 C :   -0.009493
   7 C :   -0.292398
   8 S :   -0.132014
   9 C :   -0.333570
  10 S :   -0.127692
  11 P :    0.603035
  12 S :   -0.284029
  13 O :   -0.357500
  14 C :    0.003880
  15 C :   -0.332299
  16 O :   -0.382400
  17 C :   -0.015120
  18 C :   -0.311593
  19 H :    0.113265
  20 H :    0.111726
  21 H :    0.170449
  22 H :    0.113055
  23 H :    0.101683
  24 H :    0.104812
  25 H :    0.112134
  26 H :    0.118703
  27 H :    0.109267
  28 H :    0.119900
  29 H :    0.215846
  30 H :    0.179823
  31 H :    0.113602
  32 H :    0.112204
  33 H :    0.129029
  34 H :    0.131152
  35 H :    0.118820
  36 H :    0.111194
  37 H :    0.102770
  38 H :    0.113062
  39 H :    0.151725
  40 H :    0.106506
Sum of atomic charges:    0.0000000

LOEWDIN ATOMIC CHARGES
----------------------
   0 C :   -0.376974
   1 C :   -0.114674
   2 O :   -0.248941
   3 P :    0.569355
   4 S :   -0.294512
   5 O :   -0.244436
   6 C :   -0.112766
   7 C :   -0.361426
   8 S :    0.060496
   9 C :   -0.483683
  10 S :    0.076953
  11 P :    0.563404
  12 S :   -0.278950
  13 O :   -0.234436
  14 C :   -0.109036
  15 C :   -0.370498
  16 O :   -0.246858
  17 C :   -0.117173
  18 C :   -0.364965
  19 H :    0.131649
  20 H :    0.119677
  21 H :    0.124428
  22 H :    0.114070
  23 H :    0.117182
  24 H :    0.108381
  25 H :    0.122331
  26 H :    0.119259
  27 H :    0.129797
  28 H :    0.128469
  29 H :    0.124660
  30 H :    0.131848
  31 H :    0.124280
  32 H :    0.115345
  33 H :    0.116327
  34 H :    0.130478
  35 H :    0.134302
  36 H :    0.096553
  37 H :    0.116891
  38 H :    0.126445
  39 H :    0.128802
  40 H :    0.127946

  Mayer bond orders larger than 0.100000
B(  0-C ,  1-C ) :   1.1620 B(  0-C , 19-H ) :   0.9367 B(  0-C , 20-H ) :   0.9418
B(  0-C , 21-H ) :   0.9170 B(  1-C ,  2-O ) :   0.9046 B(  1-C , 22-H ) :   0.9177
B(  1-C , 23-H ) :   0.9334 B(  2-O ,  3-P ) :   1.0951 B(  3-P ,  4-S ) :   1.6529
B(  3-P ,  5-O ) :   1.1298 B(  3-P ,  8-S ) :   0.9419 B(  4-S ,  8-S ) :   0.1114
B(  5-O ,  6-C ) :   0.8907 B(  6-C ,  7-C ) :   1.1640 B(  6-C , 24-H ) :   0.9173
B(  6-C , 25-H ) :   0.9343 B(  7-C , 26-H ) :   0.9357 B(  7-C , 27-H ) :   0.9397
B(  7-C , 28-H ) :   0.9461 B(  8-S ,  9-C ) :   0.9725 B(  9-C , 10-S ) :   1.0182
B(  9-C , 29-H ) :   0.8510 B(  9-C , 30-H ) :   0.9010 B( 10-S , 11-P ) :   0.9205
B( 10-S , 12-S ) :   0.1170 B( 11-P , 12-S ) :   1.6755 B( 11-P , 13-O ) :   1.1435
B( 11-P , 16-O ) :   1.0705 B( 13-O , 14-C ) :   0.8996 B( 14-C , 15-C ) :   1.1692
B( 14-C , 31-H ) :   0.9334 B( 14-C , 32-H ) :   0.9265 B( 15-C , 33-H ) :   0.9316
B( 15-C , 34-H ) :   0.9430 B( 15-C , 35-H ) :   0.9356 B( 16-O , 17-C ) :   0.9085
B( 17-C , 18-C ) :   1.1679 B( 17-C , 36-H ) :   0.9042 B( 17-C , 37-H ) :   0.9351
B( 18-C , 38-H ) :   0.9446 B( 18-C , 39-H ) :   0.9257 B( 18-C , 40-H ) :   0.9382

Dispersion correction           -0.065275492
FINAL SINGLE POINT ENERGY     -2929.513821071415

DIPOLE MOMENT
-------------

Method             : SCF
Type of density    : Electron Density
Multiplicity       :   1
Irrep              :   0
Energy             : -2929.6338038178373608 Eh
Relativity type    :
Basis              : AO
                                X                 Y                 Z
Electronic contribution:      6.303791845      15.821358690      -1.154249012
Nuclear contribution   :     -7.286633870     -17.778138067       1.893595324
                        -----------------------------------------
Total Dipole Moment    :     -0.982842025      -1.956779377       0.739346312
                        -----------------------------------------
Magnitude (a.u.)       :      2.311189509
Magnitude (Debye)      :      5.874576872

Rotational constants in cm-1:             0.012386             0.004805             0.004443
Rotational constants in MHz :           371.312912           144.062554           133.212267

                             ****ORCA TERMINATED NORMALLY****
TOTAL RUN TIME: 0 days 0 hours 0 minutes 21 seconds 169 msec
