                         Program Version 6.0.0  -   RELEASE  -
|  1> ! pbe def2-sv(p) def2/J RI DEFGRID1 loosescf d4 GCP(DFT/SV(P)) printgap
|  2> %output
|  3>     printlevel normal
|  4> end
|  5> * xyz 0 1
|  6> C -1.8293310919 -0.7566506678 -0.1251800633
|  7> C -1.8304633763 0.7561632321 0.1249380633
|  8> C -0.5347378524 1.3043717914 -0.4400749872
|  9> S 0.6567230851 3.18526e-05 3.9116e-06
| 10> C -0.534638657 -1.3031394542 0.443505286
| 11> O 1.4529261743 0.3849932967 1.1581672601
| 12> O 1.4483151657 -0.3857688772 -1.1610032967
| 13> H -1.8642704115 -0.947772674 -1.1981589593
| 14> H -2.6932420385 -1.2254105948 0.3426971448
| 15> H -2.6934528177 1.22382744 -0.3457708623
| 16> H -1.8692822391 0.9472751696 1.1977504214
| 17> H -0.5323251802 1.3658951043 -1.5231717087
| 18> H -0.2027204762 2.2329659917 0.0072141627
| 19> H -0.202145613 -2.2332462775 -0.0004132019
| 20> H -0.5334589944 -1.3611127235 1.5267538661
| 21> *
| 22>
| 23>                          ****END OF INPUT****

CARTESIAN COORDINATES (ANGSTROEM)
---------------------------------
  C     -1.829331   -0.756651   -0.125180
  C     -1.830463    0.756163    0.124938
  C     -0.534738    1.304372   -0.440075
  S      0.656723    0.000032    0.000004
  C     -0.534639   -1.303139    0.443505
  O      1.452926    0.384993    1.158167
  O      1.448315   -0.385769   -1.161003
  H     -1.864270   -0.947773   -1.198159
  H     -2.693242   -1.225411    0.342697
  H     -2.693453    1.223827   -0.345771
  H     -1.869282    0.947275    1.197750
  H     -0.532325    1.365895   -1.523172
  H     -0.202720    2.232966    0.007214
  H     -0.202146   -2.233246   -0.000413
  H     -0.533459   -1.361113    1.526754

 Total Charge           Charge          ....    0
 Multiplicity           Mult            ....    1
 Number of Electrons    NEL             ....   64
 Basis Dimension        Dim             ....  118

ORBITAL ENERGIES
----------------

  NO   OCC          E(Eh)            E(eV)
   0   2.0000     -88.212264     -2400.3777
   1   2.0000     -18.723578      -509.4944
   2   2.0000     -18.723501      -509.4924
   3   2.0000      -9.924338      -270.0550
   4   2.0000      -9.924323      -270.0545
   5   2.0000      -9.923773      -270.0396
   6   2.0000      -9.923736      -270.0386
   7   2.0000      -7.830679      -213.0836
   8   2.0000      -5.856921      -159.3749
   9   2.0000      -5.856218      -159.3558
  10   2.0000      -5.855780      -159.3439
  11   2.0000      -0.997204       -27.1353
  12   2.0000      -0.880928       -23.9713
  13   2.0000      -0.790074       -21.4990
  14   2.0000      -0.693694       -18.8764
  15   2.0000      -0.647894       -17.6301
  16   2.0000      -0.555552       -15.1173
  17   2.0000      -0.527757       -14.3610
  18   2.0000      -0.473665       -12.8891
  19   2.0000      -0.447659       -12.1814
  20   2.0000      -0.425165       -11.5693
  21   2.0000      -0.410628       -11.1738
  22   2.0000      -0.385533       -10.4909
  23   2.0000      -0.383887       -10.4461
  24   2.0000      -0.354029        -9.6336
  25   2.0000      -0.350039        -9.5250
  26   2.0000      -0.343483        -9.3466
  27   2.0000      -0.329417        -8.9639
  28   2.0000      -0.266669        -7.2564
  29   2.0000      -0.247614        -6.7379
  30   2.0000      -0.234597        -6.3837
  31   2.0000      -0.230050        -6.2600
  32   0.0000       0.007810         0.2125
  33   0.0000       0.013256         0.3607
  34   0.0000       0.036387         0.9901
  35   0.0000       0.052854         1.4382
  36   0.0000       0.062331         1.6961

MULLIKEN ATOMIC CHARGES
-----------------------
   0 C :   -0.222467
   1 C :   -0.222521
   2 C :   -0.157994
   3 S :    0.579663
   4 C :   -0.158100
   5 O :   -0.430515
   6 O :   -0.430597
   7 H :    0.117536
   8 H :    0.120470
   9 H :    0.120400
  10 H :    0.117403
  11 H :    0.135343
  12 H :    0.148032
  13 H :    0.148143
  14 H :    0.135204
Sum of atomic charges:   -0.0000000

LOEWDIN ATOMIC CHARGES
----------------------
   0 C :   -0.245186
   1 C :   -0.245094
   2 C :   -0.349769
   3 S :    1.095621
   4 C :   -0.349743
   5 O :   -0.497688
   6 O :   -0.497719
   7 H :    0.128945
   8 H :    0.132199
   9 H :    0.132208
  10 H :    0.128917
  11 H :    0.139341
  12 H :    0.144340
  13 H :    0.144376
  14 H :    0.139254

  Mayer bond orders larger than 0.100000
B(  0-C ,  1-C ) :   1.1069 B(  0-C ,  4-C ) :   1.1091 B(  0-C ,  7-H ) :   0.9195
B(  0-C ,  8-H ) :   0.9177 B(  1-C ,  2-C ) :   1.1099 B(  1-C ,  9-H ) :   0.9176
B(  1-C , 10-H ) :   0.9195 B(  2-C ,  3-S ) :   0.8261 B(  2-C , 11-H ) :   0.9052
B(  2-C , 12-H ) :   0.9082 B(  3-S ,  4-C ) :   0.8263 B(  3-S ,  5-O ) :   1.7059
B(  3-S ,  6-O ) :   1.7055 B(  4-C , 13-H ) :   0.9082 B(  4-C , 14-H ) :   0.9052

Dispersion correction           -0.015093025
FINAL SINGLE POINT ENERGY      -704.850895810683

DIPOLE MOMENT
-------------

Method             : SCF
Type of density    : Electron Density
Multiplicity       :   1
Irrep              :   0
Energy             :  -704.9039980838369956 Eh
Relativity type    :
Basis              : AO
                                X                 Y                 Z
Electronic contribution:      7.891482552      -0.001522654      -0.003750121
Nuclear contribution   :     -9.911847864       0.002259310       0.006432022
                        -----------------------------------------
Total Dipole Moment    :     -2.020365311       0.000736657       0.002681901
                        -----------------------------------------
Magnitude (a.u.)       :      2.020367225
Magnitude (Debye)      :      5.135365373

Rotational constants in cm-1:             0.125922             0.068338             0.062730
Rotational constants in MHz :          3775.043862          2048.709384          1880.588655

                             ****ORCA TERMINATED NORMALLY****
TOTAL RUN TIME: 0 days 0 hours 0 minutes 12 seconds 421 msec
