                         Program Version 6.0.0  -   RELEASE  -
|  1> ! pbe def2-sv(p) def2/J RI DEFGRID1 loosescf d4 GCP(DFT/SV(P)) printgap
|  2> %output
|  3>     printlevel normal
|  4> end
|  5> * xyz 0 1
|  6> C 5.7880946694 -1.2640311384 -0.5931028124
|  7> C 4.9111434196 -0.5977169837 -1.6326053685
|  8> O 3.509233161 -0.8661045209 -1.418427302
|  9> P 2.7220100119 -0.305813066 -0.1652425338
| 10> S 3.2104424937 1.5018557705 0.4295485037
| 11> O 2.9636174191 -1.4512481479 0.9111908409
| 12> C 2.7090988564 -1.2561147217 2.3131806281
| 13> C 1.226650458 -1.1740478885 2.6145681693
| 14> S 0.7609345819 -0.6011460048 -0.92033154
| 15> C 0.1011521653 1.081218391 -0.7064772647
| 16> S -1.1029312317 1.1988004397 0.6327725087
| 17> P -2.7149509024 0.3243403625 -0.4577823653
| 18> S -2.9300624688 0.9997173378 -2.2802929839
| 19> O -3.9738691794 0.4874686724 0.4953758147
| 20> C -4.7005879495 1.726022688 0.6166450441
| 21> C -4.1664860924 2.5701377671 1.7570695539
| 22> O -2.4504353225 -1.2260827136 -0.4373517514
| 23> C -2.2564600188 -1.9977628982 0.7744796866
| 24> C -3.5500861847 -2.6590377026 1.202208669
| 25> H 5.6195449564 -0.8109387276 0.3827104789
| 26> H 5.5590487592 -2.3247550488 -0.5335332087
| 27> H 6.8303965471 -1.1330771578 -0.8669947413
| 28> H 5.0990341833 -0.9905352615 -2.632776616
| 29> H 5.0592369696 0.4869844433 -1.62592444
| 30> H 3.1688156277 -2.1244999471 2.78694578
| 31> H 3.2183386757 -0.3416632488 2.6343824679
| 32> H 0.7127255695 -2.0403662832 2.2057732797
| 33> H 1.0794478431 -1.1408574262 3.6892059797
| 34> H 0.8048899916 -0.2692827306 2.1767120463
| 35> H -0.3898362629 1.3687021534 -1.6369356586
| 36> H 0.9213033664 1.759973834 -0.4628279004
| 37> H -4.6468528622 2.260757439 -0.3372054225
| 38> H -5.7314130617 1.418356588 0.8015304434
| 39> H -4.7909743225 3.450909124 1.8670248665
| 40> H -4.1832218954 2.0010600189 2.6820580398
| 41> H -3.144063732 2.882848428 1.5579173834
| 42> H -1.4982486965 -2.7350073363 0.5030224975
| 43> H -1.8721536412 -1.337863547 1.5572270463
| 44> H -4.2919949002 -1.9057724766 1.4526234047
| 45> H -3.9364475411 -3.2773313196 0.3966553453
| 46> H -3.3602175808 -3.2799778476 2.0720803442
| 47> *
| 48>
| 49>                          ****END OF INPUT****

CARTESIAN COORDINATES (ANGSTROEM)
---------------------------------
  C      5.788095   -1.264031   -0.593103
  C      4.911143   -0.597717   -1.632605
  O      3.509233   -0.866105   -1.418427
  P      2.722010   -0.305813   -0.165243
  S      3.210442    1.501856    0.429549
  O      2.963617   -1.451248    0.911191
  C      2.709099   -1.256115    2.313181
  C      1.226650   -1.174048    2.614568
  S      0.760935   -0.601146   -0.920332
  C      0.101152    1.081218   -0.706477
  S     -1.102931    1.198800    0.632773
  P     -2.714951    0.324340   -0.457782
  S     -2.930062    0.999717   -2.280293
  O     -3.973869    0.487469    0.495376
  C     -4.700588    1.726023    0.616645
  C     -4.166486    2.570138    1.757070
  O     -2.450435   -1.226083   -0.437352
  C     -2.256460   -1.997763    0.774480
  C     -3.550086   -2.659038    1.202209
  H      5.619545   -0.810939    0.382710
  H      5.559049   -2.324755   -0.533533
  H      6.830397   -1.133077   -0.866995
  H      5.099034   -0.990535   -2.632777
  H      5.059237    0.486984   -1.625924
  H      3.168816   -2.124500    2.786946
  H      3.218339   -0.341663    2.634382
  H      0.712726   -2.040366    2.205773
  H      1.079448   -1.140857    3.689206
  H      0.804890   -0.269283    2.176712
  H     -0.389836    1.368702   -1.636936
  H      0.921303    1.759974   -0.462828
  H     -4.646853    2.260757   -0.337205
  H     -5.731413    1.418357    0.801530
  H     -4.790974    3.450909    1.867025
  H     -4.183222    2.001060    2.682058
  H     -3.144064    2.882848    1.557917
  H     -1.498249   -2.735007    0.503022
  H     -1.872154   -1.337864    1.557227
  H     -4.291995   -1.905772    1.452623
  H     -3.936448   -3.277331    0.396655
  H     -3.360218   -3.279978    2.072080

 Total Charge           Charge          ....    0
 Multiplicity           Mult            ....    1
 Number of Electrons    NEL             ....  202
 Basis Dimension        Dim             ....  334

ORBITAL ENERGIES
----------------

  NO   OCC          E(Eh)            E(eV)
   0   2.0000     -88.044658     -2395.8169
   1   2.0000     -88.041608     -2395.7339
   2   2.0000     -87.996584     -2394.5088
   3   2.0000     -87.984672     -2394.1847
   4   2.0000     -76.429191     -2079.7440
   5   2.0000     -76.427175     -2079.6892
   6   2.0000     -18.799647      -511.5644
   7   2.0000     -18.795326      -511.4468
   8   2.0000     -18.795030      -511.4388
   9   2.0000     -18.791558      -511.3443
  10   2.0000      -9.957201      -270.9492
  11   2.0000      -9.956528      -270.9309
  12   2.0000      -9.955906      -270.9140
  13   2.0000      -9.954161      -270.8665
  14   2.0000      -9.949282      -270.7337
  15   2.0000      -9.889141      -269.0972
  16   2.0000      -9.887726      -269.0587
  17   2.0000      -9.887226      -269.0451
  18   2.0000      -9.886405      -269.0228
  19   2.0000      -7.689125      -209.2317
  20   2.0000      -7.686723      -209.1664
  21   2.0000      -7.641351      -207.9317
  22   2.0000      -7.630009      -207.6231
  23   2.0000      -6.427125      -174.8909
  24   2.0000      -6.425089      -174.8356
  25   2.0000      -5.716666      -155.5584
  26   2.0000      -5.714551      -155.5008
  27   2.0000      -5.713703      -155.4778
  28   2.0000      -5.711394      -155.4149
  29   2.0000      -5.706437      -155.2800
  30   2.0000      -5.703549      -155.2015
  31   2.0000      -5.670041      -154.2897
  32   2.0000      -5.662236      -154.0773
  33   2.0000      -5.661509      -154.0575
  34   2.0000      -5.659027      -153.9900
  35   2.0000      -5.650528      -153.7587
  36   2.0000      -5.650122      -153.7476
  37   2.0000      -4.649403      -126.5167
  38   2.0000      -4.648745      -126.4988
  39   2.0000      -4.648030      -126.4793
  40   2.0000      -4.647920      -126.4763
  41   2.0000      -4.646813      -126.4462
  42   2.0000      -4.645166      -126.4014
  43   2.0000      -0.992668       -27.0119
  44   2.0000      -0.989420       -26.9235
  45   2.0000      -0.950176       -25.8556
  46   2.0000      -0.948184       -25.8014
  47   2.0000      -0.762563       -20.7504
  48   2.0000      -0.724585       -19.7170
  49   2.0000      -0.712604       -19.3909
  50   2.0000      -0.694298       -18.8928
  51   2.0000      -0.690458       -18.7883
  52   2.0000      -0.677445       -18.4342
  53   2.0000      -0.653384       -17.7795
  54   2.0000      -0.639039       -17.3891
  55   2.0000      -0.606381       -16.5005
  56   2.0000      -0.595474       -16.2037
  57   2.0000      -0.576443       -15.6858
  58   2.0000      -0.575291       -15.6545
  59   2.0000      -0.558457       -15.1964
  60   2.0000      -0.505461       -13.7543
  61   2.0000      -0.495175       -13.4744
  62   2.0000      -0.483032       -13.1440
  63   2.0000      -0.476188       -12.9577
  64   2.0000      -0.459380       -12.5004
  65   2.0000      -0.449705       -12.2371
  66   2.0000      -0.443086       -12.0570
  67   2.0000      -0.440412       -11.9842
  68   2.0000      -0.433030       -11.7833
  69   2.0000      -0.418638       -11.3917
  70   2.0000      -0.406715       -11.0673
  71   2.0000      -0.396518       -10.7898
  72   2.0000      -0.394869       -10.7449
  73   2.0000      -0.392780       -10.6881
  74   2.0000      -0.386458       -10.5161
  75   2.0000      -0.379785       -10.3345
  76   2.0000      -0.367366        -9.9965
  77   2.0000      -0.361312        -9.8318
  78   2.0000      -0.358477        -9.7547
  79   2.0000      -0.355628        -9.6771
  80   2.0000      -0.351291        -9.5591
  81   2.0000      -0.350269        -9.5313
  82   2.0000      -0.343599        -9.3498
  83   2.0000      -0.341404        -9.2901
  84   2.0000      -0.336269        -9.1503
  85   2.0000      -0.323154        -8.7935
  86   2.0000      -0.314844        -8.5673
  87   2.0000      -0.299935        -8.1616
  88   2.0000      -0.296880        -8.0785
  89   2.0000      -0.294691        -8.0189
  90   2.0000      -0.288267        -7.8441
  91   2.0000      -0.277810        -7.5596
  92   2.0000      -0.274437        -7.4678
  93   2.0000      -0.268422        -7.3041
  94   2.0000      -0.262596        -7.1456
  95   2.0000      -0.234155        -6.3717
  96   2.0000      -0.221647        -6.0313
  97   2.0000      -0.217882        -5.9289
  98   2.0000      -0.210065        -5.7162
  99   2.0000      -0.205126        -5.5818
 100   2.0000      -0.197805        -5.3825
 101   0.0000      -0.042940        -1.1685
 102   0.0000      -0.031337        -0.8527
 103   0.0000      -0.012073        -0.3285
 104   0.0000       0.002375         0.0646
 105   0.0000       0.017663         0.4806

MULLIKEN ATOMIC CHARGES
-----------------------
   0 C :   -0.309271
   1 C :   -0.002004
   2 O :   -0.365977
   3 P :    0.613422
   4 S :   -0.333361
   5 O :   -0.370641
   6 C :   -0.000519
   7 C :   -0.332873
   8 S :   -0.069588
   9 C :   -0.371899
  10 S :   -0.103048
  11 P :    0.599517
  12 S :   -0.305453
  13 O :   -0.379533
  14 C :   -0.007401
  15 C :   -0.309273
  16 O :   -0.349955
  17 C :   -0.030140
  18 C :   -0.283933
  19 H :    0.122454
  20 H :    0.119261
  21 H :    0.113123
  22 H :    0.109353
  23 H :    0.113028
  24 H :    0.104851
  25 H :    0.111206
  26 H :    0.118520
  27 H :    0.111159
  28 H :    0.135356
  29 H :    0.197703
  30 H :    0.196786
  31 H :    0.109881
  32 H :    0.109228
  33 H :    0.115234
  34 H :    0.113297
  35 H :    0.131122
  36 H :    0.117764
  37 H :    0.113050
  38 H :    0.119917
  39 H :    0.121069
  40 H :    0.108565
Sum of atomic charges:   -0.0000000

LOEWDIN ATOMIC CHARGES
----------------------
   0 C :   -0.364857
   1 C :   -0.113879
   2 O :   -0.242496
   3 P :    0.572014
   4 S :   -0.311594
   5 O :   -0.243781
   6 C :   -0.118954
   7 C :   -0.371163
   8 S :    0.094734
   9 C :   -0.490349
  10 S :    0.082847
  11 P :    0.566448
  12 S :   -0.306202
  13 O :   -0.245045
  14 C :   -0.116982
  15 C :   -0.366282
  16 O :   -0.231018
  17 C :   -0.118260
  18 C :   -0.358676
  19 H :    0.122552
  20 H :    0.127580
  21 H :    0.130921
  22 H :    0.121195
  23 H :    0.112282
  24 H :    0.118574
  25 H :    0.109640
  26 H :    0.123241
  27 H :    0.130529
  28 H :    0.113915
  29 H :    0.128116
  30 H :    0.125894
  31 H :    0.111043
  32 H :    0.120300
  33 H :    0.132831
  34 H :    0.124952
  35 H :    0.120284
  36 H :    0.120201
  37 H :    0.105221
  38 H :    0.125661
  39 H :    0.129399
  40 H :    0.129163

  Mayer bond orders larger than 0.100000
B(  0-C ,  1-C ) :   1.1629 B(  0-C , 19-H ) :   0.9386 B(  0-C , 20-H ) :   0.9457
B(  0-C , 21-H ) :   0.9380 B(  1-C ,  2-O ) :   0.9092 B(  1-C , 22-H ) :   0.9353
B(  1-C , 23-H ) :   0.9200 B(  2-O ,  3-P ) :   1.1405 B(  3-P ,  4-S ) :   1.5828
B(  3-P ,  5-O ) :   1.1016 B(  3-P ,  8-S ) :   0.9635 B(  4-S ,  8-S ) :   0.1167
B(  4-S , 30-H ) :   0.1081 B(  5-O ,  6-C ) :   0.9134 B(  6-C ,  7-C ) :   1.1629
B(  6-C , 24-H ) :   0.9329 B(  6-C , 25-H ) :   0.9145 B(  7-C , 26-H ) :   0.9409
B(  7-C , 27-H ) :   0.9374 B(  7-C , 28-H ) :   0.9269 B(  8-S ,  9-C ) :   1.0065
B(  9-C , 10-S ) :   1.0041 B(  9-C , 29-H ) :   0.8644 B(  9-C , 30-H ) :   0.8533
B( 10-S , 11-P ) :   0.9493 B( 10-S , 12-S ) :   0.1070 B( 11-P , 12-S ) :   1.6552
B( 11-P , 13-O ) :   1.0889 B( 11-P , 16-O ) :   1.1453 B( 13-O , 14-C ) :   0.9005
B( 14-C , 15-C ) :   1.1672 B( 14-C , 31-H ) :   0.9068 B( 14-C , 32-H ) :   0.9346
B( 15-C , 33-H ) :   0.9393 B( 15-C , 34-H ) :   0.9483 B( 15-C , 35-H ) :   0.9324
B( 16-O , 17-C ) :   0.8884 B( 17-C , 18-C ) :   1.1605 B( 17-C , 36-H ) :   0.9308
B( 17-C , 37-H ) :   0.9081 B( 18-C , 38-H ) :   0.9414 B( 18-C , 39-H ) :   0.9468
B( 18-C , 40-H ) :   0.9401

Dispersion correction           -0.063158406
FINAL SINGLE POINT ENERGY     -2929.522225312868

DIPOLE MOMENT
-------------

Method             : SCF
Type of density    : Electron Density
Multiplicity       :   1
Irrep              :   0
Energy             : -2929.6438916465826878 Eh
Relativity type    :
Basis              : AO
                                X                 Y                 Z
Electronic contribution:     -0.040188286       6.982786990     -16.550639911
Nuclear contribution   :      0.209496109      -7.734147783      18.127280369
                        -----------------------------------------
Total Dipole Moment    :      0.169307823      -0.751360793       1.576640459
                        -----------------------------------------
Magnitude (a.u.)       :      1.754708898
Magnitude (Debye)      :      4.460115567

Rotational constants in cm-1:             0.014165             0.003996             0.003855
Rotational constants in MHz :           424.648746           119.806970           115.579059

                             ****ORCA TERMINATED NORMALLY****
TOTAL RUN TIME: 0 days 0 hours 0 minutes 20 seconds 544 msec
