                         Program Version 6.0.0  -   RELEASE  -
|  1> ! pbe def2-sv(p) def2/J RI DEFGRID1 loosescf d4 GCP(DFT/SV(P)) printgap
|  2> %output
|  3>     printlevel normal
|  4> end
|  5> * xyz 0 1
|  6> C 3.2299845395 1.3219370181 -2.2509769726
|  7> C 3.9539135831 0.1571360433 -1.6069344609
|  8> O 3.5577511964 -0.0688973505 -0.2436835956
|  9> P 2.0596750984 -0.1596948078 0.2832269107
| 10> S 1.2415688594 1.5928620179 0.6421639019
| 11> O 2.2104425997 -1.0705830496 1.5691602987
| 12> C 2.3235611954 -0.521958016 2.8974233281
| 13> C 3.6981105407 0.0698434496 3.124829929
| 14> S 1.2300331675 -1.5775431977 -1.0568273691
| 15> C -0.1790883654 -2.1972401332 -0.0745124183
| 16> S -1.0360296353 -0.9540238412 0.916263777
| 17> P -2.0062949892 0.1152369814 -0.6658575345
| 18> S -0.9496275724 0.8125973627 -2.1543684774
| 19> O -2.884882764 1.1802793344 0.1140656935
| 20> C -2.3597549686 2.393621471 0.6863980739
| 21> C -2.1037270495 2.2192503011 2.1696500818
| 22> O -3.0751167071 -0.9141197949 -1.1950358812
| 23> C -4.1079173895 -1.5138170302 -0.3716822847
| 24> C -5.4015334628 -0.7330895827 -0.4775330008
| 25> H 3.6225976824 1.4844086261 -3.2495597033
| 26> H 2.1614518312 1.1126428644 -2.3269849543
| 27> H 3.3613318319 2.2263069679 -1.660799801
| 28> H 5.0267763846 0.345854803 -1.5356562243
| 29> H 3.7752509063 -0.7643453414 -2.1691052372
| 30> H 1.5477253727 0.239388686 3.0286491368
| 31> H 2.1278318346 -1.3709393313 3.5530902884
| 32> H 3.8515706187 0.9037556914 2.440506697
| 33> H 3.774954906 0.4283094535 4.1463309574
| 34> H 4.4649092729 -0.6776859467 2.9409757565
| 35> H 0.1876121828 -2.9412863107 0.6289890755
| 36> H -0.8660950139 -2.6381684994 -0.7952780306
| 37> H -1.4429823014 2.6763074221 0.1596898606
| 38> H -3.1310895686 3.1431710844 0.5009062661
| 39> H -1.7908713796 3.1707526131 2.5866693397
| 40> H -3.0058619054 1.8798627678 2.6702474901
| 41> H -1.3104329056 1.4926061939 2.3315331828
| 42> H -4.2215904624 -2.5226977466 -0.7727056748
| 43> H -3.7561750443 -1.5599014444 0.6624563321
| 44> H -5.2714182922 0.2692354873 -0.078959838
| 45> H -5.7067249668 -0.6583405873 -1.5177277807
| 46> H -6.1730247663 -1.2473805462 0.0871410648
| 47> *
| 48>
| 49>                          ****END OF INPUT****

CARTESIAN COORDINATES (ANGSTROEM)
---------------------------------
  C      3.229985    1.321937   -2.250977
  C      3.953914    0.157136   -1.606934
  O      3.557751   -0.068897   -0.243684
  P      2.059675   -0.159695    0.283227
  S      1.241569    1.592862    0.642164
  O      2.210443   -1.070583    1.569160
  C      2.323561   -0.521958    2.897423
  C      3.698111    0.069843    3.124830
  S      1.230033   -1.577543   -1.056827
  C     -0.179088   -2.197240   -0.074512
  S     -1.036030   -0.954024    0.916264
  P     -2.006295    0.115237   -0.665858
  S     -0.949628    0.812597   -2.154368
  O     -2.884883    1.180279    0.114066
  C     -2.359755    2.393621    0.686398
  C     -2.103727    2.219250    2.169650
  O     -3.075117   -0.914120   -1.195036
  C     -4.107917   -1.513817   -0.371682
  C     -5.401533   -0.733090   -0.477533
  H      3.622598    1.484409   -3.249560
  H      2.161452    1.112643   -2.326985
  H      3.361332    2.226307   -1.660800
  H      5.026776    0.345855   -1.535656
  H      3.775251   -0.764345   -2.169105
  H      1.547725    0.239389    3.028649
  H      2.127832   -1.370939    3.553090
  H      3.851571    0.903756    2.440507
  H      3.774955    0.428309    4.146331
  H      4.464909   -0.677686    2.940976
  H      0.187612   -2.941286    0.628989
  H     -0.866095   -2.638168   -0.795278
  H     -1.442982    2.676307    0.159690
  H     -3.131090    3.143171    0.500906
  H     -1.790871    3.170753    2.586669
  H     -3.005862    1.879863    2.670247
  H     -1.310433    1.492606    2.331533
  H     -4.221590   -2.522698   -0.772706
  H     -3.756175   -1.559901    0.662456
  H     -5.271418    0.269235   -0.078960
  H     -5.706725   -0.658341   -1.517728
  H     -6.173025   -1.247381    0.087141

 Total Charge           Charge          ....    0
 Multiplicity           Mult            ....    1
 Number of Electrons    NEL             ....  202
 Basis Dimension        Dim             ....  334

ORBITAL ENERGIES
----------------

  NO   OCC          E(Eh)            E(eV)
   0   2.0000     -88.042643     -2395.7621
   1   2.0000     -88.033676     -2395.5181
   2   2.0000     -87.977007     -2393.9761
   3   2.0000     -87.974691     -2393.9130
   4   2.0000     -76.422737     -2079.5684
   5   2.0000     -76.422689     -2079.5671
   6   2.0000     -18.795055      -511.4394
   7   2.0000     -18.792187      -511.3614
   8   2.0000     -18.790268      -511.3092
   9   2.0000     -18.786704      -511.2122
  10   2.0000      -9.960582      -271.0412
  11   2.0000      -9.955285      -270.8971
  12   2.0000      -9.951956      -270.8065
  13   2.0000      -9.948460      -270.7114
  14   2.0000      -9.947314      -270.6802
  15   2.0000      -9.886462      -269.0243
  16   2.0000      -9.881618      -268.8925
  17   2.0000      -9.880484      -268.8617
  18   2.0000      -9.875432      -268.7242
  19   2.0000      -7.686962      -209.1729
  20   2.0000      -7.679145      -208.9602
  21   2.0000      -7.621812      -207.4000
  22   2.0000      -7.619718      -207.3431
  23   2.0000      -6.420001      -174.6971
  24   2.0000      -6.419585      -174.6858
  25   2.0000      -5.714799      -155.5076
  26   2.0000      -5.711415      -155.4155
  27   2.0000      -5.707332      -155.3044
  28   2.0000      -5.704047      -155.2150
  29   2.0000      -5.703695      -155.2054
  30   2.0000      -5.695644      -154.9863
  31   2.0000      -5.650711      -153.7637
  32   2.0000      -5.648880      -153.7138
  33   2.0000      -5.642543      -153.5414
  34   2.0000      -5.641882      -153.5234
  35   2.0000      -5.640236      -153.4786
  36   2.0000      -5.639727      -153.4648
  37   2.0000      -4.643039      -126.3435
  38   2.0000      -4.642289      -126.3231
  39   2.0000      -4.641909      -126.3128
  40   2.0000      -4.641727      -126.3078
  41   2.0000      -4.639900      -126.2581
  42   2.0000      -4.639698      -126.2526
  43   2.0000      -0.987701       -26.8767
  44   2.0000      -0.982110       -26.7246
  45   2.0000      -0.945197       -25.7201
  46   2.0000      -0.942323       -25.6419
  47   2.0000      -0.761187       -20.7130
  48   2.0000      -0.717111       -19.5136
  49   2.0000      -0.707071       -19.2404
  50   2.0000      -0.689212       -18.7544
  51   2.0000      -0.682703       -18.5773
  52   2.0000      -0.667743       -18.1702
  53   2.0000      -0.649219       -17.6662
  54   2.0000      -0.633917       -17.2497
  55   2.0000      -0.591389       -16.0925
  56   2.0000      -0.585973       -15.9451
  57   2.0000      -0.575248       -15.6533
  58   2.0000      -0.569446       -15.4954
  59   2.0000      -0.562292       -15.3007
  60   2.0000      -0.503260       -13.6944
  61   2.0000      -0.489955       -13.3323
  62   2.0000      -0.479128       -13.0377
  63   2.0000      -0.466521       -12.6947
  64   2.0000      -0.458289       -12.4707
  65   2.0000      -0.445646       -12.1266
  66   2.0000      -0.436582       -11.8800
  67   2.0000      -0.433035       -11.7835
  68   2.0000      -0.427310       -11.6277
  69   2.0000      -0.412540       -11.2258
  70   2.0000      -0.404683       -11.0120
  71   2.0000      -0.393496       -10.7076
  72   2.0000      -0.389879       -10.6091
  73   2.0000      -0.385085       -10.4787
  74   2.0000      -0.381320       -10.3762
  75   2.0000      -0.375844       -10.2272
  76   2.0000      -0.362828        -9.8730
  77   2.0000      -0.359173        -9.7736
  78   2.0000      -0.351348        -9.5607
  79   2.0000      -0.348058        -9.4711
  80   2.0000      -0.344720        -9.3803
  81   2.0000      -0.340917        -9.2768
  82   2.0000      -0.337995        -9.1973
  83   2.0000      -0.336556        -9.1582
  84   2.0000      -0.327360        -8.9079
  85   2.0000      -0.320037        -8.7086
  86   2.0000      -0.309141        -8.4121
  87   2.0000      -0.294492        -8.0135
  88   2.0000      -0.291808        -7.9405
  89   2.0000      -0.288501        -7.8505
  90   2.0000      -0.284433        -7.7398
  91   2.0000      -0.272316        -7.4101
  92   2.0000      -0.270564        -7.3624
  93   2.0000      -0.259917        -7.0727
  94   2.0000      -0.252551        -6.8723
  95   2.0000      -0.245891        -6.6910
  96   2.0000      -0.219753        -5.9798
  97   2.0000      -0.206277        -5.6131
  98   2.0000      -0.184519        -5.0210
  99   2.0000      -0.179367        -4.8808
 100   2.0000      -0.178893        -4.8679
 101   0.0000      -0.049773        -1.3544
 102   0.0000      -0.027133        -0.7383
 103   0.0000      -0.016024        -0.4360
 104   0.0000       0.001505         0.0410
 105   0.0000       0.019607         0.5335

MULLIKEN ATOMIC CHARGES
-----------------------
   0 C :   -0.327693
   1 C :   -0.010951
   2 O :   -0.375109
   3 P :    0.619898
   4 S :   -0.322868
   5 O :   -0.371561
   6 C :   -0.012674
   7 C :   -0.298565
   8 S :   -0.106591
   9 C :   -0.304771
  10 S :   -0.123384
  11 P :    0.604009
  12 S :   -0.280614
  13 O :   -0.382943
  14 C :   -0.010280
  15 C :   -0.312898
  16 O :   -0.362181
  17 C :   -0.013449
  18 C :   -0.287790
  19 H :    0.108840
  20 H :    0.151337
  21 H :    0.124634
  22 H :    0.107091
  23 H :    0.113330
  24 H :    0.115839
  25 H :    0.098389
  26 H :    0.123933
  27 H :    0.108184
  28 H :    0.114235
  29 H :    0.187095
  30 H :    0.180593
  31 H :    0.126011
  32 H :    0.104595
  33 H :    0.111512
  34 H :    0.106736
  35 H :    0.142991
  36 H :    0.104627
  37 H :    0.099528
  38 H :    0.123393
  39 H :    0.120021
  40 H :    0.107504
Sum of atomic charges:   -0.0000000

LOEWDIN ATOMIC CHARGES
----------------------
   0 C :   -0.373256
   1 C :   -0.114731
   2 O :   -0.248704
   3 P :    0.571888
   4 S :   -0.308487
   5 O :   -0.244852
   6 C :   -0.122093
   7 C :   -0.362539
   8 S :    0.075788
   9 C :   -0.467038
  10 S :    0.077986
  11 P :    0.562732
  12 S :   -0.293747
  13 O :   -0.244688
  14 C :   -0.115855
  15 C :   -0.365164
  16 O :   -0.239885
  17 C :   -0.118222
  18 C :   -0.358858
  19 H :    0.129149
  20 H :    0.125458
  21 H :    0.128363
  22 H :    0.120476
  23 H :    0.108678
  24 H :    0.107752
  25 H :    0.115161
  26 H :    0.124605
  27 H :    0.128609
  28 H :    0.125435
  29 H :    0.135820
  30 H :    0.133412
  31 H :    0.112814
  32 H :    0.117983
  33 H :    0.131980
  34 H :    0.121290
  35 H :    0.118590
  36 H :    0.118146
  37 H :    0.101951
  38 H :    0.126610
  39 H :    0.128912
  40 H :    0.128532

  Mayer bond orders larger than 0.100000
B(  0-C ,  1-C ) :   1.1649 B(  0-C , 19-H ) :   0.9338 B(  0-C , 20-H ) :   0.9267
B(  0-C , 21-H ) :   0.9406 B(  1-C ,  2-O ) :   0.9180 B(  1-C , 22-H ) :   0.9339
B(  1-C , 23-H ) :   0.9255 B(  2-O ,  3-P ) :   1.1050 B(  3-P ,  4-S ) :   1.5995
B(  3-P ,  5-O ) :   1.1089 B(  3-P ,  8-S ) :   0.9617 B(  4-S ,  8-S ) :   0.1188
B(  5-O ,  6-C ) :   0.9030 B(  6-C ,  7-C ) :   1.1660 B(  6-C , 24-H ) :   0.9084
B(  6-C , 25-H ) :   0.9336 B(  7-C , 26-H ) :   0.9355 B(  7-C , 27-H ) :   0.9400
B(  7-C , 28-H ) :   0.9469 B(  8-S ,  9-C ) :   0.9893 B(  9-C , 10-S ) :   1.0105
B(  9-C , 29-H ) :   0.9089 B(  9-C , 30-H ) :   0.9053 B( 10-S , 11-P ) :   0.9188
B( 10-S , 12-S ) :   0.1162 B( 11-P , 12-S ) :   1.7124 B( 11-P , 13-O ) :   1.0903
B( 11-P , 16-O ) :   1.1163 B( 13-O , 14-C ) :   0.8940 B( 14-C , 15-C ) :   1.1719
B( 14-C , 31-H ) :   0.9032 B( 14-C , 32-H ) :   0.9343 B( 15-C , 33-H ) :   0.9400
B( 15-C , 34-H ) :   0.9467 B( 15-C , 35-H ) :   0.9273 B( 16-O , 17-C ) :   0.8951
B( 17-C , 18-C ) :   1.1674 B( 17-C , 36-H ) :   0.9358 B( 17-C , 37-H ) :   0.9086
B( 18-C , 38-H ) :   0.9415 B( 18-C , 39-H ) :   0.9471 B( 18-C , 40-H ) :   0.9397

Dispersion correction           -0.068522325
FINAL SINGLE POINT ENERGY     -2929.507118843203

DIPOLE MOMENT
-------------

Method             : SCF
Type of density    : Electron Density
Multiplicity       :   1
Irrep              :   0
Energy             : -2929.6229589100912563 Eh
Relativity type    :
Basis              : AO
                                X                 Y                 Z
Electronic contribution:      2.317522660      -5.489140465     -10.241053020
Nuclear contribution   :     -2.667329501       4.713659178      11.304667712
                        -----------------------------------------
Total Dipole Moment    :     -0.349806842      -0.775481287       1.063614692
                        -----------------------------------------
Magnitude (a.u.)       :      1.361988350
Magnitude (Debye)      :      3.461899265

Rotational constants in cm-1:             0.012550             0.005465             0.005149
Rotational constants in MHz :           376.225298           163.848983           154.359448

                             ****ORCA TERMINATED NORMALLY****
TOTAL RUN TIME: 0 days 0 hours 0 minutes 23 seconds 360 msec
