                         Program Version 6.0.0  -   RELEASE  -
|  1> ! pbe def2-sv(p) def2/J RI DEFGRID1 loosescf d4 GCP(DFT/SV(P)) printgap
|  2> %output
|  3>     printlevel normal
|  4> end
|  5> * xyz 0 1
|  6> C 5.4870925913 -0.4094844481 -0.6663191486
|  7> C 4.1753615118 -0.0401732517 -1.3279470143
|  8> O 3.2976246107 0.6351537308 -0.3903960723
|  9> P 2.1962422438 -0.0921685414 0.4730758941
| 10> S 1.4427596171 1.1030356352 1.8222894209
| 11> O 2.957047526 -1.3529338839 1.0770907397
| 12> C 2.4410379472 -2.0797902942 2.2051555553
| 13> C 1.169376705 -2.8284800527 1.8623803628
| 14> S 0.9511391427 -1.0315680828 -1.0025291498
| 15> C 0.5319797991 0.4059732701 -2.0183661115
| 16> S -0.430306413 1.6668993825 -1.1312393405
| 17> P -1.9813994055 0.380739378 -0.4742672522
| 18> S -2.5613273628 -0.9350639393 -1.8114666219
| 19> O -3.1137246378 1.3797344311 0.0095967449
| 20> C -4.05551522 1.9705286432 -0.9097516468
| 21> C -5.3426875969 2.2424997756 -0.1575219941
| 22> O -1.4060637674 -0.164076365 0.894468613
| 23> C -2.2078275601 -0.4413523002 2.0651643154
| 24> C -3.1164989789 -1.6320671468 1.8442385868
| 25> H 5.9468485369 0.4744981768 -0.2329012397
| 26> H 5.3206204885 -1.1400158749 0.1203251131
| 27> H 6.1530632848 -0.8312197586 -1.4127455347
| 28> H 3.6670520002 -0.926034366 -1.7181362091
| 29> H 4.3288519279 0.6873205892 -2.127520592
| 30> H 3.2498552059 -2.7608365486 2.4731165772
| 31> H 2.2639854464 -1.3700994661 3.0197470472
| 32> H 0.378456033 -2.1192609036 1.6197050556
| 33> H 1.3287478936 -3.4755281056 1.0031063813
| 34> H 0.8601097379 -3.4261446857 2.7138473595
| 35> H -0.0607300148 0.0156352542 -2.8457673521
| 36> H 1.4317802226 0.9021012339 -2.3745390614
| 37> H -3.6132307515 2.8931908317 -1.292934319
| 38> H -4.2162799566 1.2743633068 -1.740201577
| 39> H -5.770317201 1.3120160429 0.2057264823
| 40> H -5.148125493 2.8962622633 0.6879262653
| 41> H -6.0489059196 2.7220168784 -0.8272458663
| 42> H -1.4643221985 -0.6281473006 2.8424745759
| 43> H -2.7781883046 0.4552294563 2.3139395076
| 44> H -3.6633218302 -1.8432686676 2.7576076255
| 45> H -3.8238289628 -1.4152778858 1.0443148738
| 46> H -2.5349374534 -2.5058889677 1.5596890969
| 47> *
| 48>
| 49>                          ****END OF INPUT****

CARTESIAN COORDINATES (ANGSTROEM)
---------------------------------
  C      5.487093   -0.409484   -0.666319
  C      4.175362   -0.040173   -1.327947
  O      3.297625    0.635154   -0.390396
  P      2.196242   -0.092169    0.473076
  S      1.442760    1.103036    1.822289
  O      2.957048   -1.352934    1.077091
  C      2.441038   -2.079790    2.205156
  C      1.169377   -2.828480    1.862380
  S      0.951139   -1.031568   -1.002529
  C      0.531980    0.405973   -2.018366
  S     -0.430306    1.666899   -1.131239
  P     -1.981399    0.380739   -0.474267
  S     -2.561327   -0.935064   -1.811467
  O     -3.113725    1.379734    0.009597
  C     -4.055515    1.970529   -0.909752
  C     -5.342688    2.242500   -0.157522
  O     -1.406064   -0.164076    0.894469
  C     -2.207828   -0.441352    2.065164
  C     -3.116499   -1.632067    1.844239
  H      5.946849    0.474498   -0.232901
  H      5.320620   -1.140016    0.120325
  H      6.153063   -0.831220   -1.412746
  H      3.667052   -0.926034   -1.718136
  H      4.328852    0.687321   -2.127521
  H      3.249855   -2.760837    2.473117
  H      2.263985   -1.370099    3.019747
  H      0.378456   -2.119261    1.619705
  H      1.328748   -3.475528    1.003106
  H      0.860110   -3.426145    2.713847
  H     -0.060730    0.015635   -2.845767
  H      1.431780    0.902101   -2.374539
  H     -3.613231    2.893191   -1.292934
  H     -4.216280    1.274363   -1.740202
  H     -5.770317    1.312016    0.205726
  H     -5.148125    2.896262    0.687926
  H     -6.048906    2.722017   -0.827246
  H     -1.464322   -0.628147    2.842475
  H     -2.778188    0.455229    2.313940
  H     -3.663322   -1.843269    2.757608
  H     -3.823829   -1.415278    1.044315
  H     -2.534937   -2.505889    1.559689

 Total Charge           Charge          ....    0
 Multiplicity           Mult            ....    1
 Number of Electrons    NEL             ....  202
 Basis Dimension        Dim             ....  334

ORBITAL ENERGIES
----------------

  NO   OCC          E(Eh)            E(eV)
   0   2.0000     -88.038310     -2395.6442
   1   2.0000     -88.033846     -2395.5227
   2   2.0000     -87.981675     -2394.1031
   3   2.0000     -87.976204     -2393.9542
   4   2.0000     -76.424125     -2079.6062
   5   2.0000     -76.421452     -2079.5334
   6   2.0000     -18.795494      -511.4514
   7   2.0000     -18.791626      -511.3461
   8   2.0000     -18.791411      -511.3403
   9   2.0000     -18.783277      -511.1190
  10   2.0000      -9.956377      -270.9268
  11   2.0000      -9.955095      -270.8919
  12   2.0000      -9.953111      -270.8379
  13   2.0000      -9.951963      -270.8067
  14   2.0000      -9.949801      -270.7479
  15   2.0000      -9.889495      -269.1068
  16   2.0000      -9.885850      -269.0077
  17   2.0000      -9.884849      -268.9804
  18   2.0000      -9.881513      -268.8896
  19   2.0000      -7.682525      -209.0521
  20   2.0000      -7.679274      -208.9637
  21   2.0000      -7.626818      -207.5363
  22   2.0000      -7.621491      -207.3913
  23   2.0000      -6.421276      -174.7318
  24   2.0000      -6.418856      -174.6659
  25   2.0000      -5.710388      -155.3876
  26   2.0000      -5.707288      -155.3032
  27   2.0000      -5.707059      -155.2970
  28   2.0000      -5.703944      -155.2122
  29   2.0000      -5.699600      -155.0940
  30   2.0000      -5.695883      -154.9929
  31   2.0000      -5.655651      -153.8981
  32   2.0000      -5.650592      -153.7604
  33   2.0000      -5.647633      -153.6799
  34   2.0000      -5.646891      -153.6597
  35   2.0000      -5.642056      -153.5281
  36   2.0000      -5.641481      -153.5125
  37   2.0000      -4.644471      -126.3825
  38   2.0000      -4.642795      -126.3369
  39   2.0000      -4.642090      -126.3177
  40   2.0000      -4.641460      -126.3006
  41   2.0000      -4.640596      -126.2770
  42   2.0000      -4.638737      -126.2264
  43   2.0000      -0.986724       -26.8501
  44   2.0000      -0.986383       -26.8409
  45   2.0000      -0.945348       -25.7242
  46   2.0000      -0.941514       -25.6199
  47   2.0000      -0.760214       -20.6865
  48   2.0000      -0.718179       -19.5426
  49   2.0000      -0.709205       -19.2985
  50   2.0000      -0.690325       -18.7847
  51   2.0000      -0.689141       -18.7525
  52   2.0000      -0.668548       -18.1921
  53   2.0000      -0.646753       -17.5990
  54   2.0000      -0.635212       -17.2850
  55   2.0000      -0.592685       -16.1278
  56   2.0000      -0.587689       -15.9918
  57   2.0000      -0.576003       -15.6738
  58   2.0000      -0.572409       -15.5761
  59   2.0000      -0.558742       -15.2041
  60   2.0000      -0.505265       -13.7490
  61   2.0000      -0.500618       -13.6225
  62   2.0000      -0.474950       -12.9240
  63   2.0000      -0.472446       -12.8559
  64   2.0000      -0.455653       -12.3990
  65   2.0000      -0.447526       -12.1778
  66   2.0000      -0.439564       -11.9611
  67   2.0000      -0.434447       -11.8219
  68   2.0000      -0.427528       -11.6336
  69   2.0000      -0.414427       -11.2771
  70   2.0000      -0.404826       -11.0159
  71   2.0000      -0.400003       -10.8846
  72   2.0000      -0.391221       -10.6457
  73   2.0000      -0.379155       -10.3173
  74   2.0000      -0.376556       -10.2466
  75   2.0000      -0.371168       -10.1000
  76   2.0000      -0.364999        -9.9321
  77   2.0000      -0.360651        -9.8138
  78   2.0000      -0.353576        -9.6213
  79   2.0000      -0.353167        -9.6102
  80   2.0000      -0.348869        -9.4932
  81   2.0000      -0.347177        -9.4472
  82   2.0000      -0.343438        -9.3454
  83   2.0000      -0.336862        -9.1665
  84   2.0000      -0.332515        -9.0482
  85   2.0000      -0.320808        -8.7296
  86   2.0000      -0.310704        -8.4547
  87   2.0000      -0.300809        -8.1854
  88   2.0000      -0.296579        -8.0703
  89   2.0000      -0.290053        -7.8927
  90   2.0000      -0.287802        -7.8315
  91   2.0000      -0.272783        -7.4228
  92   2.0000      -0.267395        -7.2762
  93   2.0000      -0.257613        -7.0100
  94   2.0000      -0.255775        -6.9600
  95   2.0000      -0.239054        -6.5050
  96   2.0000      -0.213154        -5.8002
  97   2.0000      -0.203783        -5.5452
  98   2.0000      -0.197227        -5.3668
  99   2.0000      -0.190292        -5.1781
 100   2.0000      -0.182383        -4.9629
 101   0.0000      -0.045600        -1.2408
 102   0.0000      -0.024340        -0.6623
 103   0.0000      -0.004561        -0.1241
 104   0.0000       0.006218         0.1692
 105   0.0000       0.021001         0.5715

MULLIKEN ATOMIC CHARGES
-----------------------
   0 C :   -0.285144
   1 C :   -0.022003
   2 O :   -0.364023
   3 P :    0.599261
   4 S :   -0.295370
   5 O :   -0.383818
   6 C :    0.003805
   7 C :   -0.365584
   8 S :   -0.097525
   9 C :   -0.347319
  10 S :   -0.081414
  11 P :    0.641488
  12 S :   -0.340845
  13 O :   -0.387790
  14 C :   -0.009023
  15 C :   -0.286373
  16 O :   -0.358794
  17 C :   -0.000039
  18 C :   -0.311193
  19 H :    0.120203
  20 H :    0.124464
  21 H :    0.108392
  22 H :    0.103685
  23 H :    0.107312
  24 H :    0.103270
  25 H :    0.109080
  26 H :    0.169393
  27 H :    0.121971
  28 H :    0.113832
  29 H :    0.192465
  30 H :    0.180911
  31 H :    0.104933
  32 H :    0.107747
  33 H :    0.118418
  34 H :    0.118042
  35 H :    0.113492
  36 H :    0.107906
  37 H :    0.112752
  38 H :    0.107884
  39 H :    0.123041
  40 H :    0.122509
Sum of atomic charges:    0.0000000

LOEWDIN ATOMIC CHARGES
----------------------
   0 C :   -0.358374
   1 C :   -0.118561
   2 O :   -0.240560
   3 P :    0.566163
   4 S :   -0.301469
   5 O :   -0.249725
   6 C :   -0.119089
   7 C :   -0.376662
   8 S :    0.085043
   9 C :   -0.478033
  10 S :    0.079134
  11 P :    0.573501
  12 S :   -0.330239
  13 O :   -0.246561
  14 C :   -0.120136
  15 C :   -0.351475
  16 O :   -0.234924
  17 C :   -0.110296
  18 C :   -0.364238
  19 H :    0.128988
  20 H :    0.127278
  21 H :    0.129231
  22 H :    0.104535
  23 H :    0.117928
  24 H :    0.117387
  25 H :    0.109961
  26 H :    0.126808
  27 H :    0.125885
  28 H :    0.131213
  29 H :    0.132289
  30 H :    0.130097
  31 H :    0.113458
  32 H :    0.107650
  33 H :    0.126964
  34 H :    0.126914
  35 H :    0.131787
  36 H :    0.116993
  37 H :    0.113278
  38 H :    0.127832
  39 H :    0.121394
  40 H :    0.128632

  Mayer bond orders larger than 0.100000
B(  0-C ,  1-C ) :   1.1696 B(  0-C , 19-H ) :   0.9472 B(  0-C , 20-H ) :   0.9414
B(  0-C , 21-H ) :   0.9393 B(  1-C ,  2-O ) :   0.8937 B(  1-C , 22-H ) :   0.9065
B(  1-C , 23-H ) :   0.9336 B(  2-O ,  3-P ) :   1.1184 B(  3-P ,  4-S ) :   1.6841
B(  3-P ,  5-O ) :   1.0660 B(  3-P ,  8-S ) :   0.9367 B(  4-S ,  8-S ) :   0.1136
B(  5-O ,  6-C ) :   0.9093 B(  6-C ,  7-C ) :   1.1629 B(  6-C , 24-H ) :   0.9325
B(  6-C , 25-H ) :   0.9132 B(  7-C , 26-H ) :   0.9174 B(  7-C , 27-H ) :   0.9414
B(  7-C , 28-H ) :   0.9376 B(  8-S ,  9-C ) :   1.0012 B(  9-C , 10-S ) :   1.0045
B(  9-C , 29-H ) :   0.8883 B(  9-C , 30-H ) :   0.9028 B( 10-S , 11-P ) :   0.9558
B( 10-S , 12-S ) :   0.1205 B( 11-P , 12-S ) :   1.6117 B( 11-P , 13-O ) :   1.0860
B( 11-P , 16-O ) :   1.1257 B( 13-O , 14-C ) :   0.9015 B( 14-C , 15-C ) :   1.1603
B( 14-C , 31-H ) :   0.9316 B( 14-C , 32-H ) :   0.9027 B( 15-C , 33-H ) :   0.9510
B( 15-C , 34-H ) :   0.9504 B( 15-C , 35-H ) :   0.9417 B( 16-O , 17-C ) :   0.8934
B( 17-C , 18-C ) :   1.1685 B( 17-C , 36-H ) :   0.9259 B( 17-C , 37-H ) :   0.9280
B( 18-C , 38-H ) :   0.9381 B( 18-C , 39-H ) :   0.9342 B( 18-C , 40-H ) :   0.9480

Dispersion correction           -0.066412738
FINAL SINGLE POINT ENERGY     -2929.513045780885

DIPOLE MOMENT
-------------

Method             : SCF
Type of density    : Electron Density
Multiplicity       :   1
Irrep              :   0
Energy             : -2929.6316299661589255 Eh
Relativity type    :
Basis              : AO
                                X                 Y                 Z
Electronic contribution:      4.176400596       8.179749573      -7.327405731
Nuclear contribution   :     -4.082549467      -8.538157695       7.393998740
                        -----------------------------------------
Total Dipole Moment    :      0.093851130      -0.358408121       0.066593009
                        -----------------------------------------
Magnitude (a.u.)       :      0.376429336
Magnitude (Debye)      :      0.956807333

Rotational constants in cm-1:             0.013641             0.005053             0.004599
Rotational constants in MHz :           408.949012           151.492695           137.876426

                             ****ORCA TERMINATED NORMALLY****
TOTAL RUN TIME: 0 days 0 hours 0 minutes 21 seconds 515 msec
