                         Program Version 6.0.0  -   RELEASE  -
|  1> ! wb97x-v def2-tzvp def2/J RIJCOSX DEFGRID2 scfconv7 GCP(DFT/TZ) printgap
|  2> %output
|  3>     printlevel normal
|  4> end
|  5> * xyz 0 1
|  6> C 2.4204567523677625 1.1592509885162077 2.7086860117149976e-05
|  7> C 1.271621424897635 1.9276289226371293 2.023466316355022e-05
|  8> C 3.909878982177879e-06 1.2991922827963092 4.192205671115802e-06
|  9> C -1.2716107315686873 1.9276349403640034 -1.0419599440754734e-05
| 10> C -2.4204495782849698 1.1592623048392408 -1.937356132023112e-05
| 11> C -2.3908351696496437 -0.2599007371251271 -1.4981165428477739e-06
| 12> C -1.1700755252828432 -0.8958872630040227 1.7521207800404566e-05
| 13> C 6.627759827877505e-07 -0.11304143478381898 2.2940931501117386e-06
| 14> C 1.1700731773724817 -0.8958927575456814 -1.7044296898947005e-05
| 15> C 2.3908357970091663 -0.2599119585322106 1.647682020189907e-06
| 16> C 0.7811202939302175 -2.356174143914816 -0.00011337365026273019
| 17> C -0.7811296013079921 -2.356170405266043 0.00011024759379326754
| 18> H 3.3862317596034757 1.6565221615800636 4.4176721735153364e-05
| 19> H 1.3377859383093325 3.011963665289312 2.993505913789221e-05
| 20> H -1.3377697708595373 3.0119700077107763 -1.6915320839021413e-05
| 21> H -3.3862222970975764 1.656537961219952 -3.968267331427836e-05
| 22> H -3.3234354812398474 -0.8166056532416595 7.272366976812846e-06
| 23> H 3.3234336273551697 -0.8166210764438989 -1.0119459609718327e-05
| 24> H 1.182991557997656 -2.870990321021063 -0.8788993564045293
| 25> H 1.1832822228142874 -2.871248067600506 0.8783846281131669
| 26> H -1.18329405813113 -2.8712401330714448 -0.8783890180416694
| 27> H -1.183003150653679 -2.8709870152680943 0.8788949618461231
| 28> *
| 29>
| 30>                          ****END OF INPUT****

CARTESIAN COORDINATES (ANGSTROEM)
---------------------------------
  C      2.420457    1.159251    0.000027
  C      1.271621    1.927629    0.000020
  C      0.000004    1.299192    0.000004
  C     -1.271611    1.927635   -0.000010
  C     -2.420450    1.159262   -0.000019
  C     -2.390835   -0.259901   -0.000001
  C     -1.170076   -0.895887    0.000018
  C      0.000001   -0.113041    0.000002
  C      1.170073   -0.895893   -0.000017
  C      2.390836   -0.259912    0.000002
  C      0.781120   -2.356174   -0.000113
  C     -0.781130   -2.356170    0.000110
  H      3.386232    1.656522    0.000044
  H      1.337786    3.011964    0.000030
  H     -1.337770    3.011970   -0.000017
  H     -3.386222    1.656538   -0.000040
  H     -3.323435   -0.816606    0.000007
  H      3.323434   -0.816621   -0.000010
  H      1.182992   -2.870990   -0.878899
  H      1.183282   -2.871248    0.878385
  H     -1.183294   -2.871240   -0.878389
  H     -1.183003   -2.870987    0.878895

 Total Charge           Charge          ....    0
 Multiplicity           Mult            ....    1
 Number of Electrons    NEL             ....   82
 Basis Dimension        Dim             ....  432

ORBITAL ENERGIES
----------------

  NO   OCC          E(Eh)            E(eV)
   0   2.0000     -12.057826      -328.1101
   1   2.0000     -12.057749      -328.1080
   2   2.0000     -12.057616      -328.1044
   3   2.0000     -12.056550      -328.0754
   4   2.0000     -12.055490      -328.0466
   5   2.0000     -12.052835      -327.9743
   6   2.0000     -12.052818      -327.9739
   7   2.0000     -12.048326      -327.8516
   8   2.0000     -12.047871      -327.8392
   9   2.0000     -12.047486      -327.8287
  10   2.0000     -12.047282      -327.8232
  11   2.0000     -12.043352      -327.7163
  12   2.0000      -1.415028       -38.5049
  13   2.0000      -1.345212       -36.6051
  14   2.0000      -1.338511       -36.4227
  15   2.0000      -1.267993       -34.5038
  16   2.0000      -1.253895       -34.1202
  17   2.0000      -1.236893       -33.6576
  18   2.0000      -1.158218       -31.5167
  19   2.0000      -1.124261       -30.5927
  20   2.0000      -1.089568       -29.6487
  21   2.0000      -1.069279       -29.0966
  22   2.0000      -0.993865       -27.0444
  23   2.0000      -0.981583       -26.7102
  24   2.0000      -0.955506       -26.0006
  25   2.0000      -0.908941       -24.7335
  26   2.0000      -0.899972       -24.4895
  27   2.0000      -0.898869       -24.4595
  28   2.0000      -0.888716       -24.1832
  29   2.0000      -0.865172       -23.5425
  30   2.0000      -0.855906       -23.2904
  31   2.0000      -0.822550       -22.3827
  32   2.0000      -0.818956       -22.2849
  33   2.0000      -0.807573       -21.9752
  34   2.0000      -0.800765       -21.7899
  35   2.0000      -0.800535       -21.7837
  36   2.0000      -0.789296       -21.4778
  37   2.0000      -0.716476       -19.4963
  38   2.0000      -0.674328       -18.3494
  39   2.0000      -0.625937       -17.0326
  40   2.0000      -0.590322       -16.0635
  41   0.0000      -0.279091        -7.5945
  42   0.0000      -0.253690        -6.9033
  43   0.0000      -0.198655        -5.4057
  44   0.0000      -0.129503        -3.5240
  45   0.0000      -0.071873        -1.9558

MULLIKEN ATOMIC CHARGES
-----------------------
   0 C :   -0.068982
   1 C :   -0.234427
   2 C :    0.087854
   3 C :   -0.234290
   4 C :   -0.068711
   5 C :   -0.216775
   6 C :   -0.010765
   7 C :    0.126168
   8 C :   -0.010824
   9 C :   -0.216299
  10 C :   -0.124466
  11 C :   -0.124033
  12 H :    0.114085
  13 H :    0.110861
  14 H :    0.110858
  15 H :    0.114106
  16 H :    0.112740
  17 H :    0.112902
  18 H :    0.105017
  19 H :    0.105016
  20 H :    0.104990
  21 H :    0.104976
Sum of atomic charges:    0.0000000

LOEWDIN ATOMIC CHARGES
----------------------
   0 C :   -0.133546
   1 C :   -0.109118
   2 C :   -0.095352
   3 C :   -0.109117
   4 C :   -0.133546
   5 C :   -0.122633
   6 C :   -0.092883
   7 C :   -0.039408
   8 C :   -0.092885
   9 C :   -0.122630
  10 C :   -0.178460
  11 C :   -0.178459
  12 H :    0.141622
  13 H :    0.142672
  14 H :    0.142671
  15 H :    0.141622
  16 H :    0.140690
  17 H :    0.140690
  18 H :    0.139521
  19 H :    0.139514
  20 H :    0.139514
  21 H :    0.139521

  Mayer bond orders larger than 0.100000
B(  0-C ,  1-C ) :   1.5577 B(  0-C ,  9-C ) :   1.2678 B(  0-C , 12-H ) :   0.9832
B(  1-C ,  2-C ) :   1.2316 B(  1-C , 13-H ) :   0.9861 B(  2-C ,  3-C ) :   1.2315
B(  2-C ,  7-C ) :   1.2833 B(  3-C ,  4-C ) :   1.5575 B(  3-C , 14-H ) :   0.9860
B(  4-C ,  5-C ) :   1.2676 B(  4-C , 15-H ) :   0.9832 B(  5-C ,  6-C ) :   1.5348
B(  5-C , 16-H ) :   0.9843 B(  6-C ,  7-C ) :   1.1917 B(  6-C , 11-C ) :   1.0160
B(  7-C ,  8-C ) :   1.1922 B(  8-C ,  9-C ) :   1.5352 B(  8-C , 10-C ) :   1.0157
B(  9-C , 17-H ) :   0.9839 B( 10-C , 11-C ) :   1.0838 B( 10-C , 18-H ) :   0.9473
B( 10-C , 19-H ) :   0.9473 B( 11-C , 20-H ) :   0.9472 B( 11-C , 21-H ) :   0.9471

FINAL SINGLE POINT ENERGY      -463.334182936927

DIPOLE MOMENT
-------------

Method             : SCF
Type of density    : Electron Density
Multiplicity       :   1
Irrep              :   0
Energy             :  -463.3455701634267712 Eh
Relativity type    :
Basis              : AO
                                X                 Y                 Z
Electronic contribution:      0.000005269       3.189846450       0.000008600
Nuclear contribution   :     -0.000008034      -3.560628564      -0.000010563
                        -----------------------------------------
Total Dipole Moment    :     -0.000002765      -0.370782114      -0.000001964
                        -----------------------------------------
Magnitude (a.u.)       :      0.370782114
Magnitude (Debye)      :      0.942453236

Rotational constants in cm-1:             0.047122             0.039930             0.021788
Rotational constants in MHz :          1412.672794          1197.058495           653.193208

                             ****ORCA TERMINATED NORMALLY****
TOTAL RUN TIME: 0 days 0 hours 6 minutes 3 seconds 773 msec
