                         Program Version 6.0.0  -   RELEASE  -
|  1> ! wb97x-v def2-tzvp def2/J RIJCOSX DEFGRID2 scfconv7 GCP(DFT/TZ) printgap
|  2> %output
|  3>     printlevel normal
|  4> end
|  5> %cpcm
|  6>     smd true
|  7>     smdsolvent "water"
|  8> end
|  9> * xyz 0 1
| 10> C 2.4204567523677625 1.1592509885162077 2.7086860117149976e-05
| 11> C 1.271621424897635 1.9276289226371293 2.023466316355022e-05
| 12> C 3.909878982177879e-06 1.2991922827963092 4.192205671115802e-06
| 13> C -1.2716107315686873 1.9276349403640034 -1.0419599440754734e-05
| 14> C -2.4204495782849698 1.1592623048392408 -1.937356132023112e-05
| 15> C -2.3908351696496437 -0.2599007371251271 -1.4981165428477739e-06
| 16> C -1.1700755252828432 -0.8958872630040227 1.7521207800404566e-05
| 17> C 6.627759827877505e-07 -0.11304143478381898 2.2940931501117386e-06
| 18> C 1.1700731773724817 -0.8958927575456814 -1.7044296898947005e-05
| 19> C 2.3908357970091663 -0.2599119585322106 1.647682020189907e-06
| 20> C 0.7811202939302175 -2.356174143914816 -0.00011337365026273019
| 21> C -0.7811296013079921 -2.356170405266043 0.00011024759379326754
| 22> H 3.3862317596034757 1.6565221615800636 4.4176721735153364e-05
| 23> H 1.3377859383093325 3.011963665289312 2.993505913789221e-05
| 24> H -1.3377697708595373 3.0119700077107763 -1.6915320839021413e-05
| 25> H -3.3862222970975764 1.656537961219952 -3.968267331427836e-05
| 26> H -3.3234354812398474 -0.8166056532416595 7.272366976812846e-06
| 27> H 3.3234336273551697 -0.8166210764438989 -1.0119459609718327e-05
| 28> H 1.182991557997656 -2.870990321021063 -0.8788993564045293
| 29> H 1.1832822228142874 -2.871248067600506 0.8783846281131669
| 30> H -1.18329405813113 -2.8712401330714448 -0.8783890180416694
| 31> H -1.183003150653679 -2.8709870152680943 0.8788949618461231
| 32> *
| 33>
| 34>                          ****END OF INPUT****

CARTESIAN COORDINATES (ANGSTROEM)
---------------------------------
  C      2.420457    1.159251    0.000027
  C      1.271621    1.927629    0.000020
  C      0.000004    1.299192    0.000004
  C     -1.271611    1.927635   -0.000010
  C     -2.420450    1.159262   -0.000019
  C     -2.390835   -0.259901   -0.000001
  C     -1.170076   -0.895887    0.000018
  C      0.000001   -0.113041    0.000002
  C      1.170073   -0.895893   -0.000017
  C      2.390836   -0.259912    0.000002
  C      0.781120   -2.356174   -0.000113
  C     -0.781130   -2.356170    0.000110
  H      3.386232    1.656522    0.000044
  H      1.337786    3.011964    0.000030
  H     -1.337770    3.011970   -0.000017
  H     -3.386222    1.656538   -0.000040
  H     -3.323435   -0.816606    0.000007
  H      3.323434   -0.816621   -0.000010
  H      1.182992   -2.870990   -0.878899
  H      1.183282   -2.871248    0.878385
  H     -1.183294   -2.871240   -0.878389
  H     -1.183003   -2.870987    0.878895

 Total Charge           Charge          ....    0
 Multiplicity           Mult            ....    1
 Number of Electrons    NEL             ....   82
 Basis Dimension        Dim             ....  432

ORBITAL ENERGIES
----------------

  NO   OCC          E(Eh)            E(eV)
   0   2.0000     -12.059737      -328.1621
   1   2.0000     -12.057350      -328.0972
   2   2.0000     -12.057130      -328.0912
   3   2.0000     -12.052222      -327.9576
   4   2.0000     -12.052205      -327.9572
   5   2.0000     -12.047583      -327.8314
   6   2.0000     -12.047014      -327.8159
   7   2.0000     -12.046654      -327.8061
   8   2.0000     -12.045955      -327.7871
   9   2.0000     -12.045728      -327.7809
  10   2.0000     -12.045231      -327.7674
  11   2.0000     -12.044364      -327.7438
  12   2.0000      -1.415586       -38.5201
  13   2.0000      -1.345864       -36.6228
  14   2.0000      -1.337097       -36.3843
  15   2.0000      -1.268593       -34.5202
  16   2.0000      -1.253364       -34.1058
  17   2.0000      -1.232384       -33.5349
  18   2.0000      -1.155229       -31.4354
  19   2.0000      -1.123864       -30.5819
  20   2.0000      -1.085619       -29.5412
  21   2.0000      -1.067992       -29.0615
  22   2.0000      -0.992398       -27.0045
  23   2.0000      -0.980742       -26.6874
  24   2.0000      -0.954731       -25.9796
  25   2.0000      -0.907186       -24.6858
  26   2.0000      -0.898285       -24.4436
  27   2.0000      -0.894528       -24.3413
  28   2.0000      -0.879602       -23.9352
  29   2.0000      -0.861718       -23.4485
  30   2.0000      -0.852502       -23.1978
  31   2.0000      -0.819482       -22.2992
  32   2.0000      -0.810640       -22.0586
  33   2.0000      -0.804649       -21.8956
  34   2.0000      -0.798213       -21.7205
  35   2.0000      -0.791263       -21.5314
  36   2.0000      -0.791182       -21.5292
  37   2.0000      -0.717516       -19.5246
  38   2.0000      -0.675751       -18.3881
  39   2.0000      -0.628658       -17.1067
  40   2.0000      -0.591175       -16.0867
  41   0.0000      -0.280018        -7.6197
  42   0.0000      -0.255943        -6.9646
  43   0.0000      -0.199996        -5.4422
  44   0.0000      -0.130084        -3.5398
  45   0.0000      -0.066259        -1.8030

MULLIKEN ATOMIC CHARGES
-----------------------
   0 C :   -0.107873
   1 C :   -0.288892
   2 C :    0.073532
   3 C :   -0.288758
   4 C :   -0.107589
   5 C :   -0.265080
   6 C :   -0.030168
   7 C :    0.123579
   8 C :   -0.030275
   9 C :   -0.264596
  10 C :   -0.130833
  11 C :   -0.130452
  12 H :    0.159352
  13 H :    0.156261
  14 H :    0.156259
  15 H :    0.159369
  16 H :    0.155361
  17 H :    0.155525
  18 H :    0.126336
  19 H :    0.126335
  20 H :    0.126310
  21 H :    0.126297
Sum of atomic charges:    0.0000000

LOEWDIN ATOMIC CHARGES
----------------------
   0 C :   -0.143393
   1 C :   -0.121436
   2 C :   -0.109759
   3 C :   -0.121435
   4 C :   -0.143392
   5 C :   -0.130258
   6 C :   -0.096135
   7 C :   -0.049476
   8 C :   -0.096138
   9 C :   -0.130255
  10 C :   -0.175052
  11 C :   -0.175052
  12 H :    0.151138
  13 H :    0.152385
  14 H :    0.152384
  15 H :    0.151139
  16 H :    0.150529
  17 H :    0.150529
  18 H :    0.145923
  19 H :    0.145917
  20 H :    0.145917
  21 H :    0.145923

  Mayer bond orders larger than 0.100000
B(  0-C ,  1-C ) :   1.5367 B(  0-C ,  9-C ) :   1.2532 B(  0-C , 12-H ) :   0.9843
B(  1-C ,  2-C ) :   1.2134 B(  1-C , 13-H ) :   0.9948 B(  2-C ,  3-C ) :   1.2133
B(  2-C ,  7-C ) :   1.2452 B(  3-C ,  4-C ) :   1.5366 B(  3-C , 14-H ) :   0.9948
B(  4-C ,  5-C ) :   1.2529 B(  4-C , 15-H ) :   0.9844 B(  5-C ,  6-C ) :   1.5044
B(  5-C , 16-H ) :   0.9942 B(  6-C ,  7-C ) :   1.1837 B(  6-C , 11-C ) :   1.0320
B(  7-C ,  8-C ) :   1.1842 B(  8-C ,  9-C ) :   1.5048 B(  8-C , 10-C ) :   1.0318
B(  9-C , 17-H ) :   0.9937 B( 10-C , 11-C ) :   1.0784 B( 10-C , 18-H ) :   0.9417
B( 10-C , 19-H ) :   0.9417 B( 11-C , 20-H ) :   0.9415 B( 11-C , 21-H ) :   0.9415

FINAL SINGLE POINT ENERGY      -463.338054298496

DIPOLE MOMENT
-------------

Method             : SCF
Type of density    : Electron Density
Multiplicity       :   1
Irrep              :   0
Energy             :  -463.3494415249958820 Eh
Relativity type    :
Basis              : AO
                                X                 Y                 Z
Electronic contribution:      0.000002799       2.973040250       0.000007343
Nuclear contribution   :     -0.000008034      -3.560628564      -0.000010563
                        -----------------------------------------
Total Dipole Moment    :     -0.000005235      -0.587588314      -0.000003221
                        -----------------------------------------
Magnitude (a.u.)       :      0.587588314
Magnitude (Debye)      :      1.493530802

Rotational constants in cm-1:             0.047122             0.039930             0.021788
Rotational constants in MHz :          1412.672794          1197.058495           653.193208

                             ****ORCA TERMINATED NORMALLY****
TOTAL RUN TIME: 0 days 0 hours 5 minutes 41 seconds 263 msec
