                         Program Version 6.0.0  -   RELEASE  -
|  1> ! r2scan-3c def2/J RI DEFGRID2 scfconv6 printgap
|  2> %output
|  3>     printlevel normal
|  4> end
|  5> * xyz 0 1
|  6> C 5.1276563552 -0.4642044452 -1.286233643
|  7> C 4.4499297164 -0.5764836163 0.0645604497
|  8> O 3.466256069 0.4546500954 0.2717962741
|  9> P 2.0278264515 0.5026962527 -0.4079904592
| 10> S 1.9410623808 0.8124056341 -2.3366073367
| 11> O 1.3543258443 1.6683128759 0.4062610092
| 12> C 1.3413943379 1.7194359486 1.8537726935
| 13> C 2.3770544512 2.7031415144 2.356644531
| 14> S 1.198918384 -1.3409844868 0.265117491
| 15> C 0.1112189077 -1.7578560662 -1.1299594419
| 16> S -1.5939780646 -2.0518796789 -0.6146350418
| 17> P -2.058222419 -0.0755574582 0.022770631
| 18> S -1.4299068586 1.3610263747 -1.150787456
| 19> O -1.5447523927 0.0671880619 1.5039675301
| 20> C -1.9896080736 -0.8352176977 2.5595456828
| 21> C -0.8160644853 -1.1471584736 3.4639703682
| 22> O -3.6306539 -0.1541937312 0.2291171777
| 23> C -4.5339299974 -0.2263150801 -0.8936376993
| 24> C -5.9202813703 0.1274830663 -0.3954692507
| 25> H 4.4104924062 -0.6280500675 -2.0876955926
| 26> H 5.5579839343 0.5262514312 -1.4097786082
| 27> H 5.914134455 -1.2088738746 -1.3540954314
| 28> H 5.1616946113 -0.4190670642 0.8772997029
| 29> H 3.9678951877 -1.5509427961 0.1820359892
| 30> H 0.3266600824 2.0343487012 2.1077274891
| 31> H 1.5229758816 0.7144425895 2.2452749246
| 32> H 2.3108564938 2.7674070482 3.4381752223
| 33> H 3.3735640915 2.3748346542 2.0733342428
| 34> H 2.1965780686 3.6840322735 1.925293641
| 35> H 0.4592827075 -2.6895556037 -1.5687885001
| 36> H 0.1520564244 -0.9395643461 -1.8552062653
| 37> H -2.7874070623 -0.3178201289 3.0938391921
| 38> H -2.3889911778 -1.743233575 2.09992355
| 39> H -0.4183253984 -0.23250168 3.8937433713
| 40> H -1.1545963599 -1.8000872332 4.2620159369
| 41> H -0.0302776001 -1.6478219823 2.9036058577
| 42> H -4.1899399491 0.472974785 -1.6628387811
| 43> H -4.4986516811 -1.2435802736 -1.2923995486
| 44> H -5.9279394398 1.1393947087 -0.0002891236
| 45> H -6.6220985166 0.0597922745 -1.2200764075
| 46> H -6.2184129499 -0.5609002221 0.3897183199
| 47> *
| 48>
| 49>                          ****END OF INPUT****

CARTESIAN COORDINATES (ANGSTROEM)
---------------------------------
  C      5.127656   -0.464204   -1.286234
  C      4.449930   -0.576484    0.064560
  O      3.466256    0.454650    0.271796
  P      2.027826    0.502696   -0.407990
  S      1.941062    0.812406   -2.336607
  O      1.354326    1.668313    0.406261
  C      1.341394    1.719436    1.853773
  C      2.377054    2.703142    2.356645
  S      1.198918   -1.340984    0.265117
  C      0.111219   -1.757856   -1.129959
  S     -1.593978   -2.051880   -0.614635
  P     -2.058222   -0.075557    0.022771
  S     -1.429907    1.361026   -1.150787
  O     -1.544752    0.067188    1.503968
  C     -1.989608   -0.835218    2.559546
  C     -0.816064   -1.147158    3.463970
  O     -3.630654   -0.154194    0.229117
  C     -4.533930   -0.226315   -0.893638
  C     -5.920281    0.127483   -0.395469
  H      4.410492   -0.628050   -2.087696
  H      5.557984    0.526251   -1.409779
  H      5.914134   -1.208874   -1.354095
  H      5.161695   -0.419067    0.877300
  H      3.967895   -1.550943    0.182036
  H      0.326660    2.034349    2.107727
  H      1.522976    0.714443    2.245275
  H      2.310856    2.767407    3.438175
  H      3.373564    2.374835    2.073334
  H      2.196578    3.684032    1.925294
  H      0.459283   -2.689556   -1.568789
  H      0.152056   -0.939564   -1.855206
  H     -2.787407   -0.317820    3.093839
  H     -2.388991   -1.743234    2.099924
  H     -0.418325   -0.232502    3.893743
  H     -1.154596   -1.800087    4.262016
  H     -0.030278   -1.647822    2.903606
  H     -4.189940    0.472975   -1.662839
  H     -4.498652   -1.243580   -1.292400
  H     -5.927939    1.139395   -0.000289
  H     -6.622099    0.059792   -1.220076
  H     -6.218413   -0.560900    0.389718

 Total Charge           Charge          ....    0
 Multiplicity           Mult            ....    1
 Number of Electrons    NEL             ....  202
 Basis Dimension        Dim             ....  539

ORBITAL ENERGIES
----------------

  NO   OCC          E(Eh)            E(eV)
   0   2.0000     -88.575483     -2410.2614
   1   2.0000     -88.572439     -2410.1786
   2   2.0000     -88.510996     -2408.5066
   3   2.0000     -88.510295     -2408.4876
   4   2.0000     -76.909397     -2092.8111
   5   2.0000     -76.908545     -2092.7879
   6   2.0000     -18.992796      -516.8203
   7   2.0000     -18.991593      -516.7875
   8   2.0000     -18.989673      -516.7353
   9   2.0000     -18.981178      -516.5041
  10   2.0000     -10.104958      -274.9699
  11   2.0000     -10.103832      -274.9392
  12   2.0000     -10.098763      -274.8013
  13   2.0000     -10.098675      -274.7989
  14   2.0000     -10.094820      -274.6940
  15   2.0000     -10.036348      -273.1029
  16   2.0000     -10.033450      -273.0241
  17   2.0000     -10.026033      -272.8222
  18   2.0000     -10.022194      -272.7178
  19   2.0000      -7.869938      -214.1519
  20   2.0000      -7.867123      -214.0753
  21   2.0000      -7.805436      -212.3967
  22   2.0000      -7.805141      -212.3887
  23   2.0000      -6.587970      -179.2678
  24   2.0000      -6.586662      -179.2322
  25   2.0000      -5.816759      -158.2821
  26   2.0000      -5.813843      -158.2027
  27   2.0000      -5.813535      -158.1943
  28   2.0000      -5.810823      -158.1205
  29   2.0000      -5.807347      -158.0259
  30   2.0000      -5.804470      -157.9476
  31   2.0000      -5.753264      -156.5543
  32   2.0000      -5.753008      -156.5473
  33   2.0000      -5.745614      -156.3461
  34   2.0000      -5.745453      -156.3417
  35   2.0000      -5.745430      -156.3411
  36   2.0000      -5.744877      -156.3260
  37   2.0000      -4.733807      -128.8134
  38   2.0000      -4.733064      -128.7932
  39   2.0000      -4.732348      -128.7737
  40   2.0000      -4.731869      -128.7607
  41   2.0000      -4.731186      -128.7421
  42   2.0000      -4.730019      -128.7104
  43   2.0000      -1.051584       -28.6150
  44   2.0000      -1.045998       -28.4631
  45   2.0000      -1.009882       -27.4803
  46   2.0000      -1.003131       -27.2966
  47   2.0000      -0.798347       -21.7241
  48   2.0000      -0.758995       -20.6533
  49   2.0000      -0.749909       -20.4061
  50   2.0000      -0.737682       -20.0733
  51   2.0000      -0.730138       -19.8681
  52   2.0000      -0.708630       -19.2828
  53   2.0000      -0.680422       -18.5152
  54   2.0000      -0.663050       -18.0425
  55   2.0000      -0.617376       -16.7997
  56   2.0000      -0.613149       -16.6846
  57   2.0000      -0.607500       -16.5309
  58   2.0000      -0.601489       -16.3674
  59   2.0000      -0.598546       -16.2873
  60   2.0000      -0.537611       -14.6291
  61   2.0000      -0.523046       -14.2328
  62   2.0000      -0.501680       -13.6514
  63   2.0000      -0.491886       -13.3849
  64   2.0000      -0.468451       -12.7472
  65   2.0000      -0.465483       -12.6664
  66   2.0000      -0.456071       -12.4103
  67   2.0000      -0.454536       -12.3686
  68   2.0000      -0.446019       -12.1368
  69   2.0000      -0.434983       -11.8365
  70   2.0000      -0.422479       -11.4962
  71   2.0000      -0.417721       -11.3668
  72   2.0000      -0.408830       -11.1248
  73   2.0000      -0.398021       -10.8307
  74   2.0000      -0.393571       -10.7096
  75   2.0000      -0.382915       -10.4196
  76   2.0000      -0.375176       -10.2090
  77   2.0000      -0.370357       -10.0779
  78   2.0000      -0.369524       -10.0553
  79   2.0000      -0.368093       -10.0163
  80   2.0000      -0.363437        -9.8896
  81   2.0000      -0.358045        -9.7429
  82   2.0000      -0.353265        -9.6128
  83   2.0000      -0.350603        -9.5404
  84   2.0000      -0.346499        -9.4287
  85   2.0000      -0.329002        -8.9526
  86   2.0000      -0.327355        -8.9078
  87   2.0000      -0.318912        -8.6780
  88   2.0000      -0.315456        -8.5840
  89   2.0000      -0.306343        -8.3360
  90   2.0000      -0.299464        -8.1488
  91   2.0000      -0.290157        -7.8956
  92   2.0000      -0.284799        -7.7498
  93   2.0000      -0.274402        -7.4669
  94   2.0000      -0.270783        -7.3684
  95   2.0000      -0.247876        -6.7450
  96   2.0000      -0.233337        -6.3494
  97   2.0000      -0.221659        -6.0316
  98   2.0000      -0.210962        -5.7406
  99   2.0000      -0.201353        -5.4791
 100   2.0000      -0.192878        -5.2485
 101   0.0000      -0.041058        -1.1172
 102   0.0000      -0.031238        -0.8500
 103   0.0000      -0.005508        -0.1499
 104   0.0000       0.014649         0.3986
 105   0.0000       0.018456         0.5022

MULLIKEN ATOMIC CHARGES
-----------------------
   0 C :   -0.427881
   1 C :   -0.165288
   2 O :   -0.286445
   3 P :    0.670714
   4 S :   -0.421248
   5 O :   -0.255287
   6 C :   -0.100776
   7 C :   -0.488693
   8 S :   -0.217316
   9 C :   -0.216371
  10 S :   -0.180122
  11 P :    0.644395
  12 S :   -0.387549
  13 O :   -0.257616
  14 C :   -0.099000
  15 C :   -0.470664
  16 O :   -0.292078
  17 C :   -0.157225
  18 C :   -0.439866
  19 H :    0.175300
  20 H :    0.154341
  21 H :    0.142021
  22 H :    0.145940
  23 H :    0.154947
  24 H :    0.176131
  25 H :    0.147845
  26 H :    0.142516
  27 H :    0.164843
  28 H :    0.161227
  29 H :    0.192677
  30 H :    0.224727
  31 H :    0.156207
  32 H :    0.155101
  33 H :    0.154142
  34 H :    0.147211
  35 H :    0.174436
  36 H :    0.173757
  37 H :    0.148237
  38 H :    0.159390
  39 H :    0.147367
  40 H :    0.149953
Sum of atomic charges:   -0.0000000

LOEWDIN ATOMIC CHARGES
----------------------
   0 C :   -0.404988
   1 C :    0.020040
   2 O :   -0.674602
   3 P :    0.376547
   4 S :   -0.096211
   5 O :   -0.651248
   6 C :    0.019360
   7 C :   -0.392295
   8 S :    0.120574
   9 C :   -0.417834
  10 S :    0.117894
  11 P :    0.365083
  12 S :   -0.051246
  13 O :   -0.657612
  14 C :    0.023024
  15 C :   -0.397201
  16 O :   -0.673669
  17 C :    0.020161
  18 C :   -0.385785
  19 H :    0.168707
  20 H :    0.161943
  21 H :    0.156271
  22 H :    0.178159
  23 H :    0.173843
  24 H :    0.187784
  25 H :    0.173397
  26 H :    0.156977
  27 H :    0.165089
  28 H :    0.163282
  29 H :    0.179295
  30 H :    0.203724
  31 H :    0.176378
  32 H :    0.176978
  33 H :    0.158935
  34 H :    0.159474
  35 H :    0.165854
  36 H :    0.182321
  37 H :    0.170919
  38 H :    0.162059
  39 H :    0.160344
  40 H :    0.158274

  Mayer bond orders larger than 0.100000
B(  0-C ,  1-C ) :   0.9524 B(  0-C , 19-H ) :   0.9517 B(  0-C , 20-H ) :   0.9700
B(  0-C , 21-H ) :   0.9646 B(  1-C ,  2-O ) :   0.8042 B(  1-C , 22-H ) :   0.9643
B(  1-C , 23-H ) :   0.9561 B(  2-O ,  3-P ) :   1.0439 B(  3-P ,  4-S ) :   1.8538
B(  3-P ,  5-O ) :   1.1640 B(  3-P ,  8-S ) :   0.9879 B(  5-O ,  6-C ) :   0.7224
B(  6-C ,  7-C ) :   0.9337 B(  6-C , 24-H ) :   0.9546 B(  6-C , 25-H ) :   0.9667
B(  7-C , 26-H ) :   0.9666 B(  7-C , 27-H ) :   0.9719 B(  7-C , 28-H ) :   0.9738
B(  8-S ,  9-C ) :   0.8983 B(  9-C , 10-S ) :   0.9239 B(  9-C , 29-H ) :   0.9158
B(  9-C , 30-H ) :   0.9037 B( 10-S , 11-P ) :   0.9713 B( 11-P , 12-S ) :   1.9020
B( 11-P , 13-O ) :   1.1059 B( 11-P , 16-O ) :   1.0582 B( 13-O , 14-C ) :   0.7534
B( 14-C , 15-C ) :   0.9474 B( 14-C , 31-H ) :   0.9503 B( 14-C , 32-H ) :   0.9598
B( 15-C , 33-H ) :   0.9717 B( 15-C , 34-H ) :   0.9627 B( 15-C , 35-H ) :   0.9663
B( 16-O , 17-C ) :   0.7866 B( 17-C , 18-C ) :   0.9568 B( 17-C , 36-H ) :   0.9508
B( 17-C , 37-H ) :   0.9418 B( 18-C , 38-H ) :   0.9711 B( 18-C , 39-H ) :   0.9639
B( 18-C , 40-H ) :   0.9718

Dispersion correction           -0.021822444
FINAL SINGLE POINT ENERGY     -2932.455599586626

DIPOLE MOMENT
-------------

Method             : SCF
Type of density    : Electron Density
Multiplicity       :   1
Irrep              :   0
Energy             : -2932.4803469684084121 Eh
Relativity type    :
Basis              : AO
                                X                 Y                 Z
Electronic contribution:     -1.368169719       0.143768260     -14.646187275
Nuclear contribution   :      1.066982311      -1.449998455      16.478189466
                        -----------------------------------------
Total Dipole Moment    :     -0.301187407      -1.306230196       1.832002191
                        -----------------------------------------
Magnitude (a.u.)       :      2.270062379
Magnitude (Debye)      :      5.770040015

Rotational constants in cm-1:             0.012870             0.005086             0.004780
Rotational constants in MHz :           385.829657           152.461598           143.292277

                             ****ORCA TERMINATED NORMALLY****
TOTAL RUN TIME: 0 days 0 hours 1 minutes 20 seconds 353 msec
