                         Program Version 6.0.0  -   RELEASE  -
|  1> ! r2scan-3c def2/J RI DEFGRID2 scfconv6 printgap
|  2> %output
|  3>     printlevel normal
|  4> end
|  5> %cpcm
|  6>     smd true
|  7>     smdsolvent "water"
|  8> end
|  9> * xyz 0 1
| 10> C 5.1276563552 -0.4642044452 -1.286233643
| 11> C 4.4499297164 -0.5764836163 0.0645604497
| 12> O 3.466256069 0.4546500954 0.2717962741
| 13> P 2.0278264515 0.5026962527 -0.4079904592
| 14> S 1.9410623808 0.8124056341 -2.3366073367
| 15> O 1.3543258443 1.6683128759 0.4062610092
| 16> C 1.3413943379 1.7194359486 1.8537726935
| 17> C 2.3770544512 2.7031415144 2.356644531
| 18> S 1.198918384 -1.3409844868 0.265117491
| 19> C 0.1112189077 -1.7578560662 -1.1299594419
| 20> S -1.5939780646 -2.0518796789 -0.6146350418
| 21> P -2.058222419 -0.0755574582 0.022770631
| 22> S -1.4299068586 1.3610263747 -1.150787456
| 23> O -1.5447523927 0.0671880619 1.5039675301
| 24> C -1.9896080736 -0.8352176977 2.5595456828
| 25> C -0.8160644853 -1.1471584736 3.4639703682
| 26> O -3.6306539 -0.1541937312 0.2291171777
| 27> C -4.5339299974 -0.2263150801 -0.8936376993
| 28> C -5.9202813703 0.1274830663 -0.3954692507
| 29> H 4.4104924062 -0.6280500675 -2.0876955926
| 30> H 5.5579839343 0.5262514312 -1.4097786082
| 31> H 5.914134455 -1.2088738746 -1.3540954314
| 32> H 5.1616946113 -0.4190670642 0.8772997029
| 33> H 3.9678951877 -1.5509427961 0.1820359892
| 34> H 0.3266600824 2.0343487012 2.1077274891
| 35> H 1.5229758816 0.7144425895 2.2452749246
| 36> H 2.3108564938 2.7674070482 3.4381752223
| 37> H 3.3735640915 2.3748346542 2.0733342428
| 38> H 2.1965780686 3.6840322735 1.925293641
| 39> H 0.4592827075 -2.6895556037 -1.5687885001
| 40> H 0.1520564244 -0.9395643461 -1.8552062653
| 41> H -2.7874070623 -0.3178201289 3.0938391921
| 42> H -2.3889911778 -1.743233575 2.09992355
| 43> H -0.4183253984 -0.23250168 3.8937433713
| 44> H -1.1545963599 -1.8000872332 4.2620159369
| 45> H -0.0302776001 -1.6478219823 2.9036058577
| 46> H -4.1899399491 0.472974785 -1.6628387811
| 47> H -4.4986516811 -1.2435802736 -1.2923995486
| 48> H -5.9279394398 1.1393947087 -0.0002891236
| 49> H -6.6220985166 0.0597922745 -1.2200764075
| 50> H -6.2184129499 -0.5609002221 0.3897183199
| 51> *
| 52>
| 53>                          ****END OF INPUT****

CARTESIAN COORDINATES (ANGSTROEM)
---------------------------------
  C      5.127656   -0.464204   -1.286234
  C      4.449930   -0.576484    0.064560
  O      3.466256    0.454650    0.271796
  P      2.027826    0.502696   -0.407990
  S      1.941062    0.812406   -2.336607
  O      1.354326    1.668313    0.406261
  C      1.341394    1.719436    1.853773
  C      2.377054    2.703142    2.356645
  S      1.198918   -1.340984    0.265117
  C      0.111219   -1.757856   -1.129959
  S     -1.593978   -2.051880   -0.614635
  P     -2.058222   -0.075557    0.022771
  S     -1.429907    1.361026   -1.150787
  O     -1.544752    0.067188    1.503968
  C     -1.989608   -0.835218    2.559546
  C     -0.816064   -1.147158    3.463970
  O     -3.630654   -0.154194    0.229117
  C     -4.533930   -0.226315   -0.893638
  C     -5.920281    0.127483   -0.395469
  H      4.410492   -0.628050   -2.087696
  H      5.557984    0.526251   -1.409779
  H      5.914134   -1.208874   -1.354095
  H      5.161695   -0.419067    0.877300
  H      3.967895   -1.550943    0.182036
  H      0.326660    2.034349    2.107727
  H      1.522976    0.714443    2.245275
  H      2.310856    2.767407    3.438175
  H      3.373564    2.374835    2.073334
  H      2.196578    3.684032    1.925294
  H      0.459283   -2.689556   -1.568789
  H      0.152056   -0.939564   -1.855206
  H     -2.787407   -0.317820    3.093839
  H     -2.388991   -1.743234    2.099924
  H     -0.418325   -0.232502    3.893743
  H     -1.154596   -1.800087    4.262016
  H     -0.030278   -1.647822    2.903606
  H     -4.189940    0.472975   -1.662839
  H     -4.498652   -1.243580   -1.292400
  H     -5.927939    1.139395   -0.000289
  H     -6.622099    0.059792   -1.220076
  H     -6.218413   -0.560900    0.389718

 Total Charge           Charge          ....    0
 Multiplicity           Mult            ....    1
 Number of Electrons    NEL             ....  202
 Basis Dimension        Dim             ....  539

ORBITAL ENERGIES
----------------

  NO   OCC          E(Eh)            E(eV)
   0   2.0000     -88.579509     -2410.3710
   1   2.0000     -88.576339     -2410.2847
   2   2.0000     -88.523573     -2408.8489
   3   2.0000     -88.523145     -2408.8372
   4   2.0000     -76.917865     -2093.0415
   5   2.0000     -76.916866     -2093.0143
   6   2.0000     -18.994655      -516.8708
   7   2.0000     -18.994320      -516.8617
   8   2.0000     -18.993234      -516.8322
   9   2.0000     -18.989457      -516.7294
  10   2.0000     -10.103200      -274.9220
  11   2.0000     -10.092539      -274.6320
  12   2.0000     -10.090676      -274.5813
  13   2.0000     -10.090471      -274.5757
  14   2.0000     -10.089766      -274.5565
  15   2.0000     -10.019582      -272.6467
  16   2.0000     -10.019007      -272.6310
  17   2.0000     -10.017929      -272.6017
  18   2.0000     -10.015569      -272.5375
  19   2.0000      -7.873774      -214.2563
  20   2.0000      -7.870777      -214.1747
  21   2.0000      -7.819014      -212.7662
  22   2.0000      -7.818246      -212.7453
  23   2.0000      -6.596006      -179.4864
  24   2.0000      -6.595428      -179.4707
  25   2.0000      -5.820622      -158.3872
  26   2.0000      -5.817558      -158.3038
  27   2.0000      -5.817404      -158.2996
  28   2.0000      -5.814532      -158.2214
  29   2.0000      -5.811164      -158.1298
  30   2.0000      -5.808052      -158.0451
  31   2.0000      -5.766722      -156.9205
  32   2.0000      -5.765913      -156.8985
  33   2.0000      -5.759379      -156.7207
  34   2.0000      -5.758733      -156.7031
  35   2.0000      -5.758376      -156.6934
  36   2.0000      -5.758315      -156.6917
  37   2.0000      -4.741639      -129.0266
  38   2.0000      -4.741212      -129.0149
  39   2.0000      -4.741133      -129.0128
  40   2.0000      -4.740482      -128.9951
  41   2.0000      -4.739540      -128.9694
  42   2.0000      -4.738811      -128.9496
  43   2.0000      -1.053749       -28.6740
  44   2.0000      -1.051566       -28.6146
  45   2.0000      -1.011230       -27.5170
  46   2.0000      -1.008372       -27.4392
  47   2.0000      -0.800411       -21.7803
  48   2.0000      -0.755094       -20.5471
  49   2.0000      -0.746817       -20.3219
  50   2.0000      -0.726666       -19.7736
  51   2.0000      -0.724566       -19.7164
  52   2.0000      -0.709304       -19.3011
  53   2.0000      -0.686496       -18.6805
  54   2.0000      -0.670508       -18.2455
  55   2.0000      -0.618996       -16.8437
  56   2.0000      -0.610491       -16.6123
  57   2.0000      -0.599989       -16.3265
  58   2.0000      -0.596950       -16.2438
  59   2.0000      -0.596635       -16.2353
  60   2.0000      -0.534897       -14.5553
  61   2.0000      -0.521537       -14.1917
  62   2.0000      -0.497277       -13.5316
  63   2.0000      -0.490800       -13.3554
  64   2.0000      -0.466963       -12.7067
  65   2.0000      -0.464994       -12.6531
  66   2.0000      -0.453411       -12.3379
  67   2.0000      -0.448400       -12.2016
  68   2.0000      -0.443939       -12.0802
  69   2.0000      -0.431797       -11.7498
  70   2.0000      -0.420138       -11.4325
  71   2.0000      -0.416419       -11.3313
  72   2.0000      -0.404071       -10.9953
  73   2.0000      -0.395419       -10.7599
  74   2.0000      -0.386525       -10.5179
  75   2.0000      -0.379583       -10.3290
  76   2.0000      -0.373361       -10.1597
  77   2.0000      -0.369089       -10.0434
  78   2.0000      -0.364145        -9.9089
  79   2.0000      -0.359123        -9.7722
  80   2.0000      -0.354877        -9.6567
  81   2.0000      -0.350881        -9.5480
  82   2.0000      -0.348356        -9.4793
  83   2.0000      -0.347148        -9.4464
  84   2.0000      -0.343312        -9.3420
  85   2.0000      -0.328719        -8.9449
  86   2.0000      -0.322845        -8.7851
  87   2.0000      -0.315280        -8.5792
  88   2.0000      -0.312236        -8.4964
  89   2.0000      -0.304049        -8.2736
  90   2.0000      -0.300170        -8.1680
  91   2.0000      -0.289783        -7.8854
  92   2.0000      -0.284459        -7.7405
  93   2.0000      -0.277189        -7.5427
  94   2.0000      -0.273955        -7.4547
  95   2.0000      -0.251499        -6.8436
  96   2.0000      -0.241101        -6.5607
  97   2.0000      -0.235163        -6.3991
  98   2.0000      -0.224286        -6.1031
  99   2.0000      -0.213280        -5.8037
 100   2.0000      -0.207089        -5.6352
 101   0.0000      -0.045171        -1.2292
 102   0.0000      -0.038004        -1.0341
 103   0.0000      -0.010266        -0.2793
 104   0.0000       0.008075         0.2197
 105   0.0000       0.013472         0.3666

MULLIKEN ATOMIC CHARGES
-----------------------
   0 C :   -0.475133
   1 C :   -0.148942
   2 O :   -0.308004
   3 P :    0.685887
   4 S :   -0.489607
   5 O :   -0.287565
   6 C :   -0.093073
   7 C :   -0.532496
   8 S :   -0.201468
   9 C :   -0.216358
  10 S :   -0.177634
  11 P :    0.668185
  12 S :   -0.463844
  13 O :   -0.283352
  14 C :   -0.097050
  15 C :   -0.501245
  16 O :   -0.312651
  17 C :   -0.148349
  18 C :   -0.480536
  19 H :    0.166823
  20 H :    0.166468
  21 H :    0.168398
  22 H :    0.174359
  23 H :    0.166630
  24 H :    0.183635
  25 H :    0.173671
  26 H :    0.170883
  27 H :    0.169887
  28 H :    0.168473
  29 H :    0.233890
  30 H :    0.215337
  31 H :    0.178733
  32 H :    0.168274
  33 H :    0.171956
  34 H :    0.170768
  35 H :    0.171732
  36 H :    0.173033
  37 H :    0.168803
  38 H :    0.166269
  39 H :    0.169482
  40 H :    0.165729
Sum of atomic charges:   -0.0000000

LOEWDIN ATOMIC CHARGES
----------------------
   0 C :   -0.409734
   1 C :    0.028088
   2 O :   -0.680812
   3 P :    0.378553
   4 S :   -0.148011
   5 O :   -0.677787
   6 C :    0.024340
   7 C :   -0.394468
   8 S :    0.137955
   9 C :   -0.413370
  10 S :    0.127935
  11 P :    0.369604
  12 S :   -0.107408
  13 O :   -0.671231
  14 C :    0.030330
  15 C :   -0.397590
  16 O :   -0.682121
  17 C :    0.024135
  18 C :   -0.388934
  19 H :    0.162571
  20 H :    0.162540
  21 H :    0.166544
  22 H :    0.190527
  23 H :    0.179351
  24 H :    0.191037
  25 H :    0.183091
  26 H :    0.168613
  27 H :    0.165297
  28 H :    0.163981
  29 H :    0.195356
  30 H :    0.199813
  31 H :    0.185980
  32 H :    0.182070
  33 H :    0.164825
  34 H :    0.168757
  35 H :    0.164038
  36 H :    0.181543
  37 H :    0.179335
  38 H :    0.163050
  39 H :    0.168974
  40 H :    0.163229

  Mayer bond orders larger than 0.100000
B(  0-C ,  1-C ) :   0.9333 B(  0-C , 19-H ) :   0.9564 B(  0-C , 20-H ) :   0.9722
B(  0-C , 21-H ) :   0.9585 B(  1-C ,  2-O ) :   0.7960 B(  1-C , 22-H ) :   0.9552
B(  1-C , 23-H ) :   0.9511 B(  2-O ,  3-P ) :   1.0586 B(  3-P ,  4-S ) :   1.8095
B(  3-P ,  5-O ) :   1.1680 B(  3-P ,  8-S ) :   1.0166 B(  5-O ,  6-C ) :   0.7104
B(  6-C ,  7-C ) :   0.9306 B(  6-C , 24-H ) :   0.9471 B(  6-C , 25-H ) :   0.9531
B(  7-C , 26-H ) :   0.9593 B(  7-C , 27-H ) :   0.9703 B(  7-C , 28-H ) :   0.9728
B(  8-S ,  9-C ) :   0.8900 B(  9-C , 10-S ) :   0.9148 B(  9-C , 29-H ) :   0.9001
B(  9-C , 30-H ) :   0.9083 B( 10-S , 11-P ) :   0.9981 B( 11-P , 12-S ) :   1.8495
B( 11-P , 13-O ) :   1.1203 B( 11-P , 16-O ) :   1.0684 B( 13-O , 14-C ) :   0.7392
B( 14-C , 15-C ) :   0.9448 B( 14-C , 31-H ) :   0.9392 B( 14-C , 32-H ) :   0.9527
B( 15-C , 33-H ) :   0.9667 B( 15-C , 34-H ) :   0.9571 B( 15-C , 35-H ) :   0.9655
B( 16-O , 17-C ) :   0.7782 B( 17-C , 18-C ) :   0.9550 B( 17-C , 36-H ) :   0.9484
B( 17-C , 37-H ) :   0.9326 B( 18-C , 38-H ) :   0.9691 B( 18-C , 39-H ) :   0.9582
B( 18-C , 40-H ) :   0.9685

Dispersion correction           -0.021822444
FINAL SINGLE POINT ENERGY     -2932.467946744393

DIPOLE MOMENT
-------------

Method             : SCF
Type of density    : Electron Density
Multiplicity       :   1
Irrep              :   0
Energy             : -2932.4926941261751381 Eh
Relativity type    :
Basis              : AO
                                X                 Y                 Z
Electronic contribution:     -1.421589341      -0.834276845     -13.789820707
Nuclear contribution   :      1.066982311      -1.449998455      16.478189466
                        -----------------------------------------
Total Dipole Moment    :     -0.354607030      -2.284275300       2.688368759
                        -----------------------------------------
Magnitude (a.u.)       :      3.545558683
Magnitude (Debye)      :      9.012093970

Rotational constants in cm-1:             0.012870             0.005086             0.004780
Rotational constants in MHz :           385.829657           152.461598           143.292277

                             ****ORCA TERMINATED NORMALLY****
TOTAL RUN TIME: 0 days 0 hours 2 minutes 14 seconds 39 msec
