                         Program Version 6.0.0  -   RELEASE  -
|  1> ! r2scan-3c def2/J RI DEFGRID2 scfconv6 printgap
|  2> %output
|  3>     printlevel normal
|  4> end
|  5> * xyz 0 1
|  6> C 3.4979265075 -5.8103e-06 -1.83766e-05
|  7> C 2.8130885839 -1.2018090139 -1.37074e-05
|  8> C 1.4175679582 -1.226149272 1.7287e-06
|  9> C 0.6764892634 -2.4453952536 7.2816e-06
| 10> C -0.6764924241 -2.4453922195 9.9383e-06
| 11> C -1.4175713517 -1.2261463697 7.4947e-06
| 12> C -2.8130913949 -1.2018067118 4.8415e-06
| 13> C -3.4979273517 -2.5953e-06 -1.61653e-05
| 14> C -2.8130876305 1.2018066353 -2.07749e-05
| 15> C -1.4175723957 1.2261524203 -2.4999e-06
| 16> C -0.7076946936 2.1183e-06 4.2537e-06
| 17> C 0.7076922482 1.6178e-06 4.9458e-06
| 18> C 1.4175739101 1.2261480518 6.5664e-06
| 19> C 2.8130919785 1.2018047929 -3.0673e-06
| 20> C 0.6764931603 2.4453971363 1.61039e-05
| 21> C -0.6764876728 2.4453959502 1.22792e-05
| 22> H 4.5779833669 -5.3092e-06 -1.43696e-05
| 23> H 3.3561394734 -2.1357008102 -2.03524e-05
| 24> H 1.2285505524 -3.3743366163 1.37175e-05
| 25> H -1.2285489647 -3.3743355707 2.22618e-05
| 26> H -3.3561435202 -2.1356974518 2.7189e-06
| 27> H -4.5779876487 3.1858e-06 -2.19156e-05
| 28> H -3.3561463766 2.1356918124 -2.28167e-05
| 29> H 3.3561578219 2.1356850782 5.3713e-06
| 30> H 1.2285559098 3.3743383745 1.59925e-05
| 31> H -1.2285450626 3.3743397123 9.3549e-06
| 32> *
| 33>
| 34>                          ****END OF INPUT****

CARTESIAN COORDINATES (ANGSTROEM)
---------------------------------
  C      3.497927   -0.000006   -0.000018
  C      2.813089   -1.201809   -0.000014
  C      1.417568   -1.226149    0.000002
  C      0.676489   -2.445395    0.000007
  C     -0.676492   -2.445392    0.000010
  C     -1.417571   -1.226146    0.000007
  C     -2.813091   -1.201807    0.000005
  C     -3.497927   -0.000003   -0.000016
  C     -2.813088    1.201807   -0.000021
  C     -1.417572    1.226152   -0.000002
  C     -0.707695    0.000002    0.000004
  C      0.707692    0.000002    0.000005
  C      1.417574    1.226148    0.000007
  C      2.813092    1.201805   -0.000003
  C      0.676493    2.445397    0.000016
  C     -0.676488    2.445396    0.000012
  H      4.577983   -0.000005   -0.000014
  H      3.356139   -2.135701   -0.000020
  H      1.228551   -3.374337    0.000014
  H     -1.228549   -3.374336    0.000022
  H     -3.356144   -2.135697    0.000003
  H     -4.577988    0.000003   -0.000022
  H     -3.356146    2.135692   -0.000023
  H      3.356158    2.135685    0.000005
  H      1.228556    3.374338    0.000016
  H     -1.228545    3.374340    0.000009

 Total Charge           Charge          ....    0
 Multiplicity           Mult            ....    1
 Number of Electrons    NEL             ....  106
 Basis Dimension        Dim             ....  354

ORBITAL ENERGIES
----------------

  NO   OCC          E(Eh)            E(eV)
   0   2.0000     -10.048928      -273.4452
   1   2.0000     -10.048925      -273.4451
   2   2.0000     -10.048873      -273.4437
   3   2.0000     -10.048862      -273.4434
   4   2.0000     -10.048003      -273.4201
   5   2.0000     -10.047670      -273.4110
   6   2.0000     -10.041095      -273.2321
   7   2.0000     -10.041092      -273.2320
   8   2.0000     -10.040478      -273.2153
   9   2.0000     -10.040477      -273.2153
  10   2.0000     -10.039510      -273.1890
  11   2.0000     -10.039508      -273.1889
  12   2.0000     -10.039022      -273.1757
  13   2.0000     -10.039020      -273.1756
  14   2.0000     -10.038790      -273.1694
  15   2.0000     -10.038790      -273.1694
  16   2.0000      -0.867721       -23.6119
  17   2.0000      -0.825383       -22.4598
  18   2.0000      -0.804732       -21.8979
  19   2.0000      -0.770819       -20.9750
  20   2.0000      -0.740034       -20.1373
  21   2.0000      -0.721308       -19.6278
  22   2.0000      -0.704076       -19.1589
  23   2.0000      -0.682648       -18.5758
  24   2.0000      -0.601464       -16.3667
  25   2.0000      -0.601255       -16.3610
  26   2.0000      -0.597952       -16.2711
  27   2.0000      -0.582519       -15.8511
  28   2.0000      -0.517182       -14.0732
  29   2.0000      -0.499326       -13.5873
  30   2.0000      -0.489537       -13.3210
  31   2.0000      -0.477580       -12.9956
  32   2.0000      -0.463953       -12.6248
  33   2.0000      -0.443816       -12.0768
  34   2.0000      -0.412937       -11.2366
  35   2.0000      -0.407039       -11.0761
  36   2.0000      -0.406484       -11.0610
  37   2.0000      -0.393373       -10.7042
  38   2.0000      -0.389224       -10.5913
  39   2.0000      -0.371164       -10.0999
  40   2.0000      -0.369245       -10.0477
  41   2.0000      -0.361933        -9.8487
  42   2.0000      -0.345568        -9.4034
  43   2.0000      -0.338154        -9.2016
  44   2.0000      -0.336840        -9.1659
  45   2.0000      -0.325878        -8.8676
  46   2.0000      -0.300159        -8.1677
  47   2.0000      -0.291310        -7.9270
  48   2.0000      -0.283601        -7.7172
  49   2.0000      -0.261740        -7.1223
  50   2.0000      -0.243039        -6.6134
  51   2.0000      -0.222373        -6.0511
  52   2.0000      -0.190307        -5.1785
  53   0.0000      -0.084080        -2.2879
  54   0.0000      -0.052813        -1.4371
  55   0.0000      -0.037254        -1.0137
  56   0.0000      -0.014288        -0.3888
  57   0.0000       0.024597         0.6693

MULLIKEN ATOMIC CHARGES
-----------------------
   0 C :   -0.170559
   1 C :   -0.203413
   2 C :    0.165322
   3 C :   -0.303847
   4 C :   -0.303837
   5 C :    0.165314
   6 C :   -0.203417
   7 C :   -0.170559
   8 C :   -0.203418
   9 C :    0.165308
  10 C :    0.136602
  11 C :    0.136585
  12 C :    0.165311
  13 C :   -0.203419
  14 C :   -0.303839
  15 C :   -0.303838
  16 H :    0.144483
  17 H :    0.143935
  18 H :    0.142749
  19 H :    0.142749
  20 H :    0.143936
  21 H :    0.144483
  22 H :    0.143935
  23 H :    0.143935
  24 H :    0.142750
  25 H :    0.142750
Sum of atomic charges:    0.0000000

LOEWDIN ATOMIC CHARGES
----------------------
   0 C :   -0.158756
   1 C :   -0.148329
   2 C :   -0.053649
   3 C :   -0.139670
   4 C :   -0.139670
   5 C :   -0.053649
   6 C :   -0.148329
   7 C :   -0.158756
   8 C :   -0.148329
   9 C :   -0.053650
  10 C :   -0.011664
  11 C :   -0.011665
  12 C :   -0.053649
  13 C :   -0.148329
  14 C :   -0.139670
  15 C :   -0.139670
  16 H :    0.168765
  17 H :    0.170650
  18 H :    0.171826
  19 H :    0.171826
  20 H :    0.170650
  21 H :    0.168766
  22 H :    0.170650
  23 H :    0.170650
  24 H :    0.171826
  25 H :    0.171826

  Mayer bond orders larger than 0.100000
B(  0-C ,  1-C ) :   1.3771 B(  0-C , 13-C ) :   1.3771 B(  0-C , 16-H ) :   0.9520
B(  1-C ,  2-C ) :   1.2219 B(  1-C , 17-H ) :   0.9433 B(  2-C ,  3-C ) :   1.0909
B(  2-C , 10-C ) :  -0.1860 B(  2-C , 11-C ) :   1.4551 B(  2-C , 12-C ) :  -0.1358
B(  3-C ,  4-C ) :   1.5239 B(  3-C , 18-H ) :   0.9407 B(  4-C ,  5-C ) :   1.0909
B(  4-C , 19-H ) :   0.9407 B(  5-C ,  6-C ) :   1.2219 B(  5-C ,  9-C ) :  -0.1358
B(  5-C , 10-C ) :   1.4551 B(  5-C , 11-C ) :  -0.1860 B(  6-C ,  7-C ) :   1.3771
B(  6-C , 20-H ) :   0.9433 B(  7-C ,  8-C ) :   1.3771 B(  7-C , 21-H ) :   0.9520
B(  8-C ,  9-C ) :   1.2219 B(  8-C , 22-H ) :   0.9433 B(  9-C , 10-C ) :   1.4551
B(  9-C , 11-C ) :  -0.1860 B(  9-C , 15-C ) :   1.0909 B( 10-C , 11-C ) :   1.0092
B( 10-C , 12-C ) :  -0.1860 B( 11-C , 12-C ) :   1.4551 B( 12-C , 13-C ) :   1.2219
B( 12-C , 14-C ) :   1.0909 B( 13-C , 23-H ) :   0.9433 B( 14-C , 15-C ) :   1.5239
B( 14-C , 24-H ) :   0.9407 B( 15-C , 25-H ) :   0.9407

Dispersion correction           -0.013157797
FINAL SINGLE POINT ENERGY      -615.610898338168

DIPOLE MOMENT
-------------

Method             : SCF
Type of density    : Electron Density
Multiplicity       :   1
Irrep              :   0
Energy             :  -615.6026210211645093 Eh
Relativity type    :
Basis              : AO
                                X                 Y                 Z
Electronic contribution:     -0.000012106       0.000015333       0.000013323
Nuclear contribution   :      0.000014590      -0.000016507      -0.000009417
                        -----------------------------------------
Total Dipole Moment    :      0.000002484      -0.000001175       0.000003906
                        -----------------------------------------
Magnitude (a.u.)       :      0.000004775
Magnitude (Debye)      :      0.000012138

Rotational constants in cm-1:             0.034178             0.018763             0.012113
Rotational constants in MHz :          1024.645060           562.513532           363.150044

                             ****ORCA TERMINATED NORMALLY****
TOTAL RUN TIME: 0 days 0 hours 0 minutes 47 seconds 784 msec
