                         Program Version 6.0.0  -   RELEASE  -
|  1> ! r2scan-3c def2/J RI DEFGRID2 scfconv6 printgap
|  2> %output
|  3>     printlevel normal
|  4> end
|  5> %cpcm
|  6>     smd true
|  7>     smdsolvent "water"
|  8> end
|  9> * xyz 0 1
| 10> C 3.4979265075 -5.8103e-06 -1.83766e-05
| 11> C 2.8130885839 -1.2018090139 -1.37074e-05
| 12> C 1.4175679582 -1.226149272 1.7287e-06
| 13> C 0.6764892634 -2.4453952536 7.2816e-06
| 14> C -0.6764924241 -2.4453922195 9.9383e-06
| 15> C -1.4175713517 -1.2261463697 7.4947e-06
| 16> C -2.8130913949 -1.2018067118 4.8415e-06
| 17> C -3.4979273517 -2.5953e-06 -1.61653e-05
| 18> C -2.8130876305 1.2018066353 -2.07749e-05
| 19> C -1.4175723957 1.2261524203 -2.4999e-06
| 20> C -0.7076946936 2.1183e-06 4.2537e-06
| 21> C 0.7076922482 1.6178e-06 4.9458e-06
| 22> C 1.4175739101 1.2261480518 6.5664e-06
| 23> C 2.8130919785 1.2018047929 -3.0673e-06
| 24> C 0.6764931603 2.4453971363 1.61039e-05
| 25> C -0.6764876728 2.4453959502 1.22792e-05
| 26> H 4.5779833669 -5.3092e-06 -1.43696e-05
| 27> H 3.3561394734 -2.1357008102 -2.03524e-05
| 28> H 1.2285505524 -3.3743366163 1.37175e-05
| 29> H -1.2285489647 -3.3743355707 2.22618e-05
| 30> H -3.3561435202 -2.1356974518 2.7189e-06
| 31> H -4.5779876487 3.1858e-06 -2.19156e-05
| 32> H -3.3561463766 2.1356918124 -2.28167e-05
| 33> H 3.3561578219 2.1356850782 5.3713e-06
| 34> H 1.2285559098 3.3743383745 1.59925e-05
| 35> H -1.2285450626 3.3743397123 9.3549e-06
| 36> *
| 37>
| 38>                          ****END OF INPUT****

CARTESIAN COORDINATES (ANGSTROEM)
---------------------------------
  C      3.497927   -0.000006   -0.000018
  C      2.813089   -1.201809   -0.000014
  C      1.417568   -1.226149    0.000002
  C      0.676489   -2.445395    0.000007
  C     -0.676492   -2.445392    0.000010
  C     -1.417571   -1.226146    0.000007
  C     -2.813091   -1.201807    0.000005
  C     -3.497927   -0.000003   -0.000016
  C     -2.813088    1.201807   -0.000021
  C     -1.417572    1.226152   -0.000002
  C     -0.707695    0.000002    0.000004
  C      0.707692    0.000002    0.000005
  C      1.417574    1.226148    0.000007
  C      2.813092    1.201805   -0.000003
  C      0.676493    2.445397    0.000016
  C     -0.676488    2.445396    0.000012
  H      4.577983   -0.000005   -0.000014
  H      3.356139   -2.135701   -0.000020
  H      1.228551   -3.374337    0.000014
  H     -1.228549   -3.374336    0.000022
  H     -3.356144   -2.135697    0.000003
  H     -4.577988    0.000003   -0.000022
  H     -3.356146    2.135692   -0.000023
  H      3.356158    2.135685    0.000005
  H      1.228556    3.374338    0.000016
  H     -1.228545    3.374340    0.000009

 Total Charge           Charge          ....    0
 Multiplicity           Mult            ....    1
 Number of Electrons    NEL             ....  106
 Basis Dimension        Dim             ....  354

ORBITAL ENERGIES
----------------

  NO   OCC          E(Eh)            E(eV)
   0   2.0000     -10.049441      -273.4592
   1   2.0000     -10.049365      -273.4571
   2   2.0000     -10.049248      -273.4539
   3   2.0000     -10.049236      -273.4536
   4   2.0000     -10.048952      -273.4459
   5   2.0000     -10.048697      -273.4389
   6   2.0000     -10.038578      -273.1636
   7   2.0000     -10.038575      -273.1635
   8   2.0000     -10.037961      -273.1468
   9   2.0000     -10.037960      -273.1468
  10   2.0000     -10.036966      -273.1197
  11   2.0000     -10.036963      -273.1196
  12   2.0000     -10.036679      -273.1119
  13   2.0000     -10.036677      -273.1119
  14   2.0000     -10.036292      -273.1014
  15   2.0000     -10.036291      -273.1014
  16   2.0000      -0.869013       -23.6470
  17   2.0000      -0.825761       -22.4701
  18   2.0000      -0.804587       -21.8939
  19   2.0000      -0.770198       -20.9581
  20   2.0000      -0.739533       -20.1237
  21   2.0000      -0.720797       -19.6139
  22   2.0000      -0.703463       -19.1422
  23   2.0000      -0.681173       -18.5357
  24   2.0000      -0.600140       -16.3306
  25   2.0000      -0.599039       -16.3007
  26   2.0000      -0.596307       -16.2263
  27   2.0000      -0.580687       -15.8013
  28   2.0000      -0.514086       -13.9890
  29   2.0000      -0.496498       -13.5104
  30   2.0000      -0.486071       -13.2267
  31   2.0000      -0.475436       -12.9373
  32   2.0000      -0.460090       -12.5197
  33   2.0000      -0.438723       -11.9383
  34   2.0000      -0.407831       -11.0976
  35   2.0000      -0.405746       -11.0409
  36   2.0000      -0.404779       -11.0146
  37   2.0000      -0.397026       -10.8036
  38   2.0000      -0.386773       -10.5246
  39   2.0000      -0.365694        -9.9510
  40   2.0000      -0.365489        -9.9455
  41   2.0000      -0.356754        -9.7078
  42   2.0000      -0.348385        -9.4800
  43   2.0000      -0.334166        -9.0931
  44   2.0000      -0.332940        -9.0598
  45   2.0000      -0.328191        -8.9305
  46   2.0000      -0.297599        -8.0981
  47   2.0000      -0.288029        -7.8377
  48   2.0000      -0.285447        -7.7674
  49   2.0000      -0.264142        -7.1877
  50   2.0000      -0.245312        -6.6753
  51   2.0000      -0.224691        -6.1141
  52   2.0000      -0.191693        -5.2162
  53   0.0000      -0.085000        -2.3130
  54   0.0000      -0.054656        -1.4873
  55   0.0000      -0.038845        -1.0570
  56   0.0000      -0.016083        -0.4376
  57   0.0000       0.024474         0.6660

MULLIKEN ATOMIC CHARGES
-----------------------
   0 C :   -0.206770
   1 C :   -0.209772
   2 C :    0.106070
   3 C :   -0.320941
   4 C :   -0.320955
   5 C :    0.106100
   6 C :   -0.209774
   7 C :   -0.206777
   8 C :   -0.209772
   9 C :    0.106036
  10 C :    0.162882
  11 C :    0.162982
  12 C :    0.106004
  13 C :   -0.209777
  14 C :   -0.320916
  15 C :   -0.320938
  16 H :    0.177499
  17 H :    0.179992
  18 H :    0.177838
  19 H :    0.177837
  20 H :    0.179992
  21 H :    0.177500
  22 H :    0.179992
  23 H :    0.179991
  24 H :    0.177838
  25 H :    0.177837
Sum of atomic charges:    0.0000000

LOEWDIN ATOMIC CHARGES
----------------------
   0 C :   -0.165712
   1 C :   -0.152911
   2 C :   -0.066135
   3 C :   -0.145046
   4 C :   -0.145046
   5 C :   -0.066135
   6 C :   -0.152910
   7 C :   -0.165712
   8 C :   -0.152911
   9 C :   -0.066136
  10 C :   -0.023204
  11 C :   -0.023204
  12 C :   -0.066135
  13 C :   -0.152911
  14 C :   -0.145046
  15 C :   -0.145047
  16 H :    0.180374
  17 H :    0.183533
  18 H :    0.184830
  19 H :    0.184830
  20 H :    0.183533
  21 H :    0.180375
  22 H :    0.183533
  23 H :    0.183533
  24 H :    0.184830
  25 H :    0.184830

  Mayer bond orders larger than 0.100000
B(  0-C ,  1-C ) :   1.3393 B(  0-C , 13-C ) :   1.3393 B(  0-C , 16-H ) :   0.9684
B(  1-C ,  2-C ) :   1.2353 B(  1-C , 17-H ) :   0.9523 B(  2-C ,  3-C ) :   1.0971
B(  2-C , 10-C ) :  -0.1780 B(  2-C , 11-C ) :   1.3657 B(  2-C , 12-C ) :  -0.1210
B(  3-C ,  4-C ) :   1.4857 B(  3-C , 18-H ) :   0.9609 B(  4-C ,  5-C ) :   1.0971
B(  4-C , 19-H ) :   0.9609 B(  5-C ,  6-C ) :   1.2353 B(  5-C ,  9-C ) :  -0.1210
B(  5-C , 10-C ) :   1.3657 B(  5-C , 11-C ) :  -0.1780 B(  6-C ,  7-C ) :   1.3393
B(  6-C , 20-H ) :   0.9523 B(  7-C ,  8-C ) :   1.3393 B(  7-C , 21-H ) :   0.9684
B(  8-C ,  9-C ) :   1.2353 B(  8-C , 22-H ) :   0.9523 B(  9-C , 10-C ) :   1.3657
B(  9-C , 11-C ) :  -0.1781 B(  9-C , 15-C ) :   1.0971 B( 10-C , 11-C ) :   0.9916
B( 10-C , 12-C ) :  -0.1780 B( 11-C , 12-C ) :   1.3657 B( 12-C , 13-C ) :   1.2353
B( 12-C , 14-C ) :   1.0971 B( 13-C , 23-H ) :   0.9523 B( 14-C , 15-C ) :   1.4858
B( 14-C , 24-H ) :   0.9609 B( 15-C , 25-H ) :   0.9609

Dispersion correction           -0.013157797
FINAL SINGLE POINT ENERGY      -615.616845017768

DIPOLE MOMENT
-------------

Method             : SCF
Type of density    : Electron Density
Multiplicity       :   1
Irrep              :   0
Energy             :  -615.6085677007642971 Eh
Relativity type    :
Basis              : AO
                                X                 Y                 Z
Electronic contribution:     -0.000011434       0.000011942       0.000014650
Nuclear contribution   :      0.000014590      -0.000016507      -0.000009417
                        -----------------------------------------
Total Dipole Moment    :      0.000003156      -0.000004566       0.000005233
                        -----------------------------------------
Magnitude (a.u.)       :      0.000007628
Magnitude (Debye)      :      0.000019390

Rotational constants in cm-1:             0.034178             0.018763             0.012113
Rotational constants in MHz :          1024.645060           562.513532           363.150044

                             ****ORCA TERMINATED NORMALLY****
TOTAL RUN TIME: 0 days 0 hours 1 minutes 6 seconds 641 msec
