                         Program Version 6.0.0  -   RELEASE  -
|  1> ! pbe def2-sv(p) def2/J RI DEFGRID1 loosescf d4 GCP(DFT/SV(P)) printgap
|  2> %output
|  3>     printlevel normal
|  4> end
|  5> * xyz 0 1
|  6> C 1.6010306842 2.8128173635 0.1776133639
|  7> C 2.4019413783 2.3205667951 1.3656095976
|  8> O 2.8946444035 0.9843868313 1.1709218681
|  9> P 1.9728192239 -0.3079837064 1.2948523007
| 10> S 0.6734813219 -0.3029919418 2.7539001923
| 11> O 3.0430632631 -1.4470622865 1.5183300916
| 12> C 4.1625529414 -1.6803145775 0.6238777673
| 13> C 3.9552410573 -2.9681304567 -0.1481903535
| 14> S 1.2389925743 -0.6118475518 -0.6806208373
| 15> C -0.1117971664 -1.7505243338 -0.2394177346
| 16> S -1.5930115135 -1.5549845834 -1.2660367125
| 17> P -2.0965377984 0.4814595848 -0.8975055569
| 18> S -3.9230519975 0.9809870778 -1.3936687898
| 19> O -0.9563350375 1.3559849836 -1.5732990539
| 20> C -1.0110313084 1.7508431633 -2.9545391674
| 21> C -0.6826837012 0.6015397461 -3.8874089163
| 22> O -1.6611359683 0.7493917652 0.6071727982
| 23> C -2.6275451215 0.7274359099 1.6723027636
| 24> C -3.0877938925 -0.6791896451 1.9981575454
| 25> H 0.665883056 2.2619531007 0.0920749862
| 26> H 1.3734506042 3.8655822695 0.3121836563
| 27> H 2.1704346478 2.6821414903 -0.7392415585
| 28> H 1.7977401943 2.3399956717 2.2785145057
| 29> H 3.3071637818 2.9127568922 1.510590746
| 30> H 4.2712152871 -0.8249163245 -0.0457566002
| 31> H 5.0325962633 -1.745730672 1.2788104966
| 32> H 3.1239604291 -2.8699506083 -0.8418345625
| 33> H 4.8570735118 -3.192731572 -0.7088342148
| 34> H 3.7497547683 -3.7838610832 0.5394738688
| 35> H -0.3634928443 -1.582151851 0.809510881
| 36> H 0.2060451945 -2.7767795689 -0.4084290379
| 37> H -2.0090832268 2.150433773 -3.163187992
| 38> H -0.270942617 2.5491460387 -3.0269396118
| 39> H -1.4719946594 -0.1481462706 -3.8544293817
| 40> H -0.5969439678 0.9780902045 -4.9015787327
| 41> H 0.256175559 0.1380988395 -3.5926907689
| 42> H -2.1010627755 1.1762064899 2.5160182475
| 43> H -3.4772241339 1.3522331235 1.3802345433
| 44> H -2.2473915082 -1.2863520936 2.3266274472
| 45> H -3.8217254354 -0.6365001827 2.796363637
| 46> H -3.5460457275 -1.1350054793 1.1204396446
| 47> *
| 48>
| 49>                          ****END OF INPUT****

CARTESIAN COORDINATES (ANGSTROEM)
---------------------------------
  C      1.601031    2.812817    0.177613
  C      2.401941    2.320567    1.365610
  O      2.894644    0.984387    1.170922
  P      1.972819   -0.307984    1.294852
  S      0.673481   -0.302992    2.753900
  O      3.043063   -1.447062    1.518330
  C      4.162553   -1.680315    0.623878
  C      3.955241   -2.968130   -0.148190
  S      1.238993   -0.611848   -0.680621
  C     -0.111797   -1.750524   -0.239418
  S     -1.593012   -1.554985   -1.266037
  P     -2.096538    0.481460   -0.897506
  S     -3.923052    0.980987   -1.393669
  O     -0.956335    1.355985   -1.573299
  C     -1.011031    1.750843   -2.954539
  C     -0.682684    0.601540   -3.887409
  O     -1.661136    0.749392    0.607173
  C     -2.627545    0.727436    1.672303
  C     -3.087794   -0.679190    1.998158
  H      0.665883    2.261953    0.092075
  H      1.373451    3.865582    0.312184
  H      2.170435    2.682141   -0.739242
  H      1.797740    2.339996    2.278515
  H      3.307164    2.912757    1.510591
  H      4.271215   -0.824916   -0.045757
  H      5.032596   -1.745731    1.278810
  H      3.123960   -2.869951   -0.841835
  H      4.857074   -3.192732   -0.708834
  H      3.749755   -3.783861    0.539474
  H     -0.363493   -1.582152    0.809511
  H      0.206045   -2.776780   -0.408429
  H     -2.009083    2.150434   -3.163188
  H     -0.270943    2.549146   -3.026940
  H     -1.471995   -0.148146   -3.854429
  H     -0.596944    0.978090   -4.901579
  H      0.256176    0.138099   -3.592691
  H     -2.101063    1.176206    2.516018
  H     -3.477224    1.352233    1.380235
  H     -2.247392   -1.286352    2.326627
  H     -3.821725   -0.636500    2.796364
  H     -3.546046   -1.135005    1.120440

 Total Charge           Charge          ....    0
 Multiplicity           Mult            ....    1
 Number of Electrons    NEL             ....  202
 Basis Dimension        Dim             ....  334

ORBITAL ENERGIES
----------------

  NO   OCC          E(Eh)            E(eV)
   0   2.0000     -88.047197     -2395.8860
   1   2.0000     -88.047027     -2395.8814
   2   2.0000     -87.992035     -2394.3850
   3   2.0000     -87.988629     -2394.2923
   4   2.0000     -76.430623     -2079.7830
   5   2.0000     -76.426197     -2079.6625
   6   2.0000     -18.799016      -511.5472
   7   2.0000     -18.793571      -511.3991
   8   2.0000     -18.788807      -511.2694
   9   2.0000     -18.787598      -511.2365
  10   2.0000      -9.960838      -271.0482
  11   2.0000      -9.958671      -270.9892
  12   2.0000      -9.954368      -270.8721
  13   2.0000      -9.951503      -270.7942
  14   2.0000      -9.945189      -270.6223
  15   2.0000      -9.891496      -269.1613
  16   2.0000      -9.883638      -268.9475
  17   2.0000      -9.880919      -268.8735
  18   2.0000      -9.876892      -268.7639
  19   2.0000      -7.691821      -209.3051
  20   2.0000      -7.691627      -209.2998
  21   2.0000      -7.637170      -207.8180
  22   2.0000      -7.633728      -207.7243
  23   2.0000      -6.428314      -174.9233
  24   2.0000      -6.423708      -174.7980
  25   2.0000      -5.720107      -155.6520
  26   2.0000      -5.719440      -155.6339
  27   2.0000      -5.716351      -155.5498
  28   2.0000      -5.716016      -155.5407
  29   2.0000      -5.708779      -155.3438
  30   2.0000      -5.708493      -155.3360
  31   2.0000      -5.666151      -154.1838
  32   2.0000      -5.662730      -154.0907
  33   2.0000      -5.657826      -153.9573
  34   2.0000      -5.657139      -153.9386
  35   2.0000      -5.654370      -153.8632
  36   2.0000      -5.653806      -153.8479
  37   2.0000      -4.651166      -126.5647
  38   2.0000      -4.649914      -126.5306
  39   2.0000      -4.648674      -126.4969
  40   2.0000      -4.645984      -126.4237
  41   2.0000      -4.645859      -126.4203
  42   2.0000      -4.644059      -126.3713
  43   2.0000      -0.991552       -26.9815
  44   2.0000      -0.986259       -26.8375
  45   2.0000      -0.948205       -25.8020
  46   2.0000      -0.943406       -25.6714
  47   2.0000      -0.763975       -20.7888
  48   2.0000      -0.723440       -19.6858
  49   2.0000      -0.710616       -19.3368
  50   2.0000      -0.691066       -18.8048
  51   2.0000      -0.682920       -18.5832
  52   2.0000      -0.678722       -18.4690
  53   2.0000      -0.655581       -17.8393
  54   2.0000      -0.640298       -17.4234
  55   2.0000      -0.600343       -16.3362
  56   2.0000      -0.593585       -16.1523
  57   2.0000      -0.579795       -15.7770
  58   2.0000      -0.566150       -15.4057
  59   2.0000      -0.562374       -15.3030
  60   2.0000      -0.506746       -13.7893
  61   2.0000      -0.492383       -13.3984
  62   2.0000      -0.477456       -12.9923
  63   2.0000      -0.465860       -12.6767
  64   2.0000      -0.455237       -12.3876
  65   2.0000      -0.450711       -12.2645
  66   2.0000      -0.445878       -12.1330
  67   2.0000      -0.440461       -11.9855
  68   2.0000      -0.430411       -11.7121
  69   2.0000      -0.419603       -11.4180
  70   2.0000      -0.410913       -11.1815
  71   2.0000      -0.399178       -10.8622
  72   2.0000      -0.395385       -10.7590
  73   2.0000      -0.389936       -10.6107
  74   2.0000      -0.382305       -10.4031
  75   2.0000      -0.373194       -10.1551
  76   2.0000      -0.369838       -10.0638
  77   2.0000      -0.361624        -9.8403
  78   2.0000      -0.353346        -9.6150
  79   2.0000      -0.351736        -9.5712
  80   2.0000      -0.349629        -9.5139
  81   2.0000      -0.346633        -9.4324
  82   2.0000      -0.337158        -9.1745
  83   2.0000      -0.333774        -9.0825
  84   2.0000      -0.330750        -9.0002
  85   2.0000      -0.321297        -8.7429
  86   2.0000      -0.318030        -8.6540
  87   2.0000      -0.305287        -8.3073
  88   2.0000      -0.298466        -8.1217
  89   2.0000      -0.296496        -8.0681
  90   2.0000      -0.284164        -7.7325
  91   2.0000      -0.274816        -7.4781
  92   2.0000      -0.268766        -7.3135
  93   2.0000      -0.264823        -7.2062
  94   2.0000      -0.259744        -7.0680
  95   2.0000      -0.230154        -6.2628
  96   2.0000      -0.222392        -6.0516
  97   2.0000      -0.213336        -5.8052
  98   2.0000      -0.210238        -5.7209
  99   2.0000      -0.203860        -5.5473
 100   2.0000      -0.202349        -5.5062
 101   0.0000      -0.044886        -1.2214
 102   0.0000      -0.034486        -0.9384
 103   0.0000      -0.025268        -0.6876
 104   0.0000      -0.001207        -0.0328
 105   0.0000       0.013202         0.3592

MULLIKEN ATOMIC CHARGES
-----------------------
   0 C :   -0.347477
   1 C :   -0.001426
   2 O :   -0.380506
   3 P :    0.609187
   4 S :   -0.306175
   5 O :   -0.361022
   6 C :   -0.010878
   7 C :   -0.292273
   8 S :   -0.108090
   9 C :   -0.356321
  10 S :   -0.091313
  11 P :    0.606101
  12 S :   -0.317503
  13 O :   -0.353350
  14 C :   -0.003256
  15 C :   -0.315858
  16 O :   -0.363464
  17 C :    0.003901
  18 C :   -0.333900
  19 H :    0.167481
  20 H :    0.110499
  21 H :    0.107442
  22 H :    0.110800
  23 H :    0.103922
  24 H :    0.106207
  25 H :    0.113454
  26 H :    0.118977
  27 H :    0.110946
  28 H :    0.120736
  29 H :    0.209606
  30 H :    0.179783
  31 H :    0.111351
  32 H :    0.104264
  33 H :    0.125563
  34 H :    0.111382
  35 H :    0.118369
  36 H :    0.109344
  37 H :    0.111996
  38 H :    0.135920
  39 H :    0.110950
  40 H :    0.124629
Sum of atomic charges:    0.0000000

LOEWDIN ATOMIC CHARGES
----------------------
   0 C :   -0.375240
   1 C :   -0.116134
   2 O :   -0.246388
   3 P :    0.573822
   4 S :   -0.289720
   5 O :   -0.244043
   6 C :   -0.112954
   7 C :   -0.360569
   8 S :    0.077882
   9 C :   -0.480481
  10 S :    0.087365
  11 P :    0.568950
  12 S :   -0.315636
  13 O :   -0.231252
  14 C :   -0.118717
  15 C :   -0.369128
  16 O :   -0.232645
  17 C :   -0.121548
  18 C :   -0.370161
  19 H :    0.128406
  20 H :    0.130770
  21 H :    0.121044
  22 H :    0.111244
  23 H :    0.117830
  24 H :    0.108765
  25 H :    0.123102
  26 H :    0.119448
  27 H :    0.130574
  28 H :    0.129280
  29 H :    0.121440
  30 H :    0.133969
  31 H :    0.109708
  32 H :    0.117824
  33 H :    0.120452
  34 H :    0.129718
  35 H :    0.120869
  36 H :    0.117903
  37 H :    0.108897
  38 H :    0.123354
  39 H :    0.131559
  40 H :    0.120440

  Mayer bond orders larger than 0.100000
B(  0-C ,  1-C ) :   1.1632 B(  0-C , 19-H ) :   0.9196 B(  0-C , 20-H ) :   0.9375
B(  0-C , 21-H ) :   0.9451 B(  1-C ,  2-O ) :   0.9036 B(  1-C , 22-H ) :   0.9154
B(  1-C , 23-H ) :   0.9336 B(  2-O ,  3-P ) :   1.0997 B(  3-P ,  4-S ) :   1.6285
B(  3-P ,  5-O ) :   1.1329 B(  3-P ,  8-S ) :   0.9518 B(  4-S ,  8-S ) :   0.1126
B(  5-O ,  6-C ) :   0.8896 B(  6-C ,  7-C ) :   1.1635 B(  6-C , 24-H ) :   0.9183
B(  6-C , 25-H ) :   0.9340 B(  7-C , 26-H ) :   0.9375 B(  7-C , 27-H ) :   0.9396
B(  7-C , 28-H ) :   0.9462 B(  8-S ,  9-C ) :   0.9920 B(  9-C , 10-S ) :   1.0030
B(  9-C , 29-H ) :   0.8477 B(  9-C , 30-H ) :   0.9070 B( 10-S , 11-P ) :   0.9539
B( 11-P , 12-S ) :   1.6448 B( 11-P , 13-O ) :   1.0894 B( 11-P , 16-O ) :   1.0992
B( 13-O , 14-C ) :   0.9167 B( 14-C , 15-C ) :   1.1632 B( 14-C , 31-H ) :   0.9137
B( 14-C , 32-H ) :   0.9329 B( 15-C , 33-H ) :   0.9388 B( 15-C , 34-H ) :   0.9385
B( 15-C , 35-H ) :   0.9430 B( 16-O , 17-C ) :   0.8994 B( 17-C , 18-C ) :   1.1673
B( 17-C , 36-H ) :   0.9235 B( 17-C , 37-H ) :   0.9165 B( 18-C , 38-H ) :   0.9333
B( 18-C , 39-H ) :   0.9381 B( 18-C , 40-H ) :   0.9357

Dispersion correction           -0.067217553
FINAL SINGLE POINT ENERGY     -2929.519557053048

DIPOLE MOMENT
-------------

Method             : SCF
Type of density    : Electron Density
Multiplicity       :   1
Irrep              :   0
Energy             : -2929.6392449648569709 Eh
Relativity type    :
Basis              : AO
                                X                 Y                 Z
Electronic contribution:     -8.860514700      -2.066133626       3.875457566
Nuclear contribution   :     10.495344055       2.187033893      -4.367389623
                        -----------------------------------------
Total Dipole Moment    :      1.634829355       0.120900268      -0.491932056
                        -----------------------------------------
Magnitude (a.u.)       :      1.711514254
Magnitude (Debye)      :      4.350323508

Rotational constants in cm-1:             0.011525             0.005500             0.005183
Rotational constants in MHz :           345.517136           164.876288           155.373327

                             ****ORCA TERMINATED NORMALLY****
TOTAL RUN TIME: 0 days 0 hours 0 minutes 22 seconds 229 msec
