                         Program Version 6.0.0  -   RELEASE  -
|  1> ! pbe def2-sv(p) def2/J RI DEFGRID1 loosescf d4 GCP(DFT/SV(P)) printgap
|  2> %output
|  3>     printlevel normal
|  4> end
|  5> * xyz 0 1
|  6> C 2.2192642602 2.3499138856 1.6523429386
|  7> C 1.2795934038 1.2762794801 2.1561803387
|  8> O 1.7818706259 -0.0656599308 1.9477786829
|  9> P 2.3808340048 -0.6951504782 0.6336938945
| 10> S 2.5046871737 -2.6409749408 0.7927600332
| 11> O 3.7739405439 0.0531472473 0.4789220346
| 12> C 4.856648592 -0.4860091989 -0.2990378
| 13> C 4.5451088632 -0.5120832938 -1.7815478577
| 14> S 1.2039955861 0.027108515 -0.9981506962
| 15> C -0.0016100474 -1.3176274484 -0.9803768993
| 16> S -1.1441614136 -1.2179192447 0.422680141
| 17> P -2.2849120189 0.3930769725 -0.3519324491
| 18> S -2.6358613897 0.3651093475 -2.2849787316
| 19> O -1.4422470681 1.64652168 0.130875933
| 20> C -1.4535963966 2.9033742751 -0.5758241966
| 21> C -2.7488859899 3.6476354068 -0.3319279682
| 22> O -3.5287742308 0.4815441042 0.6297468199
| 23> C -4.398507044 -0.6076729833 0.9864563594
| 24> C -4.9320140228 -1.3566309457 -0.2171664592
| 25> H 3.2046520307 2.2250579171 2.0936132604
| 26> H 2.3099164594 2.2952552944 0.5688628012
| 27> H 1.8234126671 3.3228725326 1.9279359856
| 28> H 0.301983795 1.3504989472 1.6723592078
| 29> H 1.1535973559 1.3258065469 3.2390494597
| 30> H 5.6924329762 0.1782973243 -0.0751189054
| 31> H 5.0747715794 -1.4949406171 0.0649052076
| 32> H 5.4359951583 -0.8026911735 -2.3289578498
| 33> H 3.7571411316 -1.2357224547 -1.9845349311
| 34> H 4.2176737104 0.4680074923 -2.1189217972
| 35> H 0.5214097553 -2.2703902077 -0.889972545
| 36> H -0.5663360281 -1.254200066 -1.911331348
| 37> H -0.590668023 3.4406580441 -0.1810058144
| 38> H -1.3112829101 2.7059324404 -1.6431321684
| 39> H -2.7125295682 4.6123023363 -0.8279172553
| 40> H -3.5813082531 3.0709337578 -0.7341256549
| 41> H -2.9060926549 3.7907368678 0.7336547715
| 42> H -3.8451285452 -1.2814228173 1.6469706175
| 43> H -5.2023940977 -0.1223708706 1.5430176977
| 44> H -5.6475780361 -2.103659468 0.1112012073
| 45> H -5.4186394053 -0.6710629802 -0.907049295
| 46> H -4.1172551897 -1.8544967156 -0.7418764987
| 47> *
| 48>
| 49>                          ****END OF INPUT****

CARTESIAN COORDINATES (ANGSTROEM)
---------------------------------
  C      2.219264    2.349914    1.652343
  C      1.279593    1.276279    2.156180
  O      1.781871   -0.065660    1.947779
  P      2.380834   -0.695150    0.633694
  S      2.504687   -2.640975    0.792760
  O      3.773941    0.053147    0.478922
  C      4.856649   -0.486009   -0.299038
  C      4.545109   -0.512083   -1.781548
  S      1.203996    0.027109   -0.998151
  C     -0.001610   -1.317627   -0.980377
  S     -1.144161   -1.217919    0.422680
  P     -2.284912    0.393077   -0.351932
  S     -2.635861    0.365109   -2.284979
  O     -1.442247    1.646522    0.130876
  C     -1.453596    2.903374   -0.575824
  C     -2.748886    3.647635   -0.331928
  O     -3.528774    0.481544    0.629747
  C     -4.398507   -0.607673    0.986456
  C     -4.932014   -1.356631   -0.217166
  H      3.204652    2.225058    2.093613
  H      2.309916    2.295255    0.568863
  H      1.823413    3.322873    1.927936
  H      0.301984    1.350499    1.672359
  H      1.153597    1.325807    3.239049
  H      5.692433    0.178297   -0.075119
  H      5.074772   -1.494941    0.064905
  H      5.435995   -0.802691   -2.328958
  H      3.757141   -1.235722   -1.984535
  H      4.217674    0.468007   -2.118922
  H      0.521410   -2.270390   -0.889973
  H     -0.566336   -1.254200   -1.911331
  H     -0.590668    3.440658   -0.181006
  H     -1.311283    2.705932   -1.643132
  H     -2.712530    4.612302   -0.827917
  H     -3.581308    3.070934   -0.734126
  H     -2.906093    3.790737    0.733655
  H     -3.845129   -1.281423    1.646971
  H     -5.202394   -0.122371    1.543018
  H     -5.647578   -2.103659    0.111201
  H     -5.418639   -0.671063   -0.907049
  H     -4.117255   -1.854497   -0.741876

 Total Charge           Charge          ....    0
 Multiplicity           Mult            ....    1
 Number of Electrons    NEL             ....  202
 Basis Dimension        Dim             ....  334

ORBITAL ENERGIES
----------------

  NO   OCC          E(Eh)            E(eV)
   0   2.0000     -88.046085     -2395.8558
   1   2.0000     -88.042967     -2395.7709
   2   2.0000     -87.992234     -2394.3904
   3   2.0000     -87.983219     -2394.1451
   4   2.0000     -76.431666     -2079.8114
   5   2.0000     -76.425902     -2079.6545
   6   2.0000     -18.798258      -511.5266
   7   2.0000     -18.794864      -511.4342
   8   2.0000     -18.793959      -511.4096
   9   2.0000     -18.787740      -511.2404
  10   2.0000      -9.962196      -271.0851
  11   2.0000      -9.954262      -270.8692
  12   2.0000      -9.952760      -270.8284
  13   2.0000      -9.952713      -270.8271
  14   2.0000      -9.949882      -270.7500
  15   2.0000      -9.887100      -269.0417
  16   2.0000      -9.886643      -269.0292
  17   2.0000      -9.886504      -269.0254
  18   2.0000      -9.883658      -268.9480
  19   2.0000      -7.691023      -209.2834
  20   2.0000      -7.687618      -209.1907
  21   2.0000      -7.637102      -207.8161
  22   2.0000      -7.628540      -207.5831
  23   2.0000      -6.429021      -174.9425
  24   2.0000      -6.423133      -174.7823
  25   2.0000      -5.718738      -155.6148
  26   2.0000      -5.715632      -155.5303
  27   2.0000      -5.715321      -155.5218
  28   2.0000      -5.712249      -155.4382
  29   2.0000      -5.708091      -155.3251
  30   2.0000      -5.704711      -155.2331
  31   2.0000      -5.665920      -154.1775
  32   2.0000      -5.657847      -153.9578
  33   2.0000      -5.657488      -153.9481
  34   2.0000      -5.657261      -153.9419
  35   2.0000      -5.649099      -153.7198
  36   2.0000      -5.648672      -153.7082
  37   2.0000      -4.651520      -126.5743
  38   2.0000      -4.650944      -126.5586
  39   2.0000      -4.649408      -126.5168
  40   2.0000      -4.645908      -126.4216
  41   2.0000      -4.644933      -126.3950
  42   2.0000      -4.643439      -126.3544
  43   2.0000      -0.992087       -26.9961
  44   2.0000      -0.985363       -26.8131
  45   2.0000      -0.950955       -25.8768
  46   2.0000      -0.943611       -25.6769
  47   2.0000      -0.766169       -20.8485
  48   2.0000      -0.722740       -19.6667
  49   2.0000      -0.711053       -19.3487
  50   2.0000      -0.691284       -18.8108
  51   2.0000      -0.689718       -18.7682
  52   2.0000      -0.678746       -18.4696
  53   2.0000      -0.653959       -17.7951
  54   2.0000      -0.639022       -17.3887
  55   2.0000      -0.603025       -16.4091
  56   2.0000      -0.596841       -16.2409
  57   2.0000      -0.578214       -15.7340
  58   2.0000      -0.575307       -15.6549
  59   2.0000      -0.562527       -15.3071
  60   2.0000      -0.501354       -13.6425
  61   2.0000      -0.489691       -13.3252
  62   2.0000      -0.474726       -12.9179
  63   2.0000      -0.469633       -12.7794
  64   2.0000      -0.464080       -12.6283
  65   2.0000      -0.445350       -12.1186
  66   2.0000      -0.442466       -12.0401
  67   2.0000      -0.441409       -12.0113
  68   2.0000      -0.431257       -11.7351
  69   2.0000      -0.422226       -11.4894
  70   2.0000      -0.414700       -11.2846
  71   2.0000      -0.397778       -10.8241
  72   2.0000      -0.395103       -10.7513
  73   2.0000      -0.390065       -10.6142
  74   2.0000      -0.381265       -10.3748
  75   2.0000      -0.377199       -10.2641
  76   2.0000      -0.369695       -10.0599
  77   2.0000      -0.363424        -9.8893
  78   2.0000      -0.352727        -9.5982
  79   2.0000      -0.351250        -9.5580
  80   2.0000      -0.350365        -9.5339
  81   2.0000      -0.347084        -9.4446
  82   2.0000      -0.345634        -9.4052
  83   2.0000      -0.342902        -9.3308
  84   2.0000      -0.336335        -9.1521
  85   2.0000      -0.321987        -8.7617
  86   2.0000      -0.311790        -8.4842
  87   2.0000      -0.300393        -8.1741
  88   2.0000      -0.293351        -7.9825
  89   2.0000      -0.291791        -7.9400
  90   2.0000      -0.290988        -7.9182
  91   2.0000      -0.280919        -7.6442
  92   2.0000      -0.269420        -7.3313
  93   2.0000      -0.263648        -7.1742
  94   2.0000      -0.260504        -7.0887
  95   2.0000      -0.236870        -6.4456
  96   2.0000      -0.219110        -5.9623
  97   2.0000      -0.212605        -5.7853
  98   2.0000      -0.205879        -5.6023
  99   2.0000      -0.201940        -5.4951
 100   2.0000      -0.199881        -5.4391
 101   0.0000      -0.046386        -1.2622
 102   0.0000      -0.027447        -0.7469
 103   0.0000      -0.007758        -0.2111
 104   0.0000      -0.001310        -0.0356
 105   0.0000       0.013783         0.3751

MULLIKEN ATOMIC CHARGES
-----------------------
   0 C :   -0.316264
   1 C :   -0.025758
   2 O :   -0.355869
   3 P :    0.606234
   4 S :   -0.320146
   5 O :   -0.376384
   6 C :   -0.002037
   7 C :   -0.314634
   8 S :   -0.099123
   9 C :   -0.369742
  10 S :   -0.076503
  11 P :    0.613249
  12 S :   -0.329672
  13 O :   -0.357557
  14 C :   -0.008868
  15 C :   -0.300987
  16 O :   -0.373023
  17 C :   -0.011760
  18 C :   -0.313189
  19 H :    0.122508
  20 H :    0.118712
  21 H :    0.111830
  22 H :    0.142108
  23 H :    0.105866
  24 H :    0.104392
  25 H :    0.114576
  26 H :    0.113413
  27 H :    0.127260
  28 H :    0.115225
  29 H :    0.196132
  30 H :    0.193922
  31 H :    0.102748
  32 H :    0.115454
  33 H :    0.112555
  34 H :    0.123724
  35 H :    0.114494
  36 H :    0.117820
  37 H :    0.110787
  38 H :    0.114200
  39 H :    0.126828
  40 H :    0.127480
Sum of atomic charges:   -0.0000000

LOEWDIN ATOMIC CHARGES
----------------------
   0 C :   -0.367662
   1 C :   -0.118741
   2 O :   -0.232904
   3 P :    0.575143
   4 S :   -0.314225
   5 O :   -0.242703
   6 C :   -0.117572
   7 C :   -0.370228
   8 S :    0.076502
   9 C :   -0.489011
  10 S :    0.089885
  11 P :    0.574923
  12 S :   -0.313676
  13 O :   -0.234922
  14 C :   -0.120499
  15 C :   -0.362390
  16 O :   -0.243238
  17 C :   -0.113023
  18 C :   -0.369964
  19 H :    0.127902
  20 H :    0.115984
  21 H :    0.129185
  22 H :    0.112876
  23 H :    0.121649
  24 H :    0.118404
  25 H :    0.113070
  26 H :    0.131271
  27 H :    0.121428
  28 H :    0.122862
  29 H :    0.128628
  30 H :    0.128134
  31 H :    0.115480
  32 H :    0.109791
  33 H :    0.130634
  34 H :    0.124071
  35 H :    0.125552
  36 H :    0.112052
  37 H :    0.122314
  38 H :    0.131453
  39 H :    0.129606
  40 H :    0.121962

  Mayer bond orders larger than 0.100000
B(  0-C ,  1-C ) :   1.1725 B(  0-C , 19-H ) :   0.9416 B(  0-C , 20-H ) :   0.9373
B(  0-C , 21-H ) :   0.9348 B(  1-C ,  2-O ) :   0.8921 B(  1-C , 22-H ) :   0.9004
B(  1-C , 23-H ) :   0.9330 B(  2-O ,  3-P ) :   1.1569 B(  3-P ,  4-S ) :   1.6187
B(  3-P ,  5-O ) :   1.0920 B(  3-P ,  8-S ) :   0.9326 B(  4-S ,  8-S ) :   0.1081
B(  5-O ,  6-C ) :   0.9062 B(  6-C ,  7-C ) :   1.1655 B(  6-C , 24-H ) :   0.9339
B(  6-C , 25-H ) :   0.9161 B(  7-C , 26-H ) :   0.9374 B(  7-C , 27-H ) :   0.9348
B(  7-C , 28-H ) :   0.9449 B(  8-S ,  9-C ) :   1.0096 B(  9-C , 10-S ) :   1.0042
B(  9-C , 29-H ) :   0.8665 B(  9-C , 30-H ) :   0.8682 B( 10-S , 11-P ) :   0.9565
B( 10-S , 12-S ) :   0.1097 B( 11-P , 12-S ) :   1.5940 B( 11-P , 13-O ) :   1.1063
B( 11-P , 16-O ) :   1.1174 B( 13-O , 14-C ) :   0.8972 B( 14-C , 15-C ) :   1.1640
B( 14-C , 31-H ) :   0.9312 B( 14-C , 32-H ) :   0.9104 B( 15-C , 33-H ) :   0.9399
B( 15-C , 34-H ) :   0.9366 B( 15-C , 35-H ) :   0.9469 B( 16-O , 17-C ) :   0.9109
B( 17-C , 18-C ) :   1.1644 B( 17-C , 36-H ) :   0.9285 B( 17-C , 37-H ) :   0.9340
B( 18-C , 38-H ) :   0.9347 B( 18-C , 39-H ) :   0.9426 B( 18-C , 40-H ) :   0.9328

Dispersion correction           -0.066353346
FINAL SINGLE POINT ENERGY     -2929.520453479579

DIPOLE MOMENT
-------------

Method             : SCF
Type of density    : Electron Density
Multiplicity       :   1
Irrep              :   0
Energy             : -2929.6402944860997195 Eh
Relativity type    :
Basis              : AO
                                X                 Y                 Z
Electronic contribution:      2.110534491     -13.811144657       1.138646346
Nuclear contribution   :     -2.332434329      15.126570399      -0.841170743
                        -----------------------------------------
Total Dipole Moment    :     -0.221899838       1.315425742       0.297475603
                        -----------------------------------------
Magnitude (a.u.)       :      1.366775825
Magnitude (Debye)      :      3.474068059

Rotational constants in cm-1:             0.013151             0.004826             0.004453
Rotational constants in MHz :           394.257388           144.673177           133.511152

                             ****ORCA TERMINATED NORMALLY****
TOTAL RUN TIME: 0 days 0 hours 0 minutes 21 seconds 197 msec
