                         Program Version 6.0.0  -   RELEASE  -
|  1> ! wb97x-v def2-tzvp def2/J RIJCOSX DEFGRID2 scfconv7 GCP(DFT/TZ) printgap
|  2> %output
|  3>     printlevel normal
|  4> end
|  5> * xyz 0 1
|  6> C -1.7691057982619642 0.6872384235484456 -0.00016293200734334196
|  7> C -0.48223252302662134 -0.10025338128956712 -3.232582550828646e-05
|  8> O -0.47209528265366046 -1.345740504349228 -0.0006197833832753123
|  9> N 0.6427910585891763 0.6409683466382922 0.0005961010564094774
| 10> C 1.9904993525642205 0.09216423247602328 -0.0004236842483754229
| 11> H -1.8262720093438467 1.330365823475294 0.8838744754099103
| 12> H -1.8253410313821943 1.331767756761329 -0.8832440229839951
| 13> H -2.6159082172444292 0.0010255723088817773 -0.0011464526590884284
| 14> H 0.541985949315906 1.6455452920286284 -0.0002202146864848892
| 15> H 2.5381536231676542 0.41159954862141634 -0.893054076245432
| 16> H 1.9341728850162407 -0.9965003500220827 0.006864052653088787
| 17> H 2.5433819343198625 0.42324491108850315 0.8846157193577975
| 18> *
| 19>
| 20>                          ****END OF INPUT****

CARTESIAN COORDINATES (ANGSTROEM)
---------------------------------
  C     -1.769106    0.687238   -0.000163
  C     -0.482233   -0.100253   -0.000032
  O     -0.472095   -1.345741   -0.000620
  N      0.642791    0.640968    0.000596
  C      1.990499    0.092164   -0.000424
  H     -1.826272    1.330366    0.883874
  H     -1.825341    1.331768   -0.883244
  H     -2.615908    0.001026   -0.001146
  H      0.541986    1.645545   -0.000220
  H      2.538154    0.411600   -0.893054
  H      1.934173   -0.996500    0.006864
  H      2.543382    0.423245    0.884616

 Total Charge           Charge          ....    0
 Multiplicity           Mult            ....    1
 Number of Electrons    NEL             ....   40
 Basis Dimension        Dim             ....  197

ORBITAL ENERGIES
----------------

  NO   OCC          E(Eh)            E(eV)
   0   2.0000     -21.624850      -588.4421
   1   2.0000     -16.555104      -450.4873
   2   2.0000     -12.147189      -330.5418
   3   2.0000     -12.080173      -328.7182
   4   2.0000     -12.052544      -327.9664
   5   2.0000      -1.672038       -45.4985
   6   2.0000      -1.518627       -41.3239
   7   2.0000      -1.273603       -34.6565
   8   2.0000      -1.202210       -32.7138
   9   2.0000      -1.111815       -30.2540
  10   2.0000      -1.023509       -27.8511
  11   2.0000      -0.988732       -26.9048
  12   2.0000      -0.920281       -25.0421
  13   2.0000      -0.916896       -24.9500
  14   2.0000      -0.866151       -23.5692
  15   2.0000      -0.840202       -22.8631
  16   2.0000      -0.831633       -22.6299
  17   2.0000      -0.827908       -22.5285
  18   2.0000      -0.813332       -22.1319
  19   2.0000      -0.754881       -20.5414
  20   0.0000      -0.271275        -7.3818
  21   0.0000      -0.107114        -2.9147
  22   0.0000      -0.057371        -1.5611
  23   0.0000      -0.042079        -1.1450
  24   0.0000       0.008198         0.2231

MULLIKEN ATOMIC CHARGES
-----------------------
   0 C :   -0.367440
   1 C :    0.298112
   2 O :   -0.415644
   3 N :   -0.287831
   4 C :   -0.241120
   5 H :    0.124364
   6 H :    0.124306
   7 H :    0.143198
   8 H :    0.220338
   9 H :    0.117888
  10 H :    0.165949
  11 H :    0.117880
Sum of atomic charges:    0.0000000

LOEWDIN ATOMIC CHARGES
----------------------
   0 C :   -0.263382
   1 C :   -0.466122
   2 O :    0.014599
   3 N :    0.089848
   4 C :   -0.298318
   5 H :    0.128002
   6 H :    0.127977
   7 H :    0.134583
   8 H :    0.181220
   9 H :    0.110438
  10 H :    0.130688
  11 H :    0.110466

  Mayer bond orders larger than 0.100000
B(  0-C ,  1-C ) :   0.9585 B(  0-C ,  5-H ) :   0.9591 B(  0-C ,  6-H ) :   0.9592
B(  0-C ,  7-H ) :   0.9839 B(  1-C ,  2-O ) :   2.0376 B(  1-C ,  3-N ) :   1.2348
B(  3-N ,  4-C ) :   0.8994 B(  3-N ,  8-H ) :   0.9257 B(  4-C ,  9-H ) :   0.9774
B(  4-C , 10-H ) :   0.9660 B(  4-C , 11-H ) :   0.9773

FINAL SINGLE POINT ENERGY      -248.536854945732

DIPOLE MOMENT
-------------

Method             : SCF
Type of density    : Electron Density
Multiplicity       :   1
Irrep              :   0
Energy             :  -248.5446885401317445 Eh
Relativity type    :
Basis              : AO
                                X                 Y                 Z
Electronic contribution:     -0.844876292      -2.314816021       0.001191873
Nuclear contribution   :      1.241387438       3.893664061      -0.001152516
                        -----------------------------------------
Total Dipole Moment    :      0.396511146       1.578848039       0.000039357
                        -----------------------------------------
Magnitude (a.u.)       :      1.627876599
Magnitude (Debye)      :      4.137733484

Rotational constants in cm-1:             0.327695             0.128496             0.095618
Rotational constants in MHz :          9824.060840          3852.225131          2866.566228

                             ****ORCA TERMINATED NORMALLY****
TOTAL RUN TIME: 0 days 0 hours 0 minutes 57 seconds 931 msec
