                         Program Version 6.0.0  -   RELEASE  -
|  1> ! wb97x-v def2-tzvp def2/J RIJCOSX DEFGRID2 scfconv7 GCP(DFT/TZ) printgap
|  2> %output
|  3>     printlevel normal
|  4> end
|  5> %cpcm
|  6>     smd true
|  7>     smdsolvent "water"
|  8> end
|  9> * xyz 0 1
| 10> C -1.7691057982619642 0.6872384235484456 -0.00016293200734334196
| 11> C -0.48223252302662134 -0.10025338128956712 -3.232582550828646e-05
| 12> O -0.47209528265366046 -1.345740504349228 -0.0006197833832753123
| 13> N 0.6427910585891763 0.6409683466382922 0.0005961010564094774
| 14> C 1.9904993525642205 0.09216423247602328 -0.0004236842483754229
| 15> H -1.8262720093438467 1.330365823475294 0.8838744754099103
| 16> H -1.8253410313821943 1.331767756761329 -0.8832440229839951
| 17> H -2.6159082172444292 0.0010255723088817773 -0.0011464526590884284
| 18> H 0.541985949315906 1.6455452920286284 -0.0002202146864848892
| 19> H 2.5381536231676542 0.41159954862141634 -0.893054076245432
| 20> H 1.9341728850162407 -0.9965003500220827 0.006864052653088787
| 21> H 2.5433819343198625 0.42324491108850315 0.8846157193577975
| 22> *
| 23>
| 24>                          ****END OF INPUT****

CARTESIAN COORDINATES (ANGSTROEM)
---------------------------------
  C     -1.769106    0.687238   -0.000163
  C     -0.482233   -0.100253   -0.000032
  O     -0.472095   -1.345741   -0.000620
  N      0.642791    0.640968    0.000596
  C      1.990499    0.092164   -0.000424
  H     -1.826272    1.330366    0.883874
  H     -1.825341    1.331768   -0.883244
  H     -2.615908    0.001026   -0.001146
  H      0.541986    1.645545   -0.000220
  H      2.538154    0.411600   -0.893054
  H      1.934173   -0.996500    0.006864
  H      2.543382    0.423245    0.884616

 Total Charge           Charge          ....    0
 Multiplicity           Mult            ....    1
 Number of Electrons    NEL             ....   40
 Basis Dimension        Dim             ....  197

ORBITAL ENERGIES
----------------

  NO   OCC          E(Eh)            E(eV)
   0   2.0000     -21.641961      -588.9077
   1   2.0000     -16.550018      -450.3489
   2   2.0000     -12.155424      -330.7659
   3   2.0000     -12.067807      -328.3817
   4   2.0000     -12.040746      -327.6453
   5   2.0000      -1.691959       -46.0405
   6   2.0000      -1.513778       -41.1920
   7   2.0000      -1.266942       -34.4753
   8   2.0000      -1.192740       -32.4561
   9   2.0000      -1.111472       -30.2447
  10   2.0000      -1.038478       -28.2584
  11   2.0000      -0.980965       -26.6934
  12   2.0000      -0.924531       -25.1578
  13   2.0000      -0.924494       -25.1568
  14   2.0000      -0.864315       -23.5192
  15   2.0000      -0.834146       -22.6983
  16   2.0000      -0.822853       -22.3910
  17   2.0000      -0.822272       -22.3752
  18   2.0000      -0.819401       -22.2970
  19   2.0000      -0.747996       -20.3540
  20   0.0000      -0.273344        -7.4381
  21   0.0000      -0.095873        -2.6088
  22   0.0000      -0.050279        -1.3682
  23   0.0000      -0.023145        -0.6298
  24   0.0000       0.022038         0.5997

MULLIKEN ATOMIC CHARGES
-----------------------
   0 C :   -0.384269
   1 C :    0.335875
   2 O :   -0.578861
   3 N :   -0.277817
   4 C :   -0.268670
   5 H :    0.157468
   6 H :    0.157484
   7 H :    0.140067
   8 H :    0.282165
   9 H :    0.145260
  10 H :    0.145862
  11 H :    0.145437
Sum of atomic charges:    0.0000000

LOEWDIN ATOMIC CHARGES
----------------------
   0 C :   -0.257232
   1 C :   -0.458535
   2 O :   -0.084539
   3 N :    0.114355
   4 C :   -0.295260
   5 H :    0.140780
   6 H :    0.140779
   7 H :    0.132011
   8 H :    0.205580
   9 H :    0.119566
  10 H :    0.122825
  11 H :    0.119671

  Mayer bond orders larger than 0.100000
B(  0-C ,  1-C ) :   0.9847 B(  0-C ,  5-H ) :   0.9489 B(  0-C ,  6-H ) :   0.9489
B(  0-C ,  7-H ) :   0.9774 B(  1-C ,  2-O ) :   1.8499 B(  1-C ,  3-N ) :   1.3193
B(  3-N ,  4-C ) :   0.8985 B(  3-N ,  8-H ) :   0.8987 B(  4-C ,  9-H ) :   0.9718
B(  4-C , 10-H ) :   0.9694 B(  4-C , 11-H ) :   0.9717

FINAL SINGLE POINT ENERGY      -248.551986047646

DIPOLE MOMENT
-------------

Method             : SCF
Type of density    : Electron Density
Multiplicity       :   1
Irrep              :   0
Energy             :  -248.5598196420460226 Eh
Relativity type    :
Basis              : AO
                                X                 Y                 Z
Electronic contribution:     -0.674303472      -1.563855331       0.001159462
Nuclear contribution   :      1.241387438       3.893664061      -0.001152516
                        -----------------------------------------
Total Dipole Moment    :      0.567083966       2.329808730       0.000006946
                        -----------------------------------------
Magnitude (a.u.)       :      2.397830883
Magnitude (Debye)      :      6.094801742

Rotational constants in cm-1:             0.327695             0.128496             0.095618
Rotational constants in MHz :          9824.060840          3852.225131          2866.566228

                             ****ORCA TERMINATED NORMALLY****
TOTAL RUN TIME: 0 days 0 hours 0 minutes 59 seconds 80 msec
