                         Program Version 6.0.0  -   RELEASE  -
|  1> ! pbe def2-sv(p) def2/J RI DEFGRID1 loosescf d4 GCP(DFT/SV(P)) printgap
|  2> %output
|  3>     printlevel normal
|  4> end
|  5> * xyz 0 1
|  6> C -1.9187029864 9.48e-07 -2.6385e-06
|  7> I 0.2352248338 2.836e-07 3.05e-08
|  8> H -2.2506771791 -1.0016998984 -0.2393174587
|  9> H -2.2507518346 0.293560143 0.9871425548
| 10> H -2.2507769064 0.7080927444 -0.7477974987
| 11> *
| 12>
| 13>                          ****END OF INPUT****

CARTESIAN COORDINATES (ANGSTROEM)
---------------------------------
  C     -1.918703    0.000001   -0.000003
  I      0.235225    0.000000    0.000000
  H     -2.250677   -1.001700   -0.239317
  H     -2.250752    0.293560    0.987143
  H     -2.250777    0.708093   -0.747797

 Total Charge           Charge          ....    0
 Multiplicity           Mult            ....    1
 Number of Electrons    NEL             ....   34
 Basis Dimension        Dim             ....   46

ORBITAL ENERGIES
----------------

  NO   OCC          E(Eh)            E(eV)
   0   2.0000      -9.936193      -270.3775
   1   2.0000      -6.598736      -179.5607
   2   2.0000      -4.671188      -127.1095
   3   2.0000      -4.653335      -126.6237
   4   2.0000      -4.653333      -126.6236
   5   2.0000      -1.807223       -49.1770
   6   2.0000      -1.802459       -49.0474
   7   2.0000      -1.802457       -49.0474
   8   2.0000      -1.788025       -48.6546
   9   2.0000      -1.788013       -48.6543
  10   2.0000      -0.685374       -18.6500
  11   2.0000      -0.584244       -15.8981
  12   2.0000      -0.395771       -10.7695
  13   2.0000      -0.395758       -10.7691
  14   2.0000      -0.328194        -8.9306
  15   2.0000      -0.221037        -6.0147
  16   2.0000      -0.221032        -6.0146
  17   0.0000      -0.059742        -1.6257
  18   0.0000       0.052746         1.4353
  19   0.0000       0.094991         2.5848
  20   0.0000       0.094999         2.5850
  21   0.0000       0.258726         7.0403

MULLIKEN ATOMIC CHARGES
-----------------------
   0 C :   -0.478466
   1 I :   -0.041813
   2 H :    0.173431
   3 H :    0.173427
   4 H :    0.173421
Sum of atomic charges:    0.0000000

LOEWDIN ATOMIC CHARGES
----------------------
   0 C :   -0.472009
   1 I :    0.061559
   2 H :    0.136816
   3 H :    0.136815
   4 H :    0.136819

  Mayer bond orders larger than 0.100000
B(  0-C ,  1-I ) :   1.0590 B(  0-C ,  2-H ) :   0.9462 B(  0-C ,  3-H ) :   0.9462
B(  0-C ,  4-H ) :   0.9462

Dispersion correction           -0.002360514
FINAL SINGLE POINT ENERGY      -337.477101685182

DIPOLE MOMENT
-------------

Method             : SCF
Type of density    : Electron Density
Multiplicity       :   1
Irrep              :   0
Energy             :  -337.4953020662166523 Eh
Relativity type    :
Basis              : AO
                                X                 Y                 Z
Electronic contribution:     22.793732454       0.000033587      -0.000016497
Nuclear contribution   :    -23.401211336      -0.000064686       0.000023677
                        -----------------------------------------
Total Dipole Moment    :     -0.607478881      -0.000031099       0.000007180
                        -----------------------------------------
Magnitude (a.u.)       :      0.607478882
Magnitude (Debye)      :      1.544088608

Rotational constants in cm-1:             5.255933             0.247319             0.247318
Rotational constants in MHz :        157568.917856          7414.422559          7414.416944

                             ****ORCA TERMINATED NORMALLY****
TOTAL RUN TIME: 0 days 0 hours 0 minutes 9 seconds 546 msec
