                         Program Version 6.0.0  -   RELEASE  -
|  1> ! pbe def2-sv(p) def2/J RI DEFGRID1 loosescf d4 GCP(DFT/SV(P)) printgap
|  2> %output
|  3>     printlevel normal
|  4> end
|  5> * xyz 0 1
|  6> C 5.4142393471 -1.3619178631 -0.957969705
|  7> C 4.1757344826 -0.7877800306 -1.6147914727
|  8> O 3.6236745715 0.2967035215 -0.8276575145
|  9> P 2.5033288465 0.118719661 0.2702285185
| 10> S 2.1472535021 1.8064218624 1.1861106565
| 11> O 3.0545941645 -1.0596492388 1.1827414219
| 12> C 2.5541070672 -1.2870161935 2.513130732
| 13> C 1.114195084 -1.7575642175 2.5067996659
| 14> S 0.8991245612 -0.8069697611 -0.8059501548
| 15> C 0.2753746947 0.7062367708 -1.5773908306
| 16> S -0.8737016354 1.6351505183 -0.5253411937
| 17> P -2.4244227474 0.1995519265 -0.5715628097
| 18> S -2.732303168 -0.7048030496 -2.2742570789
| 19> O -3.7209266628 0.9695975928 -0.0840403498
| 20> C -3.8419649554 1.6026562897 1.2137996939
| 21> C -3.5585059046 3.0884481928 1.1222441583
| 22> O -1.9659423595 -0.7371327546 0.6430733419
| 23> C -2.3147095144 -2.134595981 0.6930976682
| 24> C -3.7902373528 -2.3275912853 0.977779719
| 25> H 5.1593012055 -1.8256737448 -0.0093207797
| 26> H 5.8495117667 -2.1075837834 -1.6160555878
| 27> H 6.1401121677 -0.5732767305 -0.7796907475
| 28> H 3.4069491728 -1.5537589649 -1.750020019
| 29> H 4.4140140738 -0.3277777958 -2.5756046791
| 30> H 3.2237515658 -2.0465812102 2.91891451
| 31> H 2.6539139699 -0.357573846 3.0821413862
| 32> H 0.4635386917 -0.958305201 2.15259375
| 33> H 1.0040902064 -2.6184586761 1.8512786569
| 34> H 0.8211047371 -2.0285364046 3.5161647525
| 35> H -0.2457261293 0.4042614546 -2.4860926983
| 36> H 1.1044243739 1.3767886991 -1.7965809029
| 37> H -4.877017373 1.4166512799 1.506078461
| 38> H -3.1620555935 1.1130964959 1.915138326
| 39> H -4.1924411089 3.5424453337 0.3656024865
| 40> H -3.7622173084 3.5479454483 2.0844433627
| 41> H -2.5172811007 3.2656648011 0.8592087591
| 42> H -2.0397781944 -2.5938182683 -0.2613490621
| 43> H -1.6900430637 -2.5355208637 1.4920278466
| 44> H -4.379830778 -1.8910344436 0.1716273641
| 45> H -4.0089987878 -3.3889342364 1.0385462822
| 46> H -4.0631018444 -1.8490301815 1.9148266778
| 47> *
| 48>
| 49>                          ****END OF INPUT****

CARTESIAN COORDINATES (ANGSTROEM)
---------------------------------
  C      5.414239   -1.361918   -0.957970
  C      4.175734   -0.787780   -1.614791
  O      3.623675    0.296704   -0.827658
  P      2.503329    0.118720    0.270229
  S      2.147254    1.806422    1.186111
  O      3.054594   -1.059649    1.182741
  C      2.554107   -1.287016    2.513131
  C      1.114195   -1.757564    2.506800
  S      0.899125   -0.806970   -0.805950
  C      0.275375    0.706237   -1.577391
  S     -0.873702    1.635151   -0.525341
  P     -2.424423    0.199552   -0.571563
  S     -2.732303   -0.704803   -2.274257
  O     -3.720927    0.969598   -0.084040
  C     -3.841965    1.602656    1.213800
  C     -3.558506    3.088448    1.122244
  O     -1.965942   -0.737133    0.643073
  C     -2.314710   -2.134596    0.693098
  C     -3.790237   -2.327591    0.977780
  H      5.159301   -1.825674   -0.009321
  H      5.849512   -2.107584   -1.616056
  H      6.140112   -0.573277   -0.779691
  H      3.406949   -1.553759   -1.750020
  H      4.414014   -0.327778   -2.575605
  H      3.223752   -2.046581    2.918915
  H      2.653914   -0.357574    3.082141
  H      0.463539   -0.958305    2.152594
  H      1.004090   -2.618459    1.851279
  H      0.821105   -2.028536    3.516165
  H     -0.245726    0.404261   -2.486093
  H      1.104424    1.376789   -1.796581
  H     -4.877017    1.416651    1.506078
  H     -3.162056    1.113096    1.915138
  H     -4.192441    3.542445    0.365602
  H     -3.762217    3.547945    2.084443
  H     -2.517281    3.265665    0.859209
  H     -2.039778   -2.593818   -0.261349
  H     -1.690043   -2.535521    1.492028
  H     -4.379831   -1.891034    0.171627
  H     -4.008999   -3.388934    1.038546
  H     -4.063102   -1.849030    1.914827

 Total Charge           Charge          ....    0
 Multiplicity           Mult            ....    1
 Number of Electrons    NEL             ....  202
 Basis Dimension        Dim             ....  334

ORBITAL ENERGIES
----------------

  NO   OCC          E(Eh)            E(eV)
   0   2.0000     -88.041467     -2395.7301
   1   2.0000     -88.037859     -2395.6319
   2   2.0000     -87.985704     -2394.2127
   3   2.0000     -87.984951     -2394.1922
   4   2.0000     -76.427048     -2079.6857
   5   2.0000     -76.423356     -2079.5852
   6   2.0000     -18.798124      -511.5230
   7   2.0000     -18.793449      -511.3957
   8   2.0000     -18.793030      -511.3843
   9   2.0000     -18.790426      -511.3135
  10   2.0000      -9.958706      -270.9902
  11   2.0000      -9.956911      -270.9413
  12   2.0000      -9.956597      -270.9328
  13   2.0000      -9.954488      -270.8754
  14   2.0000      -9.950569      -270.7687
  15   2.0000      -9.888462      -269.0787
  16   2.0000      -9.887388      -269.0495
  17   2.0000      -9.887050      -269.0403
  18   2.0000      -9.885777      -269.0057
  19   2.0000      -7.686050      -209.1481
  20   2.0000      -7.682917      -209.0628
  21   2.0000      -7.630920      -207.6479
  22   2.0000      -7.630251      -207.6297
  23   2.0000      -6.424534      -174.8205
  24   2.0000      -6.421376      -174.7345
  25   2.0000      -5.713735      -155.4786
  26   2.0000      -5.710789      -155.3985
  27   2.0000      -5.710717      -155.3965
  28   2.0000      -5.707645      -155.3129
  29   2.0000      -5.703096      -155.1891
  30   2.0000      -5.699675      -155.0960
  31   2.0000      -5.659960      -154.0153
  32   2.0000      -5.659233      -153.9956
  33   2.0000      -5.651512      -153.7855
  34   2.0000      -5.650991      -153.7713
  35   2.0000      -5.650827      -153.7668
  36   2.0000      -5.650324      -153.7531
  37   2.0000      -4.647556      -126.4664
  38   2.0000      -4.646241      -126.4307
  39   2.0000      -4.644626      -126.3867
  40   2.0000      -4.644356      -126.3794
  41   2.0000      -4.642644      -126.3328
  42   2.0000      -4.641901      -126.3125
  43   2.0000      -0.990752       -26.9597
  44   2.0000      -0.984817       -26.7982
  45   2.0000      -0.948941       -25.8220
  46   2.0000      -0.943881       -25.6843
  47   2.0000      -0.762822       -20.7575
  48   2.0000      -0.721970       -19.6458
  49   2.0000      -0.711283       -19.3550
  50   2.0000      -0.693445       -18.8696
  51   2.0000      -0.692084       -18.8326
  52   2.0000      -0.674301       -18.3487
  53   2.0000      -0.650931       -17.7127
  54   2.0000      -0.638660       -17.3788
  55   2.0000      -0.597769       -16.2661
  56   2.0000      -0.590546       -16.0696
  57   2.0000      -0.579302       -15.7636
  58   2.0000      -0.577607       -15.7175
  59   2.0000      -0.557989       -15.1836
  60   2.0000      -0.504300       -13.7227
  61   2.0000      -0.498391       -13.5619
  62   2.0000      -0.479249       -13.0410
  63   2.0000      -0.477341       -12.9891
  64   2.0000      -0.457478       -12.4486
  65   2.0000      -0.451339       -12.2816
  66   2.0000      -0.445188       -12.1142
  67   2.0000      -0.433809       -11.8045
  68   2.0000      -0.430952       -11.7268
  69   2.0000      -0.420641       -11.4462
  70   2.0000      -0.408978       -11.1289
  71   2.0000      -0.400508       -10.8984
  72   2.0000      -0.394941       -10.7469
  73   2.0000      -0.381514       -10.3815
  74   2.0000      -0.375294       -10.2123
  75   2.0000      -0.373366       -10.1598
  76   2.0000      -0.367710       -10.0059
  77   2.0000      -0.361520        -9.8374
  78   2.0000      -0.356759        -9.7079
  79   2.0000      -0.354892        -9.6571
  80   2.0000      -0.353802        -9.6274
  81   2.0000      -0.349291        -9.5047
  82   2.0000      -0.346990        -9.4421
  83   2.0000      -0.345847        -9.4110
  84   2.0000      -0.334511        -9.1025
  85   2.0000      -0.318945        -8.6789
  86   2.0000      -0.316873        -8.6226
  87   2.0000      -0.303328        -8.2540
  88   2.0000      -0.299060        -8.1378
  89   2.0000      -0.294479        -8.0132
  90   2.0000      -0.280709        -7.6385
  91   2.0000      -0.272967        -7.4278
  92   2.0000      -0.270559        -7.3623
  93   2.0000      -0.270372        -7.3572
  94   2.0000      -0.261252        -7.1090
  95   2.0000      -0.233259        -6.3473
  96   2.0000      -0.214267        -5.8305
  97   2.0000      -0.211461        -5.7542
  98   2.0000      -0.204348        -5.5606
  99   2.0000      -0.202445        -5.5088
 100   2.0000      -0.191643        -5.2149
 101   0.0000      -0.040678        -1.1069
 102   0.0000      -0.026265        -0.7147
 103   0.0000      -0.003177        -0.0865
 104   0.0000       0.006137         0.1670
 105   0.0000       0.012028         0.3273

MULLIKEN ATOMIC CHARGES
-----------------------
   0 C :   -0.293089
   1 C :   -0.012037
   2 O :   -0.358507
   3 P :    0.588932
   4 S :   -0.307308
   5 O :   -0.381519
   6 C :    0.010229
   7 C :   -0.356017
   8 S :   -0.086049
   9 C :   -0.351620
  10 S :   -0.070877
  11 P :    0.614593
  12 S :   -0.320687
  13 O :   -0.367392
  14 C :   -0.031187
  15 C :   -0.299832
  16 O :   -0.378378
  17 C :   -0.014442
  18 C :   -0.311371
  19 H :    0.123170
  20 H :    0.110003
  21 H :    0.120216
  22 H :    0.102168
  23 H :    0.108764
  24 H :    0.103906
  25 H :    0.114584
  26 H :    0.152517
  27 H :    0.119842
  28 H :    0.113131
  29 H :    0.194353
  30 H :    0.187423
  31 H :    0.110765
  32 H :    0.112669
  33 H :    0.123996
  34 H :    0.112800
  35 H :    0.139644
  36 H :    0.112078
  37 H :    0.110515
  38 H :    0.131012
  39 H :    0.112764
  40 H :    0.110236
Sum of atomic charges:    0.0000000

LOEWDIN ATOMIC CHARGES
----------------------
   0 C :   -0.360430
   1 C :   -0.116957
   2 O :   -0.240181
   3 P :    0.568979
   4 S :   -0.308931
   5 O :   -0.246443
   6 C :   -0.115978
   7 C :   -0.376351
   8 S :    0.079913
   9 C :   -0.480824
  10 S :    0.096582
  11 P :    0.567894
  12 S :   -0.313485
  13 O :   -0.242574
  14 C :   -0.117802
  15 C :   -0.360681
  16 O :   -0.251288
  17 C :   -0.121893
  18 C :   -0.365746
  19 H :    0.126009
  20 H :    0.129707
  21 H :    0.128884
  22 H :    0.102919
  23 H :    0.120797
  24 H :    0.117982
  25 H :    0.113648
  26 H :    0.126980
  27 H :    0.122126
  28 H :    0.130689
  29 H :    0.130803
  30 H :    0.133918
  31 H :    0.120930
  32 H :    0.111276
  33 H :    0.130959
  34 H :    0.131911
  35 H :    0.121999
  36 H :    0.109285
  37 H :    0.116566
  38 H :    0.125751
  39 H :    0.131197
  40 H :    0.121863

  Mayer bond orders larger than 0.100000
B(  0-C ,  1-C ) :   1.1646 B(  0-C , 19-H ) :   0.9416 B(  0-C , 20-H ) :   0.9395
B(  0-C , 21-H ) :   0.9470 B(  1-C ,  2-O ) :   0.8959 B(  1-C , 22-H ) :   0.9092
B(  1-C , 23-H ) :   0.9363 B(  2-O ,  3-P ) :   1.1260 B(  3-P ,  4-S ) :   1.6508
B(  3-P ,  5-O ) :   1.0825 B(  3-P ,  8-S ) :   0.9522 B(  4-S ,  8-S ) :   0.1130
B(  5-O ,  6-C ) :   0.9055 B(  6-C ,  7-C ) :   1.1623 B(  6-C , 24-H ) :   0.9325
B(  6-C , 25-H ) :   0.9166 B(  7-C , 26-H ) :   0.9260 B(  7-C , 27-H ) :   0.9405
B(  7-C , 28-H ) :   0.9371 B(  8-S ,  9-C ) :   0.9914 B(  9-C , 10-S ) :   1.0099
B(  9-C , 29-H ) :   0.8752 B(  9-C , 30-H ) :   0.8943 B( 10-S , 11-P ) :   0.9733
B( 10-S , 12-S ) :   0.1031 B( 11-P , 12-S ) :   1.6219 B( 11-P , 13-O ) :   1.1237
B( 11-P , 16-O ) :   1.0664 B( 13-O , 14-C ) :   0.8998 B( 14-C , 15-C ) :   1.1693
B( 14-C , 31-H ) :   0.9338 B( 14-C , 32-H ) :   0.9146 B( 15-C , 33-H ) :   0.9460
B( 15-C , 34-H ) :   0.9381 B( 15-C , 35-H ) :   0.9333 B( 16-O , 17-C ) :   0.9055
B( 17-C , 18-C ) :   1.1621 B( 17-C , 36-H ) :   0.9132 B( 17-C , 37-H ) :   0.9280
B( 18-C , 38-H ) :   0.9337 B( 18-C , 39-H ) :   0.9400 B( 18-C , 40-H ) :   0.9468

Dispersion correction           -0.064828785
FINAL SINGLE POINT ENERGY     -2929.518517289620

DIPOLE MOMENT
-------------

Method             : SCF
Type of density    : Electron Density
Multiplicity       :   1
Irrep              :   0
Energy             : -2929.6390044346635477 Eh
Relativity type    :
Basis              : AO
                                X                 Y                 Z
Electronic contribution:      0.968315292      10.525124154     -12.041191826
Nuclear contribution   :     -0.694257484     -11.595848143      13.106211262
                        -----------------------------------------
Total Dipole Moment    :      0.274057808      -1.070723989       1.065019436
                        -----------------------------------------
Magnitude (a.u.)       :      1.534869356
Magnitude (Debye)      :      3.901327860

Rotational constants in cm-1:             0.012496             0.004647             0.004556
Rotational constants in MHz :           374.629340           139.326181           136.596059

                             ****ORCA TERMINATED NORMALLY****
TOTAL RUN TIME: 0 days 0 hours 0 minutes 21 seconds 268 msec
