                         Program Version 6.0.0  -   RELEASE  -
|  1> ! r2scan-3c def2/J RI DEFGRID2 scfconv6 printgap
|  2> %output
|  3>     printlevel normal
|  4> end
|  5> * xyz 0 1
|  6> C 3.1960947399 0.2075733153 3.3547801958
|  7> C 1.887618776 -0.3097896439 2.7960899641
|  8> O 1.5957169793 0.2687504651 1.5049240519
|  9> P 2.4156725873 -0.1258455601 0.2090664814
| 10> S 3.1029229094 -1.9655372135 0.1618844177
| 11> O 3.5170694019 1.0167091752 0.1536283616
| 12> C 4.6925648687 0.9156815774 -0.6685075594
| 13> C 4.3631088158 0.9793546333 -2.1459578688
| 14> S 1.0183062692 0.4050623771 -1.2870369855
| 15> C 0.0705913674 -1.1384768875 -1.2060315753
| 16> S -1.0648957628 -1.1884641641 0.1957314735
| 17> P -2.4638725641 0.2255501912 -0.5912073681
| 18> S -2.7314809538 0.0490460675 -2.5232399696
| 19> O -2.0100189458 1.6804301294 -0.1996647044
| 20> C -2.2193489933 2.3286921094 1.0799082838
| 21> C -1.4652460618 1.6477366798 2.2015987545
| 22> O -3.748645199 0.0033728397 0.3119379831
| 23> C -4.5643372625 -1.1784984334 0.1624263254
| 24> C -5.9032863239 -0.9038188218 0.8160460375
| 25> H 3.3310961935 -0.1701164925 4.3633796864
| 26> H 4.0241125526 -0.1346296652 2.7351258786
| 27> H 3.1954442145 1.2941984 3.3704939736
| 28> H 1.0369847925 -0.0205502269 3.4142140772
| 29> H 1.9134873034 -1.3986971762 2.6883956373
| 30> H 5.3052337508 1.7620198695 -0.3551629668
| 31> H 5.2018934202 -0.0236229365 -0.4298420564
| 32> H 5.2836984198 1.0178351854 -2.7194811394
| 33> H 3.799940493 0.094757272 -2.4415081929
| 34> H 3.7644900229 1.8607335706 -2.3628224688
| 35> H 0.7560889452 -1.9799811091 -1.0986796796
| 36> H -0.5032492848 -1.2064558292 -2.13121628
| 37> H -1.852164331 3.3411974277 0.9048227181
| 38> H -3.2918266527 2.3483946535 1.280593831
| 39> H -1.5796047758 2.2306598089 3.1103086834
| 40> H -1.8579706322 0.6461207341 2.3677136756
| 41> H -0.4094194575 1.5748488351 1.9516562042
| 42> H -4.6740803063 -1.3927183221 -0.9056531573
| 43> H -4.0453899071 -2.0117157016 0.6432593197
| 44> H -6.3928751115 -0.0662455113 0.327107712
| 45> H -6.5292019677 -1.7853999724 0.7255538906
| 46> H -5.7642491494 -0.668168703 1.8670097016
| 47> *
| 48>
| 49>                          ****END OF INPUT****

CARTESIAN COORDINATES (ANGSTROEM)
---------------------------------
  C      3.196095    0.207573    3.354780
  C      1.887619   -0.309790    2.796090
  O      1.595717    0.268750    1.504924
  P      2.415673   -0.125846    0.209066
  S      3.102923   -1.965537    0.161884
  O      3.517069    1.016709    0.153628
  C      4.692565    0.915682   -0.668508
  C      4.363109    0.979355   -2.145958
  S      1.018306    0.405062   -1.287037
  C      0.070591   -1.138477   -1.206032
  S     -1.064896   -1.188464    0.195731
  P     -2.463873    0.225550   -0.591207
  S     -2.731481    0.049046   -2.523240
  O     -2.010019    1.680430   -0.199665
  C     -2.219349    2.328692    1.079908
  C     -1.465246    1.647737    2.201599
  O     -3.748645    0.003373    0.311938
  C     -4.564337   -1.178498    0.162426
  C     -5.903286   -0.903819    0.816046
  H      3.331096   -0.170116    4.363380
  H      4.024113   -0.134630    2.735126
  H      3.195444    1.294198    3.370494
  H      1.036985   -0.020550    3.414214
  H      1.913487   -1.398697    2.688396
  H      5.305234    1.762020   -0.355163
  H      5.201893   -0.023623   -0.429842
  H      5.283698    1.017835   -2.719481
  H      3.799940    0.094757   -2.441508
  H      3.764490    1.860734   -2.362822
  H      0.756089   -1.979981   -1.098680
  H     -0.503249   -1.206456   -2.131216
  H     -1.852164    3.341197    0.904823
  H     -3.291827    2.348395    1.280594
  H     -1.579605    2.230660    3.110309
  H     -1.857971    0.646121    2.367714
  H     -0.409419    1.574849    1.951656
  H     -4.674080   -1.392718   -0.905653
  H     -4.045390   -2.011716    0.643259
  H     -6.392875   -0.066246    0.327108
  H     -6.529202   -1.785400    0.725554
  H     -5.764249   -0.668169    1.867010

 Total Charge           Charge          ....    0
 Multiplicity           Mult            ....    1
 Number of Electrons    NEL             ....  202
 Basis Dimension        Dim             ....  539

ORBITAL ENERGIES
----------------

  NO   OCC          E(Eh)            E(eV)
   0   2.0000     -88.572872     -2410.1904
   1   2.0000     -88.570704     -2410.1314
   2   2.0000     -88.522969     -2408.8325
   3   2.0000     -88.515836     -2408.6383
   4   2.0000     -76.914778     -2092.9575
   5   2.0000     -76.913179     -2092.9140
   6   2.0000     -18.997693      -516.9535
   7   2.0000     -18.995778      -516.9014
   8   2.0000     -18.991918      -516.7964
   9   2.0000     -18.990054      -516.7456
  10   2.0000     -10.103035      -274.9176
  11   2.0000     -10.102386      -274.8999
  12   2.0000     -10.100604      -274.8514
  13   2.0000     -10.099413      -274.8190
  14   2.0000     -10.098517      -274.7946
  15   2.0000     -10.036712      -273.1128
  16   2.0000     -10.031472      -272.9702
  17   2.0000     -10.030415      -272.9415
  18   2.0000     -10.028996      -272.9029
  19   2.0000      -7.867039      -214.0730
  20   2.0000      -7.865022      -214.0181
  21   2.0000      -7.817752      -212.7319
  22   2.0000      -7.810683      -212.5395
  23   2.0000      -6.593480      -179.4177
  24   2.0000      -6.591603      -179.3666
  25   2.0000      -5.813908      -158.2045
  26   2.0000      -5.811803      -158.1472
  27   2.0000      -5.810986      -158.1250
  28   2.0000      -5.808953      -158.0696
  29   2.0000      -5.804099      -157.9376
  30   2.0000      -5.802181      -157.8854
  31   2.0000      -5.765269      -156.8809
  32   2.0000      -5.758341      -156.6924
  33   2.0000      -5.758069      -156.6850
  34   2.0000      -5.757846      -156.6790
  35   2.0000      -5.751110      -156.4957
  36   2.0000      -5.750509      -156.4793
  37   2.0000      -4.738917      -128.9525
  38   2.0000      -4.738335      -128.9366
  39   2.0000      -4.737681      -128.9189
  40   2.0000      -4.737299      -128.9085
  41   2.0000      -4.736358      -128.8828
  42   2.0000      -4.734971      -128.8451
  43   2.0000      -1.053598       -28.6698
  44   2.0000      -1.052504       -28.6401
  45   2.0000      -1.014128       -27.5958
  46   2.0000      -1.011610       -27.5273
  47   2.0000      -0.799421       -21.7534
  48   2.0000      -0.760401       -20.6916
  49   2.0000      -0.751032       -20.4366
  50   2.0000      -0.738963       -20.1082
  51   2.0000      -0.733267       -19.9532
  52   2.0000      -0.711782       -19.3686
  53   2.0000      -0.684548       -18.6275
  54   2.0000      -0.665669       -18.1138
  55   2.0000      -0.633958       -17.2509
  56   2.0000      -0.623966       -16.9790
  57   2.0000      -0.609345       -16.5811
  58   2.0000      -0.607423       -16.5288
  59   2.0000      -0.588376       -16.0105
  60   2.0000      -0.532817       -14.4987
  61   2.0000      -0.519884       -14.1468
  62   2.0000      -0.495578       -13.4854
  63   2.0000      -0.495127       -13.4731
  64   2.0000      -0.477234       -12.9862
  65   2.0000      -0.465419       -12.6647
  66   2.0000      -0.460690       -12.5360
  67   2.0000      -0.459257       -12.4970
  68   2.0000      -0.448465       -12.2034
  69   2.0000      -0.435231       -11.8432
  70   2.0000      -0.425239       -11.5713
  71   2.0000      -0.417593       -11.3633
  72   2.0000      -0.412856       -11.2344
  73   2.0000      -0.404835       -11.0161
  74   2.0000      -0.393487       -10.7073
  75   2.0000      -0.388010       -10.5583
  76   2.0000      -0.384386       -10.4597
  77   2.0000      -0.374552       -10.1921
  78   2.0000      -0.372257       -10.1296
  79   2.0000      -0.367382        -9.9970
  80   2.0000      -0.366525        -9.9737
  81   2.0000      -0.361842        -9.8462
  82   2.0000      -0.357371        -9.7246
  83   2.0000      -0.355324        -9.6689
  84   2.0000      -0.349882        -9.5208
  85   2.0000      -0.337506        -9.1840
  86   2.0000      -0.324712        -8.8359
  87   2.0000      -0.320770        -8.7286
  88   2.0000      -0.311734        -8.4827
  89   2.0000      -0.309982        -8.4350
  90   2.0000      -0.300861        -8.1868
  91   2.0000      -0.293049        -7.9743
  92   2.0000      -0.287972        -7.8361
  93   2.0000      -0.280715        -7.6387
  94   2.0000      -0.269357        -7.3296
  95   2.0000      -0.244796        -6.6612
  96   2.0000      -0.232113        -6.3161
  97   2.0000      -0.226273        -6.1572
  98   2.0000      -0.216275        -5.8851
  99   2.0000      -0.215202        -5.8560
 100   2.0000      -0.207060        -5.6344
 101   0.0000      -0.045828        -1.2470
 102   0.0000      -0.024541        -0.6678
 103   0.0000      -0.001938        -0.0527
 104   0.0000       0.001926         0.0524
 105   0.0000       0.018465         0.5025

MULLIKEN ATOMIC CHARGES
-----------------------
   0 C :   -0.437419
   1 C :   -0.153753
   2 O :   -0.277818
   3 P :    0.677755
   4 S :   -0.491756
   5 O :   -0.309556
   6 C :   -0.146782
   7 C :   -0.457497
   8 S :   -0.095887
   9 C :   -0.241230
  10 S :   -0.151348
  11 P :    0.683894
  12 S :   -0.461016
  13 O :   -0.258226
  14 C :   -0.111883
  15 C :   -0.479322
  16 O :   -0.309741
  17 C :   -0.150711
  18 C :   -0.443669
  19 H :    0.147529
  20 H :    0.166303
  21 H :    0.155647
  22 H :    0.152053
  23 H :    0.174567
  24 H :    0.148525
  25 H :    0.170344
  26 H :    0.148255
  27 H :    0.179636
  28 H :    0.158091
  29 H :    0.211878
  30 H :    0.222092
  31 H :    0.152650
  32 H :    0.156449
  33 H :    0.145249
  34 H :    0.157675
  35 H :    0.184415
  36 H :    0.172956
  37 H :    0.152854
  38 H :    0.159677
  39 H :    0.148474
  40 H :    0.150647
Sum of atomic charges:   -0.0000000

LOEWDIN ATOMIC CHARGES
----------------------
   0 C :   -0.397925
   1 C :    0.016840
   2 O :   -0.687587
   3 P :    0.377595
   4 S :   -0.140031
   5 O :   -0.659639
   6 C :    0.020436
   7 C :   -0.406049
   8 S :    0.181343
   9 C :   -0.426880
  10 S :    0.137804
  11 P :    0.381947
  12 S :   -0.114470
  13 O :   -0.644701
  14 C :    0.035110
  15 C :   -0.407406
  16 O :   -0.677669
  17 C :    0.021128
  18 C :   -0.385915
  19 H :    0.159584
  20 H :    0.164760
  21 H :    0.160742
  22 H :    0.179618
  23 H :    0.181737
  24 H :    0.179702
  25 H :    0.179377
  26 H :    0.159903
  27 H :    0.166835
  28 H :    0.161089
  29 H :    0.192861
  30 H :    0.194836
  31 H :    0.183305
  32 H :    0.176463
  33 H :    0.157688
  34 H :    0.160992
  35 H :    0.179665
  36 H :    0.182656
  37 H :    0.172739
  38 H :    0.162012
  39 H :    0.161187
  40 H :    0.158319

  Mayer bond orders larger than 0.100000
B(  0-C ,  1-C ) :   0.9230 B(  0-C , 19-H ) :   0.9631 B(  0-C , 20-H ) :   0.9597
B(  0-C , 21-H ) :   0.9725 B(  1-C ,  2-O ) :   0.7796 B(  1-C , 22-H ) :   0.9611
B(  1-C , 23-H ) :   0.9620 B(  2-O ,  3-P ) :   1.1378 B(  3-P ,  4-S ) :   1.7427
B(  3-P ,  5-O ) :   1.0753 B(  3-P ,  8-S ) :   1.1064 B(  5-O ,  6-C ) :   0.8100
B(  6-C ,  7-C ) :   0.9240 B(  6-C , 24-H ) :   0.9582 B(  6-C , 25-H ) :   0.9651
B(  7-C , 26-H ) :   0.9581 B(  7-C , 27-H ) :   0.9607 B(  7-C , 28-H ) :   0.9688
B(  8-S ,  9-C ) :   0.9170 B(  9-C , 10-S ) :   0.9170 B(  9-C , 29-H ) :   0.9026
B(  9-C , 30-H ) :   0.8981 B( 10-S , 11-P ) :   0.9827 B( 11-P , 12-S ) :   1.8117
B( 11-P , 13-O ) :   1.1493 B( 11-P , 16-O ) :   1.0610 B( 13-O , 14-C ) :   0.7830
B( 14-C , 15-C ) :   0.9358 B( 14-C , 31-H ) :   0.9572 B( 14-C , 32-H ) :   0.9714
B( 15-C , 33-H ) :   0.9613 B( 15-C , 34-H ) :   0.9625 B( 15-C , 35-H ) :   0.9540
B( 16-O , 17-C ) :   0.7847 B( 17-C , 18-C ) :   0.9544 B( 17-C , 36-H ) :   0.9496
B( 17-C , 37-H ) :   0.9413 B( 18-C , 38-H ) :   0.9714 B( 18-C , 39-H ) :   0.9634
B( 18-C , 40-H ) :   0.9718

Dispersion correction           -0.021166101
FINAL SINGLE POINT ENERGY     -2932.461726220108

DIPOLE MOMENT
-------------

Method             : SCF
Type of density    : Electron Density
Multiplicity       :   1
Irrep              :   0
Energy             : -2932.4871177111890574 Eh
Relativity type    :
Basis              : AO
                                X                 Y                 Z
Electronic contribution:     -0.714638991      -4.461482602     -14.975322867
Nuclear contribution   :      0.692487546       5.017047213      16.702931607
                        -----------------------------------------
Total Dipole Moment    :     -0.022151445       0.555564611       1.727608740
                        -----------------------------------------
Magnitude (a.u.)       :      1.814875941
Magnitude (Debye)      :      4.613048037

Rotational constants in cm-1:             0.013487             0.004527             0.004144
Rotational constants in MHz :           404.322043           135.711295           124.237186

                             ****ORCA TERMINATED NORMALLY****
TOTAL RUN TIME: 0 days 0 hours 1 minutes 18 seconds 431 msec
