                         Program Version 6.0.0  -   RELEASE  -
|  1> ! r2scan-3c def2/J RI DEFGRID2 scfconv6 printgap
|  2> %output
|  3>     printlevel normal
|  4> end
|  5> %cpcm
|  6>     smd true
|  7>     smdsolvent "water"
|  8> end
|  9> * xyz 0 1
| 10> C 3.1960947399 0.2075733153 3.3547801958
| 11> C 1.887618776 -0.3097896439 2.7960899641
| 12> O 1.5957169793 0.2687504651 1.5049240519
| 13> P 2.4156725873 -0.1258455601 0.2090664814
| 14> S 3.1029229094 -1.9655372135 0.1618844177
| 15> O 3.5170694019 1.0167091752 0.1536283616
| 16> C 4.6925648687 0.9156815774 -0.6685075594
| 17> C 4.3631088158 0.9793546333 -2.1459578688
| 18> S 1.0183062692 0.4050623771 -1.2870369855
| 19> C 0.0705913674 -1.1384768875 -1.2060315753
| 20> S -1.0648957628 -1.1884641641 0.1957314735
| 21> P -2.4638725641 0.2255501912 -0.5912073681
| 22> S -2.7314809538 0.0490460675 -2.5232399696
| 23> O -2.0100189458 1.6804301294 -0.1996647044
| 24> C -2.2193489933 2.3286921094 1.0799082838
| 25> C -1.4652460618 1.6477366798 2.2015987545
| 26> O -3.748645199 0.0033728397 0.3119379831
| 27> C -4.5643372625 -1.1784984334 0.1624263254
| 28> C -5.9032863239 -0.9038188218 0.8160460375
| 29> H 3.3310961935 -0.1701164925 4.3633796864
| 30> H 4.0241125526 -0.1346296652 2.7351258786
| 31> H 3.1954442145 1.2941984 3.3704939736
| 32> H 1.0369847925 -0.0205502269 3.4142140772
| 33> H 1.9134873034 -1.3986971762 2.6883956373
| 34> H 5.3052337508 1.7620198695 -0.3551629668
| 35> H 5.2018934202 -0.0236229365 -0.4298420564
| 36> H 5.2836984198 1.0178351854 -2.7194811394
| 37> H 3.799940493 0.094757272 -2.4415081929
| 38> H 3.7644900229 1.8607335706 -2.3628224688
| 39> H 0.7560889452 -1.9799811091 -1.0986796796
| 40> H -0.5032492848 -1.2064558292 -2.13121628
| 41> H -1.852164331 3.3411974277 0.9048227181
| 42> H -3.2918266527 2.3483946535 1.280593831
| 43> H -1.5796047758 2.2306598089 3.1103086834
| 44> H -1.8579706322 0.6461207341 2.3677136756
| 45> H -0.4094194575 1.5748488351 1.9516562042
| 46> H -4.6740803063 -1.3927183221 -0.9056531573
| 47> H -4.0453899071 -2.0117157016 0.6432593197
| 48> H -6.3928751115 -0.0662455113 0.327107712
| 49> H -6.5292019677 -1.7853999724 0.7255538906
| 50> H -5.7642491494 -0.668168703 1.8670097016
| 51> *
| 52>
| 53>                          ****END OF INPUT****

CARTESIAN COORDINATES (ANGSTROEM)
---------------------------------
  C      3.196095    0.207573    3.354780
  C      1.887619   -0.309790    2.796090
  O      1.595717    0.268750    1.504924
  P      2.415673   -0.125846    0.209066
  S      3.102923   -1.965537    0.161884
  O      3.517069    1.016709    0.153628
  C      4.692565    0.915682   -0.668508
  C      4.363109    0.979355   -2.145958
  S      1.018306    0.405062   -1.287037
  C      0.070591   -1.138477   -1.206032
  S     -1.064896   -1.188464    0.195731
  P     -2.463873    0.225550   -0.591207
  S     -2.731481    0.049046   -2.523240
  O     -2.010019    1.680430   -0.199665
  C     -2.219349    2.328692    1.079908
  C     -1.465246    1.647737    2.201599
  O     -3.748645    0.003373    0.311938
  C     -4.564337   -1.178498    0.162426
  C     -5.903286   -0.903819    0.816046
  H      3.331096   -0.170116    4.363380
  H      4.024113   -0.134630    2.735126
  H      3.195444    1.294198    3.370494
  H      1.036985   -0.020550    3.414214
  H      1.913487   -1.398697    2.688396
  H      5.305234    1.762020   -0.355163
  H      5.201893   -0.023623   -0.429842
  H      5.283698    1.017835   -2.719481
  H      3.799940    0.094757   -2.441508
  H      3.764490    1.860734   -2.362822
  H      0.756089   -1.979981   -1.098680
  H     -0.503249   -1.206456   -2.131216
  H     -1.852164    3.341197    0.904823
  H     -3.291827    2.348395    1.280594
  H     -1.579605    2.230660    3.110309
  H     -1.857971    0.646121    2.367714
  H     -0.409419    1.574849    1.951656
  H     -4.674080   -1.392718   -0.905653
  H     -4.045390   -2.011716    0.643259
  H     -6.392875   -0.066246    0.327108
  H     -6.529202   -1.785400    0.725554
  H     -5.764249   -0.668169    1.867010

 Total Charge           Charge          ....    0
 Multiplicity           Mult            ....    1
 Number of Electrons    NEL             ....  202
 Basis Dimension        Dim             ....  539

ORBITAL ENERGIES
----------------

  NO   OCC          E(Eh)            E(eV)
   0   2.0000     -88.579215     -2410.3630
   1   2.0000     -88.576346     -2410.2849
   2   2.0000     -88.529419     -2409.0080
   3   2.0000     -88.528506     -2408.9831
   4   2.0000     -76.920905     -2093.1242
   5   2.0000     -76.919495     -2093.0859
   6   2.0000     -18.998587      -516.9778
   7   2.0000     -18.997481      -516.9477
   8   2.0000     -18.995186      -516.8853
   9   2.0000     -18.992833      -516.8213
  10   2.0000     -10.102087      -274.8918
  11   2.0000     -10.092460      -274.6298
  12   2.0000     -10.092012      -274.6176
  13   2.0000     -10.090543      -274.5776
  14   2.0000     -10.089021      -274.5362
  15   2.0000     -10.020269      -272.6654
  16   2.0000     -10.019105      -272.6337
  17   2.0000     -10.018865      -272.6272
  18   2.0000     -10.018042      -272.6048
  19   2.0000      -7.873504      -214.2489
  20   2.0000      -7.870627      -214.1707
  21   2.0000      -7.824475      -212.9148
  22   2.0000      -7.823729      -212.8945
  23   2.0000      -6.599357      -179.5776
  24   2.0000      -6.598212      -179.5465
  25   2.0000      -5.820323      -158.3791
  26   2.0000      -5.817432      -158.3004
  27   2.0000      -5.817413      -158.2999
  28   2.0000      -5.814568      -158.2224
  29   2.0000      -5.810629      -158.1152
  30   2.0000      -5.807776      -158.0376
  31   2.0000      -5.771949      -157.0627
  32   2.0000      -5.771255      -157.0438
  33   2.0000      -5.764791      -156.8679
  34   2.0000      -5.764561      -156.8617
  35   2.0000      -5.764117      -156.8496
  36   2.0000      -5.763656      -156.8370
  37   2.0000      -4.745349      -129.1275
  38   2.0000      -4.744084      -129.0931
  39   2.0000      -4.743566      -129.0790
  40   2.0000      -4.743068      -129.0654
  41   2.0000      -4.742885      -129.0605
  42   2.0000      -4.742144      -129.0403
  43   2.0000      -1.056011       -28.7355
  44   2.0000      -1.053492       -28.6670
  45   2.0000      -1.014255       -27.5993
  46   2.0000      -1.013816       -27.5873
  47   2.0000      -0.804226       -21.8841
  48   2.0000      -0.757065       -20.6008
  49   2.0000      -0.744747       -20.2656
  50   2.0000      -0.728408       -19.8210
  51   2.0000      -0.724028       -19.7018
  52   2.0000      -0.711383       -19.3577
  53   2.0000      -0.688587       -18.7374
  54   2.0000      -0.673059       -18.3149
  55   2.0000      -0.632022       -17.1982
  56   2.0000      -0.620869       -16.8947
  57   2.0000      -0.600319       -16.3355
  58   2.0000      -0.599486       -16.3129
  59   2.0000      -0.589334       -16.0366
  60   2.0000      -0.529136       -14.3985
  61   2.0000      -0.515554       -14.0289
  62   2.0000      -0.491537       -13.3754
  63   2.0000      -0.490874       -13.3574
  64   2.0000      -0.477711       -12.9992
  65   2.0000      -0.459882       -12.5140
  66   2.0000      -0.455523       -12.3954
  67   2.0000      -0.454703       -12.3731
  68   2.0000      -0.443168       -12.0592
  69   2.0000      -0.432349       -11.7648
  70   2.0000      -0.423351       -11.5200
  71   2.0000      -0.412686       -11.2297
  72   2.0000      -0.406045       -11.0490
  73   2.0000      -0.403642       -10.9836
  74   2.0000      -0.391125       -10.6430
  75   2.0000      -0.385632       -10.4936
  76   2.0000      -0.382858       -10.4181
  77   2.0000      -0.369188       -10.0461
  78   2.0000      -0.364345        -9.9143
  79   2.0000      -0.361499        -9.8369
  80   2.0000      -0.356324        -9.6961
  81   2.0000      -0.353233        -9.6119
  82   2.0000      -0.349676        -9.5152
  83   2.0000      -0.347448        -9.4545
  84   2.0000      -0.344784        -9.3820
  85   2.0000      -0.332479        -9.0472
  86   2.0000      -0.323200        -8.7947
  87   2.0000      -0.316906        -8.6235
  88   2.0000      -0.305756        -8.3201
  89   2.0000      -0.305270        -8.3068
  90   2.0000      -0.298550        -8.1240
  91   2.0000      -0.290950        -7.9171
  92   2.0000      -0.284888        -7.7522
  93   2.0000      -0.280576        -7.6349
  94   2.0000      -0.272712        -7.4209
  95   2.0000      -0.250917        -6.8278
  96   2.0000      -0.240740        -6.5509
  97   2.0000      -0.234966        -6.3938
  98   2.0000      -0.227401        -6.1879
  99   2.0000      -0.223861        -6.0916
 100   2.0000      -0.217744        -5.9251
 101   0.0000      -0.052983        -1.4417
 102   0.0000      -0.032307        -0.8791
 103   0.0000      -0.006933        -0.1887
 104   0.0000      -0.004067        -0.1107
 105   0.0000       0.016605         0.4518

MULLIKEN ATOMIC CHARGES
-----------------------
   0 C :   -0.480391
   1 C :   -0.149242
   2 O :   -0.299338
   3 P :    0.715171
   4 S :   -0.534025
   5 O :   -0.332143
   6 C :   -0.147145
   7 C :   -0.492757
   8 S :   -0.123401
   9 C :   -0.248603
  10 S :   -0.148188
  11 P :    0.697102
  12 S :   -0.520044
  13 O :   -0.291901
  14 C :   -0.111435
  15 C :   -0.507371
  16 O :   -0.323008
  17 C :   -0.138034
  18 C :   -0.484147
  19 H :    0.172316
  20 H :    0.167159
  21 H :    0.170303
  22 H :    0.180014
  23 H :    0.177398
  24 H :    0.176181
  25 H :    0.177771
  26 H :    0.173518
  27 H :    0.173034
  28 H :    0.170781
  29 H :    0.229056
  30 H :    0.234573
  31 H :    0.175936
  32 H :    0.174674
  33 H :    0.172702
  34 H :    0.168182
  35 H :    0.176891
  36 H :    0.173312
  37 H :    0.171392
  38 H :    0.167034
  39 H :    0.170113
  40 H :    0.166558
Sum of atomic charges:   -0.0000000

LOEWDIN ATOMIC CHARGES
----------------------
   0 C :   -0.401314
   1 C :    0.022333
   2 O :   -0.695756
   3 P :    0.382956
   4 S :   -0.165264
   5 O :   -0.669611
   6 C :    0.026382
   7 C :   -0.409537
   8 S :    0.163931
   9 C :   -0.424184
  10 S :    0.143425
  11 P :    0.384385
  12 S :   -0.160407
  13 O :   -0.666478
  14 C :    0.040372
  15 C :   -0.405462
  16 O :   -0.680095
  17 C :    0.026461
  18 C :   -0.388546
  19 H :    0.168898
  20 H :    0.162567
  21 H :    0.164367
  22 H :    0.190935
  23 H :    0.182486
  24 H :    0.191463
  25 H :    0.181870
  26 H :    0.169066
  27 H :    0.161817
  28 H :    0.163813
  29 H :    0.197684
  30 H :    0.197719
  31 H :    0.192560
  32 H :    0.184714
  33 H :    0.168938
  34 H :    0.162880
  35 H :    0.175250
  36 H :    0.182417
  37 H :    0.180456
  38 H :    0.163413
  39 H :    0.169600
  40 H :    0.163494

  Mayer bond orders larger than 0.100000
B(  0-C ,  1-C ) :   0.9120 B(  0-C , 19-H ) :   0.9568 B(  0-C , 20-H ) :   0.9590
B(  0-C , 21-H ) :   0.9716 B(  1-C ,  2-O ) :   0.7676 B(  1-C , 22-H ) :   0.9510
B(  1-C , 23-H ) :   0.9583 B(  2-O ,  3-P ) :   1.1504 B(  3-P ,  4-S ) :   1.7077
B(  3-P ,  5-O ) :   1.0852 B(  3-P ,  8-S ) :   1.1085 B(  5-O ,  6-C ) :   0.7983
B(  6-C ,  7-C ) :   0.9095 B(  6-C , 24-H ) :   0.9484 B(  6-C , 25-H ) :   0.9641
B(  7-C , 26-H ) :   0.9528 B(  7-C , 27-H ) :   0.9627 B(  7-C , 28-H ) :   0.9661
B(  8-S ,  9-C ) :   0.9043 B(  9-C , 10-S ) :   0.9078 B(  9-C , 29-H ) :   0.9002
B(  9-C , 30-H ) :   0.8957 B( 10-S , 11-P ) :   0.9954 B( 11-P , 12-S ) :   1.7828
B( 11-P , 13-O ) :   1.1585 B( 11-P , 16-O ) :   1.0764 B( 13-O , 14-C ) :   0.7701
B( 14-C , 15-C ) :   0.9211 B( 14-C , 31-H ) :   0.9480 B( 14-C , 32-H ) :   0.9612
B( 15-C , 33-H ) :   0.9556 B( 15-C , 34-H ) :   0.9603 B( 15-C , 35-H ) :   0.9574
B( 16-O , 17-C ) :   0.7742 B( 17-C , 18-C ) :   0.9544 B( 17-C , 36-H ) :   0.9472
B( 17-C , 37-H ) :   0.9317 B( 18-C , 38-H ) :   0.9693 B( 18-C , 39-H ) :   0.9577
B( 18-C , 40-H ) :   0.9681

Dispersion correction           -0.021166101
FINAL SINGLE POINT ENERGY     -2932.471277511097

DIPOLE MOMENT
-------------

Method             : SCF
Type of density    : Electron Density
Multiplicity       :   1
Irrep              :   0
Energy             : -2932.4966690021778959 Eh
Relativity type    :
Basis              : AO
                                X                 Y                 Z
Electronic contribution:     -0.691109452      -4.443427297     -14.222917873
Nuclear contribution   :      0.692487546       5.017047213      16.702931607
                        -----------------------------------------
Total Dipole Moment    :      0.001378094       0.573619916       2.480013734
                        -----------------------------------------
Magnitude (a.u.)       :      2.545488132
Magnitude (Debye)      :      6.470116642

Rotational constants in cm-1:             0.013487             0.004527             0.004144
Rotational constants in MHz :           404.322043           135.711295           124.237186

                             ****ORCA TERMINATED NORMALLY****
TOTAL RUN TIME: 0 days 0 hours 1 minutes 54 seconds 511 msec
