                         Program Version 6.0.0  -   RELEASE  -
|  1> ! pbe def2-sv(p) def2/J RI DEFGRID1 loosescf d4 GCP(DFT/SV(P)) printgap
|  2> %output
|  3>     printlevel normal
|  4> end
|  5> * xyz 0 1
|  6> C 0.45148027 -2.4814357838 2.0342829318
|  7> C 1.5153819996 -1.4358635747 2.3027299732
|  8> O 1.3382608614 -0.301708536 1.4212198503
|  9> P 2.2484605094 -0.0463823851 0.1564109541
| 10> S 2.9965200859 -1.6144180895 -0.7573076599
| 11> O 3.3430982819 0.9276720504 0.7743723174
| 12> C 4.5094877706 1.3417209545 0.0339910712
| 13> C 5.5828875005 1.7319085056 1.030156404
| 14> S 1.0413490887 1.2520872283 -0.9872012937
| 15> C 0.3020716456 -0.0104948449 -2.0624041836
| 16> S -0.6824422141 -1.2281458082 -1.1529703151
| 17> P -2.0904423955 0.1305499688 -0.3517743618
| 18> S -2.6478890321 1.5930331875 -1.5374873879
| 19> O -1.4260500838 0.5337019964 1.0238410355
| 20> C -1.6361945624 1.822184805 1.6328528582
| 21> C -3.0220985755 1.9219169404 2.2339553124
| 22> O -3.2558232708 -0.8244736682 0.1459907702
| 23> C -4.1868479484 -1.4202141733 -0.7811940721
| 24> C -5.3418207802 -1.9854305361 0.0202427828
| 25> H -0.5351149175 -2.0253437467 2.0710446235
| 26> H 0.594511781 -2.9203190216 1.0488253813
| 27> H 0.5182865962 -3.26187219 2.7853829453
| 28> H 2.5168597995 -1.8514233317 2.1599362079
| 29> H 1.4274541936 -1.0230070438 3.3088223322
| 30> H 4.8345628474 0.5092544464 -0.5993496322
| 31> H 4.2252343866 2.1858870005 -0.599410178
| 32> H 6.4600543584 2.0745966917 0.4912649564
| 33> H 5.2197030861 2.5287579957 1.6726149194
| 34> H 5.8510613809 0.8775912099 1.6453702193
| 35> H 1.0889840341 -0.5669143769 -2.5702139511
| 36> H -0.3322733779 0.523660137 -2.76905415
| 37> H -0.8522265561 1.8879464516 2.3886562421
| 38> H -1.4826668103 2.5976928703 0.8747944744
| 39> H -3.1854243376 1.1124952314 2.9402470062
| 40> H -3.1289778399 2.8754670767 2.7413410201
| 41> H -3.7679174395 1.8549196707 1.4424952662
| 42> H -4.5208303022 -0.6479252447 -1.4821526719
| 43> H -3.6639662819 -2.2038787599 -1.3364994981
| 44> H -5.848768493 -1.1905821404 0.5596710436
| 45> H -6.0430785693 -2.4636633256 -0.655590211
| 46> H -4.9731852729 -2.71643078 0.7338309557
| 47> *
| 48>
| 49>                          ****END OF INPUT****

CARTESIAN COORDINATES (ANGSTROEM)
---------------------------------
  C      0.451480   -2.481436    2.034283
  C      1.515382   -1.435864    2.302730
  O      1.338261   -0.301709    1.421220
  P      2.248461   -0.046382    0.156411
  S      2.996520   -1.614418   -0.757308
  O      3.343098    0.927672    0.774372
  C      4.509488    1.341721    0.033991
  C      5.582888    1.731909    1.030156
  S      1.041349    1.252087   -0.987201
  C      0.302072   -0.010495   -2.062404
  S     -0.682442   -1.228146   -1.152970
  P     -2.090442    0.130550   -0.351774
  S     -2.647889    1.593033   -1.537487
  O     -1.426050    0.533702    1.023841
  C     -1.636195    1.822185    1.632853
  C     -3.022099    1.921917    2.233955
  O     -3.255823   -0.824474    0.145991
  C     -4.186848   -1.420214   -0.781194
  C     -5.341821   -1.985431    0.020243
  H     -0.535115   -2.025344    2.071045
  H      0.594512   -2.920319    1.048825
  H      0.518287   -3.261872    2.785383
  H      2.516860   -1.851423    2.159936
  H      1.427454   -1.023007    3.308822
  H      4.834563    0.509254   -0.599350
  H      4.225234    2.185887   -0.599410
  H      6.460054    2.074597    0.491265
  H      5.219703    2.528758    1.672615
  H      5.851061    0.877591    1.645370
  H      1.088984   -0.566914   -2.570214
  H     -0.332273    0.523660   -2.769054
  H     -0.852227    1.887946    2.388656
  H     -1.482667    2.597693    0.874794
  H     -3.185424    1.112495    2.940247
  H     -3.128978    2.875467    2.741341
  H     -3.767917    1.854920    1.442495
  H     -4.520830   -0.647925   -1.482153
  H     -3.663966   -2.203879   -1.336499
  H     -5.848768   -1.190582    0.559671
  H     -6.043079   -2.463663   -0.655590
  H     -4.973185   -2.716431    0.733831

 Total Charge           Charge          ....    0
 Multiplicity           Mult            ....    1
 Number of Electrons    NEL             ....  202
 Basis Dimension        Dim             ....  334

ORBITAL ENERGIES
----------------

  NO   OCC          E(Eh)            E(eV)
   0   2.0000     -88.042124     -2395.7480
   1   2.0000     -88.041358     -2395.7271
   2   2.0000     -87.987969     -2394.2744
   3   2.0000     -87.986984     -2394.2475
   4   2.0000     -76.425764     -2079.6508
   5   2.0000     -76.424663     -2079.6208
   6   2.0000     -18.795648      -511.4556
   7   2.0000     -18.791256      -511.3361
   8   2.0000     -18.788492      -511.2609
   9   2.0000     -18.786519      -511.2072
  10   2.0000      -9.954143      -270.8660
  11   2.0000      -9.954057      -270.8637
  12   2.0000      -9.950868      -270.7769
  13   2.0000      -9.950099      -270.7559
  14   2.0000      -9.947891      -270.6959
  15   2.0000      -9.889771      -269.1144
  16   2.0000      -9.887463      -269.0515
  17   2.0000      -9.881912      -268.9005
  18   2.0000      -9.875434      -268.7242
  19   2.0000      -7.687241      -209.1805
  20   2.0000      -7.686305      -209.1550
  21   2.0000      -7.632913      -207.7021
  22   2.0000      -7.632004      -207.6774
  23   2.0000      -6.423388      -174.7893
  24   2.0000      -6.422374      -174.7617
  25   2.0000      -5.715075      -155.5151
  26   2.0000      -5.714157      -155.4901
  27   2.0000      -5.711845      -155.4272
  28   2.0000      -5.710869      -155.4006
  29   2.0000      -5.704131      -155.2173
  30   2.0000      -5.703214      -155.1924
  31   2.0000      -5.661700      -154.0627
  32   2.0000      -5.660792      -154.0380
  33   2.0000      -5.653506      -153.8397
  34   2.0000      -5.653254      -153.8329
  35   2.0000      -5.652729      -153.8186
  36   2.0000      -5.652205      -153.8043
  37   2.0000      -4.645724      -126.4166
  38   2.0000      -4.645198      -126.4023
  39   2.0000      -4.644740      -126.3898
  40   2.0000      -4.644141      -126.3735
  41   2.0000      -4.643971      -126.3689
  42   2.0000      -4.642986      -126.3421
  43   2.0000      -0.987929       -26.8829
  44   2.0000      -0.984021       -26.7766
  45   2.0000      -0.946418       -25.7533
  46   2.0000      -0.941916       -25.6308
  47   2.0000      -0.765184       -20.8217
  48   2.0000      -0.722342       -19.6559
  49   2.0000      -0.709536       -19.3075
  50   2.0000      -0.687621       -18.7111
  51   2.0000      -0.684655       -18.6304
  52   2.0000      -0.671426       -18.2704
  53   2.0000      -0.648409       -17.6441
  54   2.0000      -0.638391       -17.3715
  55   2.0000      -0.599344       -16.3090
  56   2.0000      -0.590610       -16.0713
  57   2.0000      -0.569014       -15.4837
  58   2.0000      -0.564566       -15.3626
  59   2.0000      -0.558439       -15.1959
  60   2.0000      -0.507477       -13.8092
  61   2.0000      -0.502451       -13.6724
  62   2.0000      -0.476981       -12.9793
  63   2.0000      -0.474289       -12.9061
  64   2.0000      -0.456308       -12.4168
  65   2.0000      -0.443477       -12.0676
  66   2.0000      -0.437478       -11.9044
  67   2.0000      -0.434004       -11.8099
  68   2.0000      -0.429452       -11.6860
  69   2.0000      -0.414223       -11.2716
  70   2.0000      -0.404633       -11.0106
  71   2.0000      -0.393351       -10.7036
  72   2.0000      -0.385620       -10.4932
  73   2.0000      -0.380775       -10.3614
  74   2.0000      -0.379527       -10.3275
  75   2.0000      -0.374105       -10.1799
  76   2.0000      -0.373137       -10.1536
  77   2.0000      -0.358254        -9.7486
  78   2.0000      -0.353180        -9.6105
  79   2.0000      -0.351403        -9.5622
  80   2.0000      -0.347194        -9.4476
  81   2.0000      -0.345105        -9.3908
  82   2.0000      -0.342815        -9.3285
  83   2.0000      -0.337170        -9.1749
  84   2.0000      -0.332686        -9.0528
  85   2.0000      -0.319005        -8.6806
  86   2.0000      -0.304814        -8.2944
  87   2.0000      -0.301380        -8.2010
  88   2.0000      -0.298869        -8.1326
  89   2.0000      -0.289358        -7.8738
  90   2.0000      -0.281427        -7.6580
  91   2.0000      -0.279039        -7.5930
  92   2.0000      -0.266996        -7.2653
  93   2.0000      -0.262703        -7.1485
  94   2.0000      -0.258641        -7.0380
  95   2.0000      -0.232885        -6.3371
  96   2.0000      -0.218180        -5.9370
  97   2.0000      -0.213925        -5.8212
  98   2.0000      -0.207455        -5.6451
  99   2.0000      -0.200760        -5.4629
 100   2.0000      -0.198488        -5.4011
 101   0.0000      -0.044647        -1.2149
 102   0.0000      -0.023419        -0.6373
 103   0.0000       0.003291         0.0895
 104   0.0000       0.005987         0.1629
 105   0.0000       0.008372         0.2278

MULLIKEN ATOMIC CHARGES
-----------------------
   0 C :   -0.295501
   1 C :   -0.000867
   2 O :   -0.355705
   3 P :    0.616926
   4 S :   -0.342511
   5 O :   -0.377039
   6 C :   -0.009366
   7 C :   -0.280564
   8 S :   -0.084852
   9 C :   -0.358662
  10 S :   -0.081843
  11 P :    0.622458
  12 S :   -0.338694
  13 O :   -0.352701
  14 C :   -0.003627
  15 C :   -0.302100
  16 O :   -0.377673
  17 C :   -0.013962
  18 C :   -0.279101
  19 H :    0.119709
  20 H :    0.128546
  21 H :    0.102872
  22 H :    0.103001
  23 H :    0.102489
  24 H :    0.105217
  25 H :    0.101529
  26 H :    0.111837
  27 H :    0.116159
  28 H :    0.117178
  29 H :    0.191783
  30 H :    0.191460
  31 H :    0.104535
  32 H :    0.113824
  33 H :    0.113345
  34 H :    0.110955
  35 H :    0.120501
  36 H :    0.106880
  37 H :    0.104245
  38 H :    0.119061
  39 H :    0.113018
  40 H :    0.117240
Sum of atomic charges:    0.0000000

LOEWDIN ATOMIC CHARGES
----------------------
   0 C :   -0.363123
   1 C :   -0.109655
   2 O :   -0.234120
   3 P :    0.567706
   4 S :   -0.328884
   5 O :   -0.252433
   6 C :   -0.120961
   7 C :   -0.350524
   8 S :    0.088165
   9 C :   -0.479205
  10 S :    0.095347
  11 P :    0.569424
  12 S :   -0.326877
  13 O :   -0.226721
  14 C :   -0.117680
  15 C :   -0.363849
  16 O :   -0.247613
  17 C :   -0.120494
  18 C :   -0.349858
  19 H :    0.123279
  20 H :    0.123194
  21 H :    0.125551
  22 H :    0.108212
  23 H :    0.116669
  24 H :    0.106888
  25 H :    0.110579
  26 H :    0.130685
  27 H :    0.126553
  28 H :    0.127512
  29 H :    0.131192
  30 H :    0.130892
  31 H :    0.118167
  32 H :    0.109781
  33 H :    0.124699
  34 H :    0.129823
  35 H :    0.121705
  36 H :    0.109442
  37 H :    0.109675
  38 H :    0.128084
  39 H :    0.131415
  40 H :    0.127358

  Mayer bond orders larger than 0.100000
B(  0-C ,  1-C ) :   1.1728 B(  0-C , 19-H ) :   0.9421 B(  0-C , 20-H ) :   0.9381
B(  0-C , 21-H ) :   0.9389 B(  1-C ,  2-O ) :   0.8915 B(  1-C , 22-H ) :   0.9130
B(  1-C , 23-H ) :   0.9339 B(  2-O ,  3-P ) :   1.1489 B(  3-P ,  4-S ) :   1.5918
B(  3-P ,  5-O ) :   1.1123 B(  3-P ,  8-S ) :   0.9600 B(  4-S ,  8-S ) :   0.1092
B(  5-O ,  6-C ) :   0.9061 B(  6-C ,  7-C ) :   1.1616 B(  6-C , 24-H ) :   0.9067
B(  6-C , 25-H ) :   0.9300 B(  7-C , 26-H ) :   0.9421 B(  7-C , 27-H ) :   0.9509
B(  7-C , 28-H ) :   0.9511 B(  8-S ,  9-C ) :   1.0025 B(  9-C , 10-S ) :   1.0068
B(  9-C , 29-H ) :   0.8855 B(  9-C , 30-H ) :   0.8843 B( 10-S , 11-P ) :   0.9590
B( 10-S , 12-S ) :   0.1074 B( 11-P , 12-S ) :   1.5935 B( 11-P , 13-O ) :   1.1290
B( 11-P , 16-O ) :   1.1072 B( 13-O , 14-C ) :   0.8999 B( 14-C , 15-C ) :   1.1630
B( 14-C , 31-H ) :   0.9327 B( 14-C , 32-H ) :   0.9139 B( 15-C , 33-H ) :   0.9470
B( 15-C , 34-H ) :   0.9403 B( 15-C , 35-H ) :   0.9360 B( 16-O , 17-C ) :   0.9036
B( 17-C , 18-C ) :   1.1605 B( 17-C , 36-H ) :   0.9125 B( 17-C , 37-H ) :   0.9274
B( 18-C , 38-H ) :   0.9515 B( 18-C , 39-H ) :   0.9419 B( 18-C , 40-H ) :   0.9505

Dispersion correction           -0.065227926
FINAL SINGLE POINT ENERGY     -2929.528694642183

DIPOLE MOMENT
-------------

Method             : SCF
Type of density    : Electron Density
Multiplicity       :   1
Irrep              :   0
Energy             : -2929.6470624327798760 Eh
Relativity type    :
Basis              : AO
                                X                 Y                 Z
Electronic contribution:      5.276638588       1.800042662     -15.241091458
Nuclear contribution   :     -5.413299782      -1.799450076      16.162877581
                        -----------------------------------------
Total Dipole Moment    :     -0.136661193       0.000592586       0.921786122
                        -----------------------------------------
Magnitude (a.u.)       :      0.931861732
Magnitude (Debye)      :      2.368604287

Rotational constants in cm-1:             0.013347             0.004777             0.004629
Rotational constants in MHz :           400.145686           143.201859           138.770978

                             ****ORCA TERMINATED NORMALLY****
TOTAL RUN TIME: 0 days 0 hours 0 minutes 21 seconds 57 msec
