                         Program Version 6.0.0  -   RELEASE  -
|  1> ! pbe def2-sv(p) def2/J RI DEFGRID1 loosescf d4 GCP(DFT/SV(P)) printgap
|  2> %output
|  3>     printlevel normal
|  4> end
|  5> * xyz 0 1
|  6> C 0.9663551222 1.8344788946 2.9541339497
|  7> C 2.0717844689 1.5566866568 1.956632449
|  8> O 2.1826817969 0.1172230689 1.8043061713
|  9> P 2.7217464976 -0.5687072093 0.4934048579
| 10> S 2.8074424393 -2.5136848964 0.6719043029
| 11> O 4.1051412755 0.1833700325 0.272078639
| 12> C 5.1470684221 -0.3248244953 -0.5816519358
| 13> C 4.7311722628 -0.3674701358 -2.0375690407
| 14> S 1.4816540739 0.1652642192 -1.079714268
| 15> C 0.136508872 -1.0110325258 -0.8173129254
| 16> S -0.8714185121 -0.6299325902 0.6435951664
| 17> P -2.6454015999 0.0677414106 -0.2914021961
| 18> S -2.7347801144 -0.1772760373 -2.2407005686
| 19> O -2.9128446714 1.5607950005 0.1925104315
| 20> C -2.4953478204 2.7067343076 -0.5685961773
| 21> C -1.0067389849 2.9538294229 -0.4399966512
| 22> O -3.6522387836 -0.7422003802 0.6219740336
| 23> C -5.0201380413 -0.3498765299 0.8714884693
| 24> C -5.8473175204 -0.3078274039 -0.396818672
| 25> H 0.0237979729 1.4314876643 2.59118475
| 26> H 1.1967178132 1.3619232246 3.9044932603
| 27> H 0.8759441796 2.9065570062 3.0977892128
| 28> H 3.036916505 1.9227788045 2.3110478193
| 29> H 1.8551183255 1.9973384124 0.9788271257
| 30> H 5.9737046519 0.3681399774 -0.4185026444
| 31> H 5.4226556704 -1.323857368 -0.2306083918
| 32> H 3.9569694769 -1.1194260655 -2.1828294153
| 33> H 4.3447981024 0.5992626843 -2.3505409451
| 34> H 5.5903832105 -0.627984145 -2.6472488784
| 35> H 0.5682980771 -2.0015565387 -0.6703930048
| 36> H -0.4998130818 -0.9820039959 -1.7057429342
| 37> H -2.7718717041 2.5488579286 -1.6162784323
| 38> H -3.0773414129 3.5287546441 -0.1494558484
| 39> H -0.4507768964 2.1418296178 -0.9079268421
| 40> H -0.7520399347 3.881855485 -0.9413831606
| 41> H -0.7261451622 3.0211257755 0.6077198555
| 42> H -5.3809286316 -1.1164111474 1.5593039797
| 43> H -5.0140318661 0.6226868742 1.3680382671
| 44> H -5.800177675 -1.2650710089 -0.9109673534
| 45> H -6.8799621019 -0.0847809711 -0.1476325211
| 46> H -5.4688731311 0.4620936171 -1.0680398084
| 47> *
| 48>
| 49>                          ****END OF INPUT****

CARTESIAN COORDINATES (ANGSTROEM)
---------------------------------
  C      0.966355    1.834479    2.954134
  C      2.071784    1.556687    1.956632
  O      2.182682    0.117223    1.804306
  P      2.721746   -0.568707    0.493405
  S      2.807442   -2.513685    0.671904
  O      4.105141    0.183370    0.272079
  C      5.147068   -0.324824   -0.581652
  C      4.731172   -0.367470   -2.037569
  S      1.481654    0.165264   -1.079714
  C      0.136509   -1.011033   -0.817313
  S     -0.871419   -0.629933    0.643595
  P     -2.645402    0.067741   -0.291402
  S     -2.734780   -0.177276   -2.240701
  O     -2.912845    1.560795    0.192510
  C     -2.495348    2.706734   -0.568596
  C     -1.006739    2.953829   -0.439997
  O     -3.652239   -0.742200    0.621974
  C     -5.020138   -0.349877    0.871488
  C     -5.847318   -0.307827   -0.396819
  H      0.023798    1.431488    2.591185
  H      1.196718    1.361923    3.904493
  H      0.875944    2.906557    3.097789
  H      3.036917    1.922779    2.311048
  H      1.855118    1.997338    0.978827
  H      5.973705    0.368140   -0.418503
  H      5.422656   -1.323857   -0.230608
  H      3.956969   -1.119426   -2.182829
  H      4.344798    0.599263   -2.350541
  H      5.590383   -0.627984   -2.647249
  H      0.568298   -2.001557   -0.670393
  H     -0.499813   -0.982004   -1.705743
  H     -2.771872    2.548858   -1.616278
  H     -3.077341    3.528755   -0.149456
  H     -0.450777    2.141830   -0.907927
  H     -0.752040    3.881855   -0.941383
  H     -0.726145    3.021126    0.607720
  H     -5.380929   -1.116411    1.559304
  H     -5.014032    0.622687    1.368038
  H     -5.800178   -1.265071   -0.910967
  H     -6.879962   -0.084781   -0.147633
  H     -5.468873    0.462094   -1.068040

 Total Charge           Charge          ....    0
 Multiplicity           Mult            ....    1
 Number of Electrons    NEL             ....  202
 Basis Dimension        Dim             ....  334

ORBITAL ENERGIES
----------------

  NO   OCC          E(Eh)            E(eV)
   0   2.0000     -88.043751     -2395.7923
   1   2.0000     -88.041538     -2395.7321
   2   2.0000     -87.993592     -2394.4274
   3   2.0000     -87.986173     -2394.2255
   4   2.0000     -76.429890     -2079.7630
   5   2.0000     -76.426090     -2079.6596
   6   2.0000     -18.798464      -511.5322
   7   2.0000     -18.795967      -511.4643
   8   2.0000     -18.793599      -511.3998
   9   2.0000     -18.791942      -511.3547
  10   2.0000      -9.957646      -270.9613
  11   2.0000      -9.956611      -270.9332
  12   2.0000      -9.955551      -270.9043
  13   2.0000      -9.955133      -270.8929
  14   2.0000      -9.947788      -270.6931
  15   2.0000      -9.887904      -269.0635
  16   2.0000      -9.886456      -269.0242
  17   2.0000      -9.886060      -269.0134
  18   2.0000      -9.885589      -269.0006
  19   2.0000      -7.688107      -209.2040
  20   2.0000      -7.686446      -209.1588
  21   2.0000      -7.638413      -207.8518
  22   2.0000      -7.631440      -207.6620
  23   2.0000      -6.427457      -174.9000
  24   2.0000      -6.423800      -174.8005
  25   2.0000      -5.715708      -155.5323
  26   2.0000      -5.714316      -155.4944
  27   2.0000      -5.712710      -155.4507
  28   2.0000      -5.710935      -155.4024
  29   2.0000      -5.705361      -155.2508
  30   2.0000      -5.703448      -155.1987
  31   2.0000      -5.667116      -154.2101
  32   2.0000      -5.660415      -154.0277
  33   2.0000      -5.659296      -153.9973
  34   2.0000      -5.658547      -153.9769
  35   2.0000      -5.651964      -153.7978
  36   2.0000      -5.651609      -153.7881
  37   2.0000      -4.650260      -126.5400
  38   2.0000      -4.648866      -126.5021
  39   2.0000      -4.648032      -126.4794
  40   2.0000      -4.646716      -126.4436
  41   2.0000      -4.645456      -126.4093
  42   2.0000      -4.644021      -126.3702
  43   2.0000      -0.992213       -26.9995
  44   2.0000      -0.989635       -26.9293
  45   2.0000      -0.948179       -25.8013
  46   2.0000      -0.946224       -25.7481
  47   2.0000      -0.761929       -20.7331
  48   2.0000      -0.724579       -19.7168
  49   2.0000      -0.712480       -19.3876
  50   2.0000      -0.692607       -18.8468
  51   2.0000      -0.690543       -18.7906
  52   2.0000      -0.677082       -18.4243
  53   2.0000      -0.653187       -17.7741
  54   2.0000      -0.638785       -17.3822
  55   2.0000      -0.602845       -16.4042
  56   2.0000      -0.592563       -16.1245
  57   2.0000      -0.581658       -15.8277
  58   2.0000      -0.572428       -15.5765
  59   2.0000      -0.556525       -15.1438
  60   2.0000      -0.507100       -13.7989
  61   2.0000      -0.499978       -13.6051
  62   2.0000      -0.476201       -12.9581
  63   2.0000      -0.475244       -12.9321
  64   2.0000      -0.462572       -12.5872
  65   2.0000      -0.447745       -12.1838
  66   2.0000      -0.439471       -11.9586
  67   2.0000      -0.435011       -11.8373
  68   2.0000      -0.434108       -11.8127
  69   2.0000      -0.420333       -11.4378
  70   2.0000      -0.415346       -11.3021
  71   2.0000      -0.408045       -11.1035
  72   2.0000      -0.392024       -10.6675
  73   2.0000      -0.387506       -10.5446
  74   2.0000      -0.377464       -10.2713
  75   2.0000      -0.376096       -10.2341
  76   2.0000      -0.365183        -9.9371
  77   2.0000      -0.359209        -9.7746
  78   2.0000      -0.356390        -9.6979
  79   2.0000      -0.354900        -9.6573
  80   2.0000      -0.350026        -9.5247
  81   2.0000      -0.344939        -9.3863
  82   2.0000      -0.341101        -9.2818
  83   2.0000      -0.340352        -9.2614
  84   2.0000      -0.338704        -9.2166
  85   2.0000      -0.319939        -8.7060
  86   2.0000      -0.313922        -8.5423
  87   2.0000      -0.303062        -8.2467
  88   2.0000      -0.300815        -8.1856
  89   2.0000      -0.295740        -8.0475
  90   2.0000      -0.293614        -7.9896
  91   2.0000      -0.279527        -7.6063
  92   2.0000      -0.271309        -7.3827
  93   2.0000      -0.265463        -7.2236
  94   2.0000      -0.259349        -7.0573
  95   2.0000      -0.232810        -6.3351
  96   2.0000      -0.222756        -6.0615
  97   2.0000      -0.214634        -5.8405
  98   2.0000      -0.206566        -5.6210
  99   2.0000      -0.205477        -5.5913
 100   2.0000      -0.199448        -5.4273
 101   0.0000      -0.041584        -1.1316
 102   0.0000      -0.031227        -0.8497
 103   0.0000      -0.008469        -0.2305
 104   0.0000       0.003745         0.1019
 105   0.0000       0.009427         0.2565

MULLIKEN ATOMIC CHARGES
-----------------------
   0 C :   -0.291677
   1 C :   -0.017142
   2 O :   -0.354853
   3 P :    0.597673
   4 S :   -0.305870
   5 O :   -0.385329
   6 C :    0.001149
   7 C :   -0.321191
   8 S :   -0.104614
   9 C :   -0.371384
  10 S :   -0.066855
  11 P :    0.625397
  12 S :   -0.326971
  13 O :   -0.381340
  14 C :   -0.000849
  15 C :   -0.337814
  16 O :   -0.370075
  17 C :   -0.001742
  18 C :   -0.315642
  19 H :    0.135232
  20 H :    0.120956
  21 H :    0.107140
  22 H :    0.107843
  23 H :    0.107839
  24 H :    0.105318
  25 H :    0.113710
  26 H :    0.131949
  27 H :    0.117624
  28 H :    0.115285
  29 H :    0.197541
  30 H :    0.196152
  31 H :    0.112328
  32 H :    0.102329
  33 H :    0.135702
  34 H :    0.111576
  35 H :    0.124195
  36 H :    0.111088
  37 H :    0.109441
  38 H :    0.127195
  39 H :    0.111675
  40 H :    0.127013
Sum of atomic charges:   -0.0000000

LOEWDIN ATOMIC CHARGES
----------------------
   0 C :   -0.356428
   1 C :   -0.114837
   2 O :   -0.235800
   3 P :    0.567319
   4 S :   -0.305633
   5 O :   -0.249951
   6 C :   -0.114744
   7 C :   -0.371435
   8 S :    0.085747
   9 C :   -0.493242
  10 S :    0.102308
  11 P :    0.568136
  12 S :   -0.304939
  13 O :   -0.247091
  14 C :   -0.120367
  15 C :   -0.370173
  16 O :   -0.241906
  17 C :   -0.110580
  18 C :   -0.366354
  19 H :    0.122685
  20 H :    0.130230
  21 H :    0.127453
  22 H :    0.116028
  23 H :    0.103231
  24 H :    0.118922
  25 H :    0.114213
  26 H :    0.123223
  27 H :    0.123184
  28 H :    0.132264
  29 H :    0.128846
  30 H :    0.125064
  31 H :    0.108947
  32 H :    0.117091
  33 H :    0.113423
  34 H :    0.131383
  35 H :    0.125321
  36 H :    0.122484
  37 H :    0.113027
  38 H :    0.131337
  39 H :    0.130060
  40 H :    0.121555

  Mayer bond orders larger than 0.100000
B(  0-C ,  1-C ) :   1.1701 B(  0-C , 19-H ) :   0.9335 B(  0-C , 20-H ) :   0.9460
B(  0-C , 21-H ) :   0.9382 B(  1-C ,  2-O ) :   0.8862 B(  1-C , 22-H ) :   0.9312
B(  1-C , 23-H ) :   0.9079 B(  2-O ,  3-P ) :   1.1424 B(  3-P ,  4-S ) :   1.6442
B(  3-P ,  5-O ) :   1.0898 B(  3-P ,  8-S ) :   0.9465 B(  4-S ,  8-S ) :   0.1068
B(  5-O ,  6-C ) :   0.9061 B(  6-C ,  7-C ) :   1.1660 B(  6-C , 24-H ) :   0.9345
B(  6-C , 25-H ) :   0.9199 B(  7-C , 26-H ) :   0.9345 B(  7-C , 27-H ) :   0.9435
B(  7-C , 28-H ) :   0.9368 B(  8-S ,  9-C ) :   1.0010 B(  9-C , 10-S ) :   1.0076
B(  9-C , 29-H ) :   0.8673 B(  9-C , 30-H ) :   0.8483 B( 10-S , 11-P ) :   0.9680
B( 10-S , 12-S ) :   0.1221 B( 11-P , 12-S ) :   1.6002 B( 11-P , 13-O ) :   1.0782
B( 11-P , 16-O ) :   1.1369 B( 12-S , 30-H ) :   0.1164 B( 13-O , 14-C ) :   0.9128
B( 14-C , 15-C ) :   1.1629 B( 14-C , 31-H ) :   0.9103 B( 14-C , 32-H ) :   0.9320
B( 15-C , 33-H ) :   0.9265 B( 15-C , 34-H ) :   0.9371 B( 15-C , 35-H ) :   0.9383
B( 16-O , 17-C ) :   0.9066 B( 17-C , 18-C ) :   1.1656 B( 17-C , 36-H ) :   0.9345
B( 17-C , 37-H ) :   0.9290 B( 18-C , 38-H ) :   0.9453 B( 18-C , 39-H ) :   0.9364
B( 18-C , 40-H ) :   0.9366

Dispersion correction           -0.063868644
FINAL SINGLE POINT ENERGY     -2929.522153888180

DIPOLE MOMENT
-------------

Method             : SCF
Type of density    : Electron Density
Multiplicity       :   1
Irrep              :   0
Energy             : -2929.6433561653911966 Eh
Relativity type    :
Basis              : AO
                                X                 Y                 Z
Electronic contribution:      3.596232015     -15.804046090      -0.129634461
Nuclear contribution   :     -3.822876838      17.699314442       0.362102678
                        -----------------------------------------
Total Dipole Moment    :     -0.226644823       1.895268353       0.232468217
                        -----------------------------------------
Magnitude (a.u.)       :      1.922875835
Magnitude (Debye)      :      4.887561952

Rotational constants in cm-1:             0.014223             0.004122             0.004000
Rotational constants in MHz :           426.390299           123.585707           119.917489

                             ****ORCA TERMINATED NORMALLY****
TOTAL RUN TIME: 0 days 0 hours 0 minutes 20 seconds 898 msec
