                         Program Version 6.0.1  -  RELEASE   -
|  1> ! pbe def2-sv(p) def2/J RI DEFGRID1 loosescf d4 GCP(DFT/SV(P)) printgap
|  2> %output
|  3>     printlevel normal
|  4> end
|  5> * xyz 0 1
|  6> C 3.2428650522 -3.8104127648 0.4107408169
|  7> C 2.8275368663 -2.3896283429 0.7342719893
|  8> O 2.3734172049 -1.771242015 -0.4851477349
|  9> C 2.0968671377 -0.4895762708 -0.467762596
| 10> O 2.1892697898 0.2275849994 0.5096215926
| 11> C 1.67542122 0.0285653416 -1.830021136
| 12> C 0.3778893425 0.8360569563 -1.7273742279
| 13> H 0.2712685862 1.4801392085 -2.6032932924
| 14> C 0.3569975614 1.6881529498 -0.4744831579
| 15> O -0.449634965 1.504831592 0.4222482826
| 16> O 1.22956766 2.6475875355 -0.50881707
| 17> C 1.3778698346 3.470878361 0.6690649041
| 18> C 2.4015206928 4.5434694561 0.3586063321
| 19> S -1.1039350379 -0.2239835287 -1.7386125177
| 20> P -1.6710128045 -0.5930217728 0.2860041946
| 21> S -0.4870983488 -1.1414228098 1.7469849626
| 22> O -2.8846540842 0.3968077715 0.6398038103
| 23> C -2.888726435 1.4082419663 1.6442253898
| 24> O -2.5246847601 -1.912744707 -0.0335862638
| 25> C -3.6315094028 -1.9720255371 -0.947869226
| 26> H 3.587883681 -4.2950563505 1.3176894348
| 27> H 2.3957570752 -4.3602658879 0.0120256732
| 28> H 4.0418839531 -3.8078999858 -0.3246751618
| 29> H 3.657874932 -1.7963815328 1.1298203566
| 30> H 2.0066840564 -2.3555255164 1.4588300446
| 31> H 1.5505008971 -0.8039992917 -2.520549269
| 32> H 2.4702345899 0.6885388701 -2.1843077217
| 33> H 0.4008195566 3.8943404169 0.9200561745
| 34> H 1.6980212671 2.8168667845 1.486143946
| 35> H 2.5267489061 5.1775026539 1.2297895884
| 36> H 3.3539900823 4.0858700869 0.1103247147
| 37> H 2.0685197817 5.1468015372 -0.4803781436
| 38> H -3.8698153159 1.3630826103 2.1131202899
| 39> H -2.7260318355 2.3784963958 1.1782746869
| 40> H -2.1063660555 1.2168249364 2.3796047469
| 41> H -4.0976891722 -2.9369127722 -0.7639241544
| 42> H -3.2691226861 -1.9105692301 -1.9736925779
| 43> H -4.3306831864 -1.162547624 -0.7461290171
| 44> *
| 45>
| 46>                          ****END OF INPUT****

CARTESIAN COORDINATES (ANGSTROEM)
---------------------------------
  C      3.242865   -3.810413    0.410741
  C      2.827537   -2.389628    0.734272
  O      2.373417   -1.771242   -0.485148
  C      2.096867   -0.489576   -0.467763
  O      2.189270    0.227585    0.509622
  C      1.675421    0.028565   -1.830021
  C      0.377889    0.836057   -1.727374
  H      0.271269    1.480139   -2.603293
  C      0.356998    1.688153   -0.474483
  O     -0.449635    1.504832    0.422248
  O      1.229568    2.647588   -0.508817
  C      1.377870    3.470878    0.669065
  C      2.401521    4.543469    0.358606
  S     -1.103935   -0.223984   -1.738613
  P     -1.671013   -0.593022    0.286004
  S     -0.487098   -1.141423    1.746985
  O     -2.884654    0.396808    0.639804
  C     -2.888726    1.408242    1.644225
  O     -2.524685   -1.912745   -0.033586
  C     -3.631509   -1.972026   -0.947869
  H      3.587884   -4.295056    1.317689
  H      2.395757   -4.360266    0.012026
  H      4.041884   -3.807900   -0.324675
  H      3.657875   -1.796382    1.129820
  H      2.006684   -2.355526    1.458830
  H      1.550501   -0.803999   -2.520549
  H      2.470235    0.688539   -2.184308
  H      0.400820    3.894340    0.920056
  H      1.698021    2.816867    1.486144
  H      2.526749    5.177503    1.229790
  H      3.353990    4.085870    0.110325
  H      2.068520    5.146802   -0.480378
  H     -3.869815    1.363083    2.113120
  H     -2.726032    2.378496    1.178275
  H     -2.106366    1.216825    2.379605
  H     -4.097689   -2.936913   -0.763924
  H     -3.269123   -1.910569   -1.973693
  H     -4.330683   -1.162548   -0.746129

 Total Charge           Charge          ....    0
 Multiplicity           Mult            ....    1
 Number of Electrons    NEL             ....  174
 Basis Dimension        Dim             ....  316

ORBITAL ENERGIES
----------------

  NO   OCC          E(Eh)            E(eV)
   0   2.0000     -88.030679     -2395.4365
   1   2.0000     -87.957132     -2393.4352
   2   2.0000     -76.413218     -2079.3094
   3   2.0000     -18.817300      -512.0448
   4   2.0000     -18.801912      -511.6260
   5   2.0000     -18.771255      -510.7918
   6   2.0000     -18.762940      -510.5655
   7   2.0000     -18.760268      -510.4928
   8   2.0000     -18.738406      -509.8979
   9   2.0000     -10.029886      -272.9271
  10   2.0000     -10.011072      -272.4151
  11   2.0000      -9.955416      -270.9006
  12   2.0000      -9.954239      -270.8686
  13   2.0000      -9.937513      -270.4135
  14   2.0000      -9.930876      -270.2329
  15   2.0000      -9.927653      -270.1452
  16   2.0000      -9.916610      -269.8447
  17   2.0000      -9.894323      -269.2382
  18   2.0000      -9.881518      -268.8898
  19   2.0000      -7.675833      -208.8700
  20   2.0000      -7.602475      -206.8739
  21   2.0000      -6.407966      -174.3696
  22   2.0000      -5.704106      -155.2166
  23   2.0000      -5.700033      -155.1058
  24   2.0000      -5.692662      -154.9052
  25   2.0000      -5.631918      -153.2523
  26   2.0000      -5.623336      -153.0187
  27   2.0000      -5.621761      -152.9759
  28   2.0000      -4.631016      -126.0164
  29   2.0000      -4.629858      -125.9848
  30   2.0000      -4.628503      -125.9480
  31   2.0000      -1.030926       -28.0529
  32   2.0000      -1.009451       -27.4686
  33   2.0000      -0.961193       -26.1554
  34   2.0000      -0.936092       -25.4723
  35   2.0000      -0.916040       -24.9267
  36   2.0000      -0.915229       -24.9047
  37   2.0000      -0.767016       -20.8716
  38   2.0000      -0.716080       -19.4855
  39   2.0000      -0.706268       -19.2185
  40   2.0000      -0.684256       -18.6196
  41   2.0000      -0.653528       -17.7834
  42   2.0000      -0.622328       -16.9344
  43   2.0000      -0.620706       -16.8903
  44   2.0000      -0.597087       -16.2476
  45   2.0000      -0.586224       -15.9520
  46   2.0000      -0.558588       -15.2000
  47   2.0000      -0.519353       -14.1323
  48   2.0000      -0.505325       -13.7506
  49   2.0000      -0.499344       -13.5878
  50   2.0000      -0.489791       -13.3279
  51   2.0000      -0.463208       -12.6045
  52   2.0000      -0.459502       -12.5037
  53   2.0000      -0.450441       -12.2571
  54   2.0000      -0.442039       -12.0285
  55   2.0000      -0.425852       -11.5880
  56   2.0000      -0.420614       -11.4455
  57   2.0000      -0.416247       -11.3267
  58   2.0000      -0.407606       -11.0915
  59   2.0000      -0.404831       -11.0160
  60   2.0000      -0.398681       -10.8487
  61   2.0000      -0.393831       -10.7167
  62   2.0000      -0.383827       -10.4445
  63   2.0000      -0.375950       -10.2301
  64   2.0000      -0.368301       -10.0220
  65   2.0000      -0.363153        -9.8819
  66   2.0000      -0.359898        -9.7933
  67   2.0000      -0.356647        -9.7049
  68   2.0000      -0.350725        -9.5437
  69   2.0000      -0.339667        -9.2428
  70   2.0000      -0.330443        -8.9918
  71   2.0000      -0.325116        -8.8468
  72   2.0000      -0.315363        -8.5815
  73   2.0000      -0.311607        -8.4792
  74   2.0000      -0.297988        -8.1087
  75   2.0000      -0.296266        -8.0618
  76   2.0000      -0.284946        -7.7538
  77   2.0000      -0.280097        -7.6218
  78   2.0000      -0.275985        -7.5099
  79   2.0000      -0.256734        -6.9861
  80   2.0000      -0.254176        -6.9165
  81   2.0000      -0.245594        -6.6830
  82   2.0000      -0.238994        -6.5034
  83   2.0000      -0.224495        -6.1088
  84   2.0000      -0.210766        -5.7352
  85   2.0000      -0.179267        -4.8781
  86   2.0000      -0.167305        -4.5526
  87   0.0000      -0.041488        -1.1289
  88   0.0000      -0.031742        -0.8638
  89   0.0000      -0.025521        -0.6945
  90   0.0000      -0.000645        -0.0175
  91   0.0000       0.035212         0.9582

MULLIKEN ATOMIC CHARGES
-----------------------
   0 C :   -0.273964
   1 C :   -0.039506
   2 O :   -0.215112
   3 C :    0.100588
   4 O :   -0.206596
   5 C :   -0.027211
   6 C :   -0.277134
   7 H :    0.145590
   8 C :    0.224072
   9 O :   -0.209319
  10 O :   -0.217592
  11 C :   -0.031568
  12 C :   -0.277002
  13 S :   -0.132473
  14 P :    0.649579
  15 S :   -0.326301
  16 O :   -0.403502
  17 C :   -0.080523
  18 O :   -0.381499
  19 C :   -0.115391
  20 H :    0.110812
  21 H :    0.121571
  22 H :    0.107715
  23 H :    0.098648
  24 H :    0.134169
  25 H :    0.117894
  26 H :    0.122146
  27 H :    0.107749
  28 H :    0.131109
  29 H :    0.115192
  30 H :    0.121072
  31 H :    0.113767
  32 H :    0.112475
  33 H :    0.102091
  34 H :    0.119137
  35 H :    0.123612
  36 H :    0.119031
  37 H :    0.116674
Sum of atomic charges:    0.0000000

LOEWDIN ATOMIC CHARGES
----------------------
   0 C :   -0.350297
   1 C :   -0.110966
   2 O :   -0.042864
   3 C :    0.028002
   4 O :   -0.157316
   5 C :   -0.246551
   6 C :   -0.257672
   7 H :    0.147351
   8 C :    0.028188
   9 O :   -0.145989
  10 O :   -0.035701
  11 C :   -0.102114
  12 C :   -0.350293
  13 S :    0.085355
  14 P :    0.579701
  15 S :   -0.319846
  16 O :   -0.261585
  17 C :   -0.210101
  18 O :   -0.263892
  19 C :   -0.218044
  20 H :    0.130840
  21 H :    0.129968
  22 H :    0.122612
  23 H :    0.113857
  24 H :    0.119109
  25 H :    0.137363
  26 H :    0.147522
  27 H :    0.116704
  28 H :    0.129894
  29 H :    0.133287
  30 H :    0.129667
  31 H :    0.125881
  32 H :    0.113676
  33 H :    0.106473
  34 H :    0.111423
  35 H :    0.121766
  36 H :    0.104060
  37 H :    0.110531

  Mayer bond orders larger than 0.100000
B(  0-C ,  1-C ) :   1.1553 B(  0-C , 20-H ) :   0.9442 B(  0-C , 21-H ) :   0.9483
B(  0-C , 22-H ) :   0.9513 B(  1-C ,  2-O ) :   0.8948 B(  1-C , 23-H ) :   0.9282
B(  1-C , 24-H ) :   0.9131 B(  2-O ,  3-C ) :   1.2736 B(  2-O ,  4-O ) :   0.1014
B(  3-C ,  4-O ) :   1.9521 B(  3-C ,  5-C ) :   1.0083 B(  4-O ,  8-C ) :   0.1104
B(  5-C ,  6-C ) :   1.0226 B(  5-C , 25-H ) :   0.9036 B(  5-C , 26-H ) :   0.8749
B(  6-C ,  7-H ) :   0.8772 B(  6-C ,  8-C ) :   0.9193 B(  6-C , 13-S ) :   1.0483
B(  8-C ,  9-O ) :   1.8767 B(  8-C , 10-O ) :   1.2767 B(  9-O , 14-P ) :   0.1542
B( 10-O , 11-C ) :   0.8885 B( 11-C , 12-C ) :   1.1566 B( 11-C , 27-H ) :   0.9316
B( 11-C , 28-H ) :   0.9243 B( 12-C , 29-H ) :   0.9427 B( 12-C , 30-H ) :   0.9490
B( 12-C , 31-H ) :   0.9506 B( 13-S , 14-P ) :   0.9205 B( 13-S , 15-S ) :   0.1099
B( 14-P , 15-S ) :   1.5967 B( 14-P , 16-O ) :   1.0659 B( 14-P , 18-O ) :   1.0724
B( 16-O , 17-C ) :   0.9343 B( 17-C , 32-H ) :   0.9541 B( 17-C , 33-H ) :   0.9556
B( 17-C , 34-H ) :   0.9351 B( 18-O , 19-C ) :   0.9390 B( 19-C , 35-H ) :   0.9609
B( 19-C , 36-H ) :   0.9415 B( 19-C , 37-H ) :   0.9428

Dispersion correction           -0.052745055
FINAL SINGLE POINT ENERGY     -1979.002463048780

DIPOLE MOMENT
-------------

Method             : SCF
Type of density    : Electron Density
Multiplicity       :   1
Irrep              :   0
Energy             : -1979.1333432801034178 Eh
Relativity type    :
Basis              : AO
                                X                 Y                 Z
Electronic contribution:    -10.032799705      -3.923566453      -2.347482668
Nuclear contribution   :     10.573170345       5.106914528       1.383496327
                        -----------------------------------------
Total Dipole Moment    :      0.540370640       1.183348075      -0.963986341
                        -----------------------------------------
Magnitude (a.u.)       :      1.619130248
Magnitude (Debye)      :      4.115502027

Rotational constants in cm-1:             0.010516             0.009179             0.006400
Rotational constants in MHz :           315.259375           275.189923           191.854256

                             ****ORCA TERMINATED NORMALLY****
TOTAL RUN TIME: 0 days 0 hours 0 minutes 44 seconds 887 msec
