                         Program Version 6.0.0  -   RELEASE  -
|  1> ! pbe def2-sv(p) def2/J RI DEFGRID1 loosescf d4 GCP(DFT/SV(P)) printgap
|  2> %output
|  3>     printlevel normal
|  4> end
|  5> * xyz 0 1
|  6> C 3.5958134425 -1.3038787473 -2.94136832
|  7> C 4.2011550262 -1.0201765338 -1.5829309103
|  8> O 3.4903539615 -0.0025799403 -0.8508449094
|  9> P 1.9411592445 -0.026512997 -0.5163549538
| 10> S 0.7270997791 0.5080719849 -1.9556784712
| 11> O 1.8271803668 0.9959295796 0.6761341186
| 12> C 2.2821406643 0.822621934 2.04019653
| 13> C 3.7367761417 0.420389092 2.147002992
| 14> S 1.60017281 -1.9754235085 0.2548235039
| 15> C -0.2008563466 -1.9150998912 0.1791155083
| 16> S -0.9366343387 -0.963086168 1.5583018675
| 17> P -1.888578044 0.6885179497 0.6547934122
| 18> S -1.0507122479 2.4501004668 0.4983962
| 19> O -3.1514306094 0.8944650253 1.5981975849
| 20> C -3.9885201042 -0.1243838971 2.1945155737
| 21> C -4.680381437 -0.9978842096 1.1685267055
| 22> O -2.3784637597 0.0127724496 -0.7049764297
| 23> C -2.7915506906 0.7921014216 -1.8444010934
| 24> C -2.7437939252 -0.1042365784 -3.0636525889
| 25> H 3.5151278319 -0.3866607482 -3.520170228
| 26> H 4.2237137368 -2.011116942 -3.4735469895
| 27> H 2.5986653707 -1.726513541 -2.8294760055
| 28> H 5.2090103261 -0.6113324733 -1.6728789954
| 29> H 4.2201113423 -1.9268919034 -0.9720671398
| 30> H 2.0975261819 1.8036090549 2.4821796869
| 31> H 1.6345419767 0.0819278989 2.5201390774
| 32> H 3.8831992632 -0.5896437436 1.7697646332
| 33> H 4.3593661146 1.1073726847 1.5795809076
| 34> H 4.028700893 0.4512941582 3.1923357761
| 35> H -0.5505390295 -2.9386602138 0.2800150295
| 36> H -0.5097288521 -1.4677016447 -0.7666644788
| 37> H -3.3725316367 -0.7242308469 2.8685094904
| 38> H -4.7070846224 0.4575967823 2.7743754495
| 39> H -5.3634233153 -1.6679660813 1.681437293
| 40> H -5.2420321178 -0.3847920967 0.4678163302
| 41> H -3.9524812628 -1.5881866158 0.6168718595
| 42> H -3.8019030708 1.1626272689 -1.6515340365
| 43> H -2.1141266575 1.6460315279 -1.9499019468
| 44> H -3.1238993777 0.4446462057 -3.9186270754
| 45> H -1.716640608 -0.4000026909 -3.2618810212
| 46> H -3.3514329364 -0.9894868343 -2.900813693
| 47> *
| 48>
| 49>                          ****END OF INPUT****

CARTESIAN COORDINATES (ANGSTROEM)
---------------------------------
  C      3.595813   -1.303879   -2.941368
  C      4.201155   -1.020177   -1.582931
  O      3.490354   -0.002580   -0.850845
  P      1.941159   -0.026513   -0.516355
  S      0.727100    0.508072   -1.955678
  O      1.827180    0.995930    0.676134
  C      2.282141    0.822622    2.040197
  C      3.736776    0.420389    2.147003
  S      1.600173   -1.975424    0.254824
  C     -0.200856   -1.915100    0.179116
  S     -0.936634   -0.963086    1.558302
  P     -1.888578    0.688518    0.654793
  S     -1.050712    2.450100    0.498396
  O     -3.151431    0.894465    1.598198
  C     -3.988520   -0.124384    2.194516
  C     -4.680381   -0.997884    1.168527
  O     -2.378464    0.012772   -0.704976
  C     -2.791551    0.792101   -1.844401
  C     -2.743794   -0.104237   -3.063653
  H      3.515128   -0.386661   -3.520170
  H      4.223714   -2.011117   -3.473547
  H      2.598665   -1.726514   -2.829476
  H      5.209010   -0.611332   -1.672879
  H      4.220111   -1.926892   -0.972067
  H      2.097526    1.803609    2.482180
  H      1.634542    0.081928    2.520139
  H      3.883199   -0.589644    1.769765
  H      4.359366    1.107373    1.579581
  H      4.028701    0.451294    3.192336
  H     -0.550539   -2.938660    0.280015
  H     -0.509729   -1.467702   -0.766664
  H     -3.372532   -0.724231    2.868509
  H     -4.707085    0.457597    2.774375
  H     -5.363423   -1.667966    1.681437
  H     -5.242032   -0.384792    0.467816
  H     -3.952481   -1.588187    0.616872
  H     -3.801903    1.162627   -1.651534
  H     -2.114127    1.646032   -1.949902
  H     -3.123899    0.444646   -3.918627
  H     -1.716641   -0.400003   -3.261881
  H     -3.351433   -0.989487   -2.900814

 Total Charge           Charge          ....    0
 Multiplicity           Mult            ....    1
 Number of Electrons    NEL             ....  202
 Basis Dimension        Dim             ....  334

ORBITAL ENERGIES
----------------

  NO   OCC          E(Eh)            E(eV)
   0   2.0000     -88.050046     -2395.9636
   1   2.0000     -88.043793     -2395.7934
   2   2.0000     -87.979227     -2394.0365
   3   2.0000     -87.963583     -2393.6108
   4   2.0000     -76.425381     -2079.6403
   5   2.0000     -76.414976     -2079.3572
   6   2.0000     -18.793192      -511.3887
   7   2.0000     -18.784895      -511.1630
   8   2.0000     -18.781691      -511.0758
   9   2.0000     -18.780270      -511.0371
  10   2.0000      -9.962386      -271.0903
  11   2.0000      -9.960874      -271.0492
  12   2.0000      -9.951542      -270.7952
  13   2.0000      -9.946983      -270.6712
  14   2.0000      -9.942414      -270.5468
  15   2.0000      -9.886944      -269.0374
  16   2.0000      -9.884889      -268.9815
  17   2.0000      -9.884409      -268.9684
  18   2.0000      -9.878709      -268.8133
  19   2.0000      -7.695095      -209.3942
  20   2.0000      -7.688881      -209.2251
  21   2.0000      -7.624203      -207.4651
  22   2.0000      -7.608952      -207.0501
  23   2.0000      -6.422400      -174.7624
  24   2.0000      -6.412582      -174.4952
  25   2.0000      -5.722739      -155.7237
  26   2.0000      -5.719437      -155.6338
  27   2.0000      -5.717061      -155.5691
  28   2.0000      -5.712900      -155.4559
  29   2.0000      -5.712482      -155.4445
  30   2.0000      -5.705965      -155.2672
  31   2.0000      -5.653143      -153.8298
  32   2.0000      -5.644925      -153.6062
  33   2.0000      -5.644164      -153.5855
  34   2.0000      -5.638267      -153.4250
  35   2.0000      -5.629554      -153.1880
  36   2.0000      -5.628682      -153.1642
  37   2.0000      -4.645044      -126.3981
  38   2.0000      -4.644734      -126.3896
  39   2.0000      -4.642337      -126.3244
  40   2.0000      -4.635529      -126.1392
  41   2.0000      -4.634517      -126.1116
  42   2.0000      -4.632518      -126.0572
  43   2.0000      -0.984458       -26.7885
  44   2.0000      -0.974070       -26.5058
  45   2.0000      -0.940888       -25.6029
  46   2.0000      -0.936029       -25.4707
  47   2.0000      -0.765669       -20.8349
  48   2.0000      -0.719173       -19.5697
  49   2.0000      -0.709587       -19.3088
  50   2.0000      -0.690128       -18.7793
  51   2.0000      -0.688472       -18.7343
  52   2.0000      -0.674469       -18.3532
  53   2.0000      -0.647334       -17.6149
  54   2.0000      -0.629379       -17.1263
  55   2.0000      -0.591822       -16.1043
  56   2.0000      -0.580748       -15.8029
  57   2.0000      -0.575866       -15.6701
  58   2.0000      -0.574260       -15.6264
  59   2.0000      -0.562891       -15.3171
  60   2.0000      -0.497962       -13.5502
  61   2.0000      -0.491654       -13.3786
  62   2.0000      -0.473628       -12.8881
  63   2.0000      -0.468620       -12.7518
  64   2.0000      -0.455561       -12.3965
  65   2.0000      -0.444007       -12.0820
  66   2.0000      -0.439536       -11.9604
  67   2.0000      -0.433418       -11.7939
  68   2.0000      -0.430593       -11.7170
  69   2.0000      -0.416754       -11.3405
  70   2.0000      -0.410592       -11.1728
  71   2.0000      -0.399811       -10.8794
  72   2.0000      -0.397030       -10.8037
  73   2.0000      -0.390435       -10.6243
  74   2.0000      -0.381934       -10.3930
  75   2.0000      -0.362828        -9.8731
  76   2.0000      -0.357157        -9.7187
  77   2.0000      -0.352037        -9.5794
  78   2.0000      -0.349686        -9.5154
  79   2.0000      -0.347461        -9.4549
  80   2.0000      -0.345168        -9.3925
  81   2.0000      -0.343089        -9.3359
  82   2.0000      -0.342405        -9.3173
  83   2.0000      -0.339218        -9.2306
  84   2.0000      -0.326165        -8.8754
  85   2.0000      -0.317621        -8.6429
  86   2.0000      -0.310991        -8.4625
  87   2.0000      -0.302891        -8.2421
  88   2.0000      -0.296076        -8.0566
  89   2.0000      -0.281263        -7.6536
  90   2.0000      -0.273473        -7.4416
  91   2.0000      -0.269860        -7.3433
  92   2.0000      -0.267688        -7.2841
  93   2.0000      -0.261358        -7.1119
  94   2.0000      -0.255728        -6.9587
  95   2.0000      -0.243361        -6.6222
  96   2.0000      -0.222809        -6.0629
  97   2.0000      -0.202943        -5.5224
  98   2.0000      -0.198575        -5.4035
  99   2.0000      -0.182472        -4.9653
 100   2.0000      -0.167751        -4.5648
 101   0.0000      -0.045376        -1.2347
 102   0.0000      -0.025118        -0.6835
 103   0.0000      -0.022035        -0.5996
 104   0.0000       0.001780         0.0484
 105   0.0000       0.020733         0.5642

MULLIKEN ATOMIC CHARGES
-----------------------
   0 C :   -0.304547
   1 C :   -0.014145
   2 O :   -0.370442
   3 P :    0.600005
   4 S :   -0.304257
   5 O :   -0.335856
   6 C :    0.001446
   7 C :   -0.310920
   8 S :   -0.120894
   9 C :   -0.349642
  10 S :   -0.122075
  11 P :    0.621702
  12 S :   -0.293115
  13 O :   -0.372686
  14 C :   -0.010869
  15 C :   -0.310957
  16 O :   -0.394421
  17 C :   -0.010765
  18 C :   -0.293454
  19 H :    0.129189
  20 H :    0.109979
  21 H :    0.121100
  22 H :    0.111480
  23 H :    0.110421
  24 H :    0.114462
  25 H :    0.113082
  26 H :    0.109426
  27 H :    0.123804
  28 H :    0.113011
  29 H :    0.182351
  30 H :    0.217226
  31 H :    0.111505
  32 H :    0.109049
  33 H :    0.110581
  34 H :    0.117488
  35 H :    0.120172
  36 H :    0.098494
  37 H :    0.124948
  38 H :    0.109095
  39 H :    0.133287
  40 H :    0.105742
Sum of atomic charges:    0.0000000

LOEWDIN ATOMIC CHARGES
----------------------
   0 C :   -0.369595
   1 C :   -0.113970
   2 O :   -0.238978
   3 P :    0.570234
   4 S :   -0.289546
   5 O :   -0.219809
   6 C :   -0.113359
   7 C :   -0.367213
   8 S :    0.062802
   9 C :   -0.473822
  10 S :    0.075840
  11 P :    0.556643
  12 S :   -0.297841
  13 O :   -0.248202
  14 C :   -0.118646
  15 C :   -0.367152
  16 O :   -0.251421
  17 C :   -0.120505
  18 C :   -0.356009
  19 H :    0.131650
  20 H :    0.129448
  21 H :    0.119515
  22 H :    0.122466
  23 H :    0.106536
  24 H :    0.125411
  25 H :    0.104065
  26 H :    0.114342
  27 H :    0.128570
  28 H :    0.131008
  29 H :    0.137026
  30 H :    0.131106
  31 H :    0.106402
  32 H :    0.121361
  33 H :    0.129642
  34 H :    0.125713
  35 H :    0.120343
  36 H :    0.107931
  37 H :    0.112529
  38 H :    0.129947
  39 H :    0.124192
  40 H :    0.121347

  Mayer bond orders larger than 0.100000
B(  0-C ,  1-C ) :   1.1671 B(  0-C , 19-H ) :   0.9423 B(  0-C , 20-H ) :   0.9343
B(  0-C , 21-H ) :   0.9324 B(  1-C ,  2-O ) :   0.9120 B(  1-C , 22-H ) :   0.9337
B(  1-C , 23-H ) :   0.9262 B(  2-O ,  3-P ) :   1.0988 B(  3-P ,  4-S ) :   1.6302
B(  3-P ,  5-O ) :   1.1666 B(  3-P ,  8-S ) :   0.9182 B(  4-S ,  8-S ) :   0.1063
B(  5-O ,  6-C ) :   0.9000 B(  6-C ,  7-C ) :   1.1646 B(  6-C , 24-H ) :   0.9331
B(  6-C , 25-H ) :   0.9137 B(  7-C , 26-H ) :   0.9412 B(  7-C , 27-H ) :   0.9428
B(  7-C , 28-H ) :   0.9368 B(  8-S ,  9-C ) :   1.0146 B(  9-C , 10-S ) :   0.9902
B(  9-C , 29-H ) :   0.9104 B(  9-C , 30-H ) :   0.8513 B( 10-S , 11-P ) :   0.9404
B( 10-S , 12-S ) :   0.1017 B( 11-P , 12-S ) :   1.6933 B( 11-P , 13-O ) :   1.1056
B( 11-P , 16-O ) :   1.0676 B( 13-O , 14-C ) :   0.9142 B( 14-C , 15-C ) :   1.1631
B( 14-C , 31-H ) :   0.9217 B( 14-C , 32-H ) :   0.9349 B( 15-C , 33-H ) :   0.9374
B( 15-C , 34-H ) :   0.9454 B( 15-C , 35-H ) :   0.9374 B( 16-O , 17-C ) :   0.8885
B( 17-C , 18-C ) :   1.1631 B( 17-C , 36-H ) :   0.9306 B( 17-C , 37-H ) :   0.9047
B( 18-C , 38-H ) :   0.9416 B( 18-C , 39-H ) :   0.9408 B( 18-C , 40-H ) :   0.9500

Dispersion correction           -0.068473317
FINAL SINGLE POINT ENERGY     -2929.505097206333

DIPOLE MOMENT
-------------

Method             : SCF
Type of density    : Electron Density
Multiplicity       :   1
Irrep              :   0
Energy             : -2929.6228207135036428 Eh
Relativity type    :
Basis              : AO
                                X                 Y                 Z
Electronic contribution:      2.104950369       8.374335238       6.624961200
Nuclear contribution   :     -1.969953321     -10.187768158      -6.394598038
                        -----------------------------------------
Total Dipole Moment    :      0.134997048      -1.813432920       0.230363162
                        -----------------------------------------
Magnitude (a.u.)       :      1.832984000
Magnitude (Debye)      :      4.659075065

Rotational constants in cm-1:             0.012526             0.005578             0.005050
Rotational constants in MHz :           375.508415           167.225797           151.404408

                             ****ORCA TERMINATED NORMALLY****
TOTAL RUN TIME: 0 days 0 hours 0 minutes 21 seconds 739 msec
