                         Program Version 6.0.0  -   RELEASE  -
|  1> ! pbe def2-sv(p) def2/J RI DEFGRID1 loosescf d4 GCP(DFT/SV(P)) printgap
|  2> %output
|  3>     printlevel normal
|  4> end
|  5> * xyz 0 1
|  6> C 4.6194668993 0.4748169926 -1.5067585869
|  7> C 4.5548679069 0.1421744312 -0.0294715953
|  8> O 3.3562937037 -0.5668476556 0.3077224231
|  9> P 1.91596255 0.1302634835 0.2554071063
| 10> S 1.9676124432 1.9731397604 0.9278307354
| 11> O 1.0609375857 -0.9279319903 1.0664054306
| 12> C 0.8754995906 -0.7904749718 2.4888566428
| 13> C 2.1670279908 -0.9826297886 3.2544556773
| 14> S 1.2782404261 -0.2453095054 -1.7420771035
| 15> C 0.0262811375 -1.5613813839 -1.6053424582
| 16> S -1.6615337836 -1.0279832475 -2.0319901116
| 17> P -2.1638295525 0.0002354103 -0.2464906573
| 18> S -3.9688247425 0.751718143 -0.2182405343
| 19> O -0.9492702839 1.0176226987 -0.0453700381
| 20> C -0.9991452055 2.2694663137 -0.7655440852
| 21> C -1.4088367534 3.3928758399 0.1627096353
| 22> O -1.8027739416 -0.9762331717 0.9501702784
| 23> C -2.8111277422 -1.8382615807 1.5143543789
| 24> C -3.1055987381 -3.0250276637 0.6184374517
| 25> H 4.5228895874 -0.4271874178 -2.1050532797
| 26> H 3.8065227988 1.1538382332 -1.7675222769
| 27> H 5.5661158299 0.9570763595 -1.7279077355
| 28> H 4.5959750474 1.0580194429 0.5701027699
| 29> H 5.3582721164 -0.5327396668 0.2683830435
| 30> H 0.4435602275 0.1955329891 2.6866121579
| 31> H 0.1452085959 -1.5636579903 2.730115822
| 32> H 1.953163839 -0.991125403 4.3187510091
| 33> H 2.6364639658 -1.920806571 2.9700420194
| 34> H 2.8531174583 -0.1647722646 3.0391213288
| 35> H 0.0420485273 -1.9659482769 -0.5984233492
| 36> H 0.2836092109 -2.3112030321 -2.3484548839
| 37> H 0.0090987659 2.4296471282 -1.1547396989
| 38> H -1.6990273775 2.1761276551 -1.6031621886
| 39> H -1.4155037362 4.3262178506 -0.3905448205
| 40> H -2.402918442 3.2044308486 0.5626087446
| 41> H -0.7000851448 3.4671475412 0.9836087702
| 42> H -2.3933239441 -2.1489358309 2.4731485069
| 43> H -3.7180035652 -1.2484938434 1.6823202808
| 44> H -3.8117636705 -3.6807484737 1.1178407131
| 45> H -3.5437016226 -2.6841778007 -0.3188630998
| 46> H -2.1950713032 -3.5781131694 0.402532664
| 47> *
| 48>
| 49>                          ****END OF INPUT****

CARTESIAN COORDINATES (ANGSTROEM)
---------------------------------
  C      4.619467    0.474817   -1.506759
  C      4.554868    0.142174   -0.029472
  O      3.356294   -0.566848    0.307722
  P      1.915963    0.130263    0.255407
  S      1.967612    1.973140    0.927831
  O      1.060938   -0.927932    1.066405
  C      0.875500   -0.790475    2.488857
  C      2.167028   -0.982630    3.254456
  S      1.278240   -0.245310   -1.742077
  C      0.026281   -1.561381   -1.605342
  S     -1.661534   -1.027983   -2.031990
  P     -2.163830    0.000235   -0.246491
  S     -3.968825    0.751718   -0.218241
  O     -0.949270    1.017623   -0.045370
  C     -0.999145    2.269466   -0.765544
  C     -1.408837    3.392876    0.162710
  O     -1.802774   -0.976233    0.950170
  C     -2.811128   -1.838262    1.514354
  C     -3.105599   -3.025028    0.618437
  H      4.522890   -0.427187   -2.105053
  H      3.806523    1.153838   -1.767522
  H      5.566116    0.957076   -1.727908
  H      4.595975    1.058019    0.570103
  H      5.358272   -0.532740    0.268383
  H      0.443560    0.195533    2.686612
  H      0.145209   -1.563658    2.730116
  H      1.953164   -0.991125    4.318751
  H      2.636464   -1.920807    2.970042
  H      2.853117   -0.164772    3.039121
  H      0.042049   -1.965948   -0.598423
  H      0.283609   -2.311203   -2.348455
  H      0.009099    2.429647   -1.154740
  H     -1.699027    2.176128   -1.603162
  H     -1.415504    4.326218   -0.390545
  H     -2.402918    3.204431    0.562609
  H     -0.700085    3.467148    0.983609
  H     -2.393324   -2.148936    2.473149
  H     -3.718004   -1.248494    1.682320
  H     -3.811764   -3.680748    1.117841
  H     -3.543702   -2.684178   -0.318863
  H     -2.195071   -3.578113    0.402533

 Total Charge           Charge          ....    0
 Multiplicity           Mult            ....    1
 Number of Electrons    NEL             ....  202
 Basis Dimension        Dim             ....  334

ORBITAL ENERGIES
----------------

  NO   OCC          E(Eh)            E(eV)
   0   2.0000     -88.045957     -2395.8523
   1   2.0000     -88.044107     -2395.8020
   2   2.0000     -87.991776     -2394.3780
   3   2.0000     -87.990288     -2394.3375
   4   2.0000     -76.430464     -2079.7787
   5   2.0000     -76.427787     -2079.7058
   6   2.0000     -18.797557      -511.5075
   7   2.0000     -18.797081      -511.4946
   8   2.0000     -18.789311      -511.2831
   9   2.0000     -18.788520      -511.2616
  10   2.0000      -9.962373      -271.0900
  11   2.0000      -9.957680      -270.9623
  12   2.0000      -9.954235      -270.8685
  13   2.0000      -9.950825      -270.7757
  14   2.0000      -9.938717      -270.4463
  15   2.0000      -9.889731      -269.1133
  16   2.0000      -9.886094      -269.0143
  17   2.0000      -9.885175      -268.9893
  18   2.0000      -9.867198      -268.5001
  19   2.0000      -7.691094      -209.2853
  20   2.0000      -7.689009      -209.2286
  21   2.0000      -7.636580      -207.8019
  22   2.0000      -7.635479      -207.7720
  23   2.0000      -6.427691      -174.9064
  24   2.0000      -6.425517      -174.8472
  25   2.0000      -5.719139      -155.6257
  26   2.0000      -5.717502      -155.5811
  27   2.0000      -5.715319      -155.5217
  28   2.0000      -5.713301      -155.4668
  29   2.0000      -5.708220      -155.3286
  30   2.0000      -5.705572      -155.2565
  31   2.0000      -5.665563      -154.1678
  32   2.0000      -5.664469      -154.1380
  33   2.0000      -5.657566      -153.9502
  34   2.0000      -5.656304      -153.9159
  35   2.0000      -5.656012      -153.9079
  36   2.0000      -5.655652      -153.8981
  37   2.0000      -4.650259      -126.5400
  38   2.0000      -4.649495      -126.5192
  39   2.0000      -4.648206      -126.4841
  40   2.0000      -4.647954      -126.4773
  41   2.0000      -4.647584      -126.4672
  42   2.0000      -4.645779      -126.4181
  43   2.0000      -0.991484       -26.9797
  44   2.0000      -0.987729       -26.8775
  45   2.0000      -0.946949       -25.7678
  46   2.0000      -0.945861       -25.7382
  47   2.0000      -0.762251       -20.7419
  48   2.0000      -0.721464       -19.6320
  49   2.0000      -0.708665       -19.2837
  50   2.0000      -0.688231       -18.7277
  51   2.0000      -0.683145       -18.5893
  52   2.0000      -0.672802       -18.3079
  53   2.0000      -0.659388       -17.9429
  54   2.0000      -0.641829       -17.4650
  55   2.0000      -0.601486       -16.3673
  56   2.0000      -0.595830       -16.2134
  57   2.0000      -0.574573       -15.6349
  58   2.0000      -0.567693       -15.4477
  59   2.0000      -0.557488       -15.1700
  60   2.0000      -0.499304       -13.5868
  61   2.0000      -0.493914       -13.4401
  62   2.0000      -0.475343       -12.9347
  63   2.0000      -0.474210       -12.9039
  64   2.0000      -0.462993       -12.5987
  65   2.0000      -0.449391       -12.2285
  66   2.0000      -0.441550       -12.0152
  67   2.0000      -0.437142       -11.8952
  68   2.0000      -0.423313       -11.5189
  69   2.0000      -0.421059       -11.4576
  70   2.0000      -0.412488       -11.2244
  71   2.0000      -0.397575       -10.8186
  72   2.0000      -0.395401       -10.7594
  73   2.0000      -0.392334       -10.6759
  74   2.0000      -0.386012       -10.5039
  75   2.0000      -0.377684       -10.2773
  76   2.0000      -0.368347       -10.0232
  77   2.0000      -0.357169        -9.7191
  78   2.0000      -0.355562        -9.6753
  79   2.0000      -0.350554        -9.5391
  80   2.0000      -0.346946        -9.4409
  81   2.0000      -0.345993        -9.4150
  82   2.0000      -0.334545        -9.1034
  83   2.0000      -0.333488        -9.0747
  84   2.0000      -0.326878        -8.8948
  85   2.0000      -0.323305        -8.7976
  86   2.0000      -0.314177        -8.5492
  87   2.0000      -0.300856        -8.1867
  88   2.0000      -0.297702        -8.1009
  89   2.0000      -0.290703        -7.9104
  90   2.0000      -0.287544        -7.8245
  91   2.0000      -0.274665        -7.4740
  92   2.0000      -0.270026        -7.3478
  93   2.0000      -0.265702        -7.2301
  94   2.0000      -0.254697        -6.9306
  95   2.0000      -0.237520        -6.4633
  96   2.0000      -0.221096        -6.0163
  97   2.0000      -0.211514        -5.7556
  98   2.0000      -0.208838        -5.6828
  99   2.0000      -0.207784        -5.6541
 100   2.0000      -0.199466        -5.4278
 101   0.0000      -0.048846        -1.3292
 102   0.0000      -0.035055        -0.9539
 103   0.0000      -0.024690        -0.6719
 104   0.0000      -0.006217        -0.1692
 105   0.0000       0.008295         0.2257

MULLIKEN ATOMIC CHARGES
-----------------------
   0 C :   -0.313537
   1 C :   -0.008596
   2 O :   -0.370659
   3 P :    0.638856
   4 S :   -0.318547
   5 O :   -0.382062
   6 C :   -0.007598
   7 C :   -0.299792
   8 S :   -0.100000
   9 C :   -0.355204
  10 S :   -0.076582
  11 P :    0.583412
  12 S :   -0.307095
  13 O :   -0.368438
  14 C :   -0.010748
  15 C :   -0.276619
  16 O :   -0.365450
  17 C :   -0.013886
  18 C :   -0.314149
  19 H :    0.119814
  20 H :    0.121569
  21 H :    0.114350
  22 H :    0.109291
  23 H :    0.103792
  24 H :    0.118406
  25 H :    0.103459
  26 H :    0.111715
  27 H :    0.114767
  28 H :    0.124996
  29 H :    0.212234
  30 H :    0.185733
  31 H :    0.106451
  32 H :    0.099927
  33 H :    0.102614
  34 H :    0.113419
  35 H :    0.118330
  36 H :    0.108268
  37 H :    0.117903
  38 H :    0.115068
  39 H :    0.130737
  40 H :    0.113849
Sum of atomic charges:    0.0000000

LOEWDIN ATOMIC CHARGES
----------------------
   0 C :   -0.367747
   1 C :   -0.125046
   2 O :   -0.250639
   3 P :    0.588464
   4 S :   -0.295821
   5 O :   -0.233626
   6 C :   -0.116045
   7 C :   -0.366307
   8 S :    0.086336
   9 C :   -0.477272
  10 S :    0.078213
  11 P :    0.570563
  12 S :   -0.307414
  13 O :   -0.242511
  14 C :   -0.131358
  15 C :   -0.360610
  16 O :   -0.232281
  17 C :   -0.121181
  18 C :   -0.366438
  19 H :    0.125054
  20 H :    0.116853
  21 H :    0.131467
  22 H :    0.106766
  23 H :    0.118180
  24 H :    0.115171
  25 H :    0.114929
  26 H :    0.130704
  27 H :    0.126030
  28 H :    0.122964
  29 H :    0.135994
  30 H :    0.140717
  31 H :    0.106414
  32 H :    0.104258
  33 H :    0.127554
  34 H :    0.120439
  35 H :    0.122561
  36 H :    0.114673
  37 H :    0.111535
  38 H :    0.132213
  39 H :    0.123481
  40 H :    0.122759

  Mayer bond orders larger than 0.100000
B(  0-C ,  1-C ) :   1.1633 B(  0-C , 19-H ) :   0.9437 B(  0-C , 20-H ) :   0.9342
B(  0-C , 21-H ) :   0.9389 B(  1-C ,  2-O ) :   0.9231 B(  1-C , 22-H ) :   0.9118
B(  1-C , 23-H ) :   0.9321 B(  2-O ,  3-P ) :   1.0772 B(  3-P ,  4-S ) :   1.6035
B(  3-P ,  5-O ) :   1.1168 B(  3-P ,  8-S ) :   0.9500 B(  5-O ,  6-C ) :   0.8890
B(  6-C ,  7-C ) :   1.1615 B(  6-C , 24-H ) :   0.9201 B(  6-C , 25-H ) :   0.9291
B(  7-C , 26-H ) :   0.9385 B(  7-C , 27-H ) :   0.9439 B(  7-C , 28-H ) :   0.9336
B(  8-S ,  9-C ) :   0.9968 B(  9-C , 10-S ) :   0.9792 B(  9-C , 29-H ) :   0.8724
B(  9-C , 30-H ) :   0.9096 B( 10-S , 11-P ) :   0.9763 B( 11-P , 12-S ) :   1.6438
B( 11-P , 13-O ) :   1.0998 B( 11-P , 16-O ) :   1.0885 B( 13-O , 14-C ) :   0.8803
B( 14-C , 15-C ) :   1.1745 B( 14-C , 31-H ) :   0.9095 B( 14-C , 32-H ) :   0.9071
B( 15-C , 33-H ) :   0.9407 B( 15-C , 34-H ) :   0.9370 B( 15-C , 35-H ) :   0.9413
B( 16-O , 17-C ) :   0.9094 B( 17-C , 18-C ) :   1.1636 B( 17-C , 36-H ) :   0.9266
B( 17-C , 37-H ) :   0.9096 B( 18-C , 38-H ) :   0.9385 B( 18-C , 39-H ) :   0.9360
B( 18-C , 40-H ) :   0.9462

Dispersion correction           -0.069187557
FINAL SINGLE POINT ENERGY     -2929.516959617294

DIPOLE MOMENT
-------------

Method             : SCF
Type of density    : Electron Density
Multiplicity       :   1
Irrep              :   0
Energy             : -2929.6381423340380934 Eh
Relativity type    :
Basis              : AO
                                X                 Y                 Z
Electronic contribution:     -9.014887137       2.818222859     -10.709107861
Nuclear contribution   :     10.012707806      -4.167254892      11.176022640
                        -----------------------------------------
Total Dipole Moment    :      0.997820669      -1.349032033       0.466914779
                        -----------------------------------------
Magnitude (a.u.)       :      1.741706900
Magnitude (Debye)      :      4.427067114

Rotational constants in cm-1:             0.012021             0.005654             0.005460
Rotational constants in MHz :           360.378381           169.507517           163.692230

                             ****ORCA TERMINATED NORMALLY****
TOTAL RUN TIME: 0 days 0 hours 0 minutes 22 seconds 491 msec
